  16  16   0  16
  0.2012733E+02  0.4979000E-09  0.4979000E-09  0.1500000E-08  0.5000000E-15
  1.000000000000000E-004
  CAR 
 Lattice                                 
      9.77829529    -21.13280498  301     -0.31445681      1.00000000
    -21.133  0.0000E+00  0.0000E+00
    -21.030  0.0000E+00  0.0000E+00
    -20.927  0.0000E+00  0.0000E+00
    -20.824  0.0000E+00  0.0000E+00
    -20.721  0.0000E+00  0.0000E+00
    -20.618  0.0000E+00  0.0000E+00
    -20.515  0.0000E+00  0.0000E+00
    -20.412  0.0000E+00  0.0000E+00
    -20.309  0.5846E-19  0.6023E-20
    -20.205  0.4108E-14  0.4233E-15
    -20.102  0.3759E-10  0.3874E-11
    -19.999  0.4833E-07  0.4984E-08
    -19.896  0.9460E-05  0.9797E-06
    -19.793  0.3107E-03  0.3299E-04
    -19.690  0.2079E-02  0.2472E-03
    -19.587  0.4305E-02  0.6908E-03
    -19.484  0.4765E-02  0.1182E-02
    -19.381  0.5106E-02  0.1708E-02
    -19.278  0.4448E-02  0.2166E-02
    -19.175  0.5579E-02  0.2741E-02
    -19.072  0.4350E-02  0.3189E-02
    -18.969  0.4690E-02  0.3672E-02
    -18.866  0.6123E-02  0.4303E-02
    -18.763  0.3844E-02  0.4699E-02
    -18.660  0.4435E-02  0.5156E-02
    -18.557  0.6370E-02  0.5813E-02
    -18.454  0.5135E-02  0.6342E-02
    -18.351  0.3030E-02  0.6654E-02
    -18.248  0.5310E-02  0.7201E-02
    -18.145  0.6898E-02  0.7912E-02
    -18.042  0.4521E-02  0.8378E-02
    -17.939  0.3724E-02  0.8761E-02
    -17.836  0.3755E-02  0.9148E-02
    -17.733  0.7461E-02  0.9917E-02
    -17.630  0.6112E-02  0.1055E-01
    -17.527  0.3291E-02  0.1089E-01
    -17.423  0.3821E-02  0.1128E-01
    -17.320  0.4724E-02  0.1177E-01
    -17.217  0.7158E-02  0.1250E-01
    -17.114  0.6363E-02  0.1316E-01
    -17.011  0.4244E-02  0.1360E-01
    -16.908  0.2297E-02  0.1383E-01
    -16.805  0.4925E-02  0.1434E-01
    -16.702  0.7251E-02  0.1509E-01
    -16.599  0.6361E-02  0.1574E-01
    -16.496  0.5209E-02  0.1628E-01
    -16.393  0.4420E-02  0.1674E-01
    -16.290  0.2498E-02  0.1699E-01
    -16.187  0.4247E-02  0.1743E-01
    -16.084  0.9237E-02  0.1838E-01
    -15.981  0.6854E-02  0.1909E-01
    -15.878  0.7921E-02  0.1990E-01
    -15.775  0.9803E-02  0.2091E-01
    -15.672  0.1054E-01  0.2200E-01
    -15.569  0.9736E-02  0.2300E-01
    -15.466  0.1386E-01  0.2443E-01
    -15.363  0.1605E-01  0.2609E-01
    -15.260  0.1305E-01  0.2743E-01
    -15.157  0.1230E-01  0.2870E-01
    -15.054  0.1437E-01  0.3018E-01
    -14.951  0.1121E-01  0.3133E-01
    -14.848  0.1031E-01  0.3240E-01
    -14.745  0.1133E-01  0.3356E-01
    -14.641  0.1057E-01  0.3465E-01
    -14.538  0.8332E-02  0.3551E-01
    -14.435  0.8133E-02  0.3635E-01
    -14.332  0.7258E-02  0.3710E-01
    -14.229  0.9725E-02  0.3810E-01
    -14.126  0.1667E-01  0.3982E-01
    -14.023  0.1228E-01  0.4108E-01
    -13.920  0.5717E-02  0.4167E-01
    -13.817  0.5373E-02  0.4222E-01
    -13.714  0.4761E-02  0.4272E-01
    -13.611  0.4379E-02  0.4317E-01
    -13.508  0.7517E-02  0.4394E-01
    -13.405  0.9200E-02  0.4489E-01
    -13.302  0.6688E-02  0.4558E-01
    -13.199  0.5987E-02  0.4620E-01
    -13.096  0.7485E-02  0.4697E-01
    -12.993  0.8629E-02  0.4786E-01
    -12.890  0.6648E-02  0.4854E-01
    -12.787  0.8138E-02  0.4938E-01
    -12.684  0.8711E-02  0.5028E-01
    -12.581  0.1052E-01  0.5136E-01
    -12.478  0.1410E-01  0.5281E-01
    -12.375  0.1073E-01  0.5392E-01
    -12.272  0.1384E-01  0.5535E-01
    -12.169  0.1228E-01  0.5661E-01
    -12.066  0.1299E-01  0.5795E-01
    -11.963  0.2019E-01  0.6003E-01
    -11.859  0.1635E-01  0.6171E-01
    -11.756  0.1199E-01  0.6295E-01
    -11.653  0.1126E-01  0.6411E-01
    -11.550  0.1067E-01  0.6521E-01
    -11.447  0.8131E-02  0.6605E-01
    -11.344  0.4606E-02  0.6652E-01
    -11.241  0.3154E-02  0.6685E-01
    -11.138  0.4993E-02  0.6736E-01
    -11.035  0.5586E-02  0.6794E-01
    -10.932  0.6197E-02  0.6858E-01
    -10.829  0.6971E-02  0.6929E-01
    -10.726  0.8902E-02  0.7021E-01
    -10.623  0.8553E-02  0.7109E-01
    -10.520  0.1342E-01  0.7248E-01
    -10.417  0.2109E-01  0.7465E-01
    -10.314  0.1659E-01  0.7636E-01
    -10.211  0.6396E-02  0.7702E-01
    -10.108  0.3726E-02  0.7740E-01
    -10.005  0.1074E-01  0.7851E-01
     -9.902  0.1895E-01  0.8046E-01
     -9.799  0.1021E-01  0.8151E-01
     -9.696  0.4668E-02  0.8199E-01
     -9.593  0.6531E-02  0.8267E-01
     -9.490  0.1314E-01  0.8402E-01
     -9.387  0.1982E-01  0.8606E-01
     -9.284  0.1568E-01  0.8768E-01
     -9.181  0.1786E-01  0.8952E-01
     -9.077  0.1489E-01  0.9105E-01
     -8.974  0.1143E-01  0.9223E-01
     -8.871  0.1483E-01  0.9376E-01
     -8.768  0.1721E-01  0.9553E-01
     -8.665  0.1413E-01  0.9699E-01
     -8.562  0.9665E-02  0.9798E-01
     -8.459  0.1382E-01  0.9941E-01
     -8.356  0.2125E-01  0.1016E+00
     -8.253  0.1592E-01  0.1032E+00
     -8.150  0.8265E-02  0.1041E+00
     -8.047  0.1354E-01  0.1055E+00
     -7.944  0.1418E-01  0.1069E+00
     -7.841  0.1777E-01  0.1088E+00
     -7.738  0.2574E-01  0.1114E+00
     -7.635  0.1831E-01  0.1133E+00
     -7.532  0.1383E-01  0.1147E+00
     -7.429  0.1508E-01  0.1163E+00
     -7.326  0.2019E-01  0.1184E+00
     -7.223  0.1950E-01  0.1204E+00
     -7.120  0.1484E-01  0.1219E+00
     -7.017  0.1481E-01  0.1234E+00
     -6.914  0.1817E-01  0.1253E+00
     -6.811  0.2454E-01  0.1278E+00
     -6.708  0.2550E-01  0.1305E+00
     -6.605  0.2756E-01  0.1333E+00
     -6.502  0.2465E-01  0.1358E+00
     -6.399  0.2646E-01  0.1386E+00
     -6.295  0.2772E-01  0.1414E+00
     -6.192  0.2231E-01  0.1437E+00
     -6.089  0.1697E-01  0.1455E+00
     -5.986  0.1528E-01  0.1471E+00
     -5.883  0.1593E-01  0.1487E+00
     -5.780  0.1633E-01  0.1504E+00
     -5.677  0.1913E-01  0.1523E+00
     -5.574  0.1365E-01  0.1538E+00
     -5.471  0.8280E-02  0.1546E+00
     -5.368  0.1407E-01  0.1561E+00
     -5.265  0.1906E-01  0.1580E+00
     -5.162  0.1673E-01  0.1597E+00
     -5.059  0.1203E-01  0.1610E+00
     -4.956  0.1562E-01  0.1626E+00
     -4.853  0.1828E-01  0.1645E+00
     -4.750  0.1169E-01  0.1657E+00
     -4.647  0.1030E-01  0.1667E+00
     -4.544  0.1403E-01  0.1682E+00
     -4.441  0.1923E-01  0.1702E+00
     -4.338  0.1784E-01  0.1720E+00
     -4.235  0.1722E-01  0.1738E+00
     -4.132  0.1946E-01  0.1758E+00
     -4.029  0.1996E-01  0.1778E+00
     -3.926  0.2215E-01  0.1801E+00
     -3.823  0.2462E-01  0.1827E+00
     -3.720  0.2797E-01  0.1855E+00
     -3.617  0.2873E-01  0.1885E+00
     -3.513  0.2258E-01  0.1908E+00
     -3.410  0.1439E-01  0.1923E+00
     -3.307  0.1274E-01  0.1936E+00
     -3.204  0.1370E-01  0.1950E+00
     -3.101  0.1161E-01  0.1962E+00
     -2.998  0.1340E-01  0.1976E+00
     -2.895  0.1539E-01  0.1992E+00
     -2.792  0.1121E-01  0.2004E+00
     -2.689  0.8150E-02  0.2012E+00
     -2.586  0.9767E-02  0.2022E+00
     -2.483  0.1831E-01  0.2041E+00
     -2.380  0.1636E-01  0.2058E+00
     -2.277  0.6581E-02  0.2065E+00
     -2.174  0.7096E-02  0.2072E+00
     -2.071  0.9479E-02  0.2082E+00
     -1.968  0.8949E-02  0.2091E+00
     -1.865  0.9482E-02  0.2101E+00
     -1.762  0.9227E-02  0.2110E+00
     -1.659  0.6363E-02  0.2117E+00
     -1.556  0.6847E-02  0.2124E+00
     -1.453  0.1041E-01  0.2134E+00
     -1.350  0.6681E-02  0.2141E+00
     -1.247  0.4819E-02  0.2146E+00
     -1.144  0.7600E-02  0.2154E+00
     -1.041  0.6293E-02  0.2161E+00
     -0.938  0.6384E-02  0.2167E+00
     -0.835  0.5240E-02  0.2173E+00
     -0.731  0.2345E-02  0.2175E+00
     -0.628  0.1277E-02  0.2176E+00
     -0.525  0.3574E-02  0.2180E+00
     -0.422  0.4211E-02  0.2184E+00
     -0.319  0.2970E-02  0.2187E+00
     -0.216  0.1919E-02  0.2189E+00
     -0.113  0.2581E-02  0.2192E+00
     -0.010  0.3321E-02  0.2195E+00
      0.093  0.3433E-02  0.2199E+00
      0.196  0.6353E-02  0.2206E+00
      0.299  0.7804E-02  0.2214E+00
      0.402  0.1007E-01  0.2224E+00
      0.505  0.9858E-02  0.2234E+00
      0.608  0.8012E-02  0.2242E+00
      0.711  0.5932E-02  0.2248E+00
      0.814  0.1015E-01  0.2259E+00
      0.917  0.1018E-01  0.2269E+00
      1.020  0.7303E-02  0.2277E+00
      1.123  0.1012E-01  0.2287E+00
      1.226  0.1635E-01  0.2304E+00
      1.329  0.1751E-01  0.2322E+00
      1.432  0.1351E-01  0.2336E+00
      1.535  0.8704E-02  0.2345E+00
      1.638  0.6062E-02  0.2351E+00
      1.741  0.7774E-02  0.2359E+00
      1.844  0.1073E-01  0.2370E+00
      1.947  0.1049E-01  0.2381E+00
      2.051  0.1308E-01  0.2395E+00
      2.154  0.1202E-01  0.2407E+00
      2.257  0.1157E-01  0.2419E+00
      2.360  0.7581E-02  0.2427E+00
      2.463  0.4668E-02  0.2432E+00
      2.566  0.1163E-01  0.2444E+00
      2.669  0.1496E-01  0.2459E+00
      2.772  0.1277E-01  0.2472E+00
      2.875  0.1290E-01  0.2485E+00
      2.978  0.8656E-02  0.2494E+00
      3.081  0.1095E-01  0.2506E+00
      3.184  0.1639E-01  0.2523E+00
      3.287  0.1861E-01  0.2542E+00
      3.390  0.1854E-01  0.2561E+00
      3.493  0.1403E-01  0.2575E+00
      3.596  0.2002E-01  0.2596E+00
      3.699  0.2215E-01  0.2619E+00
      3.802  0.2008E-01  0.2639E+00
      3.905  0.1902E-01  0.2659E+00
      4.008  0.1747E-01  0.2677E+00
      4.111  0.1791E-01  0.2696E+00
      4.214  0.2329E-01  0.2720E+00
      4.317  0.2682E-01  0.2747E+00
      4.420  0.2210E-01  0.2770E+00
      4.523  0.1620E-01  0.2787E+00
      4.626  0.2584E-01  0.2813E+00
      4.729  0.2870E-01  0.2843E+00
      4.833  0.1903E-01  0.2862E+00
      4.936  0.2140E-01  0.2884E+00
      5.039  0.2790E-01  0.2913E+00
      5.142  0.3242E-01  0.2947E+00
      5.245  0.2926E-01  0.2977E+00
      5.348  0.2621E-01  0.3004E+00
      5.451  0.2112E-01  0.3026E+00
      5.554  0.2561E-01  0.3052E+00
      5.657  0.2952E-01  0.3082E+00
      5.760  0.2521E-01  0.3108E+00
      5.863  0.2237E-01  0.3131E+00
      5.966  0.1768E-01  0.3150E+00
      6.069  0.2372E-01  0.3174E+00
      6.172  0.2323E-01  0.3198E+00
      6.275  0.1744E-01  0.3216E+00
      6.378  0.2033E-01  0.3237E+00
      6.481  0.2229E-01  0.3260E+00
      6.584  0.2465E-01  0.3285E+00
      6.687  0.2880E-01  0.3315E+00
      6.790  0.3047E-01  0.3346E+00
      6.893  0.3056E-01  0.3378E+00
      6.996  0.2625E-01  0.3405E+00
      7.099  0.2421E-01  0.3430E+00
      7.202  0.2967E-01  0.3460E+00
      7.305  0.3377E-01  0.3495E+00
      7.408  0.4248E-01  0.3539E+00
      7.511  0.4015E-01  0.3580E+00
      7.615  0.2845E-01  0.3610E+00
      7.718  0.3249E-01  0.3643E+00
      7.821  0.3541E-01  0.3680E+00
      7.924  0.2758E-01  0.3708E+00
      8.027  0.1877E-01  0.3727E+00
      8.130  0.1532E-01  0.3743E+00
      8.233  0.5656E-02  0.3749E+00
      8.336  0.6271E-03  0.3750E+00
      8.439  0.2840E-03  0.3750E+00
      8.542  0.8866E-04  0.3750E+00
      8.645  0.4471E-05  0.3750E+00
      8.748  0.3215E-07  0.3750E+00
      8.851  0.3069E-10  0.3750E+00
      8.954  0.3736E-14  0.3750E+00
      9.057  0.5846E-19  0.3750E+00
      9.160  0.0000E+00  0.3750E+00
      9.263  0.0000E+00  0.3750E+00
      9.366  0.0000E+00  0.3750E+00
      9.469  0.0000E+00  0.3750E+00
      9.572  0.0000E+00  0.3750E+00
      9.675  0.0000E+00  0.3750E+00
      9.778  0.0000E+00  0.3750E+00
