  15  15   0   4
  0.2165064E+02  0.5000000E-09  0.5000000E-09  0.1500000E-08  0.5000000E-15
  1.000000000000000E-004
  CAR 
 Lattice                                 
     16.65370102    -17.40124532  301      3.90862393      1.00000000
    -17.401  0.0000E+00  0.0000E+00  0.0000E+00  0.0000E+00
    -17.288  0.0000E+00  0.0000E+00  0.0000E+00  0.0000E+00
    -17.174  0.0000E+00  0.0000E+00  0.0000E+00  0.0000E+00
    -17.061  0.0000E+00  0.0000E+00  0.0000E+00  0.0000E+00
    -16.947  0.0000E+00  0.0000E+00  0.0000E+00  0.0000E+00
    -16.834  0.0000E+00  0.0000E+00  0.0000E+00  0.0000E+00
    -16.720  0.0000E+00  0.0000E+00  0.0000E+00  0.0000E+00
    -16.607  0.0000E+00  0.0000E+00  0.0000E+00  0.0000E+00
    -16.493  0.0000E+00  0.0000E+00  0.0000E+00  0.0000E+00
    -16.380  0.2478E-16  0.2478E-16  0.2813E-17  0.2813E-17
    -16.266  0.1444E-11  0.1444E-11  0.1639E-12  0.1639E-12
    -16.153  0.7508E-08  0.7508E-08  0.8524E-09  0.8524E-09
    -16.039  0.3889E-05  0.3889E-05  0.4424E-06  0.4424E-06
    -15.926  0.2294E-03  0.2294E-03  0.2648E-04  0.2648E-04
    -15.812  0.1966E-02  0.1966E-02  0.2496E-03  0.2496E-03
    -15.698  0.4223E-02  0.4223E-02  0.7290E-03  0.7290E-03
    -15.585  0.4588E-02  0.4588E-02  0.1250E-02  0.1250E-02
    -15.471  0.4857E-02  0.4857E-02  0.1801E-02  0.1801E-02
    -15.358  0.4346E-02  0.4346E-02  0.2294E-02  0.2294E-02
    -15.244  0.5375E-02  0.5375E-02  0.2905E-02  0.2905E-02
    -15.131  0.3779E-02  0.3779E-02  0.3334E-02  0.3334E-02
    -15.017  0.5384E-02  0.5384E-02  0.3945E-02  0.3945E-02
    -14.904  0.5125E-02  0.5125E-02  0.4527E-02  0.4527E-02
    -14.790  0.3301E-02  0.3301E-02  0.4901E-02  0.4901E-02
    -14.677  0.5707E-02  0.5707E-02  0.5549E-02  0.5549E-02
    -14.563  0.5666E-02  0.5666E-02  0.6192E-02  0.6192E-02
    -14.450  0.3389E-02  0.3389E-02  0.6577E-02  0.6577E-02
    -14.336  0.4077E-02  0.4077E-02  0.7040E-02  0.7040E-02
    -14.223  0.6672E-02  0.6672E-02  0.7797E-02  0.7797E-02
    -14.109  0.4399E-02  0.4399E-02  0.8296E-02  0.8296E-02
    -13.996  0.3904E-02  0.3904E-02  0.8740E-02  0.8740E-02
    -13.882  0.3435E-02  0.3435E-02  0.9130E-02  0.9130E-02
    -13.769  0.6943E-02  0.6943E-02  0.9918E-02  0.9918E-02
    -13.655  0.5861E-02  0.5861E-02  0.1058E-01  0.1058E-01
    -13.542  0.3009E-02  0.3009E-02  0.1092E-01  0.1092E-01
    -13.428  0.3813E-02  0.3813E-02  0.1136E-01  0.1136E-01
    -13.315  0.4958E-02  0.4958E-02  0.1192E-01  0.1192E-01
    -13.201  0.6905E-02  0.6905E-02  0.1270E-01  0.1270E-01
    -13.088  0.5611E-02  0.5611E-02  0.1334E-01  0.1334E-01
    -12.974  0.3176E-02  0.3176E-02  0.1370E-01  0.1370E-01
    -12.861  0.2709E-02  0.2709E-02  0.1401E-01  0.1401E-01
    -12.747  0.7079E-02  0.7079E-02  0.1481E-01  0.1481E-01
    -12.634  0.1094E-01  0.1094E-01  0.1606E-01  0.1606E-01
    -12.520  0.1276E-01  0.1276E-01  0.1750E-01  0.1750E-01
    -12.407  0.1166E-01  0.1166E-01  0.1883E-01  0.1883E-01
    -12.293  0.1175E-01  0.1175E-01  0.2016E-01  0.2016E-01
    -12.179  0.1519E-01  0.1519E-01  0.2189E-01  0.2189E-01
    -12.066  0.2361E-01  0.2361E-01  0.2457E-01  0.2457E-01
    -11.952  0.1719E-01  0.1719E-01  0.2652E-01  0.2652E-01
    -11.839  0.6353E-02  0.6353E-02  0.2724E-01  0.2724E-01
    -11.725  0.3965E-02  0.3965E-02  0.2769E-01  0.2769E-01
    -11.612  0.4062E-02  0.4062E-02  0.2815E-01  0.2815E-01
    -11.498  0.3364E-02  0.3364E-02  0.2853E-01  0.2853E-01
    -11.385  0.6880E-02  0.6880E-02  0.2931E-01  0.2931E-01
    -11.271  0.8389E-02  0.8389E-02  0.3026E-01  0.3026E-01
    -11.158  0.4636E-02  0.4636E-02  0.3079E-01  0.3079E-01
    -11.044  0.3967E-02  0.3967E-02  0.3124E-01  0.3124E-01
    -10.931  0.3604E-02  0.3604E-02  0.3165E-01  0.3165E-01
    -10.817  0.4486E-02  0.4486E-02  0.3216E-01  0.3216E-01
    -10.704  0.6510E-02  0.6510E-02  0.3290E-01  0.3290E-01
    -10.590  0.8579E-02  0.8579E-02  0.3387E-01  0.3387E-01
    -10.477  0.7746E-02  0.7746E-02  0.3475E-01  0.3475E-01
    -10.363  0.7991E-02  0.7991E-02  0.3566E-01  0.3566E-01
    -10.250  0.1179E-01  0.1179E-01  0.3700E-01  0.3700E-01
    -10.136  0.1414E-01  0.1414E-01  0.3860E-01  0.3860E-01
    -10.023  0.1576E-01  0.1576E-01  0.4039E-01  0.4039E-01
     -9.909  0.1553E-01  0.1553E-01  0.4215E-01  0.4215E-01
     -9.796  0.1000E-01  0.1000E-01  0.4329E-01  0.4329E-01
     -9.682  0.8940E-02  0.8940E-02  0.4430E-01  0.4430E-01
     -9.569  0.8007E-02  0.8007E-02  0.4521E-01  0.4521E-01
     -9.455  0.1138E-01  0.1138E-01  0.4650E-01  0.4650E-01
     -9.342  0.1527E-01  0.1527E-01  0.4824E-01  0.4824E-01
     -9.228  0.1914E-01  0.1914E-01  0.5041E-01  0.5041E-01
     -9.115  0.2109E-01  0.2109E-01  0.5280E-01  0.5280E-01
     -9.001  0.1576E-01  0.1576E-01  0.5459E-01  0.5459E-01
     -8.888  0.1364E-01  0.1364E-01  0.5614E-01  0.5614E-01
     -8.774  0.1117E-01  0.1117E-01  0.5741E-01  0.5741E-01
     -8.660  0.5883E-02  0.5883E-02  0.5808E-01  0.5808E-01
     -8.547  0.5719E-02  0.5719E-02  0.5873E-01  0.5873E-01
     -8.433  0.6856E-02  0.6856E-02  0.5950E-01  0.5950E-01
     -8.320  0.6457E-02  0.6457E-02  0.6024E-01  0.6024E-01
     -8.206  0.6548E-02  0.6548E-02  0.6098E-01  0.6098E-01
     -8.093  0.5402E-02  0.5402E-02  0.6159E-01  0.6159E-01
     -7.979  0.4582E-02  0.4582E-02  0.6211E-01  0.6211E-01
     -7.866  0.6144E-02  0.6144E-02  0.6281E-01  0.6281E-01
     -7.752  0.6224E-02  0.6224E-02  0.6352E-01  0.6352E-01
     -7.639  0.4801E-02  0.4801E-02  0.6406E-01  0.6406E-01
     -7.525  0.3522E-02  0.3522E-02  0.6446E-01  0.6446E-01
     -7.412  0.4468E-02  0.4468E-02  0.6497E-01  0.6497E-01
     -7.298  0.5558E-02  0.5558E-02  0.6560E-01  0.6560E-01
     -7.185  0.5081E-02  0.5081E-02  0.6618E-01  0.6618E-01
     -7.071  0.4016E-02  0.4016E-02  0.6663E-01  0.6663E-01
     -6.958  0.3520E-02  0.3520E-02  0.6703E-01  0.6703E-01
     -6.844  0.4514E-02  0.4514E-02  0.6755E-01  0.6755E-01
     -6.731  0.5524E-02  0.5524E-02  0.6817E-01  0.6817E-01
     -6.617  0.6196E-02  0.6196E-02  0.6888E-01  0.6888E-01
     -6.504  0.5441E-02  0.5441E-02  0.6949E-01  0.6949E-01
     -6.390  0.4978E-02  0.4978E-02  0.7006E-01  0.7006E-01
     -6.277  0.4782E-02  0.4782E-02  0.7060E-01  0.7060E-01
     -6.163  0.6253E-02  0.6253E-02  0.7131E-01  0.7131E-01
     -6.050  0.7996E-02  0.7996E-02  0.7222E-01  0.7222E-01
     -5.936  0.1043E-01  0.1043E-01  0.7340E-01  0.7340E-01
     -5.823  0.1455E-01  0.1455E-01  0.7505E-01  0.7505E-01
     -5.709  0.1649E-01  0.1649E-01  0.7693E-01  0.7693E-01
     -5.596  0.1580E-01  0.1580E-01  0.7872E-01  0.7872E-01
     -5.482  0.1709E-01  0.1709E-01  0.8066E-01  0.8066E-01
     -5.368  0.1239E-01  0.1239E-01  0.8207E-01  0.8207E-01
     -5.255  0.8476E-02  0.8476E-02  0.8303E-01  0.8303E-01
     -5.141  0.1405E-01  0.1405E-01  0.8462E-01  0.8462E-01
     -5.028  0.1997E-01  0.1997E-01  0.8689E-01  0.8689E-01
     -4.914  0.1325E-01  0.1325E-01  0.8839E-01  0.8839E-01
     -4.801  0.9419E-02  0.9419E-02  0.8946E-01  0.8946E-01
     -4.687  0.1605E-01  0.1605E-01  0.9129E-01  0.9129E-01
     -4.574  0.1539E-01  0.1539E-01  0.9303E-01  0.9303E-01
     -4.460  0.9841E-02  0.9841E-02  0.9415E-01  0.9415E-01
     -4.347  0.1063E-01  0.1063E-01  0.9536E-01  0.9536E-01
     -4.233  0.2095E-01  0.2095E-01  0.9774E-01  0.9774E-01
     -4.120  0.2168E-01  0.2168E-01  0.1002E+00  0.1002E+00
     -4.006  0.1341E-01  0.1341E-01  0.1017E+00  0.1017E+00
     -3.893  0.1475E-01  0.1475E-01  0.1034E+00  0.1034E+00
     -3.779  0.2000E-01  0.2000E-01  0.1057E+00  0.1057E+00
     -3.666  0.1741E-01  0.1741E-01  0.1076E+00  0.1076E+00
     -3.552  0.1841E-01  0.1841E-01  0.1097E+00  0.1097E+00
     -3.439  0.2312E-01  0.2312E-01  0.1124E+00  0.1124E+00
     -3.325  0.2249E-01  0.2249E-01  0.1149E+00  0.1149E+00
     -3.212  0.2165E-01  0.2165E-01  0.1174E+00  0.1174E+00
     -3.098  0.1425E-01  0.1425E-01  0.1190E+00  0.1190E+00
     -2.985  0.1235E-01  0.1235E-01  0.1204E+00  0.1204E+00
     -2.871  0.1625E-01  0.1625E-01  0.1222E+00  0.1222E+00
     -2.758  0.1671E-01  0.1671E-01  0.1241E+00  0.1241E+00
     -2.644  0.1366E-01  0.1366E-01  0.1257E+00  0.1257E+00
     -2.531  0.1499E-01  0.1499E-01  0.1274E+00  0.1274E+00
     -2.417  0.1923E-01  0.1923E-01  0.1296E+00  0.1296E+00
     -2.304  0.1684E-01  0.1684E-01  0.1315E+00  0.1315E+00
     -2.190  0.1468E-01  0.1468E-01  0.1331E+00  0.1331E+00
     -2.077  0.1388E-01  0.1388E-01  0.1347E+00  0.1347E+00
     -1.963  0.1200E-01  0.1200E-01  0.1361E+00  0.1361E+00
     -1.849  0.1326E-01  0.1326E-01  0.1376E+00  0.1376E+00
     -1.736  0.1719E-01  0.1719E-01  0.1395E+00  0.1395E+00
     -1.622  0.2014E-01  0.2014E-01  0.1418E+00  0.1418E+00
     -1.509  0.2028E-01  0.2028E-01  0.1441E+00  0.1441E+00
     -1.395  0.2389E-01  0.2389E-01  0.1468E+00  0.1468E+00
     -1.282  0.2965E-01  0.2965E-01  0.1502E+00  0.1502E+00
     -1.168  0.2706E-01  0.2706E-01  0.1533E+00  0.1533E+00
     -1.055  0.1800E-01  0.1800E-01  0.1553E+00  0.1553E+00
     -0.941  0.1713E-01  0.1713E-01  0.1573E+00  0.1573E+00
     -0.828  0.2735E-01  0.2735E-01  0.1604E+00  0.1604E+00
     -0.714  0.3197E-01  0.3197E-01  0.1640E+00  0.1640E+00
     -0.601  0.2185E-01  0.2185E-01  0.1665E+00  0.1665E+00
     -0.487  0.1511E-01  0.1511E-01  0.1682E+00  0.1682E+00
     -0.374  0.1247E-01  0.1247E-01  0.1696E+00  0.1696E+00
     -0.260  0.2113E-01  0.2113E-01  0.1720E+00  0.1720E+00
     -0.147  0.1880E-01  0.1880E-01  0.1741E+00  0.1741E+00
     -0.033  0.8281E-02  0.8281E-02  0.1751E+00  0.1751E+00
      0.080  0.6395E-02  0.6395E-02  0.1758E+00  0.1758E+00
      0.194  0.1280E-01  0.1280E-01  0.1773E+00  0.1773E+00
      0.307  0.2121E-01  0.2121E-01  0.1797E+00  0.1797E+00
      0.421  0.2444E-01  0.2444E-01  0.1824E+00  0.1824E+00
      0.534  0.2357E-01  0.2357E-01  0.1851E+00  0.1851E+00
      0.648  0.1689E-01  0.1689E-01  0.1870E+00  0.1870E+00
      0.761  0.1263E-01  0.1263E-01  0.1885E+00  0.1885E+00
      0.875  0.1217E-01  0.1217E-01  0.1898E+00  0.1898E+00
      0.988  0.1839E-01  0.1839E-01  0.1919E+00  0.1919E+00
      1.102  0.1903E-01  0.1903E-01  0.1941E+00  0.1941E+00
      1.215  0.1869E-01  0.1869E-01  0.1962E+00  0.1962E+00
      1.329  0.1728E-01  0.1728E-01  0.1982E+00  0.1982E+00
      1.442  0.1395E-01  0.1395E-01  0.1998E+00  0.1998E+00
      1.556  0.1076E-01  0.1076E-01  0.2010E+00  0.2010E+00
      1.670  0.1543E-01  0.1543E-01  0.2027E+00  0.2027E+00
      1.783  0.1685E-01  0.1685E-01  0.2046E+00  0.2046E+00
      1.897  0.9419E-02  0.9419E-02  0.2057E+00  0.2057E+00
      2.010  0.7827E-02  0.7827E-02  0.2066E+00  0.2066E+00
      2.124  0.8431E-02  0.8431E-02  0.2076E+00  0.2076E+00
      2.237  0.7531E-02  0.7531E-02  0.2084E+00  0.2084E+00
      2.351  0.5869E-02  0.5869E-02  0.2091E+00  0.2091E+00
      2.464  0.4704E-02  0.4704E-02  0.2096E+00  0.2096E+00
      2.578  0.7234E-02  0.7234E-02  0.2104E+00  0.2104E+00
      2.691  0.1218E-01  0.1218E-01  0.2118E+00  0.2118E+00
      2.805  0.1154E-01  0.1154E-01  0.2131E+00  0.2131E+00
      2.918  0.9389E-02  0.9389E-02  0.2142E+00  0.2142E+00
      3.032  0.9361E-02  0.9361E-02  0.2153E+00  0.2153E+00
      3.145  0.9295E-02  0.9295E-02  0.2163E+00  0.2163E+00
      3.259  0.6573E-02  0.6573E-02  0.2171E+00  0.2171E+00
      3.372  0.5962E-02  0.5962E-02  0.2177E+00  0.2177E+00
      3.486  0.4864E-02  0.4864E-02  0.2183E+00  0.2183E+00
      3.599  0.2602E-02  0.2602E-02  0.2186E+00  0.2186E+00
      3.713  0.8719E-03  0.8719E-03  0.2187E+00  0.2187E+00
      3.826  0.5212E-03  0.5212E-03  0.2187E+00  0.2187E+00
      3.940  0.1103E-03  0.1103E-03  0.2188E+00  0.2188E+00
      4.053  0.3030E-03  0.3030E-03  0.2188E+00  0.2188E+00
      4.167  0.5214E-03  0.5214E-03  0.2188E+00  0.2188E+00
      4.280  0.1442E-03  0.1442E-03  0.2189E+00  0.2189E+00
      4.394  0.4833E-03  0.4833E-03  0.2189E+00  0.2189E+00
      4.507  0.1315E-02  0.1315E-02  0.2191E+00  0.2191E+00
      4.621  0.1631E-02  0.1631E-02  0.2193E+00  0.2193E+00
      4.734  0.2043E-02  0.2043E-02  0.2195E+00  0.2195E+00
      4.848  0.1395E-02  0.1395E-02  0.2196E+00  0.2196E+00
      4.962  0.1884E-02  0.1884E-02  0.2199E+00  0.2199E+00
      5.075  0.4228E-02  0.4228E-02  0.2203E+00  0.2203E+00
      5.189  0.6527E-02  0.6527E-02  0.2211E+00  0.2211E+00
      5.302  0.1088E-01  0.1088E-01  0.2223E+00  0.2223E+00
      5.416  0.1700E-01  0.1700E-01  0.2242E+00  0.2242E+00
      5.529  0.1419E-01  0.1419E-01  0.2259E+00  0.2259E+00
      5.643  0.1015E-01  0.1015E-01  0.2270E+00  0.2270E+00
      5.756  0.6229E-02  0.6229E-02  0.2277E+00  0.2277E+00
      5.870  0.4661E-02  0.4661E-02  0.2282E+00  0.2282E+00
      5.983  0.9932E-02  0.9932E-02  0.2294E+00  0.2294E+00
      6.097  0.1081E-01  0.1081E-01  0.2306E+00  0.2306E+00
      6.210  0.9270E-02  0.9270E-02  0.2316E+00  0.2316E+00
      6.324  0.1373E-01  0.1373E-01  0.2332E+00  0.2332E+00
      6.437  0.1311E-01  0.1311E-01  0.2347E+00  0.2347E+00
      6.551  0.8410E-02  0.8410E-02  0.2356E+00  0.2356E+00
      6.664  0.6945E-02  0.6945E-02  0.2364E+00  0.2364E+00
      6.778  0.8049E-02  0.8049E-02  0.2374E+00  0.2374E+00
      6.891  0.1121E-01  0.1121E-01  0.2386E+00  0.2386E+00
      7.005  0.1262E-01  0.1262E-01  0.2401E+00  0.2401E+00
      7.118  0.6135E-02  0.6135E-02  0.2408E+00  0.2408E+00
      7.232  0.4028E-02  0.4028E-02  0.2412E+00  0.2412E+00
      7.345  0.5891E-02  0.5891E-02  0.2419E+00  0.2419E+00
      7.459  0.8228E-02  0.8228E-02  0.2428E+00  0.2428E+00
      7.572  0.9908E-02  0.9908E-02  0.2439E+00  0.2439E+00
      7.686  0.1025E-01  0.1025E-01  0.2451E+00  0.2451E+00
      7.799  0.7663E-02  0.7663E-02  0.2460E+00  0.2460E+00
      7.913  0.4960E-02  0.4960E-02  0.2465E+00  0.2465E+00
      8.026  0.6856E-02  0.6856E-02  0.2473E+00  0.2473E+00
      8.140  0.1541E-01  0.1541E-01  0.2491E+00  0.2491E+00
      8.253  0.2655E-01  0.2655E-01  0.2521E+00  0.2521E+00
      8.367  0.2833E-01  0.2833E-01  0.2553E+00  0.2553E+00
      8.481  0.2180E-01  0.2180E-01  0.2578E+00  0.2578E+00
      8.594  0.1868E-01  0.1868E-01  0.2599E+00  0.2599E+00
      8.708  0.1841E-01  0.1841E-01  0.2620E+00  0.2620E+00
      8.821  0.2156E-01  0.2156E-01  0.2644E+00  0.2644E+00
      8.935  0.2259E-01  0.2259E-01  0.2670E+00  0.2670E+00
      9.048  0.2228E-01  0.2228E-01  0.2695E+00  0.2695E+00
      9.162  0.1515E-01  0.1515E-01  0.2712E+00  0.2712E+00
      9.275  0.1283E-01  0.1283E-01  0.2727E+00  0.2727E+00
      9.389  0.1613E-01  0.1613E-01  0.2745E+00  0.2745E+00
      9.502  0.1731E-01  0.1731E-01  0.2765E+00  0.2765E+00
      9.616  0.1893E-01  0.1893E-01  0.2786E+00  0.2786E+00
      9.729  0.1989E-01  0.1989E-01  0.2809E+00  0.2809E+00
      9.843  0.1757E-01  0.1757E-01  0.2829E+00  0.2829E+00
      9.956  0.1945E-01  0.1945E-01  0.2851E+00  0.2851E+00
     10.070  0.1567E-01  0.1567E-01  0.2869E+00  0.2869E+00
     10.183  0.1434E-01  0.1434E-01  0.2885E+00  0.2885E+00
     10.297  0.1200E-01  0.1200E-01  0.2899E+00  0.2899E+00
     10.410  0.1363E-01  0.1363E-01  0.2914E+00  0.2914E+00
     10.524  0.1390E-01  0.1390E-01  0.2930E+00  0.2930E+00
     10.637  0.1470E-01  0.1470E-01  0.2947E+00  0.2947E+00
     10.751  0.1245E-01  0.1245E-01  0.2961E+00  0.2961E+00
     10.864  0.1251E-01  0.1251E-01  0.2975E+00  0.2975E+00
     10.978  0.1504E-01  0.1504E-01  0.2992E+00  0.2992E+00
     11.091  0.1889E-01  0.1889E-01  0.3013E+00  0.3013E+00
     11.205  0.2108E-01  0.2108E-01  0.3037E+00  0.3037E+00
     11.318  0.1723E-01  0.1723E-01  0.3057E+00  0.3057E+00
     11.432  0.1832E-01  0.1832E-01  0.3078E+00  0.3078E+00
     11.545  0.1670E-01  0.1670E-01  0.3097E+00  0.3097E+00
     11.659  0.1688E-01  0.1688E-01  0.3116E+00  0.3116E+00
     11.772  0.1950E-01  0.1950E-01  0.3138E+00  0.3138E+00
     11.886  0.1576E-01  0.1576E-01  0.3156E+00  0.3156E+00
     12.000  0.1775E-01  0.1775E-01  0.3176E+00  0.3176E+00
     12.113  0.1902E-01  0.1902E-01  0.3198E+00  0.3198E+00
     12.227  0.1820E-01  0.1820E-01  0.3218E+00  0.3218E+00
     12.340  0.2314E-01  0.2314E-01  0.3245E+00  0.3245E+00
     12.454  0.2791E-01  0.2791E-01  0.3276E+00  0.3276E+00
     12.567  0.2946E-01  0.2946E-01  0.3310E+00  0.3310E+00
     12.681  0.2672E-01  0.2672E-01  0.3340E+00  0.3340E+00
     12.794  0.2696E-01  0.2696E-01  0.3371E+00  0.3371E+00
     12.908  0.2486E-01  0.2486E-01  0.3399E+00  0.3399E+00
     13.021  0.1750E-01  0.1750E-01  0.3419E+00  0.3419E+00
     13.135  0.1660E-01  0.1660E-01  0.3438E+00  0.3438E+00
     13.248  0.2203E-01  0.2203E-01  0.3463E+00  0.3463E+00
     13.362  0.2555E-01  0.2555E-01  0.3492E+00  0.3492E+00
     13.475  0.2751E-01  0.2751E-01  0.3523E+00  0.3523E+00
     13.589  0.2126E-01  0.2126E-01  0.3547E+00  0.3547E+00
     13.702  0.1856E-01  0.1856E-01  0.3568E+00  0.3568E+00
     13.816  0.2062E-01  0.2062E-01  0.3591E+00  0.3591E+00
     13.929  0.1857E-01  0.1857E-01  0.3612E+00  0.3612E+00
     14.043  0.1631E-01  0.1631E-01  0.3631E+00  0.3631E+00
     14.156  0.1448E-01  0.1448E-01  0.3647E+00  0.3647E+00
     14.270  0.1146E-01  0.1146E-01  0.3660E+00  0.3660E+00
     14.383  0.1557E-01  0.1557E-01  0.3678E+00  0.3678E+00
     14.497  0.1222E-01  0.1222E-01  0.3692E+00  0.3692E+00
     14.610  0.7244E-02  0.7244E-02  0.3700E+00  0.3700E+00
     14.724  0.7931E-02  0.7931E-02  0.3709E+00  0.3709E+00
     14.837  0.1117E-01  0.1117E-01  0.3722E+00  0.3722E+00
     14.951  0.1048E-01  0.1048E-01  0.3734E+00  0.3734E+00
     15.064  0.8893E-02  0.8893E-02  0.3744E+00  0.3744E+00
     15.178  0.4823E-02  0.4823E-02  0.3749E+00  0.3749E+00
     15.292  0.5643E-03  0.5643E-03  0.3750E+00  0.3750E+00
     15.405  0.9814E-05  0.9814E-05  0.3750E+00  0.3750E+00
     15.519  0.1953E-07  0.1953E-07  0.3750E+00  0.3750E+00
     15.632  0.3695E-11  0.3695E-11  0.3750E+00  0.3750E+00
     15.746  0.5991E-16  0.5991E-16  0.3750E+00  0.3750E+00
     15.859  0.0000E+00  0.0000E+00  0.3750E+00  0.3750E+00
     15.973  0.0000E+00  0.0000E+00  0.3750E+00  0.3750E+00
     16.086  0.0000E+00  0.0000E+00  0.3750E+00  0.3750E+00
     16.200  0.0000E+00  0.0000E+00  0.3750E+00  0.3750E+00
     16.313  0.0000E+00  0.0000E+00  0.3750E+00  0.3750E+00
     16.427  0.0000E+00  0.0000E+00  0.3750E+00  0.3750E+00
     16.540  0.0000E+00  0.0000E+00  0.3750E+00  0.3750E+00
     16.654  0.0000E+00  0.0000E+00  0.3750E+00  0.3750E+00
