Lattice                                 
           1
     4.330127    2.500000    0.000000
    -4.330127    2.500000    0.000000
     0.000000    0.000000   15.000000
   B    C 
     4    11
Direct configuration=     1
   0.00415361  0.00267210  0.12034134
   0.35695335  0.00285503  0.09748893
   0.00423858  0.35550699  0.09749256
   0.65142295  0.65006557  0.09747688
   0.32808646  0.32671938  0.10030508
   0.68027775  0.00278085  0.10027562
   0.00416530  0.67883808  0.10026559
   0.99999933  0.49999967  0.34000000
   0.16666633  0.33333267  0.34000000
   0.99999933  0.99999967  0.34000000
   0.16666633  0.83333267  0.34000000
   0.49999933  0.49999967  0.34000000
   0.66666633  0.33333267  0.34000000
   0.49999933  0.99999967  0.34000000
   0.66666633  0.83333267  0.34000000
Lattice                                 
           1
     3.931657    2.270047    0.000027
    -3.931601    2.269951    0.000027
    -0.000001    0.000161   14.966535
   B    C 
     4    11
Direct configuration=     2
   0.00417116  0.00272235  0.11845420
   0.35500012  0.00300818  0.09807033
   0.00401416  0.35336562  0.09807191
   0.65355854  0.65198993  0.09806266
   0.32214054  0.32049385  0.10036683
   0.68647314  0.00304558  0.10034782
   0.00393239  0.68480702  0.10034167
   0.00008752  0.49996100  0.33998899
   0.16680850  0.33380128  0.34003698
   0.99999975  0.99999541  0.33990360
   0.16698767  0.83319011  0.34003931
   0.50005030  0.50013678  0.33999131
   0.66666680  0.33333710  0.33994507
   0.49987420  0.99990983  0.33998861
   0.66619589  0.83300328  0.34003670
Lattice                                 
           1
     4.203153    2.426725    0.000009
    -4.203136    2.426694    0.000009
    -0.000000    0.000051   14.989336
   B    C 
     4    11
Direct configuration=     3
   0.00415794  0.00268460  0.11974287
   0.35646581  0.00289324  0.09767331
   0.00418256  0.35497253  0.09767629
   0.65195606  0.65054593  0.09766265
   0.32660222  0.32516542  0.10032464
   0.68182422  0.00284703  0.10029852
   0.00410720  0.68032789  0.10028972
   0.00002135  0.49999002  0.33999651
   0.16670182  0.33344963  0.34001173
   0.99999943  0.99999860  0.33996943
   0.16674654  0.83329709  0.34001247
   0.50001205  0.50003389  0.33999725
   0.66666645  0.33333377  0.33998258
   0.49996810  0.99997724  0.33999639
   0.66654890  0.83325045  0.34001164
Lattice                                 
           1
     4.194453    2.421704    0.000009
    -4.194434    2.421671    0.000009
    -0.000000    0.000055   14.988606
   B    C 
     4    11
Direct configuration=     4
   0.00415834  0.00268573  0.11970164
   0.35642187  0.00289668  0.09768601
   0.00417751  0.35492436  0.09768895
   0.65200409  0.65058922  0.09767545
   0.32646849  0.32502539  0.10032599
   0.68196357  0.00285299  0.10030010
   0.00410196  0.68046215  0.10029139
   0.00002333  0.49998915  0.33999627
   0.16670502  0.33346017  0.34001254
   0.99999944  0.99999851  0.33996732
   0.16675377  0.83329389  0.34001333
   0.50001320  0.50003697  0.33999706
   0.66666646  0.33333387  0.33998138
   0.49996528  0.99997522  0.33999614
   0.66653832  0.83324304  0.34001244
Lattice                                 
           1
     4.193146    2.420949    0.000009
    -4.193127    2.420916    0.000009
    -0.000000    0.000055   14.988496
   B    C 
     4    11
Direct configuration=     5
   0.00415840  0.00268590  0.11969544
   0.35641526  0.00289720  0.09768792
   0.00417675  0.35491711  0.09769085
   0.65201133  0.65059574  0.09767738
   0.32644834  0.32500429  0.10032620
   0.68198456  0.00285388  0.10030034
   0.00410117  0.68048238  0.10029164
   0.00002363  0.49998902  0.33999623
   0.16670550  0.33346176  0.34001266
   0.99999945  0.99999849  0.33996701
   0.16675486  0.83329340  0.34001346
   0.50001337  0.50003744  0.33999703
   0.66666646  0.33333389  0.33998120
   0.49996486  0.99997492  0.33999610
   0.66653673  0.83324192  0.34001256
Lattice                                 
           1
     4.192609    2.420608    0.000029
    -4.192596    2.420585    0.000042
    -0.000022    0.000218   14.965094
   B    C 
     4    11
Direct configuration=     6
   0.00417710  0.00274738  0.11906961
   0.35716943  0.00296045  0.09794502
   0.00403545  0.35557916  0.09794674
   0.65135142  0.64980794  0.09793746
   0.32737812  0.32577973  0.10032199
   0.68118673  0.00299196  0.10030218
   0.00399127  0.67956589  0.10029542
  -0.00001137  0.50002137  0.33998569
   0.16672196  0.33339662  0.34001270
   0.99999683  0.99999857  0.33989726
   0.16667918  0.83328130  0.34001494
   0.49997805  0.49996920  0.33998794
   0.66666847  0.33333359  0.33993112
   0.50002943  0.00000997  0.33998536
   0.66660858  0.83332418  0.34001258
Lattice                                 
           1
     4.192339    2.420435    0.000039
    -4.192329    2.420418    0.000058
    -0.000033    0.000300   14.953285
   B    C 
     4    11
Direct configuration=     7
   0.00418656  0.00277842  0.11875330
   0.35755005  0.00299237  0.09807495
   0.00396414  0.35591329  0.09807608
   0.65101837  0.64941034  0.09806892
   0.32784738  0.32617110  0.10031986
   0.68078406  0.00306165  0.10030311
   0.00393580  0.67910334  0.10029733
  -0.00002903  0.50003770  0.33998037
   0.16673027  0.33336375  0.34001271
   0.99999551  0.99999862  0.33986201
   0.16664098  0.83327520  0.34001569
   0.49996023  0.49993476  0.33998334
   0.66666949  0.33333345  0.33990581
   0.50006202  0.00002766  0.33997993
   0.66664485  0.83336569  0.34001259
Lattice                                 
           1
     4.192410    2.420477    0.000051
    -4.192400    2.420459    0.000069
    -0.000034    0.000370   14.940693
   B    C 
     4    11
Direct configuration=     8
   0.00419071  0.00279711  0.11838795
   0.35765921  0.00301213  0.09819648
   0.00391521  0.35599453  0.09819704
   0.65094555  0.64929093  0.09819176
   0.32783774  0.32611405  0.10034353
   0.68083451  0.00309863  0.10032972
   0.00390000  0.67912098  0.10032478
  -0.00000677  0.50001890  0.33997481
   0.16671323  0.33339439  0.34000866
   0.99999912  0.99999929  0.33983481
   0.16668452  0.83329017  0.34001219
   0.49998304  0.49997572  0.33997832
   0.66666824  0.33333411  0.33988314
   0.50002549  0.00000756  0.33997428
   0.66661088  0.83331883  0.34000852
Lattice                                 
           1
     4.192622    2.420602    0.000084
    -4.192612    2.420584    0.000104
    -0.000036    0.000579   14.902916
   B    C 
     4    11
Direct configuration=     9
   0.00420318  0.00285321  0.11729098
   0.35798666  0.00307140  0.09856135
   0.00376840  0.35623822  0.09856025
   0.65072709  0.64893272  0.09856062
   0.32780882  0.32594290  0.10041461
   0.68098586  0.00320957  0.10040962
   0.00379262  0.67917390  0.10040720
   0.00006001  0.49996248  0.33995814
   0.16666210  0.33348633  0.33999650
   0.00000996  0.00000133  0.33975315
   0.16681512  0.83333507  0.34000166
   0.50005147  0.50009858  0.33996323
   0.66666450  0.33333611  0.33981508
   0.49991591 -0.00005275  0.33995730
   0.66650896  0.83317827  0.33999633
Lattice                                 
           1
     4.193048    2.420851    0.000150
    -4.193037    2.420832    0.000172
    -0.000040    0.000997   14.827362
   B    C 
     4    11
Direct configuration=    10
   0.00422821  0.00296549  0.11509147
   0.35864150  0.00318991  0.09929296
   0.00347478  0.35672556  0.09928850
   0.65029018  0.64821629  0.09930020
   0.32775098  0.32560061  0.10055712
   0.68128854  0.00343142  0.10056982
   0.00357785  0.67927973  0.10057246
   0.00019356  0.49984967  0.33992470
   0.16655987  0.33367020  0.33997211
   0.00003165  0.00000540  0.33958939
   0.16707631  0.83342487  0.33998056
   0.50018833  0.50034430  0.33993299
   0.66665701  0.33334011  0.33967861
   0.49969677 -0.00017336  0.33992326
   0.66630514  0.83289715  0.33997187
Lattice                                 
           1
     4.193900    2.421350    0.000283
    -4.193887    2.421328    0.000309
    -0.000047    0.001833   14.676255
   B    C 
     4    11
Direct configuration=    11
   0.00427866  0.00319041  0.11067003
   0.35995091  0.00342678  0.10076361
   0.00288747  0.35770001  0.10075242
   0.64941630  0.64678345  0.10078691
   0.32763529  0.32491607  0.10084361
   0.68189381  0.00387506  0.10089184
   0.00314832  0.67949133  0.10090467
   0.00046064  0.49962406  0.33985748
   0.16635542  0.33403789  0.33992308
   0.00007504  0.00001357  0.33926022
   0.16759863  0.83360445  0.33993814
   0.50046201  0.50083570  0.33987218
   0.66664206  0.33334812  0.33940428
   0.49925854 -0.00041454  0.33985482
   0.66589755  0.83233497  0.33992271
Lattice                                 
           1
     4.193563    2.421153    0.000230
    -4.193551    2.421132    0.000255
    -0.000044    0.001503   14.735893
   B    C 
     4    11
Direct configuration=    12
   0.00425845  0.00310135  0.11243302
   0.35943433  0.00333342  0.10017721
   0.00311932  0.35731560  0.10016870
   0.64976123  0.64734894  0.10019409
   0.32768096  0.32518620  0.10072937
   0.68165500  0.00370002  0.10076344
   0.00331783  0.67940786  0.10077220
   0.00035525  0.49971308  0.33988428
   0.16643609  0.33389280  0.33994263
   0.00005790  0.00001032  0.33939147
   0.16739252  0.83353359  0.33995506
   0.50035402  0.50064179  0.33989643
   0.66664794  0.33334494  0.33951367
   0.49943146 -0.00031937  0.33988211
   0.66605838  0.83255679  0.33994231
Lattice                                 
           1
     4.194326    2.421537    0.000255
    -4.194348    2.421575    0.000267
    -0.000021    0.001616   14.712795
   B    C 
     4    11
Direct configuration=    13
   0.00425680  0.00309963  0.11173134
   0.35946664  0.00332961  0.10035640
   0.00311945  0.35735855  0.10034745
   0.64973149  0.64731184  0.10037439
   0.32765872  0.32518655  0.10082623
   0.68165592  0.00366500  0.10086420
   0.00333118  0.67943792  0.10087386
   0.00018770  0.49987731  0.33987038
   0.16658807  0.33366892  0.33992260
   0.00002905  0.00000682  0.33937929
   0.16706552  0.83341122  0.33993516
   0.50016001  0.50031670  0.33988256
   0.66666699  0.33334323  0.33949184
   0.49972174 -0.00016912  0.33986807
   0.66632139  0.83292316  0.33992222
Lattice                                 
           1
     4.195611    2.422184    0.000297
    -4.195690    2.422321    0.000286
     0.000018    0.001807   14.673887
   B    C 
     4    11
Direct configuration=    14
   0.00425406  0.00309675  0.11054757
   0.35952105  0.00332320  0.10065870
   0.00311967  0.35743087  0.10064902
   0.64968141  0.64724934  0.10067856
   0.32762127  0.32518713  0.10098964
   0.68165747  0.00360600  0.10103419
   0.00335364  0.67948856  0.10104536
  -0.00009446  0.50015389  0.33984693
   0.16684401  0.33329190  0.33988880
  -0.00001954  0.00000091  0.33935873
   0.16651480  0.83320514  0.33990160
   0.49983328  0.49976921  0.33985917
   0.66669907  0.33334035  0.33945502
   0.50021061  0.00008394  0.33984439
   0.66676433  0.83354015  0.33988833
Lattice                                 
           1
     4.195927    2.422423    0.000316
    -4.195976    2.422508    0.000284
     0.000054    0.001860   14.661196
   B    C 
     4    11
Direct configuration=    15
   0.00424433  0.00305655  0.11013936
   0.35939476  0.00327681  0.10070036
   0.00322868  0.35737640  0.10069137
   0.64972986  0.64739178  0.10071892
   0.32768704  0.32538902  0.10110295
   0.68146869  0.00347901  0.10114712
   0.00345061  0.67940950  0.10115784
  -0.00007323  0.50011035  0.33983339
   0.16677393  0.33327140  0.33986545
  -0.00000197  0.00000454  0.33939997
   0.16653446  0.83325689  0.33987712
   0.49989567  0.49982336  0.33984434
   0.66668456  0.33333860  0.33947198
   0.50017766  0.00008212  0.33983082
   0.66676562  0.83350100  0.33986501
Lattice                                 
           1
     4.196873    2.423140    0.000373
    -4.196834    2.423071    0.000279
     0.000164    0.002022   14.623122
   B    C 
     4    11
Direct configuration=    16
   0.00421516  0.00293596  0.10891367
   0.35901590  0.00313764  0.10082546
   0.00355569  0.35721298  0.10081853
   0.64987519  0.64781906  0.10084010
   0.32788433  0.32599467  0.10144315
   0.68090240  0.00309808  0.10148620
   0.00374146  0.67917234  0.10149556
  -0.00000953  0.49997977  0.33979276
   0.16656372  0.33320992  0.33979534
   0.00005073  0.00001544  0.33952381
   0.16659341  0.83341211  0.33980365
   0.50008282  0.49998579  0.33979981
   0.66664106  0.33333334  0.33952288
   0.50007884  0.00007667  0.33979009
   0.66676949  0.83338358  0.33979500
Lattice                                 
           1
     4.197334    2.423488    0.000401
    -4.197251    2.423345    0.000276
     0.000217    0.002101   14.604590
   B    C 
     4    11
Direct configuration=    17
   0.00420100  0.00287728  0.10831551
   0.35883153  0.00306992  0.10088651
   0.00371482  0.35713345  0.10088059
   0.64994591  0.64802699  0.10089924
   0.32798033  0.32628940  0.10160918
   0.68062682  0.00291271  0.10165168
   0.00388299  0.67905691  0.10166037
   0.00002146  0.49991622  0.33977293
   0.16646143  0.33318000  0.33976112
   0.00007637  0.00002075  0.33958424
   0.16662209  0.83348765  0.33976779
   0.50017389  0.50006483  0.33977808
   0.66661990  0.33333078  0.33954773
   0.50003075  0.00007401  0.33977020
   0.66677137  0.83332644  0.33976083
Lattice                                 
           1
     4.195839    2.422367    0.000422
    -4.195894    2.422463    0.000276
     0.000254    0.002162   14.594990
   B    C 
     4    11
Direct configuration=    18
   0.00419577  0.00284916  0.10797965
   0.35884961  0.00303934  0.10091189
   0.00382998  0.35718774  0.10090755
   0.64984294  0.64804541  0.10092162
   0.32791599  0.32631132  0.10169626
   0.68060075  0.00287770  0.10173415
   0.00394306  0.67905276  0.10174109
   0.00004045  0.50001682  0.33975204
   0.16677486  0.33350181  0.33975599
  -0.00002952 -0.00000011  0.33963531
   0.16682696  0.83329920  0.33976134
   0.49996004  0.50006154  0.33975566
   0.66672591  0.33335154  0.33958818
   0.49991246 -0.00007139  0.33974952
   0.66657138  0.83324451  0.33975576
Lattice                                 
           1
     4.195950    2.422450    0.000420
    -4.195995    2.422528    0.000276
     0.000251    0.002158   14.595704
   B    C 
     4    11
Direct configuration=    19
   0.00419616  0.00285125  0.10800465
   0.35884827  0.00304162  0.10091000
   0.00382141  0.35718370  0.10090554
   0.64985061  0.64804404  0.10091995
   0.32792078  0.32630969  0.10168978
   0.68060269  0.00288031  0.10172801
   0.00393859  0.67905306  0.10173509
   0.00003904  0.50000934  0.33975359
   0.16675154  0.33347786  0.33975637
  -0.00002164  0.00000144  0.33963151
   0.16681172  0.83331322  0.33976182
   0.49997595  0.50006178  0.33975733
   0.66671802  0.33334999  0.33958517
   0.49992126 -0.00006057  0.33975106
   0.66658626  0.83325060  0.33975614
Lattice                                 
           1
     4.195282    2.422165    0.000432
    -4.195270    2.422144    0.000275
     0.000273    0.002194   14.593402
   B    C 
     4    11
Direct configuration=    20
   0.00419150  0.00283682  0.10790177
   0.35896575  0.00304222  0.10092254
   0.00385194  0.35729029  0.10091922
   0.64970221  0.64794479  0.10093016
   0.32784816  0.32621735  0.10169737
   0.68069312  0.00293877  0.10173079
   0.00392271  0.67909146  0.10173637
   0.00005425  0.50002129  0.33974446
   0.16671634  0.33344815  0.33976795
   0.00002296  0.00000893  0.33965452
   0.16673621  0.83329766  0.33977288
   0.50001593  0.50003367  0.33974757
   0.66667288  0.33334197  0.33961056
   0.50000102 -0.00002160  0.33974207
   0.66656569  0.83327554  0.33976778
Lattice                                 
           1
     4.194980    2.422036    0.000438
    -4.194943    2.421971    0.000275
     0.000283    0.002211   14.592365
   B    C 
     4    11
Direct configuration=    21
   0.00418941  0.00283033  0.10785543
   0.35901866  0.00304250  0.10092819
   0.00386570  0.35733830  0.10092538
   0.64963537  0.64790009  0.10093475
   0.32781545  0.32617576  0.10170079
   0.68073384  0.00296510  0.10173204
   0.00391556  0.67910876  0.10173695
   0.00006110  0.50002668  0.33974034
   0.16670049  0.33343477  0.33977317
   0.00004304  0.00001230  0.33966489
   0.16670221  0.83329066  0.33977786
   0.50003393  0.50002101  0.33974318
   0.66665255  0.33333836  0.33962199
   0.50003694 -0.00000405  0.33973802
   0.66655643  0.83328677  0.33977302
Lattice                                 
           1
     4.195289    2.422151    0.000455
    -4.195288    2.422149    0.000274
     0.000315    0.002257   14.590456
   B    C 
     4    11
Direct configuration=    22
   0.00417608  0.00279601  0.10775177
   0.35915510  0.00304905  0.10094555
   0.00387988  0.35746286  0.10094401
   0.64947542  0.64777866  0.10094918
   0.32778085  0.32609397  0.10169135
   0.68082409  0.00304572  0.10171589
   0.00387820  0.67913178  0.10171877
   0.00001968  0.49998663  0.33973823
   0.16666967  0.33337772  0.33979050
   0.00001765  0.00000904  0.33969253
   0.16672625  0.83335425  0.33979483
   0.50004141  0.50003660  0.33974057
   0.66668033  0.33334311  0.33964627
   0.49999049  0.00000670  0.33973615
   0.66664557  0.83329523  0.33979038
Lattice                                 
           1
     4.195463    2.422216    0.000464
    -4.195482    2.422249    0.000273
     0.000334    0.002283   14.589382
   B    C 
     4    11
Direct configuration=    23
   0.00416857  0.00277669  0.10769340
   0.35923191  0.00305275  0.10095532
   0.00388787  0.35753298  0.10095450
   0.64938538  0.64771030  0.10095731
   0.32776138  0.32604792  0.10168604
   0.68087490  0.00309111  0.10170680
   0.00385718  0.67914474  0.10170854
  -0.00000364  0.49996408  0.33973704
   0.16665232  0.33334560  0.33980026
   0.00000336  0.00000721  0.33970810
   0.16673978  0.83339005  0.33980439
   0.50004562  0.50004537  0.33973910
   0.66669597  0.33334579  0.33965994
   0.49996433  0.00001275  0.33973510
   0.66669575  0.83329999  0.33980016
Lattice                                 
           1
     4.195993    2.422561    0.000486
    -4.195993    2.422560    0.000271
     0.000375    0.002343   14.587554
   B    C 
     4    11
Direct configuration=    24
   0.00415172  0.00273409  0.10757724
   0.35928603  0.00306492  0.10097337
   0.00388438  0.35757822  0.10097367
   0.64932449  0.64766346  0.10097236
   0.32778057  0.32602507  0.10166674
   0.68091294  0.00314848  0.10167993
   0.00382145  0.67913866  0.10167947
   0.00004868  0.50000387  0.33975001
   0.16669077  0.33341018  0.33981827
   0.00001383  0.00000912  0.33973984
   0.16674705  0.83333863  0.33982230
   0.50002167  0.50005377  0.33975189
   0.66668674  0.33334511  0.33967446
   0.49997084 -0.00002671  0.33974828
   0.66661952  0.83328048  0.33981820
Lattice                                 
           1
     4.196240    2.422721    0.000496
    -4.196230    2.422704    0.000270
     0.000394    0.002371   14.586704
   B    C 
     4    11
Direct configuration=    25
   0.00414388  0.00271427  0.10752319
   0.35931120  0.00307058  0.10098177
   0.00388276  0.35759926  0.10098259
   0.64929616  0.64764167  0.10097936
   0.32778950  0.32601443  0.10165775
   0.68093064  0.00317517  0.10166742
   0.00380483  0.67913584  0.10166595
   0.00007301  0.50002238  0.33975604
   0.16670866  0.33344022  0.33982665
   0.00001870  0.00001001  0.33975461
   0.16675043  0.83331471  0.33983063
   0.50001053  0.50005767  0.33975783
   0.66668245  0.33334479  0.33968121
   0.49997386 -0.00004507  0.33975441
   0.66658407  0.83327140  0.33982659
Lattice                                 
           1
     4.196164    2.422698    0.000520
    -4.196142    2.422660    0.000271
     0.000433    0.002444   14.584985
   B    C 
     4    11
Direct configuration=    26
   0.00413535  0.00269253  0.10740124
   0.35928720  0.00308700  0.10099419
   0.00387235  0.35756322  0.10099582
   0.64932854  0.64766970  0.10098935
   0.32781398  0.32602376  0.10163850
   0.68092704  0.00319419  0.10164132
   0.00378834  0.67911684  0.10163790
   0.00006593  0.50002349  0.33977871
   0.16671459  0.33344759  0.33984471
   0.00002400  0.00001060  0.33978391
   0.16674427  0.83330544  0.33984878
   0.50001598  0.50004562  0.33978060
   0.66667791  0.33334437  0.33968909
   0.49999210 -0.00003104  0.33977721
   0.66657308  0.83327402  0.33984467
Lattice                                 
           1
     4.195935    2.422629    0.000590
    -4.195876    2.422527    0.000273
     0.000550    0.002664   14.579828
   B    C 
     4    11
Direct configuration=    27
   0.00410980  0.00262732  0.10703535
   0.35921519  0.00313625  0.10103147
   0.00384111  0.35745512  0.10103553
   0.64942567  0.64775379  0.10101932
   0.32788741  0.32605174  0.10158074
   0.68091625  0.00325128  0.10156300
   0.00373889  0.67905985  0.10155374
   0.00004466  0.50002683  0.33984672
   0.16673240  0.33346970  0.33989890
   0.00003991  0.00001236  0.33987181
   0.16672582  0.83327765  0.33990324
   0.50003235  0.50000947  0.33984892
   0.66666429  0.33334308  0.33971275
   0.50004680  0.00001102  0.33984560
   0.66654011  0.83328188  0.33989891
Lattice                                 
           1
     4.195477    2.422490    0.000730
    -4.195345    2.422261    0.000279
     0.000784    0.003103   14.569514
   B    C 
     4    11
Direct configuration=    28
   0.00405872  0.00249690  0.10630332
   0.35907115  0.00323475  0.10110604
   0.00377864  0.35723890  0.10111498
   0.64961994  0.64792199  0.10107927
   0.32803430  0.32610771  0.10146518
   0.68089467  0.00336546  0.10140631
   0.00363999  0.67894586  0.10138536
   0.00000212  0.50003351  0.33998278
   0.16676800  0.33351392  0.34000732
   0.00007171  0.00001589  0.34004767
   0.16668891  0.83322205  0.34001220
   0.50006508  0.49993715  0.33998560
   0.66663706  0.33334052  0.33976007
   0.50015621  0.00009514  0.33998244
   0.66647418  0.83329760  0.34000744
Lattice                                 
           1
     4.195671    2.422549    0.000670
    -4.195570    2.422374    0.000277
     0.000685    0.002917   14.573891
   B    C 
     4    11
Direct configuration=    29
   0.00408036  0.00255224  0.10661421
   0.35913229  0.00319294  0.10107437
   0.00380516  0.35733067  0.10108124
   0.64953749  0.64785060  0.10105381
   0.32797195  0.32608395  0.10151426
   0.68090382  0.00331699  0.10147286
   0.00368195  0.67899423  0.10145687
   0.00002018  0.50003067  0.33992500
   0.16675289  0.33349516  0.33996127
   0.00005822  0.00001440  0.33997299
   0.16670458  0.83324565  0.33996592
   0.50005120  0.49996785  0.33992755
   0.66664862  0.33334161  0.33973998
   0.50010978  0.00005944  0.33992432
   0.66650217  0.83329093  0.33996135
Lattice                                 
           1
     4.195654    2.422509    0.000686
    -4.195567    2.422359    0.000279
     0.000709    0.002974   14.572757
   B    C 
     4    11
Direct configuration=    30
   0.00408142  0.00255495  0.10652677
   0.35912983  0.00320138  0.10107751
   0.00380188  0.35731861  0.10108477
   0.64954416  0.64785469  0.10105575
   0.32797725  0.32609254  0.10150470
   0.68089181  0.00331697  0.10145950
   0.00368226  0.67897963  0.10144244
   0.00001731  0.50002156  0.33993951
   0.16674273  0.33347713  0.33997678
   0.00004808  0.00001406  0.33998923
   0.16671823  0.83326881  0.33998147
   0.50004822  0.49998276  0.33994218
   0.66666102  0.33334376  0.33974965
   0.50008348  0.00005029  0.33993888
   0.66653300  0.83329020  0.33997686
Lattice                                 
           1
     4.195602    2.422389    0.000735
    -4.195559    2.422314    0.000287
     0.000780    0.003145   14.569354
   B    C 
     4    11
Direct configuration=    31
   0.00408461  0.00256308  0.10626443
   0.35912245  0.00322670  0.10108693
   0.00379202  0.35728244  0.10109537
   0.64956416  0.64786697  0.10106157
   0.32799313  0.32611829  0.10147600
   0.68085579  0.00331692  0.10141943
   0.00368317  0.67893581  0.10139916
   0.00000870  0.49999420  0.33998304
   0.16671222  0.33342305  0.34002329
   0.00001763  0.00001304  0.34003798
   0.16675920  0.83333826  0.34002811
   0.50003927  0.50002749  0.33998607
   0.66669821  0.33335022  0.33977867
   0.50000458  0.00002284  0.33998257
   0.66662551  0.83328802  0.34002337
Lattice                                 
           1
     4.195498    2.422149    0.000833
    -4.195542    2.422224    0.000303
     0.000924    0.003488   14.562549
   B    C 
     4    11
Direct configuration=    32
   0.00409101  0.00257936  0.10573964
   0.35910770  0.00327734  0.10110577
   0.00377232  0.35721009  0.10111656
   0.64960417  0.64789153  0.10107322
   0.32802490  0.32616980  0.10141861
   0.68078375  0.00331680  0.10133928
   0.00368499  0.67884818  0.10131256
  -0.00000853  0.49993949  0.34007012
   0.16665121  0.33331488  0.34011635
  -0.00004327  0.00001100  0.34013550
   0.16684113  0.83347718  0.34012142
   0.50002138  0.50011696  0.34007386
   0.66677259  0.33336313  0.33983673
   0.49984678 -0.00003208  0.34006995
   0.66681053  0.83328367  0.34011643
Lattice                                 
           1
     4.195538    2.422241    0.000796
    -4.195548    2.422259    0.000297
     0.000869    0.003357   14.565154
   B    C 
     4    11
Direct configuration=    33
   0.00408854  0.00257312  0.10594059
   0.35911334  0.00325796  0.10109856
   0.00377986  0.35723779  0.10110844
   0.64958885  0.64788213  0.10106876
   0.32801274  0.32615008  0.10144058
   0.68081132  0.00331685  0.10136997
   0.00368429  0.67888172  0.10134572
  -0.00000193  0.49996043  0.34003678
   0.16667457  0.33335628  0.34008071
  -0.00001995  0.00001178  0.34009816
   0.16680977  0.83342401  0.34008569
   0.50002823  0.50008272  0.34004024
   0.66674412  0.33335819  0.33981450
   0.49990718 -0.00001105  0.34003649
   0.66673972  0.83328533  0.34008080
Lattice                                 
           1
     4.195600    2.422287    0.000829
    -4.195606    2.422297    0.000304
     0.000914    0.003479   14.562915
   B    C 
     4    11
Direct configuration=    34
   0.00409789  0.00259788  0.10576109
   0.35913791  0.00326158  0.10109383
   0.00378024  0.35725234  0.10110406
   0.64956495  0.64785474  0.10106281
   0.32800095  0.32616409  0.10142885
   0.68078503  0.00329310  0.10135316
   0.00370285  0.67887000  0.10132752
   0.00002531  0.49996996  0.34006330
   0.16666100  0.33334671  0.34011648
  -0.00000940  0.00001399  0.34012343
   0.16679708  0.83342820  0.34012143
   0.50003097  0.50009354  0.34006699
   0.66673639  0.33335832  0.33984354
   0.49990885 -0.00002599  0.34006299
   0.66674064  0.83328888  0.34011651
Lattice                                 
           1
     4.195787    2.422427    0.000929
    -4.195779    2.422413    0.000325
     0.001051    0.003846   14.556198
   B    C 
     4    11
Direct configuration=    35
   0.00412596  0.00267216  0.10522252
   0.35921160  0.00327245  0.10107965
   0.00378137  0.35729602  0.10109092
   0.64949324  0.64777256  0.10104495
   0.32796559  0.32620612  0.10139366
   0.68070616  0.00322188  0.10130273
   0.00375853  0.67883484  0.10127290
   0.00010703  0.49999852  0.34014288
   0.16662029  0.33331800  0.34022379
   0.00002225  0.00002061  0.34019925
   0.16675901  0.83344076  0.34022866
   0.50003919  0.50012598  0.34014726
   0.66671319  0.33335873  0.33993067
   0.49991385 -0.00007079  0.34014251
   0.66674339  0.83329951  0.34022367
Lattice                                 
           1
     4.196160    2.422705    0.001129
    -4.196125    2.422645    0.000369
     0.001323    0.004580   14.542765
   B    C 
     4    11
Direct configuration=    36
   0.00418219  0.00282078  0.10414486
   0.35935898  0.00329418  0.10105127
   0.00378363  0.35738336  0.10106462
   0.64934984  0.64760822  0.10100921
   0.32789488  0.32629017  0.10132323
   0.68054844  0.00307944  0.10120181
   0.00386989  0.67876453  0.10116360
   0.00027045  0.50005565  0.34030210
   0.16653886  0.33326056  0.34043851
   0.00008554  0.00003385  0.34035097
   0.16668286  0.83346587  0.34044323
   0.50005561  0.50019086  0.34030786
   0.66666677  0.33335953  0.34010501
   0.49992384 -0.00016041  0.34030163
   0.66674889  0.83332076  0.34043808
Lattice                                 
           1
     4.196189    2.422688    0.001186
    -4.196178    2.422669    0.000379
     0.001405    0.004784   14.538877
   B    C 
     4    11
Direct configuration=    37
   0.00418103  0.00282346  0.10383726
   0.35938204  0.00327176  0.10103647
   0.00378326  0.35743397  0.10104975
   0.64931688  0.64756919  0.10099413
   0.32786543  0.32628775  0.10130384
   0.68055108  0.00303225  0.10117809
   0.00389253  0.67881215  0.10113878
   0.00020455  0.50005506  0.34035159
   0.16661045  0.33331971  0.34049563
   0.00007161  0.00003112  0.34039574
   0.16670254  0.83341652  0.34050012
   0.50004449  0.50013743  0.34035757
   0.66668084  0.33336030  0.34016092
   0.49996320 -0.00010638  0.34035101
   0.66671073  0.83332305  0.34049508
Lattice                                 
           1
     4.196275    2.422638    0.001357
    -4.196335    2.422741    0.000410
     0.001649    0.005394   14.527214
   B    C 
     4    11
Direct configuration=    38
   0.00417760  0.00283153  0.10291420
   0.35945121  0.00320449  0.10099208
   0.00378215  0.35758580  0.10100513
   0.64921801  0.64745211  0.10094887
   0.32777707  0.32628046  0.10124566
   0.68055901  0.00289071  0.10110692
   0.00396047  0.67895504  0.10106431
   0.00000683  0.50005330  0.34050008
   0.16682522  0.33349713  0.34066705
   0.00002981  0.00002295  0.34053010
   0.16676158  0.83326848  0.34067083
   0.50001113  0.49997715  0.34050674
   0.66672305  0.33336258  0.34032869
   0.50008127  0.00005569  0.34049919