Lattice                                 
           1
     4.311074    2.489000    0.000000
    -4.311074    2.489000    0.000000
     0.000000    0.000000   15.000000
   B    C 
     8     8
Direct configuration=     1
   0.66888689  0.00000000  0.10000000
   0.33111211  0.00000000  0.10000000
   0.00000000  0.33111211  0.10000000
   0.00000000  0.66888689  0.10000000
   0.33111211  0.33111211  0.10000000
   0.66888689  0.66888689  0.10000000
   0.66666600  0.33333300  0.09922189
   0.33333300  0.66666600  0.10077811
   0.33333267  0.16666633  0.47060000
   0.49999967  0.99999933  0.47060000
   0.33333267  0.66666633  0.47060000
   0.49999967  0.49999933  0.47060000
   0.83333267  0.16666633  0.47060000
   0.99999967  0.99999933  0.47060000
   0.83333267  0.66666633  0.47060000
   0.99999967  0.49999933  0.47060000
Direct configuration=     2
   0.67060827  0.00000001  0.10002568
   0.32939074  0.00000001  0.10002568
  -0.00000001  0.32939073  0.10002568
  -0.00000001  0.67060826  0.10002568
   0.32939074  0.32939073  0.10002568
   0.67060827  0.67060826  0.10002568
   0.66666600  0.33333300  0.09924339
   0.33333300  0.66666600  0.10081380
   0.33332660  0.16666330  0.47057386
   0.50000087  0.00000173  0.47057333
   0.33333267  0.66666633  0.47057268
   0.50000087  0.49999813  0.47057333
   0.83333570  0.16666330  0.47057386
   0.99999967  0.99999933  0.47057446
   0.83333570  0.66667240  0.47057386
   0.99999727  0.49999813  0.47057333
Direct configuration=     3
   0.66976922  0.00000000  0.10001316
   0.33022978  0.00000000  0.10001316
  -0.00000000  0.33022978  0.10001316
  -0.00000000  0.66976922  0.10001316
   0.33022978  0.33022978  0.10001316
   0.66976922  0.66976922  0.10001316
   0.66666600  0.33333300  0.09923291
   0.33333300  0.66666600  0.10079641
   0.33332956  0.16666478  0.47058660
   0.50000028  0.00000056  0.47058633
   0.33333267  0.66666633  0.47058600
   0.50000028  0.49999872  0.47058633
   0.83333422  0.16666478  0.47058660
   0.99999967  0.99999933  0.47058691
   0.83333422  0.66666944  0.47058660
   0.99999844  0.49999872  0.47058633
Direct configuration=     4
   0.66977448  0.00000000  0.10001324
   0.33022452  0.00000000  0.10001324
  -0.00000000  0.33022452  0.10001324
  -0.00000000  0.66977448  0.10001324
   0.33022452  0.33022452  0.10001324
   0.66977448  0.66977448  0.10001324
   0.66666600  0.33333300  0.09923298
   0.33333300  0.66666600  0.10079651
   0.33332954  0.16666477  0.47058652
   0.50000029  0.00000057  0.47058625
   0.33333267  0.66666633  0.47058591
   0.50000029  0.49999871  0.47058625
   0.83333423  0.16666477  0.47058652
   0.99999967  0.99999933  0.47058683
   0.83333423  0.66666946  0.47058652
   0.99999843  0.49999871  0.47058625
Direct configuration=     5
   0.66977236  0.00000000  0.10001321
   0.33022664  0.00000000  0.10001321
  -0.00000000  0.33022664  0.10001321
  -0.00000000  0.66977236  0.10001321
   0.33022664  0.33022664  0.10001321
   0.66977236  0.66977236  0.10001321
   0.66666600  0.33333300  0.09923295
   0.33333300  0.66666600  0.10079647
   0.33332955  0.16666477  0.47058655
   0.50000028  0.00000057  0.47058628
   0.33333267  0.66666633  0.47058595
   0.50000028  0.49999872  0.47058628
   0.83333423  0.16666477  0.47058655
   0.99999967  0.99999933  0.47058686
   0.83333423  0.66666945  0.47058655
   0.99999843  0.49999872  0.47058628
Direct configuration=     6
   0.66977079  0.00000000  0.10001319
   0.33022821  0.00000000  0.10001319
  -0.00000000  0.33022821  0.10001319
  -0.00000000  0.66977079  0.10001319
   0.33022821  0.33022821  0.10001319
   0.66977079  0.66977079  0.10001319
   0.66666600  0.33333300  0.09923293
   0.33333300  0.66666600  0.10079644
   0.33332955  0.16666478  0.47058658
   0.50000028  0.00000057  0.47058631
   0.33333267  0.66666633  0.47058597
   0.50000028  0.49999872  0.47058631
   0.83333422  0.16666478  0.47058658
   0.99999967  0.99999933  0.47058689
   0.83333422  0.66666945  0.47058658
   0.99999843  0.49999872  0.47058631
Direct configuration=     7
   0.66977001  0.00000000  0.10001318
   0.33022900  0.00000000  0.10001318
  -0.00000000  0.33022899  0.10001318
  -0.00000000  0.66977000  0.10001318
   0.33022900  0.33022899  0.10001318
   0.66977001  0.66977000  0.10001318
   0.66666600  0.33333300  0.09923292
   0.33333300  0.66666600  0.10079642
   0.33332955  0.16666478  0.47058659
   0.50000028  0.00000057  0.47058632
   0.33333267  0.66666633  0.47058598
   0.50000028  0.49999872  0.47058632
   0.83333422  0.16666478  0.47058659
   0.99999967  0.99999933  0.47058690
   0.83333422  0.66666945  0.47058659
   0.99999843  0.49999872  0.47058632
Direct configuration=     8
   0.66976999 -0.00000002  0.10003660
   0.33022900 -0.00000002  0.10003660
   0.00000002  0.33022901  0.10003660
   0.00000002  0.66977000  0.10003660
   0.33022900  0.33022901  0.10003660
   0.66976999  0.66977000  0.10003660
   0.66666600  0.33333300  0.09925530
   0.33333300  0.66666600  0.10082527
   0.33333411  0.16666706  0.47056282
   0.49999936 -0.00000129  0.47056216
   0.33333267  0.66666633  0.47056140
   0.49999936  0.49999964  0.47056216
   0.83333194  0.16666706  0.47056282
   0.99999967  0.99999933  0.47056351
   0.83333194  0.66666489  0.47056282
   0.00000029  0.49999964  0.47056216
Direct configuration=     9
   0.66976992 -0.00000008  0.10010686
   0.33022900 -0.00000008  0.10010686
   0.00000008  0.33022908  0.10010686
   0.00000008  0.66977000  0.10010686
   0.33022900  0.33022908  0.10010686
   0.66976992  0.66977000  0.10010686
   0.66666600  0.33333300  0.09932245
   0.33333300  0.66666600  0.10091182
   0.33334780  0.16667390  0.47049150
   0.49999657 -0.00000685  0.47048969
   0.33333267  0.66666633  0.47048767
   0.49999657  0.50000243  0.47048969
   0.83332510  0.16667390  0.47049150
   0.99999967  0.99999933  0.47049336
   0.83332510  0.66665120  0.47049150
   0.00000585  0.50000243  0.47048969
Direct configuration=    10
   0.66976980 -0.00000019  0.10024738
   0.33022901 -0.00000019  0.10024738
   0.00000019  0.33022920  0.10024738
   0.00000019  0.66976999  0.10024738
   0.33022901  0.33022920  0.10024738
   0.66976980  0.66976999  0.10024738
   0.66666600  0.33333300  0.09945674
   0.33333300  0.66666600  0.10108492
   0.33337516  0.16668758  0.47034886
   0.49999101 -0.00001798  0.47034475
   0.33333267  0.66666633  0.47034019
   0.49999101  0.50000799  0.47034475
   0.83331142  0.16668758  0.47034886
   0.99999967  0.99999933  0.47035306
   0.83331142  0.66662384  0.47034886
   0.00001698  0.50000799  0.47034475
Direct configuration=    11
   0.66976954 -0.00000043  0.10052842
   0.33022903 -0.00000043  0.10052842
   0.00000043  0.33022946  0.10052842
   0.00000043  0.66976997  0.10052842
   0.33022903  0.33022946  0.10052842
   0.66976954  0.66976997  0.10052842
   0.66666600  0.33333300  0.09972533
   0.33333300  0.66666600  0.10143112
   0.33342989  0.16671495  0.47006359
   0.49997988 -0.00004024  0.47005486
   0.33333267  0.66666633  0.47004523
   0.49997988  0.50001912  0.47005486
   0.83328405  0.16671495  0.47006359
   0.99999967  0.99999933  0.47007245
   0.83328405  0.66656911  0.47006359
   0.00003924  0.50001912  0.47005486
Direct configuration=    12
   0.66976904 -0.00000090  0.10109051
   0.33022906 -0.00000090  0.10109051
   0.00000090  0.33022996  0.10109051
   0.00000090  0.66976994  0.10109051
   0.33022906  0.33022996  0.10109051
   0.66976904  0.66976994  0.10109051
   0.66666600  0.33333300  0.10026250
   0.33333300  0.66666600  0.10212351
   0.33353935  0.16676968  0.46949305
   0.49995762 -0.00008476  0.46947509
   0.33333267  0.66666633  0.46945532
   0.49995762  0.50004138  0.46947509
   0.83322932  0.16676968  0.46949305
   0.99999967  0.99999933  0.46951123
   0.83322932  0.66645965  0.46949305
   0.00008376  0.50004138  0.46947509
Direct configuration=    13
   0.66976803 -0.00000184  0.10221468
   0.33022914 -0.00000184  0.10221468
   0.00000184  0.33023097  0.10221468
   0.00000184  0.66976986  0.10221468
   0.33022914  0.33023097  0.10221468
   0.66976803  0.66976986  0.10221468
   0.66666600  0.33333300  0.10133685
   0.33333300  0.66666600  0.10350829
   0.33375827  0.16687914  0.46835196
   0.49991310 -0.00017380  0.46831555
   0.33333267  0.66666633  0.46827550
   0.49991310  0.50008590  0.46831555
   0.83311986  0.16687914  0.46835196
   0.99999967  0.99999933  0.46838878
   0.83311986  0.66624073  0.46835196
   0.00017280  0.50008590  0.46831555
Direct configuration=    14
   0.66976600 -0.00000372  0.10446302
   0.33022928 -0.00000372  0.10446302
   0.00000372  0.33023300  0.10446302
   0.00000372  0.66976972  0.10446302
   0.33022928  0.33023300  0.10446302
   0.66976600  0.66976972  0.10446302
   0.66666600  0.33333300  0.10348555
   0.33333300  0.66666600  0.10627787
   0.33419611  0.16709806  0.46606978
   0.49982406 -0.00035187  0.46599646
   0.33333267  0.66666633  0.46591585
   0.49982406  0.50017494  0.46599646
   0.83290094  0.16709806  0.46606978
   0.99999967  0.99999933  0.46614390
   0.83290094  0.66580289  0.46606978
   0.00035087  0.50017494  0.46599646
Direct configuration=    15
   0.66976196 -0.00000748  0.10895970
   0.33022957 -0.00000748  0.10895970
   0.00000748  0.33023704  0.10895970
   0.00000748  0.66976943  0.10895970
   0.33022957  0.33023704  0.10895970
   0.66976196  0.66976943  0.10895970
   0.66666600  0.33333300  0.10778294
   0.33333300  0.66666600  0.11181701
   0.33507180  0.16753590  0.46150543
   0.49964599 -0.00070802  0.46135829
   0.33333267  0.66666633  0.46119656
   0.49964599  0.50035301  0.46135829
   0.83246310  0.16753590  0.46150543
   0.99999967  0.99999933  0.46165414
   0.83246310  0.66492720  0.46150543
   0.00070702  0.50035301  0.46135829
Direct configuration=    16
   0.66975386 -0.00001499  0.11795305
   0.33023015 -0.00001499  0.11795305
   0.00001499  0.33024514  0.11795305
   0.00001499  0.66976885  0.11795305
   0.33023015  0.33024514  0.11795305
   0.66975386  0.66976885  0.11795305
   0.66666600  0.33333300  0.11637772
   0.33333300  0.66666600  0.12289530
   0.33682316  0.16841158  0.45237673
   0.49928984 -0.00142032  0.45208195
   0.33333267  0.66666633  0.45175798
   0.49928984  0.50070916  0.45208195
   0.83158742  0.16841158  0.45237673
   0.99999967  0.99999933  0.45267462
   0.83158742  0.66317584  0.45237673
   0.00141932  0.50070916  0.45208195
Direct configuration=    17
   0.66975386 -0.00001500  0.11795396
   0.33023015 -0.00001500  0.11795396
   0.00001500  0.33024514  0.11795396
   0.00001500  0.66976885  0.11795396
   0.33023015  0.33024514  0.11795396
   0.66975386  0.66976885  0.11795396
   0.66666600  0.33333300  0.11637859
   0.33333300  0.66666600  0.12289641
   0.33682323  0.16841161  0.45237582
   0.49928983 -0.00142035  0.45208102
   0.33333267  0.66666633  0.45175704
   0.49928983  0.50070917  0.45208102
   0.83158739  0.16841161  0.45237582
   0.99999967  0.99999933  0.45267371
   0.83158739  0.66317577  0.45237582
   0.00141935  0.50070917  0.45208102
Direct configuration=    18
   0.66975385 -0.00001500  0.11795667
   0.33023015 -0.00001500  0.11795667
   0.00001500  0.33024515  0.11795667
   0.00001500  0.66976885  0.11795667
   0.33023015  0.33024515  0.11795667
   0.66975385  0.66976885  0.11795667
   0.66666600  0.33333300  0.11638117
   0.33333300  0.66666600  0.12289975
   0.33682343  0.16841172  0.45237306
   0.49928979 -0.00142043  0.45207822
   0.33333267  0.66666633  0.45175420
   0.49928979  0.50070921  0.45207822
   0.83158728  0.16841172  0.45237306
   0.99999967  0.99999933  0.45267100
   0.83158728  0.66317557  0.45237306
   0.00141943  0.50070921  0.45207822
Direct configuration=    19
   0.66975384 -0.00001501  0.11796209
   0.33023015 -0.00001501  0.11796209
   0.00001501  0.33024516  0.11796209
   0.00001501  0.66976885  0.11796209
   0.33023015  0.33024516  0.11796209
   0.66975384  0.66976885  0.11796209
   0.66666600  0.33333300  0.11638635
   0.33333300  0.66666600  0.12290642
   0.33682384  0.16841192  0.45236756
   0.49928971 -0.00142058  0.45207264
   0.33333267  0.66666633  0.45174852
   0.49928971  0.50070929  0.45207264
   0.83158708  0.16841192  0.45236756
   0.99999967  0.99999933  0.45266558
   0.83158708  0.66317516  0.45236756
   0.00141958  0.50070929  0.45207264
Direct configuration=    20
   0.66975381 -0.00001504  0.11797293
   0.33023015 -0.00001504  0.11797293
   0.00001504  0.33024519  0.11797293
   0.00001504  0.66976885  0.11797293
   0.33023015  0.33024519  0.11797293
   0.66975381  0.66976885  0.11797293
   0.66666600  0.33333300  0.11639669
   0.33333300  0.66666600  0.12291976
   0.33682465  0.16841233  0.45235655
   0.49928955 -0.00142090  0.45206146
   0.33333267  0.66666633  0.45173717
   0.49928955  0.50070945  0.45206146
   0.83158667  0.16841233  0.45235655
   0.99999967  0.99999933  0.45265473
   0.83158667  0.66317435  0.45235655
   0.00141990  0.50070945  0.45206146
Direct configuration=    21
   0.66975376 -0.00001508  0.11799462
   0.33023016 -0.00001508  0.11799462
   0.00001508  0.33024524  0.11799462
   0.00001508  0.66976884  0.11799462
   0.33023016  0.33024524  0.11799462
   0.66975376  0.66976884  0.11799462
   0.66666600  0.33333300  0.11641739
   0.33333300  0.66666600  0.12294644
   0.33682628  0.16841314  0.45233453
   0.49928924 -0.00142153  0.45203912
   0.33333267  0.66666633  0.45171447
   0.49928924  0.50070976  0.45203912
   0.83158586  0.16841314  0.45233453
   0.99999967  0.99999933  0.45263304
   0.83158586  0.66317272  0.45233453
   0.00142053  0.50070976  0.45203912
Direct configuration=    22
   0.66975365 -0.00001517  0.11803799
   0.33023018 -0.00001517  0.11803799
   0.00001517  0.33024535  0.11803799
   0.00001517  0.66976882  0.11803799
   0.33023018  0.33024535  0.11803799
   0.66975365  0.66976882  0.11803799
   0.66666600  0.33333300  0.11645877
   0.33333300  0.66666600  0.12299980
   0.33682954  0.16841477  0.45229050
   0.49928861 -0.00142278  0.45199442
   0.33333267  0.66666633  0.45166906
   0.49928861  0.50071039  0.45199442
   0.83158423  0.16841477  0.45229050
   0.99999967  0.99999933  0.45258966
   0.83158423  0.66316946  0.45229050
   0.00142178  0.50071039  0.45199442
Direct configuration=    23
   0.66975343 -0.00001536  0.11812474
   0.33023021 -0.00001536  0.11812474
   0.00001536  0.33024557  0.11812474
   0.00001536  0.66976879  0.11812474
   0.33023021  0.33024557  0.11812474
   0.66975343  0.66976879  0.11812474
   0.66666600  0.33333300  0.11654154
   0.33333300  0.66666600  0.12310652
   0.33683605  0.16841803  0.45220242
   0.49928735 -0.00142530  0.45190503
   0.33333267  0.66666633  0.45157825
   0.49928735  0.50071165  0.45190503
   0.83158097  0.16841803  0.45220242
   0.99999967  0.99999933  0.45250289
   0.83158097  0.66316295  0.45220242
   0.00142430  0.50071165  0.45190503
Direct configuration=    24
   0.66975299 -0.00001572  0.11829823
   0.33023028 -0.00001572  0.11829823
   0.00001572  0.33024601  0.11829823
   0.00001572  0.66976872  0.11829823
   0.33023028  0.33024601  0.11829823
   0.66975299  0.66976872  0.11829823
   0.66666600  0.33333300  0.11670709
   0.33333300  0.66666600  0.12331996
   0.33684908  0.16842454  0.45202628
   0.49928484 -0.00143032  0.45172626
   0.33333267  0.66666633  0.45139662
   0.49928484  0.50071416  0.45172626
   0.83157446  0.16842454  0.45202628
   0.99999967  0.99999933  0.45232936
   0.83157446  0.66314992  0.45202628
   0.00142932  0.50071416  0.45172626
Direct configuration=    25
   0.66975212 -0.00001646  0.11864521
   0.33023042 -0.00001646  0.11864521
   0.00001646  0.33024688  0.11864521
   0.00001646  0.66976858  0.11864521
   0.33023042  0.33024688  0.11864521
   0.66975212  0.66976858  0.11864521
   0.66666600  0.33333300  0.11703817
   0.33333300  0.66666600  0.12374683
   0.33687513  0.16843757  0.45167398
   0.49927981 -0.00144037  0.45136870
   0.33333267  0.66666633  0.45103336
   0.49927981  0.50071919  0.45136870
   0.83156143  0.16843757  0.45167398
   0.99999967  0.99999933  0.45198230
   0.83156143  0.66312387  0.45167398
   0.00143937  0.50071919  0.45136870
Direct configuration=    26
   0.66975038 -0.00001793  0.11933918
   0.33023069 -0.00001793  0.11933918
   0.00001793  0.33024862  0.11933918
   0.00001793  0.66976831  0.11933918
   0.33023069  0.33024862  0.11933918
   0.66975038  0.66976831  0.11933918
   0.66666600  0.33333300  0.11770034
   0.33333300  0.66666600  0.12460059
   0.33692724  0.16846362  0.45096940
   0.49926976 -0.00146047  0.45065359
   0.33333267  0.66666633  0.45030684
   0.49926976  0.50072924  0.45065359
   0.83153538  0.16846362  0.45096940
   0.99999967  0.99999933  0.45128817
   0.83153538  0.66307176  0.45096940
   0.00145947  0.50072924  0.45065359
Direct configuration=    27
   0.66974690 -0.00002087  0.12072711
   0.33023123 -0.00002087  0.12072711
   0.00002087  0.33025210  0.12072711
   0.00002087  0.66976777  0.12072711
   0.33023123  0.33025210  0.12072711
   0.66974690  0.66976777  0.12072711
   0.66666600  0.33333300  0.11902468
   0.33333300  0.66666600  0.12630810
   0.33703145  0.16851573  0.44956023
   0.49924966 -0.00150067  0.44922338
   0.33333267  0.66666633  0.44885381
   0.49924966  0.50074934  0.44922338
   0.83148327  0.16851573  0.44956023
   0.99999967  0.99999933  0.44989992
   0.83148327  0.66296755  0.44956023
   0.00149967  0.50074934  0.44922338
Direct configuration=    28
   0.66973993 -0.00002675  0.12350298
   0.33023232 -0.00002675  0.12350298
   0.00002675  0.33025907  0.12350298
   0.00002675  0.66976668  0.12350298
   0.33023232  0.33025907  0.12350298
   0.66973993  0.66976668  0.12350298
   0.66666600  0.33333300  0.12167337
   0.33333300  0.66666600  0.12972312
   0.33723988  0.16861994  0.44674189
   0.49920946 -0.00158108  0.44636295
   0.33333267  0.66666633  0.44594774
   0.49920946  0.50078954  0.44636295
   0.83137906  0.16861994  0.44674189
   0.99999967  0.99999933  0.44712342
   0.83137906  0.66275912  0.44674189
   0.00158008  0.50078954  0.44636295
Direct configuration=    29
   0.66972600 -0.00003851  0.12905470
   0.33023450 -0.00003851  0.12905470
   0.00003851  0.33027300  0.12905470
   0.00003851  0.66976450  0.12905470
   0.33023450  0.33027300  0.12905470
   0.66972600  0.66976450  0.12905470
   0.66666600  0.33333300  0.12697073
   0.33333300  0.66666600  0.13655316
   0.33765673  0.16882837  0.44110521
   0.49912906 -0.00174188  0.44064208
   0.33333267  0.66666633  0.44013560
   0.49912906  0.50086994  0.44064208
   0.83117063  0.16882837  0.44110521
   0.99999967  0.99999933  0.44157041
   0.83117063  0.66234227  0.44110521
   0.00174088  0.50086994  0.44064208
Direct configuration=    30
   0.66969813 -0.00006202  0.14015816
   0.33023885 -0.00006202  0.14015816
   0.00006202  0.33030087  0.14015816
   0.00006202  0.66976015  0.14015816
   0.33023885  0.33030087  0.14015816
   0.66969813  0.66976015  0.14015816
   0.66666600  0.33333300  0.13756546
   0.33333300  0.66666600  0.15021324
   0.33849044  0.16924522  0.42983185
   0.49896825 -0.00206349  0.42920035
   0.33333267  0.66666633  0.42851132
   0.49896825  0.50103075  0.42920035
   0.83075378  0.16924522  0.42983185
   0.99999967  0.99999933  0.43046440
   0.83075378  0.66150856  0.42983185
   0.00206249  0.50103075  0.42920035
Direct configuration=    31
   0.66964239 -0.00010905  0.16236508
   0.33024756 -0.00010905  0.16236508
   0.00010905  0.33035661  0.16236508
   0.00010905  0.66975144  0.16236508
   0.33024756  0.33035661  0.16236508
   0.66964239  0.66975144  0.16236508
   0.66666600  0.33333300  0.15875492
   0.33333300  0.66666600  0.17753340
   0.34015786  0.17007893  0.40728513
   0.49864664 -0.00270671  0.40631689
   0.33333267  0.66666633  0.40526277
   0.49864664  0.50135236  0.40631689
   0.82992007  0.17007893  0.40728513
   0.99999967  0.99999933  0.40825238
   0.82992007  0.65984114  0.40728513
   0.00270571  0.50135236  0.40631689
