   2   2   1  16
  0.3953030E+02  0.2467000E-09  0.2467000E-09  0.1500000E-08  0.5000000E-15
  1.000000000000000E-004
  CAR 
 Relaxation_HSE06                        
     13.69834524    -26.30214892  301     -2.29768571      1.00000000
    -26.302  0.0000E+00  0.0000E+00
    -26.169  0.0000E+00  0.0000E+00
    -26.035  0.0000E+00  0.0000E+00
    -25.902  0.0000E+00  0.0000E+00
    -25.769  0.0000E+00  0.0000E+00
    -25.635  0.0000E+00  0.0000E+00
    -25.502  0.0000E+00  0.0000E+00
    -25.369  0.0000E+00  0.0000E+00
    -25.235  0.0000E+00  0.0000E+00
    -25.102  0.0000E+00  0.0000E+00
    -24.969  0.8077E-15  0.1077E-15
    -24.835  0.8331E-10  0.1111E-10
    -24.702  0.3285E-06  0.4381E-07
    -24.569  0.6437E-04  0.8626E-05
    -24.435  0.8918E-03  0.1275E-03
    -24.302  0.2045E-02  0.4002E-03
    -24.169  0.2085E-02  0.6783E-03
    -24.035  0.2344E-02  0.9908E-03
    -23.902  0.1905E-02  0.1245E-02
    -23.769  0.2645E-02  0.1597E-02
    -23.635  0.1613E-02  0.1813E-02
    -23.502  0.2604E-02  0.2160E-02
    -23.369  0.2405E-02  0.2480E-02
    -23.235  0.1382E-02  0.2665E-02
    -23.102  0.2807E-02  0.3039E-02
    -22.969  0.2617E-02  0.3388E-02
    -22.835  0.1431E-02  0.3579E-02
    -22.702  0.1894E-02  0.3831E-02
    -22.569  0.3407E-02  0.4285E-02
    -22.435  0.1927E-02  0.4542E-02
    -22.302  0.1773E-02  0.4779E-02
    -22.169  0.1449E-02  0.4972E-02
    -22.035  0.3700E-02  0.5465E-02
    -21.902  0.2510E-02  0.5800E-02
    -21.769  0.1198E-02  0.5960E-02
    -21.635  0.1898E-02  0.6213E-02
    -21.502  0.2367E-02  0.6528E-02
    -21.369  0.3473E-02  0.6992E-02
    -21.235  0.2377E-02  0.7309E-02
    -21.102  0.1235E-02  0.7473E-02
    -20.969  0.1372E-02  0.7656E-02
    -20.835  0.3266E-02  0.8092E-02
    -20.702  0.2979E-02  0.8489E-02
    -20.569  0.2474E-02  0.8819E-02
    -20.435  0.2067E-02  0.9094E-02
    -20.302  0.1120E-02  0.9244E-02
    -20.169  0.1629E-02  0.9461E-02
    -20.035  0.4583E-02  0.1007E-01
    -19.902  0.2408E-02  0.1039E-01
    -19.769  0.2146E-02  0.1068E-01
    -19.635  0.1831E-02  0.1092E-01
    -19.502  0.1822E-02  0.1117E-01
    -19.369  0.1647E-02  0.1139E-01
    -19.235  0.4655E-02  0.1201E-01
    -19.102  0.3117E-02  0.1242E-01
    -18.969  0.2133E-02  0.1271E-01
    -18.835  0.2296E-02  0.1301E-01
    -18.702  0.2506E-02  0.1335E-01
    -18.569  0.2299E-02  0.1365E-01
    -18.435  0.4565E-02  0.1426E-01
    -18.302  0.3230E-02  0.1469E-01
    -18.169  0.3429E-03  0.1474E-01
    -18.035  0.6579E-04  0.1475E-01
    -17.902  0.7823E-03  0.1485E-01
    -17.769  0.2054E-02  0.1513E-01
    -17.635  0.2222E-02  0.1542E-01
    -17.502  0.6527E-03  0.1551E-01
    -17.369  0.1025E-02  0.1565E-01
    -17.235  0.2241E-02  0.1594E-01
    -17.102  0.3490E-02  0.1641E-01
    -16.969  0.8953E-03  0.1653E-01
    -16.835  0.2811E-02  0.1690E-01
    -16.702  0.3751E-02  0.1740E-01
    -16.569  0.2734E-02  0.1777E-01
    -16.435  0.2472E-02  0.1810E-01
    -16.302  0.2684E-02  0.1846E-01
    -16.169  0.4347E-02  0.1904E-01
    -16.035  0.2321E-02  0.1935E-01
    -15.902  0.1530E-02  0.1955E-01
    -15.769  0.2075E-02  0.1983E-01
    -15.635  0.3254E-02  0.2026E-01
    -15.502  0.2917E-02  0.2065E-01
    -15.369  0.9588E-03  0.2078E-01
    -15.235  0.1702E-02  0.2100E-01
    -15.102  0.2975E-02  0.2140E-01
    -14.969  0.2023E-02  0.2167E-01
    -14.835  0.2360E-02  0.2198E-01
    -14.702  0.1459E-02  0.2218E-01
    -14.569  0.1104E-02  0.2233E-01
    -14.435  0.2592E-02  0.2267E-01
    -14.302  0.3695E-02  0.2316E-01
    -14.169  0.2560E-02  0.2351E-01
    -14.035  0.8850E-03  0.2362E-01
    -13.902  0.2078E-02  0.2390E-01
    -13.769  0.4347E-02  0.2448E-01
    -13.635  0.3041E-02  0.2489E-01
    -13.502  0.2095E-02  0.2517E-01
    -13.369  0.1852E-02  0.2541E-01
    -13.235  0.3081E-02  0.2582E-01
    -13.102  0.2442E-02  0.2615E-01
    -12.969  0.2353E-02  0.2646E-01
    -12.835  0.2413E-02  0.2678E-01
    -12.702  0.4110E-02  0.2733E-01
    -12.569  0.4737E-02  0.2796E-01
    -12.435  0.6335E-03  0.2805E-01
    -12.302  0.1476E-02  0.2825E-01
    -12.169  0.1781E-02  0.2848E-01
    -12.035  0.5371E-02  0.2920E-01
    -11.902  0.4260E-02  0.2977E-01
    -11.769  0.2390E-02  0.3009E-01
    -11.635  0.2854E-02  0.3047E-01
    -11.502  0.1064E-02  0.3061E-01
    -11.369  0.4481E-02  0.3121E-01
    -11.235  0.4549E-02  0.3181E-01
    -11.102  0.4114E-02  0.3236E-01
    -10.969  0.4937E-02  0.3302E-01
    -10.835  0.6671E-02  0.3391E-01
    -10.702  0.5841E-02  0.3469E-01
    -10.569  0.3864E-02  0.3520E-01
    -10.435  0.6753E-02  0.3610E-01
    -10.302  0.4839E-02  0.3675E-01
    -10.169  0.6785E-02  0.3765E-01
    -10.035  0.9061E-02  0.3886E-01
     -9.902  0.9677E-02  0.4015E-01
     -9.769  0.3754E-02  0.4065E-01
     -9.635  0.6245E-02  0.4148E-01
     -9.502  0.6876E-02  0.4240E-01
     -9.369  0.6428E-02  0.4326E-01
     -9.235  0.3799E-02  0.4376E-01
     -9.102  0.5260E-02  0.4447E-01
     -8.969  0.6901E-02  0.4539E-01
     -8.835  0.4210E-02  0.4595E-01
     -8.702  0.2917E-02  0.4634E-01
     -8.569  0.4729E-02  0.4697E-01
     -8.435  0.5474E-02  0.4770E-01
     -8.302  0.5096E-02  0.4838E-01
     -8.169  0.3641E-02  0.4886E-01
     -8.035  0.4183E-02  0.4942E-01
     -7.902  0.5089E-02  0.5010E-01
     -7.769  0.2311E-02  0.5041E-01
     -7.635  0.2771E-02  0.5078E-01
     -7.502  0.6943E-02  0.5170E-01
     -7.369  0.5537E-02  0.5244E-01
     -7.235  0.1844E-02  0.5269E-01
     -7.102  0.1681E-02  0.5291E-01
     -6.969  0.4791E-02  0.5355E-01
     -6.835  0.4669E-02  0.5417E-01
     -6.702  0.4306E-02  0.5475E-01
     -6.569  0.4112E-02  0.5529E-01
     -6.435  0.3580E-02  0.5577E-01
     -6.302  0.2241E-02  0.5607E-01
     -6.169  0.2044E-02  0.5634E-01
     -6.035  0.2431E-02  0.5667E-01
     -5.902  0.3786E-02  0.5717E-01
     -5.769  0.3447E-02  0.5763E-01
     -5.635  0.2230E-02  0.5793E-01
     -5.502  0.1752E-02  0.5816E-01
     -5.369  0.1848E-02  0.5841E-01
     -5.235  0.1658E-02  0.5863E-01
     -5.102  0.6597E-02  0.5951E-01
     -4.969  0.6012E-02  0.6031E-01
     -4.835  0.6010E-03  0.6039E-01
     -4.702  0.8347E-03  0.6050E-01
     -4.569  0.6677E-03  0.6059E-01
     -4.435  0.1848E-02  0.6084E-01
     -4.302  0.2606E-02  0.6118E-01
     -4.169  0.2779E-02  0.6156E-01
     -4.035  0.5438E-03  0.6163E-01
     -3.902  0.8095E-03  0.6174E-01
     -3.769  0.4058E-03  0.6179E-01
     -3.635  0.1237E-03  0.6181E-01
     -3.502  0.1403E-02  0.6199E-01
     -3.369  0.1573E-02  0.6220E-01
     -3.235  0.8164E-03  0.6231E-01
     -3.102  0.8193E-04  0.6232E-01
     -2.969  0.1162E-05  0.6232E-01
     -2.835  0.1128E-03  0.6234E-01
     -2.702  0.8130E-03  0.6245E-01
     -2.569  0.3917E-03  0.6250E-01
     -2.435  0.1083E-04  0.6250E-01
     -2.302  0.1201E-07  0.6250E-01
     -2.169  0.4704E-10  0.6250E-01
     -2.035  0.3031E-06  0.6250E-01
     -1.902  0.6969E-04  0.6251E-01
     -1.769  0.7340E-03  0.6261E-01
     -1.635  0.5043E-03  0.6267E-01
     -1.502  0.2085E-04  0.6268E-01
     -1.369  0.7468E-05  0.6268E-01
     -1.235  0.3587E-03  0.6273E-01
     -1.102  0.1665E-02  0.6295E-01
     -0.969  0.1749E-02  0.6318E-01
     -0.835  0.4518E-03  0.6324E-01
     -0.702  0.8702E-03  0.6336E-01
     -0.568  0.2254E-03  0.6339E-01
     -0.435  0.1055E-02  0.6353E-01
     -0.302  0.5563E-02  0.6427E-01
     -0.168  0.4144E-02  0.6482E-01
     -0.035  0.3268E-02  0.6526E-01
      0.098  0.2373E-02  0.6557E-01
      0.232  0.2695E-02  0.6593E-01
      0.365  0.2505E-02  0.6627E-01
      0.498  0.1725E-02  0.6650E-01
      0.632  0.4445E-02  0.6709E-01
      0.765  0.2630E-02  0.6744E-01
      0.898  0.2662E-03  0.6748E-01
      1.032  0.1467E-02  0.6767E-01
      1.165  0.2578E-02  0.6802E-01
      1.298  0.2637E-02  0.6837E-01
      1.432  0.3484E-02  0.6883E-01
      1.565  0.2913E-02  0.6922E-01
      1.698  0.5202E-02  0.6991E-01
      1.832  0.3973E-02  0.7044E-01
      1.965  0.2129E-02  0.7073E-01
      2.098  0.3126E-02  0.7114E-01
      2.232  0.4310E-02  0.7172E-01
      2.365  0.5028E-02  0.7239E-01
      2.498  0.6580E-02  0.7327E-01
      2.632  0.6545E-02  0.7414E-01
      2.765  0.5220E-02  0.7484E-01
      2.898  0.6633E-02  0.7572E-01
      3.032  0.7871E-02  0.7677E-01
      3.165  0.6021E-02  0.7757E-01
      3.298  0.4815E-02  0.7821E-01
      3.432  0.6581E-02  0.7909E-01
      3.565  0.6534E-02  0.7996E-01
      3.698  0.6748E-02  0.8086E-01
      3.832  0.9702E-02  0.8216E-01
      3.965  0.5692E-02  0.8292E-01
      4.098  0.2695E-02  0.8327E-01
      4.232  0.5688E-02  0.8403E-01
      4.365  0.9894E-02  0.8535E-01
      4.498  0.8530E-02  0.8649E-01
      4.632  0.5406E-02  0.8721E-01
      4.765  0.7471E-02  0.8821E-01
      4.898  0.7131E-02  0.8916E-01
      5.032  0.8232E-02  0.9026E-01
      5.165  0.8851E-02  0.9144E-01
      5.298  0.1003E-01  0.9277E-01
      5.432  0.5418E-02  0.9350E-01
      5.565  0.4381E-02  0.9408E-01
      5.698  0.1022E-01  0.9544E-01
      5.832  0.9806E-02  0.9675E-01
      5.965  0.9054E-02  0.9796E-01
      6.098  0.9157E-02  0.9918E-01
      6.232  0.9889E-02  0.1005E+00
      6.365  0.1177E-01  0.1021E+00
      6.498  0.9078E-02  0.1033E+00
      6.632  0.5881E-02  0.1041E+00
      6.765  0.5780E-02  0.1048E+00
      6.898  0.8412E-02  0.1060E+00
      7.032  0.8440E-02  0.1071E+00
      7.165  0.5351E-02  0.1078E+00
      7.298  0.5992E-02  0.1086E+00
      7.432  0.3203E-02  0.1090E+00
      7.565  0.3198E-02  0.1094E+00
      7.698  0.6485E-02  0.1103E+00
      7.832  0.5549E-02  0.1110E+00
      7.965  0.7583E-02  0.1121E+00
      8.098  0.7201E-02  0.1130E+00
      8.232  0.3514E-02  0.1135E+00
      8.365  0.2897E-02  0.1139E+00
      8.498  0.5429E-02  0.1146E+00
      8.632  0.4560E-02  0.1152E+00
      8.765  0.3598E-02  0.1157E+00
      8.898  0.6099E-02  0.1165E+00
      9.032  0.9281E-02  0.1177E+00
      9.165  0.1007E-01  0.1191E+00
      9.298  0.6655E-02  0.1200E+00
      9.432  0.4334E-02  0.1205E+00
      9.565  0.2633E-02  0.1209E+00
      9.698  0.4397E-02  0.1215E+00
      9.832  0.3602E-02  0.1220E+00
      9.965  0.1472E-02  0.1222E+00
     10.098  0.1505E-02  0.1224E+00
     10.232  0.4783E-02  0.1230E+00
     10.365  0.4467E-02  0.1236E+00
     10.498  0.1256E-02  0.1238E+00
     10.632  0.8378E-03  0.1239E+00
     10.765  0.1610E-02  0.1241E+00
     10.898  0.2131E-03  0.1241E+00
     11.032  0.3752E-04  0.1241E+00
     11.165  0.6199E-03  0.1242E+00
     11.298  0.1349E-02  0.1244E+00
     11.432  0.2627E-02  0.1247E+00
     11.565  0.6748E-03  0.1248E+00
     11.698  0.1649E-04  0.1248E+00
     11.832  0.3208E-03  0.1249E+00
     11.965  0.8486E-03  0.1250E+00
     12.098  0.1516E-03  0.1250E+00
     12.232  0.1350E-05  0.1250E+00
     12.365  0.4421E-09  0.1250E+00
     12.498  0.4677E-14  0.1250E+00
     12.632  0.0000E+00  0.1250E+00
     12.765  0.0000E+00  0.1250E+00
     12.898  0.0000E+00  0.1250E+00
     13.032  0.0000E+00  0.1250E+00
     13.165  0.0000E+00  0.1250E+00
     13.298  0.0000E+00  0.1250E+00
     13.432  0.0000E+00  0.1250E+00
     13.565  0.0000E+00  0.1250E+00
     13.698  0.0000E+00  0.1250E+00
     13.69834524    -26.30214892  301     -2.29768571      1.00000000
    -26.302  0.0000E+00  0.0000E+00  0.0000E+00  0.0000E+00  0.0000E+00  0.0000E+00  0.0000E+00  0.0000E+00  0.0000E+00
    -26.169  0.0000E+00  0.0000E+00  0.0000E+00  0.0000E+00  0.0000E+00  0.0000E+00  0.0000E+00  0.0000E+00  0.0000E+00
    -26.035  0.0000E+00  0.0000E+00  0.0000E+00  0.0000E+00  0.0000E+00  0.0000E+00  0.0000E+00  0.0000E+00  0.0000E+00
    -25.902  0.0000E+00  0.0000E+00  0.0000E+00  0.0000E+00  0.0000E+00  0.0000E+00  0.0000E+00  0.0000E+00  0.0000E+00
    -25.769  0.0000E+00  0.0000E+00  0.0000E+00  0.0000E+00  0.0000E+00  0.0000E+00  0.0000E+00  0.0000E+00  0.0000E+00
    -25.635  0.0000E+00  0.0000E+00  0.0000E+00  0.0000E+00  0.0000E+00  0.0000E+00  0.0000E+00  0.0000E+00  0.0000E+00
    -25.502  0.0000E+00  0.0000E+00  0.0000E+00  0.0000E+00  0.0000E+00  0.0000E+00  0.0000E+00  0.0000E+00  0.0000E+00
    -25.369  0.0000E+00  0.0000E+00  0.0000E+00  0.0000E+00  0.0000E+00  0.0000E+00  0.0000E+00  0.0000E+00  0.0000E+00
    -25.235  0.0000E+00  0.0000E+00  0.0000E+00  0.0000E+00  0.0000E+00  0.0000E+00  0.0000E+00  0.0000E+00  0.0000E+00
    -25.102  0.0000E+00  0.0000E+00  0.0000E+00  0.0000E+00  0.0000E+00  0.0000E+00  0.0000E+00  0.0000E+00  0.0000E+00
    -24.969  0.3389E-13  0.1733E-17  0.9123E-28  0.1733E-17  0.0000E+00  0.0000E+00  0.0000E+00  0.0000E+00  0.0000E+00
    -24.835  0.3495E-08  0.5917E-12  0.9410E-23  0.5917E-12  0.0000E+00  0.0000E+00  0.0000E+00  0.0000E+00  0.0000E+00
    -24.702  0.1377E-04  0.6384E-08  0.3711E-19  0.6384E-08  0.0000E+00  0.0000E+00  0.0000E+00  0.0000E+00  0.0000E+00
    -24.569  0.2697E-02  0.2494E-05  0.7274E-17  0.2494E-05  0.0000E+00  0.0000E+00  0.0000E+00  0.0000E+00  0.0000E+00
    -24.435  0.3732E-01  0.6354E-04  0.1008E-15  0.6354E-04  0.0000E+00  0.0000E+00  0.0000E+00  0.0000E+00  0.0000E+00
    -24.302  0.8532E-01  0.3289E-03  0.2308E-15  0.3289E-03  0.0000E+00  0.0000E+00  0.0000E+00  0.0000E+00  0.0000E+00
    -24.169  0.8650E-01  0.6538E-03  0.2344E-15  0.6538E-03  0.0000E+00  0.0000E+00  0.0000E+00  0.0000E+00  0.0000E+00
    -24.035  0.9670E-01  0.1083E-02  0.2627E-15  0.1083E-02  0.0000E+00  0.0000E+00  0.0000E+00  0.0000E+00  0.0000E+00
    -23.902  0.7801E-01  0.1265E-02  0.2123E-15  0.1265E-02  0.0000E+00  0.0000E+00  0.0000E+00  0.0000E+00  0.0000E+00
    -23.769  0.1078E+00  0.2085E-02  0.2947E-15  0.2085E-02  0.0000E+00  0.0000E+00  0.0000E+00  0.0000E+00  0.0000E+00
    -23.635  0.6533E-01  0.1551E-02  0.1776E-15  0.1551E-02  0.0000E+00  0.0000E+00  0.0000E+00  0.0000E+00  0.0000E+00
    -23.502  0.1047E+00  0.3032E-02  0.2848E-15  0.3032E-02  0.0000E+00  0.0000E+00  0.0000E+00  0.0000E+00  0.0000E+00
    -23.369  0.9636E-01  0.3001E-02  0.2626E-15  0.3001E-02  0.0000E+00  0.0000E+00  0.0000E+00  0.0000E+00  0.0000E+00
    -23.235  0.5490E-01  0.2053E-02  0.1490E-15  0.2053E-02  0.0000E+00  0.0000E+00  0.0000E+00  0.0000E+00  0.0000E+00
    -23.102  0.1108E+00  0.4609E-02  0.3014E-15  0.4609E-02  0.0000E+00  0.0000E+00  0.0000E+00  0.0000E+00  0.0000E+00
    -22.969  0.1029E+00  0.4608E-02  0.2786E-15  0.4608E-02  0.0000E+00  0.0000E+00  0.0000E+00  0.0000E+00  0.0000E+00
    -22.835  0.5599E-01  0.2685E-02  0.1508E-15  0.2685E-02  0.0000E+00  0.0000E+00  0.0000E+00  0.0000E+00  0.0000E+00
    -22.702  0.7328E-01  0.4124E-02  0.1968E-15  0.4124E-02  0.0000E+00  0.0000E+00  0.0000E+00  0.0000E+00  0.0000E+00
    -22.569  0.1314E+00  0.7663E-02  0.3540E-15  0.7663E-02  0.0000E+00  0.0000E+00  0.0000E+00  0.0000E+00  0.0000E+00
    -22.435  0.7393E-01  0.4601E-02  0.1984E-15  0.4601E-02  0.0000E+00  0.0000E+00  0.0000E+00  0.0000E+00  0.0000E+00
    -22.302  0.6763E-01  0.4512E-02  0.1797E-15  0.4512E-02  0.0000E+00  0.0000E+00  0.0000E+00  0.0000E+00  0.0000E+00
    -22.169  0.5471E-01  0.4061E-02  0.1471E-15  0.4061E-02  0.0000E+00  0.0000E+00  0.0000E+00  0.0000E+00  0.0000E+00
    -22.035  0.1392E+00  0.1071E-01  0.3744E-15  0.1071E-01  0.0000E+00  0.0000E+00  0.0000E+00  0.0000E+00  0.0000E+00
    -21.902  0.9407E-01  0.7535E-02  0.2515E-15  0.7535E-02  0.0000E+00  0.0000E+00  0.0000E+00  0.0000E+00  0.0000E+00
    -21.769  0.4459E-01  0.3818E-02  0.1193E-15  0.3818E-02  0.0000E+00  0.0000E+00  0.0000E+00  0.0000E+00  0.0000E+00
    -21.635  0.7022E-01  0.6335E-02  0.1887E-15  0.6335E-02  0.0000E+00  0.0000E+00  0.0000E+00  0.0000E+00  0.0000E+00
    -21.502  0.8683E-01  0.8402E-02  0.2355E-15  0.8402E-02  0.0000E+00  0.0000E+00  0.0000E+00  0.0000E+00  0.0000E+00
    -21.369  0.1269E+00  0.1265E-01  0.3437E-15  0.1265E-01  0.0000E+00  0.0000E+00  0.0000E+00  0.0000E+00  0.0000E+00
    -21.235  0.8646E-01  0.8961E-02  0.2350E-15  0.8961E-02  0.0000E+00  0.0000E+00  0.0000E+00  0.0000E+00  0.0000E+00
    -21.102  0.4478E-01  0.4768E-02  0.1222E-15  0.4768E-02  0.0000E+00  0.0000E+00  0.0000E+00  0.0000E+00  0.0000E+00
    -20.969  0.4923E-01  0.5679E-02  0.1328E-15  0.5679E-02  0.0000E+00  0.0000E+00  0.0000E+00  0.0000E+00  0.0000E+00
    -20.835  0.1166E+00  0.1389E-01  0.3148E-15  0.1389E-01  0.0000E+00  0.0000E+00  0.0000E+00  0.0000E+00  0.0000E+00
    -20.702  0.1058E+00  0.1306E-01  0.2865E-15  0.1306E-01  0.0000E+00  0.0000E+00  0.0000E+00  0.0000E+00  0.0000E+00
    -20.569  0.8765E-01  0.1108E-01  0.2373E-15  0.1108E-01  0.0000E+00  0.0000E+00  0.0000E+00  0.0000E+00  0.0000E+00
    -20.435  0.7294E-01  0.9515E-02  0.1972E-15  0.9515E-02  0.0000E+00  0.0000E+00  0.0000E+00  0.0000E+00  0.0000E+00
    -20.302  0.3943E-01  0.5228E-02  0.1069E-15  0.5228E-02  0.0000E+00  0.0000E+00  0.0000E+00  0.0000E+00  0.0000E+00
    -20.169  0.5662E-01  0.8142E-02  0.1525E-15  0.8142E-02  0.0000E+00  0.0000E+00  0.0000E+00  0.0000E+00  0.0000E+00
    -20.035  0.1590E+00  0.2314E-01  0.4291E-15  0.2314E-01  0.0000E+00  0.0000E+00  0.0000E+00  0.0000E+00  0.0000E+00
    -19.902  0.8321E-01  0.1241E-01  0.2255E-15  0.1241E-01  0.0000E+00  0.0000E+00  0.0000E+00  0.0000E+00  0.0000E+00
    -19.769  0.7423E-01  0.1120E-01  0.1992E-15  0.1120E-01  0.0000E+00  0.0000E+00  0.0000E+00  0.0000E+00  0.0000E+00
    -19.635  0.6367E-01  0.9539E-02  0.1675E-15  0.9539E-02  0.0000E+00  0.0000E+00  0.0000E+00  0.0000E+00  0.0000E+00
    -19.502  0.6318E-01  0.9667E-02  0.1691E-15  0.9667E-02  0.0000E+00  0.0000E+00  0.0000E+00  0.0000E+00  0.0000E+00
    -19.369  0.5588E-01  0.9448E-02  0.1484E-15  0.9448E-02  0.0000E+00  0.0000E+00  0.0000E+00  0.0000E+00  0.0000E+00
    -19.235  0.1592E+00  0.2638E-01  0.4257E-15  0.2638E-01  0.0000E+00  0.0000E+00  0.0000E+00  0.0000E+00  0.0000E+00
    -19.102  0.1069E+00  0.1763E-01  0.2876E-15  0.1763E-01  0.0000E+00  0.0000E+00  0.0000E+00  0.0000E+00  0.0000E+00
    -18.969  0.7438E-01  0.1183E-01  0.2004E-15  0.1183E-01  0.0000E+00  0.0000E+00  0.0000E+00  0.0000E+00  0.0000E+00
    -18.835  0.8269E-01  0.1182E-01  0.2232E-15  0.1182E-01  0.0000E+00  0.0000E+00  0.0000E+00  0.0000E+00  0.0000E+00
    -18.702  0.9266E-01  0.1218E-01  0.2494E-15  0.1218E-01  0.0000E+00  0.0000E+00  0.0000E+00  0.0000E+00  0.0000E+00
    -18.569  0.8155E-01  0.1275E-01  0.2175E-15  0.1275E-01  0.0000E+00  0.0000E+00  0.0000E+00  0.0000E+00  0.0000E+00
    -18.435  0.1562E+00  0.2795E-01  0.4161E-15  0.2795E-01  0.0000E+00  0.0000E+00  0.0000E+00  0.0000E+00  0.0000E+00
    -18.302  0.1142E+00  0.1844E-01  0.3067E-15  0.1844E-01  0.0000E+00  0.0000E+00  0.0000E+00  0.0000E+00  0.0000E+00
    -18.169  0.1223E-01  0.1923E-02  0.3286E-16  0.1923E-02  0.0000E+00  0.0000E+00  0.0000E+00  0.0000E+00  0.0000E+00
    -18.035  0.2364E-02  0.3820E-03  0.6343E-17  0.3820E-03  0.0000E+00  0.0000E+00  0.0000E+00  0.0000E+00  0.0000E+00
    -17.902  0.2796E-01  0.4617E-02  0.7496E-16  0.4617E-02  0.0000E+00  0.0000E+00  0.0000E+00  0.0000E+00  0.0000E+00
    -17.769  0.6982E-01  0.1364E-01  0.1859E-15  0.1364E-01  0.0000E+00  0.0000E+00  0.0000E+00  0.0000E+00  0.0000E+00
    -17.635  0.7369E-01  0.1551E-01  0.1955E-15  0.1551E-01  0.0000E+00  0.0000E+00  0.0000E+00  0.0000E+00  0.0000E+00
    -17.502  0.1491E-01  0.7091E-02  0.3729E-16  0.7091E-02  0.0000E+00  0.0000E+00  0.0000E+00  0.0000E+00  0.0000E+00
    -17.369  0.1887E-01  0.1287E-01  0.4573E-16  0.1287E-01  0.0000E+00  0.0000E+00  0.0000E+00  0.0000E+00  0.0000E+00
    -17.235  0.4573E-01  0.2670E-01  0.1182E-15  0.2670E-01  0.0000E+00  0.0000E+00  0.0000E+00  0.0000E+00  0.0000E+00
    -17.102  0.8014E-01  0.3849E-01  0.2094E-15  0.3849E-01  0.0000E+00  0.0000E+00  0.0000E+00  0.0000E+00  0.0000E+00
    -16.969  0.2204E-01  0.9376E-02  0.5803E-16  0.9376E-02  0.0000E+00  0.0000E+00  0.0000E+00  0.0000E+00  0.0000E+00
    -16.835  0.5949E-01  0.3337E-01  0.1584E-15  0.3337E-01  0.0000E+00  0.0000E+00  0.0000E+00  0.0000E+00  0.0000E+00
    -16.702  0.8080E-01  0.4408E-01  0.2156E-15  0.4408E-01  0.0000E+00  0.0000E+00  0.0000E+00  0.0000E+00  0.0000E+00
    -16.569  0.6635E-01  0.2977E-01  0.1802E-15  0.2977E-01  0.0000E+00  0.0000E+00  0.0000E+00  0.0000E+00  0.0000E+00
    -16.435  0.6091E-01  0.2679E-01  0.1660E-15  0.2679E-01  0.0000E+00  0.0000E+00  0.0000E+00  0.0000E+00  0.0000E+00
    -16.302  0.6418E-01  0.2997E-01  0.1735E-15  0.2997E-01  0.0000E+00  0.0000E+00  0.0000E+00  0.0000E+00  0.0000E+00
    -16.169  0.1013E+00  0.4977E-01  0.2730E-15  0.4977E-01  0.0000E+00  0.0000E+00  0.0000E+00  0.0000E+00  0.0000E+00
    -16.035  0.5814E-01  0.2526E-01  0.1590E-15  0.2526E-01  0.0000E+00  0.0000E+00  0.0000E+00  0.0000E+00  0.0000E+00
    -15.902  0.3490E-01  0.1807E-01  0.9342E-16  0.1807E-01  0.0000E+00  0.0000E+00  0.0000E+00  0.0000E+00  0.0000E+00
    -15.769  0.4586E-01  0.2505E-01  0.1221E-15  0.2505E-01  0.0000E+00  0.0000E+00  0.0000E+00  0.0000E+00  0.0000E+00
    -15.635  0.7685E-01  0.3790E-01  0.2090E-15  0.3790E-01  0.0000E+00  0.0000E+00  0.0000E+00  0.0000E+00  0.0000E+00
    -15.502  0.6844E-01  0.3437E-01  0.1864E-15  0.3437E-01  0.0000E+00  0.0000E+00  0.0000E+00  0.0000E+00  0.0000E+00
    -15.369  0.2107E-01  0.1182E-01  0.5646E-16  0.1182E-01  0.0000E+00  0.0000E+00  0.0000E+00  0.0000E+00  0.0000E+00
    -15.235  0.3939E-01  0.2066E-01  0.1064E-15  0.2066E-01  0.0000E+00  0.0000E+00  0.0000E+00  0.0000E+00  0.0000E+00
    -15.102  0.6447E-01  0.3751E-01  0.1726E-15  0.3751E-01  0.0000E+00  0.0000E+00  0.0000E+00  0.0000E+00  0.0000E+00
    -14.969  0.4265E-01  0.2601E-01  0.1139E-15  0.2601E-01  0.0000E+00  0.0000E+00  0.0000E+00  0.0000E+00  0.0000E+00
    -14.835  0.5441E-01  0.2930E-01  0.1471E-15  0.2930E-01  0.0000E+00  0.0000E+00  0.0000E+00  0.0000E+00  0.0000E+00
    -14.702  0.3251E-01  0.1850E-01  0.8772E-16  0.1850E-01  0.0000E+00  0.0000E+00  0.0000E+00  0.0000E+00  0.0000E+00
    -14.569  0.2143E-01  0.1509E-01  0.5700E-16  0.1509E-01  0.0000E+00  0.0000E+00  0.0000E+00  0.0000E+00  0.0000E+00
    -14.435  0.4408E-01  0.3793E-01  0.1173E-15  0.3793E-01  0.0000E+00  0.0000E+00  0.0000E+00  0.0000E+00  0.0000E+00
    -14.302  0.5998E-01  0.5577E-01  0.1615E-15  0.5577E-01  0.0000E+00  0.0000E+00  0.0000E+00  0.0000E+00  0.0000E+00
    -14.169  0.4034E-01  0.3942E-01  0.1095E-15  0.3942E-01  0.0000E+00  0.0000E+00  0.0000E+00  0.0000E+00  0.0000E+00
    -14.035  0.7912E-02  0.1576E-01  0.2108E-16  0.1576E-01  0.0000E+00  0.0000E+00  0.0000E+00  0.0000E+00  0.0000E+00
    -13.902  0.3569E-01  0.3094E-01  0.9762E-16  0.3094E-01  0.0000E+00  0.0000E+00  0.0000E+00  0.0000E+00  0.0000E+00
    -13.769  0.6052E-01  0.7055E-01  0.1662E-15  0.7055E-01  0.0000E+00  0.0000E+00  0.0000E+00  0.0000E+00  0.0000E+00
    -13.635  0.3801E-01  0.5127E-01  0.1040E-15  0.5127E-01  0.0000E+00  0.0000E+00  0.0000E+00  0.0000E+00  0.0000E+00
    -13.502  0.1308E-01  0.4022E-01  0.3418E-16  0.4022E-01  0.0000E+00  0.0000E+00  0.0000E+00  0.0000E+00  0.0000E+00
    -13.369  0.2984E-01  0.2916E-01  0.8212E-16  0.2916E-01  0.0000E+00  0.0000E+00  0.0000E+00  0.0000E+00  0.0000E+00
    -13.235  0.5465E-01  0.4651E-01  0.1499E-15  0.4651E-01  0.0000E+00  0.0000E+00  0.0000E+00  0.0000E+00  0.0000E+00
    -13.102  0.3475E-01  0.4025E-01  0.9513E-16  0.4025E-01  0.0000E+00  0.0000E+00  0.0000E+00  0.0000E+00  0.0000E+00
    -12.969  0.1314E-01  0.4679E-01  0.3648E-16  0.4679E-01  0.0000E+00  0.0000E+00  0.0000E+00  0.0000E+00  0.0000E+00
    -12.835  0.1482E-01  0.4780E-01  0.4174E-16  0.4780E-01  0.0000E+00  0.0000E+00  0.0000E+00  0.0000E+00  0.0000E+00
    -12.702  0.5083E-01  0.7211E-01  0.1394E-15  0.7211E-01  0.0000E+00  0.0000E+00  0.0000E+00  0.0000E+00  0.0000E+00
    -12.569  0.6664E-01  0.7996E-01  0.1830E-15  0.7996E-01  0.0000E+00  0.0000E+00  0.0000E+00  0.0000E+00  0.0000E+00
    -12.435  0.8047E-02  0.1102E-01  0.2200E-16  0.1102E-01  0.0000E+00  0.0000E+00  0.0000E+00  0.0000E+00  0.0000E+00
    -12.302  0.5251E-02  0.3095E-01  0.1285E-16  0.3095E-01  0.0000E+00  0.0000E+00  0.0000E+00  0.0000E+00  0.0000E+00
    -12.169  0.1035E-01  0.3620E-01  0.2824E-16  0.3620E-01  0.0000E+00  0.0000E+00  0.0000E+00  0.0000E+00  0.0000E+00
    -12.035  0.5724E-01  0.1003E+00  0.1610E-15  0.1003E+00  0.0000E+00  0.0000E+00  0.0000E+00  0.0000E+00  0.0000E+00
    -11.902  0.4287E-01  0.8060E-01  0.1201E-15  0.8060E-01  0.0000E+00  0.0000E+00  0.0000E+00  0.0000E+00  0.0000E+00
    -11.769  0.1875E-01  0.4766E-01  0.2499E-14  0.4766E-01  0.0000E+00  0.0000E+00  0.0000E+00  0.0000E+00  0.0000E+00
    -11.635  0.1846E-01  0.5830E-01  0.4180E-09  0.5830E-01  0.0000E+00  0.0000E+00  0.0000E+00  0.0000E+00  0.0000E+00
    -11.502  0.9466E-02  0.2074E-01  0.2523E-05  0.2074E-01  0.0000E+00  0.0000E+00  0.0000E+00  0.0000E+00  0.0000E+00
    -11.369  0.4186E-01  0.8654E-01  0.7351E-03  0.8654E-01  0.0000E+00  0.0000E+00  0.0000E+00  0.0000E+00  0.0000E+00
    -11.235  0.2330E-01  0.8454E-01  0.1539E-01  0.8454E-01  0.0000E+00  0.0000E+00  0.0000E+00  0.0000E+00  0.0000E+00
    -11.102  0.1022E-01  0.5750E-01  0.4211E-01  0.5750E-01  0.0000E+00  0.0000E+00  0.0000E+00  0.0000E+00  0.0000E+00
    -10.969  0.2319E-01  0.6511E-01  0.4962E-01  0.6511E-01  0.0000E+00  0.0000E+00  0.0000E+00  0.0000E+00  0.0000E+00
    -10.835  0.3384E-01  0.1027E+00  0.4808E-01  0.1027E+00  0.0000E+00  0.0000E+00  0.0000E+00  0.0000E+00  0.0000E+00
    -10.702  0.2765E-01  0.8091E-01  0.5394E-01  0.8091E-01  0.0000E+00  0.0000E+00  0.0000E+00  0.0000E+00  0.0000E+00
    -10.569  0.8259E-02  0.5964E-01  0.3547E-01  0.5964E-01  0.0000E+00  0.0000E+00  0.0000E+00  0.0000E+00  0.0000E+00
    -10.435  0.9459E-02  0.9934E-01  0.6985E-01  0.9934E-01  0.0000E+00  0.0000E+00  0.0000E+00  0.0000E+00  0.0000E+00
    -10.302  0.1275E-01  0.7775E-01  0.3957E-01  0.7775E-01  0.0000E+00  0.0000E+00  0.0000E+00  0.0000E+00  0.0000E+00
    -10.169  0.2980E-01  0.1207E+00  0.3652E-01  0.1207E+00  0.0000E+00  0.0000E+00  0.0000E+00  0.0000E+00  0.0000E+00
    -10.035  0.2057E-01  0.1521E+00  0.7092E-01  0.1521E+00  0.0000E+00  0.0000E+00  0.0000E+00  0.0000E+00  0.0000E+00
     -9.902  0.1699E-01  0.1834E+00  0.5521E-01  0.1834E+00  0.0000E+00  0.0000E+00  0.0000E+00  0.0000E+00  0.0000E+00
     -9.769  0.2940E-02  0.7102E-01  0.2433E-01  0.7102E-01  0.0000E+00  0.0000E+00  0.0000E+00  0.0000E+00  0.0000E+00
     -9.635  0.7586E-02  0.1044E+00  0.5440E-01  0.1044E+00  0.0000E+00  0.0000E+00  0.0000E+00  0.0000E+00  0.0000E+00
     -9.502  0.1869E-01  0.9797E-01  0.7267E-01  0.9797E-01  0.0000E+00  0.0000E+00  0.0000E+00  0.0000E+00  0.0000E+00
     -9.369  0.6555E-02  0.1070E+00  0.5649E-01  0.1070E+00  0.0000E+00  0.0000E+00  0.0000E+00  0.0000E+00  0.0000E+00
     -9.235  0.5886E-02  0.7128E-01  0.2361E-01  0.7128E-01  0.0000E+00  0.0000E+00  0.0000E+00  0.0000E+00  0.0000E+00
     -9.102  0.1741E-01  0.8914E-01  0.3898E-01  0.8914E-01  0.0000E+00  0.0000E+00  0.0000E+00  0.0000E+00  0.0000E+00
     -8.969  0.9632E-02  0.9140E-01  0.8784E-01  0.9140E-01  0.0000E+00  0.0000E+00  0.0000E+00  0.0000E+00  0.0000E+00
     -8.835  0.5590E-02  0.5252E-01  0.5746E-01  0.5252E-01  0.0000E+00  0.0000E+00  0.0000E+00  0.0000E+00  0.0000E+00
     -8.702  0.1352E-02  0.3406E-01  0.4352E-01  0.3406E-01  0.0000E+00  0.0000E+00  0.0000E+00  0.0000E+00  0.0000E+00
     -8.569  0.3255E-02  0.8732E-01  0.3428E-01  0.8732E-01  0.0000E+00  0.0000E+00  0.0000E+00  0.0000E+00  0.0000E+00
     -8.435  0.1160E-01  0.1055E+00  0.3138E-01  0.1055E+00  0.0000E+00  0.0000E+00  0.0000E+00  0.0000E+00  0.0000E+00
     -8.302  0.7303E-02  0.3717E-01  0.1005E+00  0.3717E-01  0.0000E+00  0.0000E+00  0.0000E+00  0.0000E+00  0.0000E+00
     -8.169  0.5447E-02  0.2922E-01  0.6897E-01  0.2922E-01  0.0000E+00  0.0000E+00  0.0000E+00  0.0000E+00  0.0000E+00
     -8.035  0.1962E-02  0.7720E-01  0.3213E-01  0.7720E-01  0.0000E+00  0.0000E+00  0.0000E+00  0.0000E+00  0.0000E+00
     -7.902  0.3936E-02  0.9092E-01  0.4204E-01  0.9092E-01  0.0000E+00  0.0000E+00  0.0000E+00  0.0000E+00  0.0000E+00
     -7.769  0.3246E-02  0.2458E-01  0.3745E-01  0.2458E-01  0.0000E+00  0.0000E+00  0.0000E+00  0.0000E+00  0.0000E+00
     -7.635  0.9641E-03  0.1522E-01  0.6299E-01  0.1522E-01  0.0000E+00  0.0000E+00  0.0000E+00  0.0000E+00  0.0000E+00
     -7.502  0.6413E-02  0.8754E-01  0.1001E+00  0.8754E-01  0.0000E+00  0.0000E+00  0.0000E+00  0.0000E+00  0.0000E+00
     -7.369  0.3843E-02  0.8783E-01  0.6025E-01  0.8783E-01  0.0000E+00  0.0000E+00  0.0000E+00  0.0000E+00  0.0000E+00
     -7.235  0.1817E-03  0.1123E-01  0.4127E-01  0.1123E-01  0.0000E+00  0.0000E+00  0.0000E+00  0.0000E+00  0.0000E+00
     -7.102  0.5908E-03  0.2319E-01  0.2308E-01  0.2319E-01  0.0000E+00  0.0000E+00  0.0000E+00  0.0000E+00  0.0000E+00
     -6.969  0.2294E-02  0.7361E-01  0.5700E-01  0.7361E-01  0.0000E+00  0.0000E+00  0.0000E+00  0.0000E+00  0.0000E+00
     -6.835  0.1844E-02  0.5558E-01  0.7415E-01  0.5558E-01  0.0000E+00  0.0000E+00  0.0000E+00  0.0000E+00  0.0000E+00
     -6.702  0.1095E-02  0.2903E-01  0.9452E-01  0.2903E-01  0.0000E+00  0.0000E+00  0.0000E+00  0.0000E+00  0.0000E+00
     -6.569  0.1403E-03  0.4372E-01  0.7317E-01  0.4372E-01  0.0000E+00  0.0000E+00  0.0000E+00  0.0000E+00  0.0000E+00
     -6.435  0.5373E-03  0.4419E-01  0.5696E-01  0.4419E-01  0.0000E+00  0.0000E+00  0.0000E+00  0.0000E+00  0.0000E+00
     -6.302  0.2695E-03  0.3785E-01  0.2426E-01  0.3785E-01  0.0000E+00  0.0000E+00  0.0000E+00  0.0000E+00  0.0000E+00
     -6.169  0.7931E-05  0.1269E-01  0.4775E-01  0.1269E-01  0.0000E+00  0.0000E+00  0.0000E+00  0.0000E+00  0.0000E+00
     -6.035  0.9431E-08  0.9741E-03  0.7264E-01  0.9741E-03  0.0000E+00  0.0000E+00  0.0000E+00  0.0000E+00  0.0000E+00
     -5.902  0.3768E-12  0.5616E-05  0.1149E+00  0.5616E-05  0.0000E+00  0.0000E+00  0.0000E+00  0.0000E+00  0.0000E+00
     -5.769  0.1041E-14  0.1235E-08  0.1058E+00  0.1235E-08  0.0000E+00  0.0000E+00  0.0000E+00  0.0000E+00  0.0000E+00
     -5.635  0.6826E-15  0.8752E-14  0.6906E-01  0.8752E-14  0.0000E+00  0.0000E+00  0.0000E+00  0.0000E+00  0.0000E+00
     -5.502  0.5429E-15  0.1526E-16  0.5482E-01  0.1526E-16  0.0000E+00  0.0000E+00  0.0000E+00  0.0000E+00  0.0000E+00