    2    2  128    1
  0.3953030E+02  0.2467000E-09  0.2467000E-09  0.1500000E-08  0.5000000E-15
  1.000000000000000E-004
  CAR 
 Relaxation_HSE06                        
      8     56      8
 
  0.0000000E+00  0.0000000E+00  0.0000000E+00  0.1890359E-02
      1        -24.483945   1.000000
      2        -11.262215   1.000000
      3         -6.268914   1.000000
      4         -6.268855   1.000000
      5          1.196370   0.000000
      6          2.052274   0.000000
      7          2.532243   0.000000
      8          4.456470   0.000000
 
  0.4347826E-01  0.1333372E-17  0.0000000E+00  0.1134216E-01
      1        -24.434703   1.000000
      2        -11.201632   1.000000
      3         -6.468942   1.000000
      4         -6.374291   1.000000
      5          1.258350   0.000000
      6          2.114547   0.000000
      7          2.594841   0.000000
      8          4.518280   0.000000
 
  0.8695652E-01 -0.2107476E-17  0.0000000E+00  0.1134216E-01
      1        -24.287097   1.000000
      2        -11.020001   1.000000
      3         -7.038011   1.000000
      4         -6.667545   1.000000
      5          1.444335   0.000000
      6          2.301335   0.000000
      7          2.782663   0.000000
      8          4.703654   0.000000
 
  0.1304348E+00  0.9634237E-17  0.0000000E+00  0.1134216E-01
      1        -24.041524   1.000000
      2        -10.718180   1.000000
      3         -7.899681   1.000000
      4         -7.093939   1.000000
      5          1.754374   0.000000
      6          2.612365   0.000000
      7          3.095746   0.000000
      8          5.012083   0.000000
 
  0.1739130E+00 -0.1379205E-16  0.0000000E+00  0.1134216E-01
      1        -23.698680   1.000000
      2        -10.297766   1.000000
      3         -8.965490   1.000000
      4         -7.590927   1.000000
      5          2.188385   0.000000
      6          3.046996   0.000000
      7          3.534063   0.000000
      8          5.442064   0.000000
 
  0.2173913E+00 -0.1471050E-16  0.0000000E+00  0.1134216E-01
      1        -23.259620   1.000000
      2        -10.156980   1.000000
      3         -9.761570   1.000000
      4         -8.104658   1.000000
      5          2.746120   0.000000
      6          3.603426   0.000000
      7          4.097477   0.000000
      8          5.984893   0.000000
 
  0.2608696E+00  0.1926847E-16  0.0000000E+00  0.1134216E-01
      1        -22.725880   1.000000
      2        -11.413537   1.000000
      3         -9.114577   1.000000
      4         -8.594753   1.000000
      5          3.427104   0.000000
      6          4.271625   0.000000
      7          4.785616   0.000000
      8          5.873691   0.000000
 
  0.3043478E+00  0.9719980E-17  0.0000000E+00  0.1134216E-01
      1        -22.099774   1.000000
      2        -12.690252   1.000000
      3         -9.033251   1.000000
      4         -8.366342   1.000000
      5          4.230409   0.000000
      6          4.411293   0.000000
      7          5.174833   0.000000
      8          5.596935   0.000000
 
  0.3478261E+00  0.2267931E-16  0.0000000E+00  0.1134216E-01
      1        -21.385030   1.000000
      2        -13.953740   1.000000
      3         -9.401269   1.000000
      4         -7.535678   1.000000
      5          3.078634   0.000000
      6          5.153407   0.000000
      7          6.053348   0.000000
      8          6.487672   0.000000
 
  0.3913043E+00  0.4467460E-16  0.0000000E+00  0.1134216E-01
      1        -20.588620   1.000000
      2        -15.176570   1.000000
      3         -9.686246   1.000000
      4         -6.662876   1.000000
      5          1.772320   0.000000
      6          6.125712   0.000000
      7          6.316896   0.000000
      8          7.095807   0.000000
 
  0.4347826E+00  0.3512611E-16  0.0000000E+00  0.1134216E-01
      1        -19.729324   1.000000
      2        -16.326760   1.000000
      3         -9.880208   1.000000
      4         -5.840921   1.000000
      5          0.647199   0.000000
      6          6.133853   0.000000
      7          7.379984   0.000000
      8          8.791980   0.000000
 
  0.4782609E+00 -0.3896949E-16  0.0000000E+00  0.1134216E-01
      1        -18.907780   1.000000
      2        -17.295624   1.000000
      3         -9.978243   1.000000
      4         -5.279734   1.000000
      5         -0.069093   0.000000
      6          6.088635   0.000000
      7          8.653331   0.000000
      8          9.533871   0.000000
 
  0.4347826E-01  0.4347826E-01  0.0000000E+00  0.1134216E-01
      1        -24.336279   1.000000
      2        -11.080509   1.000000
      3         -6.842138   1.000000
      4         -6.585058   1.000000
      5          1.382339   0.000000
      6          2.239081   0.000000
      7          2.720055   0.000000
      8          4.641880   0.000000
 
  0.8695652E-01  0.4347826E-01  0.0000000E+00  0.2268431E-01
      1        -24.139695   1.000000
      2        -10.838772   1.000000
      3         -7.531872   1.000000
      4         -6.970838   1.000000
      5          1.630384   0.000000
      6          2.488003   0.000000
      7          2.970528   0.000000
      8          4.888822   0.000000
 
  0.1304348E+00  0.4347826E-01  0.0000000E+00  0.2268431E-01
      1        -23.845494   1.000000
      2        -10.477593   1.000000
      3         -8.470112   1.000000
      4         -7.458953   1.000000
      5          2.002478   0.000000
      6          2.860906   0.000000
      7          3.346275   0.000000
      8          5.258305   0.000000
 
  0.1739130E+00  0.4347826E-01  0.0000000E+00  0.2268431E-01
      1        -23.454536   1.000000
      2         -9.999064   1.000000
      3         -9.578703   1.000000
      4         -7.984945   1.000000
      5          2.498451   0.000000
      6          3.356812   0.000000
      7          3.847228   0.000000
      8          5.747414   0.000000
 
  0.2173913E+00  0.4347826E-01  0.0000000E+00  0.2268431E-01
      1        -22.968126   1.000000
      2        -10.788694   1.000000
      3         -9.406877   1.000000
      4         -8.501422   1.000000
      5          3.117947   0.000000
      6          3.972131   0.000000
      7          4.473172   0.000000
      8          6.281217   0.000000
 
  0.2608696E+00  0.4347826E-01  0.0000000E+00  0.2268431E-01
      1        -22.388164   1.000000
      2        -12.046008   1.000000
      3         -8.975360   1.000000
      4         -8.707882   1.000000
      5          3.860337   0.000000
      6          4.648909   0.000000
      7          5.214109   0.000000
      8          5.223550   0.000000
 
  0.3043478E+00  0.4347826E-01  0.0000000E+00  0.2268431E-01
      1        -21.717573   1.000000
      2        -13.310175   1.000000
      3         -9.384717   1.000000
      4         -7.915211   1.000000
      5          3.730932   0.000000
      6          4.724351   0.000000
      7          5.623743   0.000000
      8          6.098745   0.000000
 
  0.3478261E+00  0.4347826E-01  0.0000000E+00  0.2268431E-01
      1        -20.961337   1.000000
      2        -14.550112   1.000000
      3         -9.714964   1.000000
      4         -7.055912   1.000000
      5          2.393541   0.000000
      6          5.705165   0.000000
      7          6.520517   0.000000
      8          6.600021   0.000000
 
  0.3913043E+00  0.4347826E-01  0.0000000E+00  0.2268431E-01
      1        -20.130312   1.000000
      2        -15.737427   1.000000
      3         -9.956558   1.000000
      4         -6.190150   1.000000
      5          1.163272   0.000000
      6          6.381368   0.000000
      7          6.840007   0.000000
      8          7.702792   0.000000
 
  0.4347826E+00  0.4347826E-01  0.0000000E+00  0.2268431E-01
      1        -19.263129   1.000000
      2        -16.822449   1.000000
      3        -10.103672   1.000000
      4         -5.459716   1.000000
      5          0.206218   0.000000
      6          6.323480   0.000000
      7          8.047526   0.000000
      8          8.919643   0.000000
 
  0.4782609E+00  0.4347826E-01  0.0000000E+00  0.1134216E-01
      1        -18.685351   1.000000
      2        -17.473488   1.000000
      3        -10.153052   1.000000
      4         -5.146925   1.000000
      5         -0.183251   0.000000
      6          6.300431   0.000000
      7          9.312982   0.000000
      8         10.164345   0.000000
 
  0.8695652E-01  0.8695652E-01  0.0000000E+00  0.1134216E-01
      1        -23.894479   1.000000
      2        -10.537598   1.000000
      3         -8.251212   1.000000
      4         -7.466046   1.000000
      5          1.940545   0.000000
      6          2.798859   0.000000
      7          3.283705   0.000000
      8          5.197000   0.000000
 
  0.1304348E+00  0.8695652E-01  0.0000000E+00  0.2268431E-01
      1        -23.552164   1.000000
      2        -10.118079   1.000000
      3         -9.170226   1.000000
      4         -8.046298   1.000000
      5          2.374722   0.000000
      6          3.233333   0.000000
      7          3.722172   0.000000
      8          5.627048   0.000000
 
  0.1739130E+00  0.8695652E-01  0.0000000E+00  0.2268431E-01
      1        -23.113871   1.000000
      2        -10.248485   1.000000
      3         -9.582973   1.000000
      4         -8.624968   1.000000
      5          2.932619   0.000000
      6          3.789878   0.000000
      7          4.285836   0.000000
      8          6.190424   0.000000
 
  0.2173913E+00  0.8695652E-01  0.0000000E+00  0.2268431E-01
      1        -22.581201   1.000000
      2        -11.427323   1.000000
      3         -9.157841   1.000000
      4         -8.937112   1.000000
      5          3.613753   0.000000
      6          4.458921   0.000000
      7          4.974361   0.000000
      8          5.668772   0.000000
 
  0.2608696E+00  0.8695652E-01  0.0000000E+00  0.2268431E-01
      1        -21.956577   1.000000
      2        -12.652464   1.000000
      3         -9.622666   1.000000
      4         -8.189616   1.000000
      5          4.299011   0.000000
      6          4.417328   0.000000
      7          5.312372   0.000000
      8          5.787228   0.000000
 
  0.3043478E+00  0.8695652E-01  0.0000000E+00  0.2268431E-01
      1        -21.243858   1.000000
      2        -13.881721   1.000000
      3        -10.006357   1.000000
      4         -7.358643   1.000000
      5          2.981200   0.000000
      6          5.341846   0.000000
      7          6.218965   0.000000
      8          6.766430   0.000000
 
  0.3478261E+00  0.8695652E-01  0.0000000E+00  0.2268431E-01
      1        -20.450223   1.000000
      2        -15.081635   1.000000
      3        -10.300309   1.000000
      4         -6.482878   1.000000
      5          1.704277   0.000000
      6          6.381782   0.000000
      7          7.078851   0.000000
      8          7.257823   0.000000
 
  0.3913043E+00  0.8695652E-01  0.0000000E+00  0.2268431E-01
      1        -19.594703   1.000000
      2        -16.216282   1.000000
      3        -10.499003   1.000000
      4         -5.652810   1.000000
      5          0.593773   0.000000
      6          6.968905   0.000000
      7          7.564358   0.000000
      8          8.409423   0.000000
 
  0.4347826E+00  0.8695652E-01  0.0000000E+00  0.2268431E-01
      1        -18.778048   1.000000
      2        -17.174848   1.000000
      3        -10.599097   1.000000
      4         -5.080333   1.000000
      5         -0.122810   0.000000
      6          6.928023   0.000000
      7          8.829104   0.000000
      8          9.652073   0.000000
 
  0.1304348E+00  0.1304348E+00  0.0000000E+00  0.1134216E-01
      1        -23.162510   1.000000
      2         -9.996376   1.000000
      3         -9.641758   1.000000
      4         -8.742226   1.000000
      5          2.870871   0.000000
      6          3.728892   0.000000
      7          4.223360   0.000000
      8          6.266735   0.000000
 
  0.1739130E+00  0.1304348E+00  0.0000000E+00  0.2268431E-01
      1        -22.677944   1.000000
      2        -10.966509   1.000000
      3         -9.414839   1.000000
      4         -9.052129   1.000000
      5          3.490463   0.000000
      6          4.345294   0.000000
      7          4.849651   0.000000
      8          5.956540   0.000000
 
  0.2173913E+00  0.1304348E+00  0.0000000E+00  0.2268431E-01
      1        -22.100540   1.000000
      2        -12.059456   1.000000
      3         -9.992847   1.000000
      4         -8.355547   1.000000
      5          4.232820   0.000000
      6          4.711741   0.000000
      7          5.113884   0.000000
      8          5.600840   0.000000
 
  0.2608696E+00  0.1304348E+00  0.0000000E+00  0.2268431E-01
      1        -21.433469   1.000000
      2        -13.219397   1.000000
      3        -10.462872   1.000000
      4         -7.564001   1.000000
      5          3.464151   0.000000
      6          5.096909   0.000000
      7          5.954859   0.000000
      8          6.480707   0.000000
 
  0.3043478E+00  0.1304348E+00  0.0000000E+00  0.2268431E-01
      1        -20.682055   1.000000
      2        -14.393255   1.000000
      3        -10.827106   1.000000
      4         -6.702230   1.000000
      5          2.201771   0.000000
      6          6.080909   0.000000
      7          6.928496   0.000000
      8          7.643491   0.000000
 
  0.3478261E+00  0.1304348E+00  0.0000000E+00  0.2268431E-01
      1        -19.857624   1.000000
      2        -15.537858   1.000000
      3        -11.087193   1.000000
      4         -5.826030   1.000000
      5          1.020701   0.000000
      6          7.180073   0.000000
      7          7.968108   0.000000
      8          8.009209   0.000000
 
  0.3913043E+00  0.1304348E+00  0.0000000E+00  0.2268431E-01
      1        -18.999233   1.000000
      2        -16.595041   1.000000
      3        -11.243407   1.000000
      4         -5.073183   1.000000
      5          0.077261   0.000000
      6          7.887586   0.000000
      7          8.407403   0.000000
      8          9.169228   0.000000
 
  0.4347826E+00  0.1304348E+00  0.0000000E+00  0.1134216E-01
      1        -18.429064   1.000000
      2        -17.232533   1.000000
      3        -11.295517   1.000000
      4         -4.743390   1.000000
      5         -0.317600   0.000000
      6          7.868352   0.000000
      7          9.648660   0.000000
      8         10.120044   0.000000
 
  0.1739130E+00  0.1739130E+00  0.0000000E+00  0.1134216E-01
      1        -22.148620   1.000000
      2        -11.770011   1.000000
      3        -10.213684   1.000000
      4         -8.411081   1.000000
      5          4.171264   0.000000
      6          4.888767   0.000000
      7          5.021594   0.000000
      8          5.538433   0.000000
 
  0.2173913E+00  0.1739130E+00  0.0000000E+00  0.2268431E-01
      1        -21.528628   1.000000
      2        -12.704716   1.000000
      3        -10.890228   1.000000
      4         -7.667758   1.000000
      5          3.746974   0.000000
      6          4.974043   0.000000
      7          5.815591   0.000000
      8          6.351823   0.000000
 
  0.2608696E+00  0.1739130E+00  0.0000000E+00  0.2268431E-01
      1        -20.822291   1.000000
      2        -13.751496   1.000000
      3        -11.399479   1.000000
      4         -6.837676   1.000000
      5          2.565903   0.000000
      6          5.897263   0.000000
      7          6.721801   0.000000
      8          7.289459   0.000000
 
  0.3043478E+00  0.1739130E+00  0.0000000E+00  0.2268431E-01
      1        -20.037431   1.000000
      2        -14.843317   1.000000
      3        -11.759474   1.000000
      4         -5.954295   1.000000
      5          1.396993   0.000000
      6          6.938230   0.000000
      7          7.726318   0.000000
      8          8.588600   0.000000
 
  0.3478261E+00  0.1739130E+00  0.0000000E+00  0.2268431E-01
      1        -19.193727   1.000000
      2        -15.912998   1.000000
      3        -11.991044   1.000000
      4         -5.098579   1.000000
      5          0.339514   0.000000
      6          8.091188   0.000000
      7          8.786964   0.000000
      8          9.091067   0.000000
 
  0.3913043E+00  0.1739130E+00  0.0000000E+00  0.2268431E-01
      1        -18.390709   1.000000
      2        -16.834664   1.000000
      3        -12.104837   1.000000
      4         -4.484046   1.000000
      5         -0.380031   0.000000
      6          9.037814   0.000000
      7          9.354432   0.000000
      8          9.710869   0.000000
 
  0.2173913E+00  0.2173913E+00  0.0000000E+00  0.1134216E-01
      1        -20.869212   1.000000
      2        -13.425255   1.000000
      3        -11.707416   1.000000
      4         -6.883467   1.000000
      5          2.701742   0.000000
      6          5.835858   0.000000
      7          6.650306   0.000000
      8          7.226917   0.000000
 
  0.2608696E+00  0.2173913E+00  0.0000000E+00  0.2268431E-01
      1        -20.128412   1.000000
      2        -14.283105   1.000000
      3        -12.320439   1.000000
      4         -6.022021   1.000000
      5          1.622546   0.000000
      6          6.815750   0.000000
      7          7.576119   0.000000
      8          8.225480   0.000000
 
  0.3043478E+00  0.2173913E+00  0.0000000E+00  0.2268431E-01
      1        -19.318504   1.000000
      2        -15.245692   1.000000
      3        -12.712140   1.000000
      4         -5.127234   1.000000
      5          0.561102   0.000000
      6          7.908783   0.000000
      7          8.527979   0.000000
      8          9.835466   0.000000
 
  0.3478261E+00  0.2173913E+00  0.0000000E+00  0.2268431E-01
      1        -18.478194   1.000000
      2        -16.206320   1.000000
      3        -12.926951   1.000000
      4         -4.318921   1.000000
      5         -0.352692   0.000000
      6          9.103658   0.000000
      7          9.274305   0.000000
      8         10.328125   0.000000
 
  0.3913043E+00  0.2173913E+00  0.0000000E+00  0.1134216E-01
      1        -17.917517   1.000000
      2        -16.811431   1.000000
      3        -12.995561   1.000000
      4         -3.936163   1.000000
      5         -0.771803   0.000000
      6          9.507319   0.000000
      7         10.295209   0.000000
      8         10.296918   0.000000
 
  0.2608696E+00  0.2608696E+00  0.0000000E+00  0.1134216E-01
      1        -19.361079   1.000000
      2        -14.893753   1.000000
      3        -13.084716   1.000000
      4         -5.139045   1.000000
      5          0.648612   0.000000
      6          7.847556   0.000000
      7          8.433626   0.000000
      8          9.282930   0.000000
 
  0.3043478E+00  0.2608696E+00  0.0000000E+00  0.2268431E-01
      1        -18.540733   1.000000
      2        -15.647205   1.000000
      3        -13.573610   1.000000
      4         -4.241972   1.000000
      5         -0.309008   0.000000
      6          8.982078   0.000000
      7          9.012583   0.000000
      8         10.665923   0.000000
 
  0.3478261E+00  0.2608696E+00  0.0000000E+00  0.2268431E-01
      1        -17.756084   1.000000
      2        -16.428180   1.000000
      3        -13.793067   1.000000
      4         -3.513210   1.000000
      5         -1.068442   0.000000
      6          9.143000   0.000000
      7         10.188413   0.000000
      8         11.371738   0.000000
 
  0.3043478E+00  0.3043478E+00  0.0000000E+00  0.1134216E-01
      1        -17.739738   1.000000
      2        -16.142258   1.000000
      3        -14.182238   1.000000
      4         -3.344044   1.000000
      5         -1.189046   0.000000
      6          8.997958   0.000000
      7         10.129360   0.000000
      8         11.880141   0.000000
 
  0.3478261E+00  0.3043478E+00  0.0000000E+00  0.1134216E-01
      1        -17.153442   1.000000
      2        -16.618412   1.000000
      3        -14.395121   1.000000
      4         -2.738352   1.000000
      5         -1.787326   0.000000
      6          8.936362   0.000000
      7         11.167579   0.000000
      8         11.347890   0.000000
