 vasp.6.4.2 20Jul23 (build Aug 23 2023 19:13:21) complex                        
  
 executed on             LinuxIFC date 2023.10.04  14:41:56
 running   48 mpi-ranks, with    1 threads/rank, on    1 nodes
 distrk:  each k-point on   24 cores,    2 groups
 distr:  one band on NCORE=   3 cores,    8 groups


--------------------------------------------------------------------------------------------------------


 INCAR:
   SYSTEM = Relaxation_HSE06
   ISTART = 1
   ICHARG = 2
   PREC = Accurate
   LORBIT = 11
   ENCUT = 450
   LWAVE = .TRUE.
   ALGO = Damped
   NELM = 64
   EDIFF = 1E-6
   EDIFFG = -1E-3
   SIGMA = 0.1
   ISMEAR = 0
   NSW = 128
   IBRION = 2
   POTIM = .5
   ISIF = 3
   GGA = PE
   LHFCALC = .TRUE.
   AEXX = 0.25
   HFSCREEN = 0.2
   NKRED = 1
   NPAR = 8
   KPAR = 2

 POTCAR:    PAW_PBE C 08Apr2002                   
 POTCAR:    PAW_PBE C 08Apr2002                   
   SHA256 =  253f7b50bb8d59471dbedb8285d89021f4a42ed1a2c5d38a03a736e69125dd95 C/POTCAR              
   COPYR  = (c) Copyright 08Apr2002 Georg Kresse                                                    
   COPYR  = This file is part of the software VASP. Any use, copying, and all other rights are regul
   COPYR  = If you do not have a valid VASP license, you may not use, copy or distribute this file. 
   VRHFIN =C: s2p2                                                                                  
   LEXCH  = PE                                                                                      
   EATOM  =   147.1560 eV,   10.8157 Ry                                                             
                                                                                                    
   TITEL  = PAW_PBE C 08Apr2002                                                                     
   LULTRA =        F    use ultrasoft PP ?                                                          
   IUNSCR =        1    unscreen: 0-lin 1-nonlin 2-no                                               
   RPACOR =    1.200    partial core radius                                                         
   POMASS =   12.011; ZVAL   =    4.000    mass and valenz                                          
   RCORE  =    1.500    outmost cutoff radius                                                       
   RWIGS  =    1.630; RWIGS  =    0.863    wigner-seitz radius (au A)                               
   ENMAX  =  400.000; ENMIN  =  300.000 eV                                                          
   ICORE  =        2    local potential                                                             
   LCOR   =        T    correct aug charges                                                         
   LPAW   =        T    paw PP                                                                      
   EAUG   =  644.873                                                                                
   DEXC   =    0.000                                                                                
   RMAX   =    1.529    core radius for proj-oper                                                   
   RAUG   =    1.300    factor for augmentation sphere                                              
   RDEP   =    1.501    radius for radial grids                                                     
   RDEPT  =    1.300    core radius for aug-charge                                                  
                                                                                                    
   Atomic configuration                                                                             
    4 entries                                                                                       
     n  l   j            E        occ.                                                              
     1  0  0.50      -273.3789   2.0000                                                             
     2  0  0.50       -13.7508   2.0000                                                             
     2  1  0.50        -5.2854   2.0000                                                             
     3  2  1.50        -5.4423   0.0000                                                             
   Description                                                                                      
     l       E           TYP  RCUT    TYP  RCUT                                                     
     0    -13.7508458     23  1.200                                                                 
     0     -8.2022199     23  1.200                                                                 
     1     -5.2854383     23  1.500                                                                 
     1     34.0145650     23  1.500                                                                 
     2     -5.4423304      7  1.500                                                                 
  local pseudopotential read in
  partial core-charges read in
  partial kinetic energy density read in
  atomic valenz-charges read in
  non local Contribution for L=           0  read in
    real space projection operators read in
  non local Contribution for L=           0  read in
    real space projection operators read in
  non local Contribution for L=           1  read in
    real space projection operators read in
  non local Contribution for L=           1  read in
    real space projection operators read in
    PAW grid and wavefunctions read in
 
   number of l-projection  operators is LMAX  =           4
   number of lm-projection operators is LMMAX =           8
 
  PAW_PBE C 08Apr2002                   :
 energy of atom  1       EATOM= -147.1560
 kinetic energy error for atom=    0.0116 (will be added to EATOM!!)
 
 
 POSCAR: Graphene with lattice parameter 2.467
  positions in direct lattice
  velocities in cartesian coordinates
 exchange correlation table for  LEXCH =        8
   RHO(1)=    0.500       N(1)  =     2000
   RHO(2)=  100.500       N(2)  =     4000

 VTST: version 4.1, (05/19/21)

 CHAIN: initializing optimizer
 
 OPT: Using VASP Conjugate-Gradient optimizer
 CHAIN: Read ICHAIN            0
 
 POSCAR: Graphene with lattice parameter 2.467
  positions in direct lattice
  velocities in cartesian coordinates
 


--------------------------------------------------------------------------------------------------------


 ion  position               nearest neighbor table
   1  0.333  0.667  0.100-   2 1.42   2 1.42   2 1.42
   2  0.667  0.333  0.100-   1 1.42   1 1.42   1 1.42
 
  LATTYP: Found a hexagonal cell.
 ALAT       =     2.4669998518
 C/A-ratio  =     6.0802597897
  
  Lattice vectors:
  
 A1 = (   2.1364845000,   1.2335000000,   0.0000000000)
 A2 = (  -2.1364845000,   1.2335000000,   0.0000000000)
 A3 = (   0.0000000000,   0.0000000000,  15.0000000000)


Analysis of symmetry for initial positions (statically):
=====================================================================
 Subroutine PRICEL returns:
 Original cell was already a primitive cell.
 

 Routine SETGRP: Setting up the symmetry group for a 
 hexagonal supercell.


 Subroutine GETGRP returns: Found 24 space group operations
 (whereof 12 operations were pure point group operations)
 out of a pool of 24 trial point group operations.


The static configuration has the point symmetry C_6v.
 The point group associated with its full space group is D_6h.


Analysis of symmetry for dynamics (positions and initial velocities):
=====================================================================
 Subroutine PRICEL returns:
 Original cell was already a primitive cell.
 

 Routine SETGRP: Setting up the symmetry group for a 
 hexagonal supercell.


 Subroutine GETGRP returns: Found 24 space group operations
 (whereof 12 operations were pure point group operations)
 out of a pool of 24 trial point group operations.


The dynamic configuration has the point symmetry C_6v.
 The point group associated with its full space group is D_6h.


 Subroutine INISYM returns: Found 24 space group operations
 (whereof 12 operations are pure point group operations),
 and found     1 'primitive' translations


----------------------------------------------------------------------------------------

                                     Primitive cell                                     

  volume of cell :      79.0606

  direct lattice vectors                    reciprocal lattice vectors
     2.136484500  1.233500000  0.000000000     0.234029313  0.405350628  0.000000000
    -2.136484500  1.233500000  0.000000000    -0.234029313  0.405350628  0.000000000
     0.000000000  0.000000000 15.000000000     0.000000000  0.000000000  0.066666667

  length of vectors
     2.466999852  2.466999852 15.000000000     0.468058598  0.468058598  0.066666667

  position of ions in fractional coordinates (direct lattice)
     0.333333000  0.666666000  0.100000000
     0.666666000  0.333333000  0.100000000

  ion indices of the primitive-cell ions
   primitive index   ion index
                 1           1
                 2           2

----------------------------------------------------------------------------------------

 
 
 KPOINTS: k-points                                

Automatic generation of k-mesh.
 Grid dimensions read from file:
 generate k-points for:   23   23    1

 Generating k-lattice:

  Cartesian coordinates                     Fractional coordinates (reciprocal lattice)
     0.010175188  0.017623940  0.000000000     0.043478261 -0.000000000  0.000000000
    -0.010175188  0.017623940  0.000000000    -0.000000000  0.043478261  0.000000000
     0.000000000  0.000000000  0.066666667     0.000000000  0.000000000  1.000000000

  Length of vectors
     0.020350374  0.020350374  0.066666667

  Shift w.r.t. Gamma in fractional coordinates (k-lattice)
     0.000000000  0.000000000  0.000000000

 
 Subroutine IBZKPT returns following result:
 ===========================================
 
 Found     56 irreducible k-points:
 
 Following reciprocal coordinates:
            Coordinates               Weight
  0.000000  0.000000  0.000000      1.000000
  0.043478  0.000000  0.000000      6.000000
  0.086957 -0.000000  0.000000      6.000000
  0.130435  0.000000  0.000000      6.000000
  0.173913 -0.000000  0.000000      6.000000
  0.217391 -0.000000  0.000000      6.000000
  0.260870  0.000000  0.000000      6.000000
  0.304348  0.000000  0.000000      6.000000
  0.347826  0.000000  0.000000      6.000000
  0.391304  0.000000  0.000000      6.000000
  0.434783  0.000000  0.000000      6.000000
  0.478261 -0.000000  0.000000      6.000000
  0.043478  0.043478  0.000000      6.000000
  0.086957  0.043478  0.000000     12.000000
  0.130435  0.043478  0.000000     12.000000
  0.173913  0.043478  0.000000     12.000000
  0.217391  0.043478  0.000000     12.000000
  0.260870  0.043478  0.000000     12.000000
  0.304348  0.043478  0.000000     12.000000
  0.347826  0.043478  0.000000     12.000000
  0.391304  0.043478  0.000000     12.000000
  0.434783  0.043478  0.000000     12.000000
  0.478261  0.043478  0.000000      6.000000
  0.086957  0.086957  0.000000      6.000000
  0.130435  0.086957  0.000000     12.000000
  0.173913  0.086957  0.000000     12.000000
  0.217391  0.086957  0.000000     12.000000
  0.260870  0.086957  0.000000     12.000000
  0.304348  0.086957  0.000000     12.000000
  0.347826  0.086957  0.000000     12.000000
  0.391304  0.086957  0.000000     12.000000
  0.434783  0.086957  0.000000     12.000000
  0.130435  0.130435  0.000000      6.000000
  0.173913  0.130435  0.000000     12.000000
  0.217391  0.130435  0.000000     12.000000
  0.260870  0.130435  0.000000     12.000000
  0.304348  0.130435  0.000000     12.000000
  0.347826  0.130435  0.000000     12.000000
  0.391304  0.130435  0.000000     12.000000
  0.434783  0.130435  0.000000      6.000000
  0.173913  0.173913  0.000000      6.000000
  0.217391  0.173913  0.000000     12.000000
  0.260870  0.173913  0.000000     12.000000
  0.304348  0.173913  0.000000     12.000000
  0.347826  0.173913  0.000000     12.000000
  0.391304  0.173913  0.000000     12.000000
  0.217391  0.217391  0.000000      6.000000
  0.260870  0.217391  0.000000     12.000000
  0.304348  0.217391  0.000000     12.000000
  0.347826  0.217391  0.000000     12.000000
  0.391304  0.217391  0.000000      6.000000
  0.260870  0.260870  0.000000      6.000000
  0.304348  0.260870  0.000000     12.000000
  0.347826  0.260870  0.000000     12.000000
  0.304348  0.304348  0.000000      6.000000
  0.347826  0.304348  0.000000      6.000000
 
 Following cartesian coordinates:
            Coordinates               Weight
  0.000000  0.000000  0.000000      1.000000
  0.010175  0.017624  0.000000      6.000000
  0.020350  0.035248  0.000000      6.000000
  0.030526  0.052872  0.000000      6.000000
  0.040701  0.070496  0.000000      6.000000
  0.050876  0.088120  0.000000      6.000000
  0.061051  0.105744  0.000000      6.000000
  0.071226  0.123368  0.000000      6.000000
  0.081402  0.140992  0.000000      6.000000
  0.091577  0.158615  0.000000      6.000000
  0.101752  0.176239  0.000000      6.000000
  0.111927  0.193863  0.000000      6.000000
  0.000000  0.035248  0.000000      6.000000
  0.010175  0.052872  0.000000     12.000000
  0.020350  0.070496  0.000000     12.000000
  0.030526  0.088120  0.000000     12.000000
  0.040701  0.105744  0.000000     12.000000
  0.050876  0.123368  0.000000     12.000000
  0.061051  0.140992  0.000000     12.000000
  0.071226  0.158615  0.000000     12.000000
  0.081402  0.176239  0.000000     12.000000
  0.091577  0.193863  0.000000     12.000000
  0.101752  0.211487  0.000000      6.000000
  0.000000  0.070496  0.000000      6.000000
  0.010175  0.088120  0.000000     12.000000
  0.020350  0.105744  0.000000     12.000000
  0.030526  0.123368  0.000000     12.000000
  0.040701  0.140992  0.000000     12.000000
  0.050876  0.158615  0.000000     12.000000
  0.061051  0.176239  0.000000     12.000000
  0.071226  0.193863  0.000000     12.000000
  0.081402  0.211487  0.000000     12.000000
  0.000000  0.105744  0.000000      6.000000
  0.010175  0.123368  0.000000     12.000000
  0.020350  0.140992  0.000000     12.000000
  0.030526  0.158615  0.000000     12.000000
  0.040701  0.176239  0.000000     12.000000
  0.050876  0.193863  0.000000     12.000000
  0.061051  0.211487  0.000000     12.000000
  0.071226  0.229111  0.000000      6.000000
 -0.000000  0.140992  0.000000      6.000000
  0.010175  0.158615  0.000000     12.000000
  0.020350  0.176239  0.000000     12.000000
  0.030526  0.193863  0.000000     12.000000
  0.040701  0.211487  0.000000     12.000000
  0.050876  0.229111  0.000000     12.000000
 -0.000000  0.176239  0.000000      6.000000
  0.010175  0.193863  0.000000     12.000000
  0.020350  0.211487  0.000000     12.000000
  0.030526  0.229111  0.000000     12.000000
  0.040701  0.246735  0.000000      6.000000
  0.000000  0.211487  0.000000      6.000000
  0.010175  0.229111  0.000000     12.000000
  0.020350  0.246735  0.000000     12.000000
 -0.000000  0.246735  0.000000      6.000000
  0.010175  0.264359  0.000000      6.000000
 
 
 Subroutine IBZKPT_HF returns following result:
 ==============================================
 
 Found    529 k-points in 1st BZ
 the following    529 k-points will be used (e.g. in the exchange kernel)
 Following reciprocal coordinates:   # in IRBZ
  0.000000  0.000000  0.000000    0.00189036   1 t-inv F
  0.043478  0.000000  0.000000    0.00189036   2 t-inv F
  0.086957 -0.000000  0.000000    0.00189036   3 t-inv F
  0.130435  0.000000  0.000000    0.00189036   4 t-inv F
  0.173913 -0.000000  0.000000    0.00189036   5 t-inv F
  0.217391 -0.000000  0.000000    0.00189036   6 t-inv F
  0.260870  0.000000  0.000000    0.00189036   7 t-inv F
  0.304348  0.000000  0.000000    0.00189036   8 t-inv F
  0.347826  0.000000  0.000000    0.00189036   9 t-inv F
  0.391304  0.000000  0.000000    0.00189036  10 t-inv F
  0.434783  0.000000  0.000000    0.00189036  11 t-inv F
  0.478261 -0.000000  0.000000    0.00189036  12 t-inv F
  0.043478  0.043478  0.000000    0.00189036  13 t-inv F
  0.086957  0.043478  0.000000    0.00189036  14 t-inv F
  0.130435  0.043478  0.000000    0.00189036  15 t-inv F
  0.173913  0.043478  0.000000    0.00189036  16 t-inv F
  0.217391  0.043478  0.000000    0.00189036  17 t-inv F
  0.260870  0.043478  0.000000    0.00189036  18 t-inv F
  0.304348  0.043478  0.000000    0.00189036  19 t-inv F
  0.347826  0.043478  0.000000    0.00189036  20 t-inv F
  0.391304  0.043478  0.000000    0.00189036  21 t-inv F
  0.434783  0.043478  0.000000    0.00189036  22 t-inv F
  0.478261  0.043478  0.000000    0.00189036  23 t-inv F
  0.086957  0.086957  0.000000    0.00189036  24 t-inv F
  0.130435  0.086957  0.000000    0.00189036  25 t-inv F
  0.173913  0.086957  0.000000    0.00189036  26 t-inv F
  0.217391  0.086957  0.000000    0.00189036  27 t-inv F
  0.260870  0.086957  0.000000    0.00189036  28 t-inv F
  0.304348  0.086957  0.000000    0.00189036  29 t-inv F
  0.347826  0.086957  0.000000    0.00189036  30 t-inv F
  0.391304  0.086957  0.000000    0.00189036  31 t-inv F
  0.434783  0.086957  0.000000    0.00189036  32 t-inv F
  0.130435  0.130435  0.000000    0.00189036  33 t-inv F
  0.173913  0.130435  0.000000    0.00189036  34 t-inv F
  0.217391  0.130435  0.000000    0.00189036  35 t-inv F
  0.260870  0.130435  0.000000    0.00189036  36 t-inv F
  0.304348  0.130435  0.000000    0.00189036  37 t-inv F
  0.347826  0.130435  0.000000    0.00189036  38 t-inv F
  0.391304  0.130435  0.000000    0.00189036  39 t-inv F
  0.434783  0.130435  0.000000    0.00189036  40 t-inv F
  0.173913  0.173913  0.000000    0.00189036  41 t-inv F
  0.217391  0.173913  0.000000    0.00189036  42 t-inv F
  0.260870  0.173913  0.000000    0.00189036  43 t-inv F
  0.304348  0.173913  0.000000    0.00189036  44 t-inv F
  0.347826  0.173913  0.000000    0.00189036  45 t-inv F
  0.391304  0.173913  0.000000    0.00189036  46 t-inv F
  0.217391  0.217391  0.000000    0.00189036  47 t-inv F
  0.260870  0.217391  0.000000    0.00189036  48 t-inv F
  0.304348  0.217391  0.000000    0.00189036  49 t-inv F
  0.347826  0.217391  0.000000    0.00189036  50 t-inv F
  0.391304  0.217391  0.000000    0.00189036  51 t-inv F
  0.260870  0.260870  0.000000    0.00189036  52 t-inv F
  0.304348  0.260870  0.000000    0.00189036  53 t-inv F
  0.347826  0.260870  0.000000    0.00189036  54 t-inv F
  0.304348  0.304348  0.000000    0.00189036  55 t-inv F
  0.347826  0.304348  0.000000    0.00189036  56 t-inv F
 -0.000000  0.043478  0.000000    0.00189036   2 t-inv F
 -0.043478  0.043478  0.000000    0.00189036   2 t-inv F
 -0.043478 -0.000000  0.000000    0.00189036   2 t-inv F
  0.000000 -0.043478  0.000000    0.00189036   2 t-inv F
  0.043478 -0.043478  0.000000    0.00189036   2 t-inv F
  0.000000  0.086957  0.000000    0.00189036   3 t-inv F
 -0.086957  0.086957  0.000000    0.00189036   3 t-inv F
 -0.086957  0.000000  0.000000    0.00189036   3 t-inv F
 -0.000000 -0.086957  0.000000    0.00189036   3 t-inv F
  0.086957 -0.086957  0.000000    0.00189036   3 t-inv F
 -0.000000  0.130435  0.000000    0.00189036   4 t-inv F
 -0.130435  0.130435  0.000000    0.00189036   4 t-inv F
 -0.130435 -0.000000  0.000000    0.00189036   4 t-inv F
  0.000000 -0.130435  0.000000    0.00189036   4 t-inv F
  0.130435 -0.130435  0.000000    0.00189036   4 t-inv F
  0.000000  0.173913  0.000000    0.00189036   5 t-inv F
 -0.173913  0.173913  0.000000    0.00189036   5 t-inv F
 -0.173913  0.000000  0.000000    0.00189036   5 t-inv F
 -0.000000 -0.173913  0.000000    0.00189036   5 t-inv F
  0.173913 -0.173913  0.000000    0.00189036   5 t-inv F
  0.000000  0.217391  0.000000    0.00189036   6 t-inv F
 -0.217391  0.217391  0.000000    0.00189036   6 t-inv F
 -0.217391  0.000000  0.000000    0.00189036   6 t-inv F
 -0.000000 -0.217391  0.000000    0.00189036   6 t-inv F
  0.217391 -0.217391  0.000000    0.00189036   6 t-inv F
 -0.000000  0.260870  0.000000    0.00189036   7 t-inv F
 -0.260870  0.260870  0.000000    0.00189036   7 t-inv F
 -0.260870 -0.000000  0.000000    0.00189036   7 t-inv F
  0.000000 -0.260870  0.000000    0.00189036   7 t-inv F
  0.260870 -0.260870  0.000000    0.00189036   7 t-inv F
 -0.000000  0.304348  0.000000    0.00189036   8 t-inv F
 -0.304348  0.304348  0.000000    0.00189036   8 t-inv F
 -0.304348 -0.000000  0.000000    0.00189036   8 t-inv F
  0.000000 -0.304348  0.000000    0.00189036   8 t-inv F
  0.304348 -0.304348  0.000000    0.00189036   8 t-inv F
 -0.000000  0.347826  0.000000    0.00189036   9 t-inv F
 -0.347826  0.347826  0.000000    0.00189036   9 t-inv F
 -0.347826 -0.000000  0.000000    0.00189036   9 t-inv F
  0.000000 -0.347826  0.000000    0.00189036   9 t-inv F
  0.347826 -0.347826  0.000000    0.00189036   9 t-inv F
 -0.000000  0.391304  0.000000    0.00189036  10 t-inv F
 -0.391304  0.391304  0.000000    0.00189036  10 t-inv F
 -0.391304 -0.000000  0.000000    0.00189036  10 t-inv F
  0.000000 -0.391304  0.000000    0.00189036  10 t-inv F
  0.391304 -0.391304  0.000000    0.00189036  10 t-inv F
 -0.000000  0.434783  0.000000    0.00189036  11 t-inv F
 -0.434783  0.434783  0.000000    0.00189036  11 t-inv F
 -0.434783 -0.000000  0.000000    0.00189036  11 t-inv F
  0.000000 -0.434783  0.000000    0.00189036  11 t-inv F
  0.434783 -0.434783  0.000000    0.00189036  11 t-inv F
  0.000000  0.478261  0.000000    0.00189036  12 t-inv F
 -0.478261  0.478261  0.000000    0.00189036  12 t-inv F
 -0.478261  0.000000  0.000000    0.00189036  12 t-inv F
 -0.000000 -0.478261  0.000000    0.00189036  12 t-inv F
  0.478261 -0.478261  0.000000    0.00189036  12 t-inv F
 -0.043478  0.086957  0.000000    0.00189036  13 t-inv F
 -0.086957  0.043478  0.000000    0.00189036  13 t-inv F
 -0.043478 -0.043478  0.000000    0.00189036  13 t-inv F
  0.043478 -0.086957  0.000000    0.00189036  13 t-inv F
  0.086957 -0.043478  0.000000    0.00189036  13 t-inv F
 -0.043478  0.130435  0.000000    0.00189036  14 t-inv F
 -0.130435  0.086957  0.000000    0.00189036  14 t-inv F
 -0.086957 -0.043478  0.000000    0.00189036  14 t-inv F
  0.043478 -0.130435  0.000000    0.00189036  14 t-inv F
  0.130435 -0.086957  0.000000    0.00189036  14 t-inv F
 -0.086957  0.130435  0.000000    0.00189036  14 t-inv F
  0.043478  0.086957  0.000000    0.00189036  14 t-inv F
  0.130435 -0.043478  0.000000    0.00189036  14 t-inv F
  0.086957 -0.130435  0.000000    0.00189036  14 t-inv F
 -0.043478 -0.086957  0.000000    0.00189036  14 t-inv F
 -0.130435  0.043478  0.000000    0.00189036  14 t-inv F
 -0.043478  0.173913  0.000000    0.00189036  15 t-inv F
 -0.173913  0.130435  0.000000    0.00189036  15 t-inv F
 -0.130435 -0.043478  0.000000    0.00189036  15 t-inv F
  0.043478 -0.173913  0.000000    0.00189036  15 t-inv F
  0.173913 -0.130435  0.000000    0.00189036  15 t-inv F
 -0.130435  0.173913  0.000000    0.00189036  15 t-inv F
  0.043478  0.130435  0.000000    0.00189036  15 t-inv F
  0.173913 -0.043478  0.000000    0.00189036  15 t-inv F
  0.130435 -0.173913  0.000000    0.00189036  15 t-inv F
 -0.043478 -0.130435  0.000000    0.00189036  15 t-inv F
 -0.173913  0.043478  0.000000    0.00189036  15 t-inv F
 -0.043478  0.217391  0.000000    0.00189036  16 t-inv F
 -0.217391  0.173913  0.000000    0.00189036  16 t-inv F
 -0.173913 -0.043478  0.000000    0.00189036  16 t-inv F
  0.043478 -0.217391  0.000000    0.00189036  16 t-inv F
  0.217391 -0.173913  0.000000    0.00189036  16 t-inv F
 -0.173913  0.217391  0.000000    0.00189036  16 t-inv F
  0.043478  0.173913  0.000000    0.00189036  16 t-inv F
  0.217391 -0.043478  0.000000    0.00189036  16 t-inv F
  0.173913 -0.217391  0.000000    0.00189036  16 t-inv F
 -0.043478 -0.173913  0.000000    0.00189036  16 t-inv F
 -0.217391  0.043478  0.000000    0.00189036  16 t-inv F
 -0.043478  0.260870  0.000000    0.00189036  17 t-inv F
 -0.260870  0.217391  0.000000    0.00189036  17 t-inv F
 -0.217391 -0.043478  0.000000    0.00189036  17 t-inv F
  0.043478 -0.260870  0.000000    0.00189036  17 t-inv F
  0.260870 -0.217391  0.000000    0.00189036  17 t-inv F
 -0.217391  0.260870  0.000000    0.00189036  17 t-inv F
  0.043478  0.217391  0.000000    0.00189036  17 t-inv F
  0.260870 -0.043478  0.000000    0.00189036  17 t-inv F
  0.217391 -0.260870  0.000000    0.00189036  17 t-inv F
 -0.043478 -0.217391  0.000000    0.00189036  17 t-inv F
 -0.260870  0.043478  0.000000    0.00189036  17 t-inv F
 -0.043478  0.304348  0.000000    0.00189036  18 t-inv F
 -0.304348  0.260870  0.000000    0.00189036  18 t-inv F
 -0.260870 -0.043478  0.000000    0.00189036  18 t-inv F
  0.043478 -0.304348  0.000000    0.00189036  18 t-inv F
  0.304348 -0.260870  0.000000    0.00189036  18 t-inv F
 -0.260870  0.304348  0.000000    0.00189036  18 t-inv F
  0.043478  0.260870  0.000000    0.00189036  18 t-inv F
  0.304348 -0.043478  0.000000    0.00189036  18 t-inv F
  0.260870 -0.304348  0.000000    0.00189036  18 t-inv F
 -0.043478 -0.260870  0.000000    0.00189036  18 t-inv F
 -0.304348  0.043478  0.000000    0.00189036  18 t-inv F
 -0.043478  0.347826  0.000000    0.00189036  19 t-inv F
 -0.347826  0.304348  0.000000    0.00189036  19 t-inv F
 -0.304348 -0.043478  0.000000    0.00189036  19 t-inv F
  0.043478 -0.347826  0.000000    0.00189036  19 t-inv F
  0.347826 -0.304348  0.000000    0.00189036  19 t-inv F
 -0.304348  0.347826  0.000000    0.00189036  19 t-inv F
  0.043478  0.304348  0.000000    0.00189036  19 t-inv F
  0.347826 -0.043478  0.000000    0.00189036  19 t-inv F
  0.304348 -0.347826  0.000000    0.00189036  19 t-inv F
 -0.043478 -0.304348  0.000000    0.00189036  19 t-inv F
 -0.347826  0.043478  0.000000    0.00189036  19 t-inv F
 -0.043478  0.391304  0.000000    0.00189036  20 t-inv F
 -0.391304  0.347826  0.000000    0.00189036  20 t-inv F
 -0.347826 -0.043478  0.000000    0.00189036  20 t-inv F
  0.043478 -0.391304  0.000000    0.00189036  20 t-inv F
  0.391304 -0.347826  0.000000    0.00189036  20 t-inv F
 -0.347826  0.391304  0.000000    0.00189036  20 t-inv F
  0.043478  0.347826  0.000000    0.00189036  20 t-inv F
  0.391304 -0.043478  0.000000    0.00189036  20 t-inv F
  0.347826 -0.391304  0.000000    0.00189036  20 t-inv F
 -0.043478 -0.347826  0.000000    0.00189036  20 t-inv F
 -0.391304  0.043478  0.000000    0.00189036  20 t-inv F
 -0.043478  0.434783  0.000000    0.00189036  21 t-inv F
 -0.434783  0.391304  0.000000    0.00189036  21 t-inv F
 -0.391304 -0.043478  0.000000    0.00189036  21 t-inv F
  0.043478 -0.434783  0.000000    0.00189036  21 t-inv F
  0.434783 -0.391304  0.000000    0.00189036  21 t-inv F
 -0.391304  0.434783  0.000000    0.00189036  21 t-inv F
  0.043478  0.391304  0.000000    0.00189036  21 t-inv F
  0.434783 -0.043478  0.000000    0.00189036  21 t-inv F
  0.391304 -0.434783  0.000000    0.00189036  21 t-inv F
 -0.043478 -0.391304  0.000000    0.00189036  21 t-inv F
 -0.434783  0.043478  0.000000    0.00189036  21 t-inv F
 -0.043478  0.478261  0.000000    0.00189036  22 t-inv F
 -0.478261  0.434783  0.000000    0.00189036  22 t-inv F
 -0.434783 -0.043478  0.000000    0.00189036  22 t-inv F
  0.043478 -0.478261  0.000000    0.00189036  22 t-inv F
  0.478261 -0.434783  0.000000    0.00189036  22 t-inv F
 -0.434783  0.478261  0.000000    0.00189036  22 t-inv F
  0.043478  0.434783  0.000000    0.00189036  22 t-inv F
  0.478261 -0.043478  0.000000    0.00189036  22 t-inv F
  0.434783 -0.478261  0.000000    0.00189036  22 t-inv F
 -0.043478 -0.434783  0.000000    0.00189036  22 t-inv F
 -0.478261  0.043478  0.000000    0.00189036  22 t-inv F
 -0.043478  0.521739  0.000000    0.00189036  23 t-inv F
 -0.521739  0.478261  0.000000    0.00189036  23 t-inv F
 -0.478261 -0.043478  0.000000    0.00189036  23 t-inv F
  0.043478 -0.521739  0.000000    0.00189036  23 t-inv F
  0.521739 -0.478261  0.000000    0.00189036  23 t-inv F
 -0.086957  0.173913  0.000000    0.00189036  24 t-inv F
 -0.173913  0.086957  0.000000    0.00189036  24 t-inv F
 -0.086957 -0.086957  0.000000    0.00189036  24 t-inv F
  0.086957 -0.173913  0.000000    0.00189036  24 t-inv F
  0.173913 -0.086957  0.000000    0.00189036  24 t-inv F
 -0.086957  0.217391  0.000000    0.00189036  25 t-inv F
 -0.217391  0.130435  0.000000    0.00189036  25 t-inv F
 -0.130435 -0.086957  0.000000    0.00189036  25 t-inv F
  0.086957 -0.217391  0.000000    0.00189036  25 t-inv F
  0.217391 -0.130435  0.000000    0.00189036  25 t-inv F
 -0.130435  0.217391  0.000000    0.00189036  25 t-inv F
  0.086957  0.130435  0.000000    0.00189036  25 t-inv F
  0.217391 -0.086957  0.000000    0.00189036  25 t-inv F
  0.130435 -0.217391  0.000000    0.00189036  25 t-inv F
 -0.086957 -0.130435  0.000000    0.00189036  25 t-inv F
 -0.217391  0.086957  0.000000    0.00189036  25 t-inv F
 -0.086957  0.260870  0.000000    0.00189036  26 t-inv F
 -0.260870  0.173913  0.000000    0.00189036  26 t-inv F
 -0.173913 -0.086957  0.000000    0.00189036  26 t-inv F
  0.086957 -0.260870  0.000000    0.00189036  26 t-inv F
  0.260870 -0.173913  0.000000    0.00189036  26 t-inv F
 -0.173913  0.260870  0.000000    0.00189036  26 t-inv F
  0.086957  0.173913  0.000000    0.00189036  26 t-inv F
  0.260870 -0.086957  0.000000    0.00189036  26 t-inv F
  0.173913 -0.260870  0.000000    0.00189036  26 t-inv F
 -0.086957 -0.173913  0.000000    0.00189036  26 t-inv F
 -0.260870  0.086957  0.000000    0.00189036  26 t-inv F
 -0.086957  0.304348  0.000000    0.00189036  27 t-inv F
 -0.304348  0.217391  0.000000    0.00189036  27 t-inv F
 -0.217391 -0.086957  0.000000    0.00189036  27 t-inv F
  0.086957 -0.304348  0.000000    0.00189036  27 t-inv F
  0.304348 -0.217391  0.000000    0.00189036  27 t-inv F
 -0.217391  0.304348  0.000000    0.00189036  27 t-inv F
  0.086957  0.217391  0.000000    0.00189036  27 t-inv F
  0.304348 -0.086957  0.000000    0.00189036  27 t-inv F
  0.217391 -0.304348  0.000000    0.00189036  27 t-inv F
 -0.086957 -0.217391  0.000000    0.00189036  27 t-inv F
 -0.304348  0.086957  0.000000    0.00189036  27 t-inv F
 -0.086957  0.347826  0.000000    0.00189036  28 t-inv F
 -0.347826  0.260870  0.000000    0.00189036  28 t-inv F
 -0.260870 -0.086957  0.000000    0.00189036  28 t-inv F
  0.086957 -0.347826  0.000000    0.00189036  28 t-inv F
  0.347826 -0.260870  0.000000    0.00189036  28 t-inv F
 -0.260870  0.347826  0.000000    0.00189036  28 t-inv F
  0.086957  0.260870  0.000000    0.00189036  28 t-inv F
  0.347826 -0.086957  0.000000    0.00189036  28 t-inv F
  0.260870 -0.347826  0.000000    0.00189036  28 t-inv F
 -0.086957 -0.260870  0.000000    0.00189036  28 t-inv F
 -0.347826  0.086957  0.000000    0.00189036  28 t-inv F
 -0.086957  0.391304  0.000000    0.00189036  29 t-inv F
 -0.391304  0.304348  0.000000    0.00189036  29 t-inv F
 -0.304348 -0.086957  0.000000    0.00189036  29 t-inv F
  0.086957 -0.391304  0.000000    0.00189036  29 t-inv F
  0.391304 -0.304348  0.000000    0.00189036  29 t-inv F
 -0.304348  0.391304  0.000000    0.00189036  29 t-inv F
  0.086957  0.304348  0.000000    0.00189036  29 t-inv F
  0.391304 -0.086957  0.000000    0.00189036  29 t-inv F
  0.304348 -0.391304  0.000000    0.00189036  29 t-inv F
 -0.086957 -0.304348  0.000000    0.00189036  29 t-inv F
 -0.391304  0.086957  0.000000    0.00189036  29 t-inv F
 -0.086957  0.434783  0.000000    0.00189036  30 t-inv F
 -0.434783  0.347826  0.000000    0.00189036  30 t-inv F
 -0.347826 -0.086957  0.000000    0.00189036  30 t-inv F
  0.086957 -0.434783  0.000000    0.00189036  30 t-inv F
  0.434783 -0.347826  0.000000    0.00189036  30 t-inv F
 -0.347826  0.434783  0.000000    0.00189036  30 t-inv F
  0.086957  0.347826  0.000000    0.00189036  30 t-inv F
  0.434783 -0.086957  0.000000    0.00189036  30 t-inv F
  0.347826 -0.434783  0.000000    0.00189036  30 t-inv F
 -0.086957 -0.347826  0.000000    0.00189036  30 t-inv F
 -0.434783  0.086957  0.000000    0.00189036  30 t-inv F
 -0.086957  0.478261  0.000000    0.00189036  31 t-inv F
 -0.478261  0.391304  0.000000    0.00189036  31 t-inv F
 -0.391304 -0.086957  0.000000    0.00189036  31 t-inv F
  0.086957 -0.478261  0.000000    0.00189036  31 t-inv F
  0.478261 -0.391304  0.000000    0.00189036  31 t-inv F
 -0.391304  0.478261  0.000000    0.00189036  31 t-inv F
  0.086957  0.391304  0.000000    0.00189036  31 t-inv F
  0.478261 -0.086957  0.000000    0.00189036  31 t-inv F
  0.391304 -0.478261  0.000000    0.00189036  31 t-inv F
 -0.086957 -0.391304  0.000000    0.00189036  31 t-inv F
 -0.478261  0.086957  0.000000    0.00189036  31 t-inv F
 -0.086957  0.521739  0.000000    0.00189036  32 t-inv F
 -0.521739  0.434783  0.000000    0.00189036  32 t-inv F
 -0.434783 -0.086957  0.000000    0.00189036  32 t-inv F
  0.086957 -0.521739  0.000000    0.00189036  32 t-inv F
  0.521739 -0.434783  0.000000    0.00189036  32 t-inv F
 -0.434783  0.521739  0.000000    0.00189036  32 t-inv F
  0.086957  0.434783  0.000000    0.00189036  32 t-inv F
  0.521739 -0.086957  0.000000    0.00189036  32 t-inv F
  0.434783 -0.521739  0.000000    0.00189036  32 t-inv F
 -0.086957 -0.434783  0.000000    0.00189036  32 t-inv F
 -0.521739  0.086957  0.000000    0.00189036  32 t-inv F
 -0.130435  0.260870  0.000000    0.00189036  33 t-inv F
 -0.260870  0.130435  0.000000    0.00189036  33 t-inv F
 -0.130435 -0.130435  0.000000    0.00189036  33 t-inv F
  0.130435 -0.260870  0.000000    0.00189036  33 t-inv F
  0.260870 -0.130435  0.000000    0.00189036  33 t-inv F
 -0.130435  0.304348  0.000000    0.00189036  34 t-inv F
 -0.304348  0.173913  0.000000    0.00189036  34 t-inv F
 -0.173913 -0.130435  0.000000    0.00189036  34 t-inv F
  0.130435 -0.304348  0.000000    0.00189036  34 t-inv F
  0.304348 -0.173913  0.000000    0.00189036  34 t-inv F
 -0.173913  0.304348  0.000000    0.00189036  34 t-inv F
  0.130435  0.173913  0.000000    0.00189036  34 t-inv F
  0.304348 -0.130435  0.000000    0.00189036  34 t-inv F
  0.173913 -0.304348  0.000000    0.00189036  34 t-inv F
 -0.130435 -0.173913  0.000000    0.00189036  34 t-inv F
 -0.304348  0.130435  0.000000    0.00189036  34 t-inv F
 -0.130435  0.347826  0.000000    0.00189036  35 t-inv F
 -0.347826  0.217391  0.000000    0.00189036  35 t-inv F
 -0.217391 -0.130435  0.000000    0.00189036  35 t-inv F
  0.130435 -0.347826  0.000000    0.00189036  35 t-inv F
  0.347826 -0.217391  0.000000    0.00189036  35 t-inv F
 -0.217391  0.347826  0.000000    0.00189036  35 t-inv F
  0.130435  0.217391  0.000000    0.00189036  35 t-inv F
  0.347826 -0.130435  0.000000    0.00189036  35 t-inv F
  0.217391 -0.347826  0.000000    0.00189036  35 t-inv F
 -0.130435 -0.217391  0.000000    0.00189036  35 t-inv F
 -0.347826  0.130435  0.000000    0.00189036  35 t-inv F
 -0.130435  0.391304  0.000000    0.00189036  36 t-inv F
 -0.391304  0.260870  0.000000    0.00189036  36 t-inv F
 -0.260870 -0.130435  0.000000    0.00189036  36 t-inv F
  0.130435 -0.391304  0.000000    0.00189036  36 t-inv F
  0.391304 -0.260870  0.000000    0.00189036  36 t-inv F
 -0.260870  0.391304  0.000000    0.00189036  36 t-inv F
  0.130435  0.260870  0.000000    0.00189036  36 t-inv F
  0.391304 -0.130435  0.000000    0.00189036  36 t-inv F
  0.260870 -0.391304  0.000000    0.00189036  36 t-inv F
 -0.130435 -0.260870  0.000000    0.00189036  36 t-inv F
 -0.391304  0.130435  0.000000    0.00189036  36 t-inv F
 -0.130435  0.434783  0.000000    0.00189036  37 t-inv F
 -0.434783  0.304348  0.000000    0.00189036  37 t-inv F
 -0.304348 -0.130435  0.000000    0.00189036  37 t-inv F
  0.130435 -0.434783  0.000000    0.00189036  37 t-inv F
  0.434783 -0.304348  0.000000    0.00189036  37 t-inv F
 -0.304348  0.434783  0.000000    0.00189036  37 t-inv F
  0.130435  0.304348  0.000000    0.00189036  37 t-inv F
  0.434783 -0.130435  0.000000    0.00189036  37 t-inv F
  0.304348 -0.434783  0.000000    0.00189036  37 t-inv F
 -0.130435 -0.304348  0.000000    0.00189036  37 t-inv F
 -0.434783  0.130435  0.000000    0.00189036  37 t-inv F
 -0.130435  0.478261  0.000000    0.00189036  38 t-inv F
 -0.478261  0.347826  0.000000    0.00189036  38 t-inv F
 -0.347826 -0.130435  0.000000    0.00189036  38 t-inv F
  0.130435 -0.478261  0.000000    0.00189036  38 t-inv F
  0.478261 -0.347826  0.000000    0.00189036  38 t-inv F
 -0.347826  0.478261  0.000000    0.00189036  38 t-inv F
  0.130435  0.347826  0.000000    0.00189036  38 t-inv F
  0.478261 -0.130435  0.000000    0.00189036  38 t-inv F
  0.347826 -0.478261  0.000000    0.00189036  38 t-inv F
 -0.130435 -0.347826  0.000000    0.00189036  38 t-inv F
 -0.478261  0.130435  0.000000    0.00189036  38 t-inv F
 -0.130435  0.521739  0.000000    0.00189036  39 t-inv F
 -0.521739  0.391304  0.000000    0.00189036  39 t-inv F
 -0.391304 -0.130435  0.000000    0.00189036  39 t-inv F
  0.130435 -0.521739  0.000000    0.00189036  39 t-inv F
  0.521739 -0.391304  0.000000    0.00189036  39 t-inv F
 -0.391304  0.521739  0.000000    0.00189036  39 t-inv F
  0.130435  0.391304  0.000000    0.00189036  39 t-inv F
  0.521739 -0.130435  0.000000    0.00189036  39 t-inv F
  0.391304 -0.521739  0.000000    0.00189036  39 t-inv F
 -0.130435 -0.391304  0.000000    0.00189036  39 t-inv F
 -0.521739  0.130435  0.000000    0.00189036  39 t-inv F
 -0.130435  0.565217  0.000000    0.00189036  40 t-inv F
 -0.565217  0.434783  0.000000    0.00189036  40 t-inv F
 -0.434783 -0.130435  0.000000    0.00189036  40 t-inv F
  0.130435 -0.565217  0.000000    0.00189036  40 t-inv F
  0.565217 -0.434783  0.000000    0.00189036  40 t-inv F
 -0.173913  0.347826  0.000000    0.00189036  41 t-inv F
 -0.347826  0.173913  0.000000    0.00189036  41 t-inv F
 -0.173913 -0.173913  0.000000    0.00189036  41 t-inv F
  0.173913 -0.347826  0.000000    0.00189036  41 t-inv F
  0.347826 -0.173913  0.000000    0.00189036  41 t-inv F
 -0.173913  0.391304  0.000000    0.00189036  42 t-inv F
 -0.391304  0.217391  0.000000    0.00189036  42 t-inv F
 -0.217391 -0.173913  0.000000    0.00189036  42 t-inv F
  0.173913 -0.391304  0.000000    0.00189036  42 t-inv F
  0.391304 -0.217391  0.000000    0.00189036  42 t-inv F
 -0.217391  0.391304  0.000000    0.00189036  42 t-inv F
  0.173913  0.217391  0.000000    0.00189036  42 t-inv F
  0.391304 -0.173913  0.000000    0.00189036  42 t-inv F
  0.217391 -0.391304  0.000000    0.00189036  42 t-inv F
 -0.173913 -0.217391  0.000000    0.00189036  42 t-inv F
 -0.391304  0.173913  0.000000    0.00189036  42 t-inv F
 -0.173913  0.434783  0.000000    0.00189036  43 t-inv F
 -0.434783  0.260870  0.000000    0.00189036  43 t-inv F
 -0.260870 -0.173913  0.000000    0.00189036  43 t-inv F
  0.173913 -0.434783  0.000000    0.00189036  43 t-inv F
  0.434783 -0.260870  0.000000    0.00189036  43 t-inv F
 -0.260870  0.434783  0.000000    0.00189036  43 t-inv F
  0.173913  0.260870  0.000000    0.00189036  43 t-inv F
  0.434783 -0.173913  0.000000    0.00189036  43 t-inv F
  0.260870 -0.434783  0.000000    0.00189036  43 t-inv F
 -0.173913 -0.260870  0.000000    0.00189036  43 t-inv F
 -0.434783  0.173913  0.000000    0.00189036  43 t-inv F
 -0.173913  0.478261  0.000000    0.00189036  44 t-inv F
 -0.478261  0.304348  0.000000    0.00189036  44 t-inv F
 -0.304348 -0.173913  0.000000    0.00189036  44 t-inv F
  0.173913 -0.478261  0.000000    0.00189036  44 t-inv F
  0.478261 -0.304348  0.000000    0.00189036  44 t-inv F
 -0.304348  0.478261  0.000000    0.00189036  44 t-inv F
  0.173913  0.304348  0.000000    0.00189036  44 t-inv F
  0.478261 -0.173913  0.000000    0.00189036  44 t-inv F
  0.304348 -0.478261  0.000000    0.00189036  44 t-inv F
 -0.173913 -0.304348  0.000000    0.00189036  44 t-inv F
 -0.478261  0.173913  0.000000    0.00189036  44 t-inv F
 -0.173913  0.521739  0.000000    0.00189036  45 t-inv F
 -0.521739  0.347826  0.000000    0.00189036  45 t-inv F
 -0.347826 -0.173913  0.000000    0.00189036  45 t-inv F
  0.173913 -0.521739  0.000000    0.00189036  45 t-inv F
  0.521739 -0.347826  0.000000    0.00189036  45 t-inv F
 -0.347826  0.521739  0.000000    0.00189036  45 t-inv F
  0.173913  0.347826  0.000000    0.00189036  45 t-inv F
  0.521739 -0.173913  0.000000    0.00189036  45 t-inv F
  0.347826 -0.521739  0.000000    0.00189036  45 t-inv F
 -0.173913 -0.347826  0.000000    0.00189036  45 t-inv F
 -0.521739  0.173913  0.000000    0.00189036  45 t-inv F
 -0.173913  0.565217  0.000000    0.00189036  46 t-inv F
 -0.565217  0.391304  0.000000    0.00189036  46 t-inv F
 -0.391304 -0.173913  0.000000    0.00189036  46 t-inv F
  0.173913 -0.565217  0.000000    0.00189036  46 t-inv F
  0.565217 -0.391304  0.000000    0.00189036  46 t-inv F
 -0.391304  0.565217  0.000000    0.00189036  46 t-inv F
  0.173913  0.391304  0.000000    0.00189036  46 t-inv F
  0.565217 -0.173913  0.000000    0.00189036  46 t-inv F
  0.391304 -0.565217  0.000000    0.00189036  46 t-inv F
 -0.173913 -0.391304  0.000000    0.00189036  46 t-inv F
 -0.565217  0.173913  0.000000    0.00189036  46 t-inv F
 -0.217391  0.434783  0.000000    0.00189036  47 t-inv F
 -0.434783  0.217391  0.000000    0.00189036  47 t-inv F
 -0.217391 -0.217391  0.000000    0.00189036  47 t-inv F
  0.217391 -0.434783  0.000000    0.00189036  47 t-inv F
  0.434783 -0.217391  0.000000    0.00189036  47 t-inv F
 -0.217391  0.478261  0.000000    0.00189036  48 t-inv F
 -0.478261  0.260870  0.000000    0.00189036  48 t-inv F
 -0.260870 -0.217391  0.000000    0.00189036  48 t-inv F
  0.217391 -0.478261  0.000000    0.00189036  48 t-inv F
  0.478261 -0.260870  0.000000    0.00189036  48 t-inv F
 -0.260870  0.478261  0.000000    0.00189036  48 t-inv F
  0.217391  0.260870  0.000000    0.00189036  48 t-inv F
  0.478261 -0.217391  0.000000    0.00189036  48 t-inv F
  0.260870 -0.478261  0.000000    0.00189036  48 t-inv F
 -0.217391 -0.260870  0.000000    0.00189036  48 t-inv F
 -0.478261  0.217391  0.000000    0.00189036  48 t-inv F
 -0.217391  0.521739  0.000000    0.00189036  49 t-inv F
 -0.521739  0.304348  0.000000    0.00189036  49 t-inv F
 -0.304348 -0.217391  0.000000    0.00189036  49 t-inv F
  0.217391 -0.521739  0.000000    0.00189036  49 t-inv F
  0.521739 -0.304348  0.000000    0.00189036  49 t-inv F
 -0.304348  0.521739  0.000000    0.00189036  49 t-inv F
  0.217391  0.304348  0.000000    0.00189036  49 t-inv F
  0.521739 -0.217391  0.000000    0.00189036  49 t-inv F
  0.304348 -0.521739  0.000000    0.00189036  49 t-inv F
 -0.217391 -0.304348  0.000000    0.00189036  49 t-inv F
 -0.521739  0.217391  0.000000    0.00189036  49 t-inv F
 -0.217391  0.565217  0.000000    0.00189036  50 t-inv F
 -0.565217  0.347826  0.000000    0.00189036  50 t-inv F
 -0.347826 -0.217391  0.000000    0.00189036  50 t-inv F
  0.217391 -0.565217  0.000000    0.00189036  50 t-inv F
  0.565217 -0.347826  0.000000    0.00189036  50 t-inv F
 -0.347826  0.565217  0.000000    0.00189036  50 t-inv F
  0.217391  0.347826  0.000000    0.00189036  50 t-inv F
  0.565217 -0.217391  0.000000    0.00189036  50 t-inv F
  0.347826 -0.565217  0.000000    0.00189036  50 t-inv F
 -0.217391 -0.347826  0.000000    0.00189036  50 t-inv F
 -0.565217  0.217391  0.000000    0.00189036  50 t-inv F
 -0.217391  0.608696  0.000000    0.00189036  51 t-inv F
 -0.608696  0.391304  0.000000    0.00189036  51 t-inv F
 -0.391304 -0.217391  0.000000    0.00189036  51 t-inv F
  0.217391 -0.608696  0.000000    0.00189036  51 t-inv F
  0.608696 -0.391304  0.000000    0.00189036  51 t-inv F
 -0.260870  0.521739  0.000000    0.00189036  52 t-inv F
 -0.521739  0.260870  0.000000    0.00189036  52 t-inv F
 -0.260870 -0.260870  0.000000    0.00189036  52 t-inv F
  0.260870 -0.521739  0.000000    0.00189036  52 t-inv F
  0.521739 -0.260870  0.000000    0.00189036  52 t-inv F
 -0.260870  0.565217  0.000000    0.00189036  53 t-inv F
 -0.565217  0.304348  0.000000    0.00189036  53 t-inv F
 -0.304348 -0.260870  0.000000    0.00189036  53 t-inv F
  0.260870 -0.565217  0.000000    0.00189036  53 t-inv F
  0.565217 -0.304348  0.000000    0.00189036  53 t-inv F
 -0.304348  0.565217  0.000000    0.00189036  53 t-inv F
  0.260870  0.304348  0.000000    0.00189036  53 t-inv F
  0.565217 -0.260870  0.000000    0.00189036  53 t-inv F
  0.304348 -0.565217  0.000000    0.00189036  53 t-inv F
 -0.260870 -0.304348  0.000000    0.00189036  53 t-inv F
 -0.565217  0.260870  0.000000    0.00189036  53 t-inv F
 -0.260870  0.608696  0.000000    0.00189036  54 t-inv F
 -0.608696  0.347826  0.000000    0.00189036  54 t-inv F
 -0.347826 -0.260870  0.000000    0.00189036  54 t-inv F
  0.260870 -0.608696  0.000000    0.00189036  54 t-inv F
  0.608696 -0.347826  0.000000    0.00189036  54 t-inv F
 -0.347826  0.608696  0.000000    0.00189036  54 t-inv F
  0.260870  0.347826  0.000000    0.00189036  54 t-inv F
  0.608696 -0.260870  0.000000    0.00189036  54 t-inv F
  0.347826 -0.608696  0.000000    0.00189036  54 t-inv F
 -0.260870 -0.347826  0.000000    0.00189036  54 t-inv F
 -0.608696  0.260870  0.000000    0.00189036  54 t-inv F
 -0.304348  0.608696  0.000000    0.00189036  55 t-inv F
 -0.608696  0.304348  0.000000    0.00189036  55 t-inv F
 -0.304348 -0.304348  0.000000    0.00189036  55 t-inv F
  0.304348 -0.608696  0.000000    0.00189036  55 t-inv F
  0.608696 -0.304348  0.000000    0.00189036  55 t-inv F
 -0.304348  0.652174  0.000000    0.00189036  56 t-inv F
 -0.652174  0.347826  0.000000    0.00189036  56 t-inv F
 -0.347826 -0.304348  0.000000    0.00189036  56 t-inv F
  0.304348 -0.652174  0.000000    0.00189036  56 t-inv F
  0.652174 -0.347826  0.000000    0.00189036  56 t-inv F


--------------------------------------------------------------------------------------------------------




 Dimension of arrays:
   k-points           NKPTS =     56   k-points in BZ     NKDIM =    529   number of bands    NBANDS=      8
   number of dos      NEDOS =    301   number of ions     NIONS =      2
   non local maximal  LDIM  =      4   non local SUM 2l+1 LMDIM =      8
   total plane-waves  NPLWV =  34992
   max r-space proj   IRMAX =      1   max aug-charges    IRDMAX=   5422
   dimension x,y,z NGX =    18 NGY =   18 NGZ =  108
   dimension x,y,z NGXF=    36 NGYF=   36 NGZF=  216
   support grid    NGXF=    36 NGYF=   36 NGZF=  216
   ions per type =               2
   NGX,Y,Z   is equivalent  to a cutoff of  12.13, 12.13, 11.97 a.u.
   NGXF,Y,Z  is equivalent  to a cutoff of  24.26, 24.26, 23.94 a.u.

 SYSTEM =  Relaxation_HSE06                        
 POSCAR =  Graphene with lattice parameter 2.467   

 Startparameter for this run:
   NWRITE =      2    write-flag & timer
   PREC   = accura    normal or accurate (medium, high low for compatibility)
   ISTART =      1    job   : 0-new  1-cont  2-samecut
   ICHARG =      2    charge: 1-file 2-atom 10-const
   ISPIN  =      1    spin polarized calculation?
   LNONCOLLINEAR =      F non collinear calculations
   LSORBIT =      F    spin-orbit coupling
   INIWAV =      1    electr: 0-lowe 1-rand  2-diag
   LASPH  =      F    aspherical Exc in radial PAW
 Electronic Relaxation 1
   ENCUT  =  450.0 eV  33.07 Ry    5.75 a.u.   4.27  4.27 25.95*2*pi/ulx,y,z
   ENINI  =  450.0     initial cutoff
   ENAUG  =  644.9 eV  augmentation charge cutoff
   NELM   =     64;   NELMIN=  2; NELMDL=  0     # of ELM steps 
   EDIFF  = 0.1E-05   stopping-criterion for ELM
   LREAL  =      F    real-space projection
   NLSPLINE    = F    spline interpolate recip. space projectors
   LCOMPAT=      F    compatible to vasp.4.4
   GGA_COMPAT  = T    GGA compatible to vasp.4.4-vasp.4.6
   LMAXPAW     = -100 max onsite density
   LMAXMIX     =    2 max onsite mixed and CHGCAR
   VOSKOWN=      0    Vosko Wilk Nusair interpolation
   ROPT   =    0.00000
 Ionic relaxation
   EDIFFG = -.1E-02   stopping-criterion for IOM
   NSW    =    128    number of steps for IOM
   NBLOCK =      1;   KBLOCK =    128    inner block; outer block 
   IBRION =      2    ionic relax: 0-MD 1-quasi-New 2-CG
   NFREE  =      1    steps in history (QN), initial steepest desc. (CG)
   ISIF   =      3    stress and relaxation
   IWAVPR =     11    prediction:  0-non 1-charg 2-wave 3-comb
   ISYM   =      3    0-nonsym 1-usesym 2-fastsym
   LCORR  =      T    Harris-Foulkes like correction to forces

   POTIM  = 0.5000    time-step for ionic-motion
   TEIN   =    0.0    initial temperature
   TEBEG  =    0.0;   TEEND  =   0.0 temperature during run
   SMASS  =  -3.00    Nose mass-parameter (am)
   estimated Nose-frequenzy (Omega)   =  0.10E-29 period in steps = 0.13E+47 mass=  -0.139E-27a.u.
   SCALEE = 1.0000    scale energy and forces
   NPACO  =    256;   APACO  = 10.0  distance and # of slots for P.C.
   PSTRESS=    0.0 pullay stress

  Mass of Ions in am
   POMASS =  12.01
  Ionic Valenz
   ZVAL   =   4.00
  Atomic Wigner-Seitz radii
   RWIGS  =  -1.00
  virtual crystal weights 
   VCA    =   1.00
   NELECT =       8.0000    total number of electrons
   NUPDOWN=      -1.0000    fix difference up-down

 DOS related values:
   EMIN   =  10.00;   EMAX   =-10.00  energy-range for DOS
   EFERMI =   0.00;   METHOD = LEGACY      
   ISMEAR =     0;   SIGMA  =   0.10  broadening in eV -4-tet -1-fermi 0-gaus

 Electronic relaxation 2 (details)
   IALGO  =     53    algorithm
   LDIAG  =      T    sub-space diagonalisation (order eigenvalues)
   LSUBROT=      F    optimize rotation matrix (better conditioning)
   TURBO    =      0    0=normal 1=particle mesh
   IRESTART =      0    0=no restart 2=restart with 2 vectors
   NREBOOT  =      0    no. of reboots
   NMIN     =      0    reboot dimension
   EREF     =   0.00    reference energy to select bands
   IMIX   =      4    mixing-type and parameters
     AMIX     =   0.40;   BMIX     =  1.00
     AMIX_MAG =   1.60;   BMIX_MAG =  1.00
     AMIN     =   0.10
     WC   =   100.;   INIMIX=   1;  MIXPRE=   1;  MAXMIX= -45

 Intra band minimization:
   WEIMIN = 0.0010     energy-eigenvalue tresh-hold
   EBREAK =  0.31E-07  absolut break condition
   DEPER  =   0.30     relativ break condition  

   TIME   =   0.40     timestep for ELM

  volume/ion in A,a.u.               =      39.53       266.76
  Fermi-wavevector in a.u.,A,eV,Ry     =   0.762872  1.441618  7.918224  0.581973
  Thomas-Fermi vector in A             =   1.862429
 
 Write flags
   LWAVE        =      T    write WAVECAR
   LDOWNSAMPLE  =      F    k-point downsampling of WAVECAR
   LCHARG       =      T    write CHGCAR
   LVTOT        =      F    write LOCPOT, total local potential
   LVHAR        =      F    write LOCPOT, Hartree potential only
   LELF         =      F    write electronic localiz. function (ELF)
   LORBIT       =     11    0 simple, 1 ext, 2 COOP (PROOUT), +10 PAW based schemes


 Dipole corrections
   LMONO  =      F    monopole corrections only (constant potential shift)
   LDIPOL =      F    correct potential (dipole corrections)
   IDIPOL =      0    1-x, 2-y, 3-z, 4-all directions 
   EPSILON=  1.0000000 bulk dielectric constant

 Exchange correlation treatment:
   GGA     =    PE    GGA type
   LEXCH   =     8    internal setting for exchange type
   LIBXC   =     F    Libxc                    
   VOSKOWN =     0    Vosko Wilk Nusair interpolation
   EXXOEP  =     0    0=HF, 1=EXX-LHF (local Hartree Fock) 2=EXX OEP
   LHFCALC =     T    Hartree Fock is set to
   LSYMGRAD=     F    symmetrize gradient (conserves proper symmetry)
   PRECFOCK=normal    Normal, Fast or Accurate (Low or Medium for compatibility)
   LRHFCALC=     F    long range Hartree Fock
   LRSCOR  =     F    long range correlation only (use DFT for short range part)
   LTHOMAS =     F    Thomas Fermi screening in HF
   LMODELHF=     F    short range full HF, long range fraction AEXX
   FOCKCORR=     1    mode to apply convergence corrections
   LFOCKACE=     T    use Adeptively-Compressed-Exchange operator
   ENCUT4O =  -1.0   cutoff for four orbital integrals eV
   LMAXFOCK=     4    L truncation for augmentation on plane wave grid
   LMAXFOCKAE=  -1    L truncation for all-electron charge restoration on plane wave grid
   NMAXFOCKAE=   1    number of basis functions for all-electron charge restoration
   LFOCKAEDFT=     F  apply the AE augmentation even for DFT
   NKREDX  =     1    reduce k-point grid by
   NKREDY  =     1    reduce k-point grid by
   NKREDZ  =     1    reduce k-point grid by
   SHIFTRED=     F    shift reduced grid of Gamma
   HFKIDENT=     F    idential grid for each k-point
   ODDONLY =     F    use only odd q-grid points
   EVENONLY=     F    use only even q-grid points
   HFALPHA =   -1.0000 decay constant for conv. correction
   MCALPHA =    0.0000 extent of test-charge in conv. correction in multipole expansion
   AEXX    =    0.2500 exact exchange contribution
   HFSCREEN=    0.2000 screening length (either q_TF or 0.3 A-1)
   HFSCREENC=   0.2000 screening length for correlation (either q_TF or 0.3 A-1)
   HFRCUT  =    0.0000 spherical cutoff for potential kernel
   ALDAX   =    0.7500 LDA exchange part
   AGGAX   =    0.7500 GGA exchange part
   ALDAC   =    1.0000 LDA correlation
   AGGAC   =    1.0000 GGA correlation
   ENCUTFOCK=  -1.0 apply spherical cutoff to Coloumb kernel
   NBANDSGWLOW=     1    first orbital included in HF term
   NBLOCK_FOCK=    64    blocking factor in FOCK_ACC

 Linear response parameters
   LEPSILON=     F    determine dielectric tensor
   LRPA    =     F    only Hartree local field effects (RPA)
   LNABLA  =     F    use nabla operator in PAW spheres
   LVEL    =     F    velocity operator in full k-point grid
   CSHIFT  =0.1000    complex shift for real part using Kramers Kronig
   OMEGAMAX=  -1.0    maximum frequency
   DEG_THRESHOLD= 0.2000000E-02 threshold for treating states as degnerate
   RTIME   =   -0.100 relaxation time in fs
  (WPLASMAI=    0.000 imaginary part of plasma frequency in eV, 0.658/RTIME)
   DFIELD  = 0.0000000 0.0000000 0.0000000 field for delta impulse in time
 
  Optional k-point grid parameters
   LKPOINTS_OPT  =     F    use optional k-point grid
   KPOINTS_OPT_MODE=     1    mode for optional k-point grid
 
 Orbital magnetization related:
   ORBITALMAG=     F  switch on orbital magnetization
   LCHIMAG   =     F  perturbation theory with respect to B field
   DQ        =  0.001000  dq finite difference perturbation B field
   LLRAUG    =     F  two centre corrections for induced B field
   LBONE     =     F  B-component reconstruction in AE one-centre
   LVGVCALC  =     T  calculate vGv susceptibility
   LVGVAPPL  =     F  apply vGv susceptibility instead of pGv for G=0

 Random number generation:
   RANDOM_GENERATOR = DEFAULT
   PCG_SEED         = not used


--------------------------------------------------------------------------------------------------------


 conjugate gradient relaxation of ions
 charge density and potential will be updated during run
 non-spin polarized calculation
 Conjugate gradient for all bands (Freysoldt, et al. PRB 79, 241103 (2009))
 perform sub-space diagonalisation
    before iterative eigenvector-optimisation
 modified Broyden-mixing scheme, WC =      100.0
 initial mixing is a Kerker type mixing with AMIX =  0.4000 and BMIX =      1.0000
 Hartree-type preconditioning will be used
 using additional bands            4
 reciprocal scheme for non local part
 use partial core corrections
 no Harris-corrections to forces 
 use gradient corrections 
 use of overlap-Matrix (Vanderbilt PP)
 Gauss-broadening in eV      SIGMA  =   0.10


--------------------------------------------------------------------------------------------------------


  energy-cutoff  :      450.00
  volume of cell :       79.06
      direct lattice vectors                 reciprocal lattice vectors
     2.136484500  1.233500000  0.000000000     0.234029313  0.405350628  0.000000000
    -2.136484500  1.233500000  0.000000000    -0.234029313  0.405350628  0.000000000
     0.000000000  0.000000000 15.000000000     0.000000000  0.000000000  0.066666667

  length of vectors
     2.466999852  2.466999852 15.000000000     0.468058598  0.468058598  0.066666667


 
 old parameters found on file WAVECAR:
  energy-cutoff  :      450.00
  volume of cell :       79.06
      direct lattice vectors                 reciprocal lattice vectors
     2.136484500  1.233500000  0.000000000     0.234029313  0.405350628  0.000000000
    -2.136484500  1.233500000  0.000000000    -0.234029313  0.405350628  0.000000000
     0.000000000  0.000000000 15.000000000     0.000000000  0.000000000  0.066666667

  length of vectors

 
 k-points in units of 2pi/SCALE and weight: k-points                                
   0.00000000  0.00000000  0.00000000       0.002
   0.01017519  0.01762394  0.00000000       0.011
   0.02035038  0.03524788  0.00000000       0.011
   0.03052556  0.05287182  0.00000000       0.011
   0.04070075  0.07049576  0.00000000       0.011
   0.05087594  0.08811970  0.00000000       0.011
   0.06105113  0.10574364  0.00000000       0.011
   0.07122631  0.12336758  0.00000000       0.011
   0.08140150  0.14099152  0.00000000       0.011
   0.09157669  0.15861546  0.00000000       0.011
   0.10175188  0.17623940  0.00000000       0.011
   0.11192706  0.19386334  0.00000000       0.011
   0.00000000  0.03524788  0.00000000       0.011
   0.01017519  0.05287182  0.00000000       0.023
   0.02035038  0.07049576  0.00000000       0.023
   0.03052556  0.08811970  0.00000000       0.023
   0.04070075  0.10574364  0.00000000       0.023
   0.05087594  0.12336758  0.00000000       0.023
   0.06105113  0.14099152  0.00000000       0.023
   0.07122631  0.15861546  0.00000000       0.023
   0.08140150  0.17623940  0.00000000       0.023
   0.09157669  0.19386334  0.00000000       0.023
   0.10175188  0.21148728  0.00000000       0.011
   0.00000000  0.07049576  0.00000000       0.011
   0.01017519  0.08811970  0.00000000       0.023
   0.02035038  0.10574364  0.00000000       0.023
   0.03052556  0.12336758  0.00000000       0.023
   0.04070075  0.14099152  0.00000000       0.023
   0.05087594  0.15861546  0.00000000       0.023
   0.06105113  0.17623940  0.00000000       0.023
   0.07122631  0.19386334  0.00000000       0.023
   0.08140150  0.21148728  0.00000000       0.023
   0.00000000  0.10574364  0.00000000       0.011
   0.01017519  0.12336758  0.00000000       0.023
   0.02035038  0.14099152  0.00000000       0.023
   0.03052556  0.15861546  0.00000000       0.023
   0.04070075  0.17623940  0.00000000       0.023
   0.05087594  0.19386334  0.00000000       0.023
   0.06105113  0.21148728  0.00000000       0.023
   0.07122631  0.22911122  0.00000000       0.011
  -0.00000000  0.14099152  0.00000000       0.011
   0.01017519  0.15861546  0.00000000       0.023
   0.02035038  0.17623940  0.00000000       0.023
   0.03052556  0.19386334  0.00000000       0.023
   0.04070075  0.21148728  0.00000000       0.023
   0.05087594  0.22911122  0.00000000       0.023
  -0.00000000  0.17623940  0.00000000       0.011
   0.01017519  0.19386334  0.00000000       0.023
   0.02035038  0.21148728  0.00000000       0.023
   0.03052556  0.22911122  0.00000000       0.023
   0.04070075  0.24673517  0.00000000       0.011
   0.00000000  0.21148728  0.00000000       0.011
   0.01017519  0.22911122  0.00000000       0.023
   0.02035038  0.24673517  0.00000000       0.023
  -0.00000000  0.24673517  0.00000000       0.011
   0.01017519  0.26435911  0.00000000       0.011
 
 k-points in reciprocal lattice and weights: k-points                                
   0.00000000  0.00000000  0.00000000       0.002
   0.04347826  0.00000000  0.00000000       0.011
   0.08695652 -0.00000000  0.00000000       0.011
   0.13043478  0.00000000  0.00000000       0.011
   0.17391304 -0.00000000  0.00000000       0.011
   0.21739130 -0.00000000  0.00000000       0.011
   0.26086957  0.00000000  0.00000000       0.011
   0.30434783  0.00000000  0.00000000       0.011
   0.34782609  0.00000000  0.00000000       0.011
   0.39130435  0.00000000  0.00000000       0.011
   0.43478261  0.00000000  0.00000000       0.011
   0.47826087 -0.00000000  0.00000000       0.011
   0.04347826  0.04347826  0.00000000       0.011
   0.08695652  0.04347826  0.00000000       0.023
   0.13043478  0.04347826  0.00000000       0.023
   0.17391304  0.04347826  0.00000000       0.023
   0.21739130  0.04347826  0.00000000       0.023
   0.26086957  0.04347826  0.00000000       0.023
   0.30434783  0.04347826  0.00000000       0.023
   0.34782609  0.04347826  0.00000000       0.023
   0.39130435  0.04347826  0.00000000       0.023
   0.43478261  0.04347826  0.00000000       0.023
   0.47826087  0.04347826  0.00000000       0.011
   0.08695652  0.08695652  0.00000000       0.011
   0.13043478  0.08695652  0.00000000       0.023
   0.17391304  0.08695652  0.00000000       0.023
   0.21739130  0.08695652  0.00000000       0.023
   0.26086957  0.08695652  0.00000000       0.023
   0.30434783  0.08695652  0.00000000       0.023
   0.34782609  0.08695652  0.00000000       0.023
   0.39130435  0.08695652  0.00000000       0.023
   0.43478261  0.08695652  0.00000000       0.023
   0.13043478  0.13043478  0.00000000       0.011
   0.17391304  0.13043478  0.00000000       0.023
   0.21739130  0.13043478  0.00000000       0.023
   0.26086957  0.13043478  0.00000000       0.023
   0.30434783  0.13043478  0.00000000       0.023
   0.34782609  0.13043478  0.00000000       0.023
   0.39130435  0.13043478  0.00000000       0.023
   0.43478261  0.13043478  0.00000000       0.011
   0.17391304  0.17391304  0.00000000       0.011
   0.21739130  0.17391304  0.00000000       0.023
   0.26086957  0.17391304  0.00000000       0.023
   0.30434783  0.17391304  0.00000000       0.023
   0.34782609  0.17391304  0.00000000       0.023
   0.39130435  0.17391304  0.00000000       0.023
   0.21739130  0.21739130  0.00000000       0.011
   0.26086957  0.21739130  0.00000000       0.023
   0.30434783  0.21739130  0.00000000       0.023
   0.34782609  0.21739130  0.00000000       0.023
   0.39130435  0.21739130  0.00000000       0.011
   0.26086957  0.26086957  0.00000000       0.011
   0.30434783  0.26086957  0.00000000       0.023
   0.34782609  0.26086957  0.00000000       0.023
   0.30434783  0.30434783  0.00000000       0.011
   0.34782609  0.30434783  0.00000000       0.011
 
 position of ions in fractional coordinates (direct lattice) 
   0.33333300  0.66666600  0.10000000
   0.66666600  0.33333300  0.10000000
 
 position of ions in cartesian coordinates  (Angst):
  -0.71216079  1.23349877  1.50000000
   0.71216079  1.23349877  1.50000000
 


--------------------------------------------------------------------------------------------------------


 k-point   1 :   0.0000 0.0000 0.0000  plane waves:    1749
 k-point   2 :   0.0435 0.0000 0.0000  plane waves:    1747
 k-point   3 :   0.0870-0.0000 0.0000  plane waves:    1735
 k-point   4 :   0.1304 0.0000 0.0000  plane waves:    1711
 k-point   5 :   0.1739-0.0000 0.0000  plane waves:    1713
 k-point   6 :   0.2174-0.0000 0.0000  plane waves:    1713
 k-point   7 :   0.2609 0.0000 0.0000  plane waves:    1701
 k-point   8 :   0.3043 0.0000 0.0000  plane waves:    1693
 k-point   9 :   0.3478 0.0000 0.0000  plane waves:    1704
 k-point  10 :   0.3913 0.0000 0.0000  plane waves:    1702
 k-point  11 :   0.4348 0.0000 0.0000  plane waves:    1720
 k-point  12 :   0.4783-0.0000 0.0000  plane waves:    1716
 k-point  13 :   0.0435 0.0435 0.0000  plane waves:    1741
 k-point  14 :   0.0870 0.0435 0.0000  plane waves:    1722
 k-point  15 :   0.1304 0.0435 0.0000  plane waves:    1724
 k-point  16 :   0.1739 0.0435 0.0000  plane waves:    1716
 k-point  17 :   0.2174 0.0435 0.0000  plane waves:    1708
 k-point  18 :   0.2609 0.0435 0.0000  plane waves:    1699
 k-point  19 :   0.3043 0.0435 0.0000  plane waves:    1699
 k-point  20 :   0.3478 0.0435 0.0000  plane waves:    1713
 k-point  21 :   0.3913 0.0435 0.0000  plane waves:    1712
 k-point  22 :   0.4348 0.0435 0.0000  plane waves:    1718
 k-point  23 :   0.4783 0.0435 0.0000  plane waves:    1716
 k-point  24 :   0.0870 0.0870 0.0000  plane waves:    1723
 k-point  25 :   0.1304 0.0870 0.0000  plane waves:    1717
 k-point  26 :   0.1739 0.0870 0.0000  plane waves:    1712
 k-point  27 :   0.2174 0.0870 0.0000  plane waves:    1705
 k-point  28 :   0.2609 0.0870 0.0000  plane waves:    1702
 k-point  29 :   0.3043 0.0870 0.0000  plane waves:    1715
 k-point  30 :   0.3478 0.0870 0.0000  plane waves:    1719
 k-point  31 :   0.3913 0.0870 0.0000  plane waves:    1709
 k-point  32 :   0.4348 0.0870 0.0000  plane waves:    1704
 k-point  33 :   0.1304 0.1304 0.0000  plane waves:    1717
 k-point  34 :   0.1739 0.1304 0.0000  plane waves:    1705
 k-point  35 :   0.2174 0.1304 0.0000  plane waves:    1703
 k-point  36 :   0.2609 0.1304 0.0000  plane waves:    1709
 k-point  37 :   0.3043 0.1304 0.0000  plane waves:    1717
 k-point  38 :   0.3478 0.1304 0.0000  plane waves:    1721
 k-point  39 :   0.3913 0.1304 0.0000  plane waves:    1722
 k-point  40 :   0.4348 0.1304 0.0000  plane waves:    1730
 k-point  41 :   0.1739 0.1739 0.0000  plane waves:    1714
 k-point  42 :   0.2174 0.1739 0.0000  plane waves:    1703
 k-point  43 :   0.2609 0.1739 0.0000  plane waves:    1709
 k-point  44 :   0.3043 0.1739 0.0000  plane waves:    1726
 k-point  45 :   0.3478 0.1739 0.0000  plane waves:    1718
 k-point  46 :   0.3913 0.1739 0.0000  plane waves:    1718
 k-point  47 :   0.2174 0.2174 0.0000  plane waves:    1710
 k-point  48 :   0.2609 0.2174 0.0000  plane waves:    1703
 k-point  49 :   0.3043 0.2174 0.0000  plane waves:    1713
 k-point  50 :   0.3478 0.2174 0.0000  plane waves:    1718
 k-point  51 :   0.3913 0.2174 0.0000  plane waves:    1716
 k-point  52 :   0.2609 0.2609 0.0000  plane waves:    1700
 k-point  53 :   0.3043 0.2609 0.0000  plane waves:    1704
 k-point  54 :   0.3478 0.2609 0.0000  plane waves:    1710
 k-point  55 :   0.3043 0.3043 0.0000  plane waves:    1708
 k-point  56 :   0.3478 0.3043 0.0000  plane waves:    1714

 maximum and minimum number of plane-waves per node :       590      557

 maximum number of plane-waves:      1749
 maximum index in each direction: 
   IXMAX=    4   IYMAX=    4   IZMAX=   25
   IXMIN=   -4   IYMIN=   -4   IZMIN=  -25


 parallel 3D FFT for wavefunctions:
    minimum data exchange during FFTs selected (reduces bandwidth)
 parallel 3D FFT for charge:
    minimum data exchange during FFTs selected (reduces bandwidth)


 FFT grid for exact exchange (Hartree Fock) 
  NGX = 14; NGY = 14; NGZ = 80

 
 Radii for the augmentation spheres in the non-local exchange
 for species   1 augmentation radius   0.874 (default was   0.699)
       energy cutoff for augmentation   1800.0

 real space projection operators:
  total allocation   :         78.47 KBytes
  max/ min on nodes  :         27.63         24.68

 Maximum index for augmentation-charges in exchange          203
  SETUP_FOCK is finished

 total amount of memory used by VASP MPI-rank0    36287. kBytes
=======================================================================

   base      :      30000. kBytes
   nonl-proj :       2198. kBytes
   fftplans  :       1158. kBytes
   grid      :       1219. kBytes
   one-center:          3. kBytes
   HF        :          4. kBytes
   nonlr-proj:         52. kBytes
   wavefun   :       1653. kBytes
 
     INWAV:  cpu time      0.1199: real time      0.1801
 Broyden mixing: mesh for mixing (old mesh)
   NGX =  9   NGY =  9   NGZ = 51
  (NGX  = 36   NGY  = 36   NGZ  =216)
  gives a total of   4131 points

 initial charge density was supplied:
 charge density of overlapping atoms calculated
 number of electron       8.0000000 magnetization 
 charge density for first step will be calculated from the start-wavefunctions


--------------------------------------------------------------------------------------------------------


 Maximum index for augmentation-charges          324 (set IRDMAX)


--------------------------------------------------------------------------------------------------------


 initial charge from wavefunction
 First call to EWALD:  gamma=   0.413
 Maximum number of real-space cells 5x 5x 1
 Maximum number of reciprocal cells 2x 2x 8

    FEWALD:  cpu time      0.0011: real time      0.0011


--------------------------------------- Ionic step        1  -------------------------------------------




--------------------------------------- Iteration      1(   1)  ---------------------------------------


    POTLOK:  cpu time      0.0175: real time      0.0177
    SETDIJ:  cpu time      0.0206: real time      0.0217
    TRIAL :  cpu time     22.9718: real time     23.0570
    CORREC:  cpu time      0.0003: real time      0.0004
    CHARGE:  cpu time      0.0280: real time      0.0297
    --------------------------------------------
      LOOP:  cpu time     23.0386: real time     23.1277

 eigenvalue-minimisations  :     0
 total energy-change (2. order) :-0.2119777E+02  (-0.7141931E-02)
 number of electron       7.9999998 magnetization 
 augmentation part        0.1879360 magnetization 

 Free energy of the ion-electron system (eV)
  ---------------------------------------------------
  alpha Z        PSCENC =         4.15613880
  Ewald energy   TEWEN  =       835.74592742
  -Hartree energ DENC   =     -1087.17400967
  -exchange      EXHF   =        18.02155981
  -V(xc)+E(xc)   XCENC  =        21.14755095
  PAW double counting   =       947.91833749     -948.79326150
  entropy T*S    EENTRO =        -0.00000000
  eigenvalues    EBANDS =      -103.01480189
  atomic energy  EATOM  =       290.79478791
  ---------------------------------------------------
  free energy    TOTEN  =       -21.19777068 eV

  energy without entropy =      -21.19777068  energy(sigma->0) =      -21.19777068
  exchange ACFDT corr.  =        -0.00000000  see jH, gK, PRB 81, 115126


--------------------------------------------------------------------------------------------------------




--------------------------------------- Iteration      1(   2)  ---------------------------------------


    POTLOK:  cpu time      0.0181: real time      0.0181
    SETDIJ:  cpu time      0.0226: real time      0.0228
    TRIAL :  cpu time     23.1435: real time     23.2129
    CORREC:  cpu time      0.0002: real time      0.0002
    CHARGE:  cpu time      0.0287: real time      0.0289
    --------------------------------------------
      LOOP:  cpu time     23.2148: real time     23.2850

 eigenvalue-minimisations  :     0
 total energy-change (2. order) :-0.5324598E-02  (-0.3510021E-02)
 number of electron       7.9999998 magnetization 
 augmentation part        0.1880620 magnetization 

 Free energy of the ion-electron system (eV)
  ---------------------------------------------------
  alpha Z        PSCENC =         4.15613880
  Ewald energy   TEWEN  =       835.74592742
  -Hartree energ DENC   =     -1086.79967945
  -exchange      EXHF   =        18.01623757
  -V(xc)+E(xc)   XCENC  =        21.14362485
  PAW double counting   =       939.17675983     -940.05581239
  entropy T*S    EENTRO =        -0.00000000
  eigenvalues    EBANDS =      -103.38107982
  atomic energy  EATOM  =       290.79478791
  ---------------------------------------------------
  free energy    TOTEN  =       -21.20309528 eV

  energy without entropy =      -21.20309528  energy(sigma->0) =      -21.20309528
  exchange ACFDT corr.  =        -0.00000000  see jH, gK, PRB 81, 115126


--------------------------------------------------------------------------------------------------------




--------------------------------------- Iteration      1(   3)  ---------------------------------------


    POTLOK:  cpu time      0.0181: real time      0.0183
    SETDIJ:  cpu time      0.0219: real time      0.0227
    TRIAL :  cpu time     22.9461: real time     23.0062
    CORREC:  cpu time      0.0001: real time      0.0001
    CHARGE:  cpu time      0.0277: real time      0.0283
    --------------------------------------------
      LOOP:  cpu time     23.0143: real time     23.0771

 eigenvalue-minimisations  :     0
 total energy-change (2. order) :-0.2261392E-02  (-0.7526493E-03)
 number of electron       7.9999998 magnetization 
 augmentation part        0.1882062 magnetization 

 Free energy of the ion-electron system (eV)
  ---------------------------------------------------
  alpha Z        PSCENC =         4.15613880
  Ewald energy   TEWEN  =       835.74592742
  -Hartree energ DENC   =     -1086.68816275
  -exchange      EXHF   =        18.01573626
  -V(xc)+E(xc)   XCENC  =        21.14474808
  PAW double counting   =       930.70442998     -931.58814537
  entropy T*S    EENTRO =        -0.00000000
  eigenvalues    EBANDS =      -103.49081700
  atomic energy  EATOM  =       290.79478791
  ---------------------------------------------------
  free energy    TOTEN  =       -21.20535667 eV

  energy without entropy =      -21.20535667  energy(sigma->0) =      -21.20535667
  exchange ACFDT corr.  =        -0.00000000  see jH, gK, PRB 81, 115126


--------------------------------------------------------------------------------------------------------




--------------------------------------- Iteration      1(   4)  ---------------------------------------


    POTLOK:  cpu time      0.0180: real time      0.0180
    SETDIJ:  cpu time      0.0219: real time      0.0230
    TRIAL :  cpu time     23.1268: real time     23.1859
    CORREC:  cpu time      0.0001: real time      0.0001
    CHARGE:  cpu time      0.0286: real time      0.0288
    --------------------------------------------
      LOOP:  cpu time     23.1958: real time     23.2576

 eigenvalue-minimisations  :     0
 total energy-change (2. order) :-0.3714189E-03  (-0.1297527E-03)
 number of electron       7.9999998 magnetization 
 augmentation part        0.1882594 magnetization 

 Free energy of the ion-electron system (eV)
  ---------------------------------------------------
  alpha Z        PSCENC =         4.15613880
  Ewald energy   TEWEN  =       835.74592742
  -Hartree energ DENC   =     -1086.73612649
  -exchange      EXHF   =        18.01700870
  -V(xc)+E(xc)   XCENC  =        21.14733643
  PAW double counting   =       925.23904759     -926.12589327
  entropy T*S    EENTRO =        -0.00000000
  eigenvalues    EBANDS =      -103.44395518
  atomic energy  EATOM  =       290.79478791
  ---------------------------------------------------
  free energy    TOTEN  =       -21.20572809 eV

  energy without entropy =      -21.20572809  energy(sigma->0) =      -21.20572809
  exchange ACFDT corr.  =        -0.00000000  see jH, gK, PRB 81, 115126


--------------------------------------------------------------------------------------------------------




--------------------------------------- Iteration      1(   5)  ---------------------------------------


    POTLOK:  cpu time      0.0178: real time      0.0179
    SETDIJ:  cpu time      0.0217: real time      0.0220
    TRIAL :  cpu time     23.0544: real time     23.1142
    CORREC:  cpu time      0.0001: real time      0.0001
    CHARGE:  cpu time      0.0280: real time      0.0282
    --------------------------------------------
      LOOP:  cpu time     23.1223: real time     23.1837

 eigenvalue-minimisations  :     0
 total energy-change (2. order) :-0.5594155E-04  (-0.9171958E-04)
 number of electron       7.9999998 magnetization 
 augmentation part        0.1882236 magnetization 

 Free energy of the ion-electron system (eV)
  ---------------------------------------------------
  alpha Z        PSCENC =         4.15613880
  Ewald energy   TEWEN  =       835.74592742
  -Hartree energ DENC   =     -1086.75797667
  -exchange      EXHF   =        18.01670665
  -V(xc)+E(xc)   XCENC  =        21.14789568
  PAW double counting   =       922.48638559     -923.37447395
  entropy T*S    EENTRO =        -0.00000000
  eigenvalues    EBANDS =      -103.42117546
  atomic energy  EATOM  =       290.79478791
  ---------------------------------------------------
  free energy    TOTEN  =       -21.20578403 eV

  energy without entropy =      -21.20578403  energy(sigma->0) =      -21.20578403
  exchange ACFDT corr.  =        -0.00000000  see jH, gK, PRB 81, 115126


--------------------------------------------------------------------------------------------------------




--------------------------------------- Iteration      1(   6)  ---------------------------------------


    POTLOK:  cpu time      0.0175: real time      0.0176
    SETDIJ:  cpu time      0.0220: real time      0.0230
    TRIAL :  cpu time     23.1269: real time     23.1864
    CORREC:  cpu time      0.0002: real time      0.0001
    CHARGE:  cpu time      0.0279: real time      0.0282
    --------------------------------------------
      LOOP:  cpu time     23.1949: real time     23.2567

 eigenvalue-minimisations  :     0
 total energy-change (2. order) :-0.6202764E-04  (-0.5995069E-04)
 number of electron       7.9999998 magnetization 
 augmentation part        0.1881578 magnetization 

 Free energy of the ion-electron system (eV)
  ---------------------------------------------------
  alpha Z        PSCENC =         4.15613880
  Ewald energy   TEWEN  =       835.74592742
  -Hartree energ DENC   =     -1086.74535154
  -exchange      EXHF   =        18.01565299
  -V(xc)+E(xc)   XCENC  =        21.14714969
  PAW double counting   =       921.61372475     -922.50186304
  entropy T*S    EENTRO =        -0.00000000
  eigenvalues    EBANDS =      -103.43201303
  atomic energy  EATOM  =       290.79478791
  ---------------------------------------------------
  free energy    TOTEN  =       -21.20584606 eV

  energy without entropy =      -21.20584606  energy(sigma->0) =      -21.20584606
  exchange ACFDT corr.  =        -0.00000000  see jH, gK, PRB 81, 115126


--------------------------------------------------------------------------------------------------------




--------------------------------------- Iteration      1(   7)  ---------------------------------------


    POTLOK:  cpu time      0.0176: real time      0.0176
    SETDIJ:  cpu time      0.0216: real time      0.0219
    TRIAL :  cpu time     23.1126: real time     23.1781
    CORREC:  cpu time      0.0002: real time      0.0001
    CHARGE:  cpu time      0.0284: real time      0.0287
    --------------------------------------------
      LOOP:  cpu time     23.1810: real time     23.2479

 eigenvalue-minimisations  :     0
 total energy-change (2. order) :-0.4190713E-04  (-0.2552895E-04)
 number of electron       7.9999998 magnetization 
 augmentation part        0.1881047 magnetization 

 Free energy of the ion-electron system (eV)
  ---------------------------------------------------
  alpha Z        PSCENC =         4.15613880
  Ewald energy   TEWEN  =       835.74592742
  -Hartree energ DENC   =     -1086.73373090
  -exchange      EXHF   =        18.01517183
  -V(xc)+E(xc)   XCENC  =        21.14653640
  PAW double counting   =       921.71648916     -922.60426466
  entropy T*S    EENTRO =        -0.00000000
  eigenvalues    EBANDS =      -103.44294394
  atomic energy  EATOM  =       290.79478791
  ---------------------------------------------------
  free energy    TOTEN  =       -21.20588796 eV

  energy without entropy =      -21.20588796  energy(sigma->0) =      -21.20588796
  exchange ACFDT corr.  =        -0.00000000  see jH, gK, PRB 81, 115126


--------------------------------------------------------------------------------------------------------




--------------------------------------- Iteration      1(   8)  ---------------------------------------


    POTLOK:  cpu time      0.0157: real time      0.0158
    SETDIJ:  cpu time      0.0212: real time      0.0221
    TRIAL :  cpu time     23.0913: real time     23.1491
    CORREC:  cpu time      0.0002: real time      0.0002
    CHARGE:  cpu time      0.0277: real time      0.0280
[...]
  band No.  band energies     occupation 
      1     -23.8945      2.00000
      2     -10.5376      2.00000
      3      -8.2512      2.00000
      4      -7.4660      2.00000
      5       1.9405      0.00000
      6       2.7989      0.00000
      7       3.2837      0.00000
      8       5.1970      0.00000

 k-point    25 :       0.1304    0.0870    0.0000
  band No.  band energies     occupation 
      1     -23.5522      2.00000
      2     -10.1181      2.00000
      3      -9.1702      2.00000
      4      -8.0463      2.00000
      5       2.3747      0.00000
      6       3.2333      0.00000
      7       3.7222      0.00000
      8       5.6270      0.00000

 k-point    26 :       0.1739    0.0870    0.0000
  band No.  band energies     occupation 
      1     -23.1139      2.00000
      2     -10.2485      2.00000
      3      -9.5830      2.00000
      4      -8.6250      2.00000
      5       2.9326      0.00000
      6       3.7899      0.00000
      7       4.2858      0.00000
      8       6.1904      0.00000

 k-point    27 :       0.2174    0.0870    0.0000
  band No.  band energies     occupation 
      1     -22.5812      2.00000
      2     -11.4273      2.00000
      3      -9.1578      2.00000
      4      -8.9371      2.00000
      5       3.6138      0.00000
      6       4.4589      0.00000
      7       4.9744      0.00000
      8       5.6688      0.00000

 k-point    28 :       0.2609    0.0870    0.0000
  band No.  band energies     occupation 
      1     -21.9566      2.00000
      2     -12.6525      2.00000
      3      -9.6227      2.00000
      4      -8.1896      2.00000
      5       4.2990      0.00000
      6       4.4173      0.00000
      7       5.3124      0.00000
      8       5.7872      0.00000

 k-point    29 :       0.3043    0.0870    0.0000
  band No.  band energies     occupation 
      1     -21.2439      2.00000
      2     -13.8817      2.00000
      3     -10.0064      2.00000
      4      -7.3586      2.00000
      5       2.9812      0.00000
      6       5.3418      0.00000
      7       6.2190      0.00000
      8       6.7664      0.00000

 k-point    30 :       0.3478    0.0870    0.0000
  band No.  band energies     occupation 
      1     -20.4502      2.00000
      2     -15.0816      2.00000
      3     -10.3003      2.00000
      4      -6.4829      2.00000
      5       1.7043      0.00000
      6       6.3818      0.00000
      7       7.0789      0.00000
      8       7.2578      0.00000

 k-point    31 :       0.3913    0.0870    0.0000
  band No.  band energies     occupation 
      1     -19.5947      2.00000
      2     -16.2163      2.00000
      3     -10.4990      2.00000
      4      -5.6528      2.00000
      5       0.5938      0.00000
      6       6.9689      0.00000
      7       7.5644      0.00000
      8       8.4094      0.00000

 k-point    32 :       0.4348    0.0870    0.0000
  band No.  band energies     occupation 
      1     -18.7780      2.00000
      2     -17.1748      2.00000
      3     -10.5991      2.00000
      4      -5.0803      2.00000
      5      -0.1228      0.00000
      6       6.9280      0.00000
      7       8.8291      0.00000
      8       9.6521      0.00000

 k-point    33 :       0.1304    0.1304    0.0000
  band No.  band energies     occupation 
      1     -23.1625      2.00000
      2      -9.9964      2.00000
      3      -9.6418      2.00000
      4      -8.7422      2.00000
      5       2.8709      0.00000
      6       3.7289      0.00000
      7       4.2234      0.00000
      8       6.2667      0.00000

 k-point    34 :       0.1739    0.1304    0.0000
  band No.  band energies     occupation 
      1     -22.6779      2.00000
      2     -10.9665      2.00000
      3      -9.4148      2.00000
      4      -9.0521      2.00000
      5       3.4905      0.00000
      6       4.3453      0.00000
      7       4.8497      0.00000
      8       5.9565      0.00000

 k-point    35 :       0.2174    0.1304    0.0000
  band No.  band energies     occupation 
      1     -22.1005      2.00000
      2     -12.0595      2.00000
      3      -9.9928      2.00000
      4      -8.3555      2.00000
      5       4.2328      0.00000
      6       4.7117      0.00000
      7       5.1139      0.00000
      8       5.6008      0.00000

 k-point    36 :       0.2609    0.1304    0.0000
  band No.  band energies     occupation 
      1     -21.4335      2.00000
      2     -13.2194      2.00000
      3     -10.4629      2.00000
      4      -7.5640      2.00000
      5       3.4642      0.00000
      6       5.0969      0.00000
      7       5.9549      0.00000
      8       6.4807      0.00000

 k-point    37 :       0.3043    0.1304    0.0000
  band No.  band energies     occupation 
      1     -20.6821      2.00000
      2     -14.3933      2.00000
      3     -10.8271      2.00000
      4      -6.7022      2.00000
      5       2.2018      0.00000
      6       6.0809      0.00000
      7       6.9285      0.00000
      8       7.6435      0.00000

 k-point    38 :       0.3478    0.1304    0.0000
  band No.  band energies     occupation 
      1     -19.8576      2.00000
      2     -15.5379      2.00000
      3     -11.0872      2.00000
      4      -5.8260      2.00000
      5       1.0207      0.00000
      6       7.1801      0.00000
      7       7.9681      0.00000
      8       8.0092      0.00000

 k-point    39 :       0.3913    0.1304    0.0000
  band No.  band energies     occupation 
      1     -18.9992      2.00000
      2     -16.5950      2.00000
      3     -11.2434      2.00000
      4      -5.0732      2.00000
      5       0.0773      0.00000
      6       7.8876      0.00000
      7       8.4074      0.00000
      8       9.1692      0.00000

 k-point    40 :       0.4348    0.1304    0.0000
  band No.  band energies     occupation 
      1     -18.4291      2.00000
      2     -17.2325      2.00000
      3     -11.2955      2.00000
      4      -4.7434      2.00000
      5      -0.3176      0.00000
      6       7.8684      0.00000
      7       9.6487      0.00000
      8      10.1200      0.00000

 k-point    41 :       0.1739    0.1739    0.0000
  band No.  band energies     occupation 
      1     -22.1486      2.00000
      2     -11.7700      2.00000
      3     -10.2137      2.00000
      4      -8.4111      2.00000
      5       4.1713      0.00000
      6       4.8888      0.00000
      7       5.0216      0.00000
      8       5.5384      0.00000

 k-point    42 :       0.2174    0.1739    0.0000
  band No.  band energies     occupation 
      1     -21.5286      2.00000
      2     -12.7047      2.00000
      3     -10.8902      2.00000
      4      -7.6678      2.00000
      5       3.7470      0.00000
      6       4.9740      0.00000
      7       5.8156      0.00000
      8       6.3518      0.00000

 k-point    43 :       0.2609    0.1739    0.0000
  band No.  band energies     occupation 
      1     -20.8223      2.00000
      2     -13.7515      2.00000
      3     -11.3995      2.00000
      4      -6.8377      2.00000
      5       2.5659      0.00000
      6       5.8973      0.00000
      7       6.7218      0.00000
      8       7.2895      0.00000

 k-point    44 :       0.3043    0.1739    0.0000
  band No.  band energies     occupation 
      1     -20.0374      2.00000
      2     -14.8433      2.00000
      3     -11.7595      2.00000
      4      -5.9543      2.00000
      5       1.3970      0.00000
      6       6.9382      0.00000
      7       7.7263      0.00000
      8       8.5886      0.00000

 k-point    45 :       0.3478    0.1739    0.0000
  band No.  band energies     occupation 
      1     -19.1937      2.00000
      2     -15.9130      2.00000
      3     -11.9910      2.00000
      4      -5.0986      2.00000
      5       0.3395      0.00000
      6       8.0912      0.00000
      7       8.7870      0.00000
      8       9.0911      0.00000

 k-point    46 :       0.3913    0.1739    0.0000
  band No.  band energies     occupation 
      1     -18.3907      2.00000
      2     -16.8347      2.00000
      3     -12.1048      2.00000
      4      -4.4840      2.00000
      5      -0.3800      0.00000
      6       9.0378      0.00000
      7       9.3544      0.00000
      8       9.7109      0.00000

 k-point    47 :       0.2174    0.2174    0.0000
  band No.  band energies     occupation 
      1     -20.8692      2.00000
      2     -13.4253      2.00000
      3     -11.7074      2.00000
      4      -6.8835      2.00000
      5       2.7017      0.00000
      6       5.8359      0.00000
      7       6.6503      0.00000
      8       7.2269      0.00000

 k-point    48 :       0.2609    0.2174    0.0000
  band No.  band energies     occupation 
      1     -20.1284      2.00000
      2     -14.2831      2.00000
      3     -12.3204      2.00000
      4      -6.0220      2.00000
      5       1.6225      0.00000
      6       6.8158      0.00000
      7       7.5761      0.00000
      8       8.2255      0.00000

 k-point    49 :       0.3043    0.2174    0.0000
  band No.  band energies     occupation 
      1     -19.3185      2.00000
      2     -15.2457      2.00000
      3     -12.7121      2.00000
      4      -5.1272      2.00000
      5       0.5611      0.00000
      6       7.9088      0.00000
      7       8.5280      0.00000
      8       9.8355      0.00000

 k-point    50 :       0.3478    0.2174    0.0000
  band No.  band energies     occupation 
      1     -18.4782      2.00000
      2     -16.2063      2.00000
      3     -12.9270      2.00000
      4      -4.3189      2.00000
      5      -0.3527      0.00000
      6       9.1037      0.00000
      7       9.2743      0.00000
      8      10.3281      0.00000

 k-point    51 :       0.3913    0.2174    0.0000
  band No.  band energies     occupation 
      1     -17.9175      2.00000
      2     -16.8114      2.00000
      3     -12.9956      2.00000
      4      -3.9362      2.00000
      5      -0.7718      0.00000
      6       9.5073      0.00000
      7      10.2952      0.00000
      8      10.2969      0.00000

 k-point    52 :       0.2609    0.2609    0.0000
  band No.  band energies     occupation 
      1     -19.3611      2.00000
      2     -14.8938      2.00000
      3     -13.0847      2.00000
      4      -5.1390      2.00000
      5       0.6486      0.00000
      6       7.8476      0.00000
      7       8.4336      0.00000
      8       9.2829      0.00000

 k-point    53 :       0.3043    0.2609    0.0000
  band No.  band energies     occupation 
      1     -18.5407      2.00000
      2     -15.6472      2.00000
      3     -13.5736      2.00000
      4      -4.2420      2.00000
      5      -0.3090      0.00000
      6       8.9821      0.00000
      7       9.0126      0.00000
      8      10.6659      0.00000

 k-point    54 :       0.3478    0.2609    0.0000
  band No.  band energies     occupation 
      1     -17.7561      2.00000
      2     -16.4282      2.00000
      3     -13.7931      2.00000
      4      -3.5132      2.00000
      5      -1.0684      0.00000
      6       9.1430      0.00000
      7      10.1884      0.00000
      8      11.3717      0.00000

 k-point    55 :       0.3043    0.3043    0.0000
  band No.  band energies     occupation 
      1     -17.7397      2.00000
      2     -16.1423      2.00000
      3     -14.1822      2.00000
      4      -3.3440      2.00000
      5      -1.1890      0.00000
      6       8.9980      0.00000
      7      10.1294      0.00000
      8      11.8801      0.00000

 k-point    56 :       0.3478    0.3043    0.0000
  band No.  band energies     occupation 
      1     -17.1534      2.00000
      2     -16.6184      2.00000
      3     -14.3951      2.00000
      4      -2.7384      2.00000
      5      -1.7873      0.00000
      6       8.9364      0.00000
      7      11.1676      0.00000
      8      11.3479      0.00000


--------------------------------------------------------------------------------------------------------


 soft charge-density along one line, spin component           1
         0         1         2         3         4         5         6         7         8         9
 total charge-density along one line
 
 pseudopotential strength for first ion, spin component:           1
  9.918  13.187  -0.000  -0.000   0.000   0.000   0.000  -0.000
 13.187  17.531  -0.000  -0.000   0.000   0.000   0.000  -0.000
 -0.000  -0.000  -4.146  -0.000   0.000   8.083   0.000  -0.000
 -0.000  -0.000  -0.000  -4.145  -0.000   0.000   8.084   0.000
  0.000   0.000   0.000  -0.000  -4.146  -0.000   0.000   8.083
  0.000   0.000   8.083   0.000  -0.000 -17.868  -0.000   0.000
  0.000   0.000   0.000   8.084   0.000  -0.000 -17.877  -0.000
 -0.000  -0.000  -0.000   0.000   8.083   0.000  -0.000 -17.868
 total augmentation occupancy for first ion, spin component:           1
  9.290  -4.294   0.000  -0.000  -0.000   0.000  -0.000   0.000
 -4.294   2.031  -0.000   0.000   0.000  -0.000   0.000  -0.000
  0.000  -0.000   1.863  -0.000  -0.000   0.181  -0.000   0.000
 -0.000   0.000  -0.000   1.206   0.000  -0.000   0.082   0.000
 -0.000   0.000  -0.000   0.000   1.863  -0.000   0.000   0.181
  0.000  -0.000   0.181  -0.000  -0.000   0.019  -0.000   0.000
 -0.000   0.000  -0.000   0.082   0.000  -0.000   0.006   0.000
  0.000  -0.000   0.000   0.000   0.181   0.000   0.000   0.019


------------------------ aborting loop because EDIFF is reached ----------------------------------------





 total charge

# of ion       s       p       d       tot
------------------------------------------
    1        0.874   1.797   0.000   2.672
    2        0.874   1.797   0.000   2.672
--------------------------------------------------
tot          1.749   3.594   0.000   5.343
 
    FORLOC:  cpu time      0.0002: real time      0.0002
    FORHF :  cpu time     20.6224: real time     20.6691
    FORNL :  cpu time      0.0023: real time      0.0023
    STRESS:  cpu time      0.0389: real time      0.0392
    FORCOR:  cpu time      0.0175: real time      0.0175
    OFIELD:  cpu time      0.0001: real time      0.0000

  FORCE on cell =-STRESS in cart. coord.  units (eV):
  Direction    XX          YY          ZZ          XY          YZ          ZX
  --------------------------------------------------------------------------------------
  Alpha Z     4.20915     4.20915     4.20915
  Ewald    1120.31701  1120.31637 -1390.78901    -0.00000    -0.00000    -0.00000
  Hartree  1089.91413  1089.91413 -1078.86373    -0.00000     0.00000     0.00000
  E(xc)     -22.72901   -22.72901   -23.21497    -0.00000    -0.00000     0.00000
  Local   -2297.21768 -2297.21741  2365.33329     0.00000    -0.00000    -0.00000
  n-local    -5.62083    -6.45810    -5.63636     0.03180    -0.00000     0.00000
  augment    -0.76181    -0.76179    -0.73701    -0.00000    -0.00000    -0.00000
  Kinetic   116.54988   124.22430   136.69771     0.01000     0.00000    -0.00000
  Fock       -8.16050    -7.99610    -7.04498     0.07269    -0.00000     0.00000
  -------------------------------------------------------------------------------------
  Total       0.00093     0.00093    -0.04590     0.00000     0.00000     0.00000
  in kB       0.01913     0.01913    -0.94202     0.00000     0.00000     0.00000
  external pressure =       -0.30 kB  Pullay stress =        0.00 kB


 VOLUME and BASIS-vectors are now :
 -----------------------------------------------------------------------------
  energy-cutoff  :      450.00
  volume of cell :       78.06
      direct lattice vectors                 reciprocal lattice vectors
     2.122988443  1.225708046  0.000000000     0.235517062  0.407927485  0.000000000
    -2.122988443  1.225708046  0.000000000    -0.235517062  0.407927485  0.000000000
     0.000000000  0.000000000 15.000000000     0.000000000  0.000000000  0.066666667

  length of vectors
     2.451415946  2.451415946 15.000000000     0.471034095  0.471034095  0.066666667


 FORCES acting on ions:
    Electron-Ion                     Ewald-Force                    Non-Local-Force
 -----------------------------------------------------------------------------------------------
   -.117E-03 0.226E-03 -.133E-04   -.274E-03 -.685E-14 0.952E-15   0.256E-16 -.114E-16 -.142E-20
   0.117E-03 0.226E-03 -.133E-04   0.274E-03 0.311E-14 0.286E-21   0.384E-16 0.173E-16 0.112E-20
 -----------------------------------------------------------------------------------------------
   0.211E-10 0.451E-03 -.244E-04   0.164E-15 -.374E-14 0.952E-15   0.639E-16 0.591E-17 -.291E-21
 
 
 POSITION                                       TOTAL-FORCE (eV/Angst)
 -----------------------------------------------------------------------------------
     -0.70766      1.22571      1.50000        -0.000000     -0.000000     -0.000000
      0.70766      1.22571      1.50000         0.000000      0.000000      0.000000
 -----------------------------------------------------------------------------------
    total drift:                                0.000000      0.000451     -0.000024


--------------------------------------------------------------------------------------------------------



  FREE ENERGIE OF THE ION-ELECTRON SYSTEM (eV)
  ---------------------------------------------------
  free  energy   TOTEN  =       -21.21168267 eV

  energy  without entropy=      -21.21168267  energy(sigma->0) =      -21.21168267
 
 d Force = 0.0000000E+00[ 0.000E+00, 0.000E+00]  d Energy = 0.1900199E-05-0.190E-05
 d Force = 0.0000000E+00[ 0.000E+00, 0.000E+00]  d Ewald  =-0.2455386E+00 0.246E+00


--------------------------------------------------------------------------------------------------------


    POTLOK:  cpu time      0.0373: real time      0.0375


--------------------------------------------------------------------------------------------------------


 stress matrix after NEB project (eV)
      0.00093      0.00000      0.00000
      0.00000      0.00093     -0.00000
     -0.00000      0.00000     -0.04590
  FORCES: max atom, RMS     0.000000    0.000000
  FORCE total and by dimension    0.000000    0.000000
  Stress total and by dimension    0.045918    0.045899


--------------------------------------------------------------------------------------------------------


  
 reached required accuracy - stopping structural energy minimisation
 writing wavefunctions
     LOOP+:  cpu time    113.2851: real time    113.6006
    4ORBIT:  cpu time      0.0000: real time      0.0000



 total charge

# of ion       s       p       d       tot
------------------------------------------
    1        0.874   1.797   0.000   2.672
    2        0.874   1.797   0.000   2.672
--------------------------------------------------
tot          1.749   3.594   0.000   5.343
 

 total amount of memory used by VASP MPI-rank0    38562. kBytes
=======================================================================

   base      :      30000. kBytes
   nonl-proj :       2198. kBytes
   fftplans  :       1158. kBytes
   grid      :       1219. kBytes
   one-center:          3. kBytes
   HF        :          4. kBytes
   nonlr-proj:        736. kBytes
   wavefun   :       1653. kBytes
   fock_wrk  :       1591. kBytes
 
  
  
 General timing and accounting informations for this job:
 ========================================================
  
                  Total CPU time used (sec):     1176.313
                            User time (sec):     1173.381
                          System time (sec):        2.933
                         Elapsed time (sec):     1185.492
  
                   Maximum memory used (kb):      485380.
                   Average memory used (kb):          N/A
  
                          Minor page faults:       274041
                          Major page faults:         3425
                 Voluntary context switches:         5196
