Relaxation_HSE06                        
           1
     2.136484    1.233500    0.000000
    -2.136484    1.233500    0.000000
     0.000000    0.000000   15.000000
   C 
     2
Direct configuration=     1
   0.33333300  0.66666600  0.10000000
   0.66666600  0.33333300  0.10000000
Relaxation_HSE06                        
           1
     2.089640    1.206454    0.000000
    -2.089640    1.206454    0.000000
     0.000000    0.000000   15.000000
   C 
     2
Direct configuration=     2
   0.33333300  0.66666600  0.10000000
   0.66666600  0.33333300  0.10000000
Relaxation_HSE06                        
           1
     2.123221    1.225842    0.000000
    -2.123221    1.225842    0.000000
     0.000000    0.000000   15.000000
   C 
     2
Direct configuration=     3
   0.33333300  0.66666600  0.10000000
   0.66666600  0.33333300  0.10000000
Relaxation_HSE06                        
           1
     2.122988    1.225708    0.000000
    -2.122988    1.225708    0.000000
     0.000000    0.000000   15.000000
   C 
     2
Direct configuration=     4
   0.33333300  0.66666600  0.10000000
   0.66666600  0.33333300  0.10000000
