    8    8    1    1
  0.4142730E+02  0.5051000E-09  0.5051000E-09  0.1500000E-08  0.5000000E-15
  1.000000000000000E-004
  CAR 
 PDoS                                    
     24    289     48
 
  0.0000000E+00  0.0000000E+00  0.0000000E+00  0.9182736E-03
      1        -17.888877   1.000000
      2        -13.732210   1.000000
      3        -13.648373   1.000000
      4        -13.648368   1.000000
      5        -11.483918   1.000000
      6        -11.483909   1.000000
      7         -9.413440   1.000000
      8         -8.730169   1.000000
      9         -3.827328   1.000000
     10         -3.827326   1.000000
     11         -2.297552   0.898904
     12         -1.730067   0.000000
     13         -1.730064   0.000000
     14         -1.513201   0.000000
     15         -1.513192   0.000000
     16         -1.255706   0.000000
     17         -1.255702   0.000000
     18          0.781494   0.000000
     19          1.627678   0.000000
     20          2.378345   0.000000
     21          2.516951   0.000000
     22          4.392498   0.000000
     23          4.952028   0.000000
     24          5.696933   0.000000
     25          6.353885   0.000000
     26          6.353894   0.000000
     27          6.593025   0.000000
     28          7.520882   0.000000
     29          7.520882   0.000000
     30          8.051870   0.000000
     31          8.350648   0.000000
     32          8.607972   0.000000
     33          9.012263   0.000000
     34          9.103807   0.000000
     35          9.317582   0.000000
     36          9.362465   0.000000
     37          9.362498   0.000000
     38          9.385612   0.000000
     39          9.434959   0.000000
     40          9.435069   0.000000
     41          9.500225   0.000000
     42          9.534178   0.000000
     43          9.534235   0.000000
     44          9.570351   0.000000
     45          9.570385   0.000000
     46         10.340746   0.000000
     47         10.346426   0.000000
     48         10.415499   0.000000
 
  0.3030303E-01  0.1722613E-17  0.0000000E+00  0.3673095E-02
      1        -17.884690   1.000000
      2        -13.888446   1.000000
      3        -13.652834   1.000000
      4        -13.495100   1.000000
      5        -11.491684   1.000000
      6        -11.472651   1.000000
      7         -9.392785   1.000000
      8         -8.723781   1.000000
      9         -3.884029   1.000000
     10         -3.874727   1.000000
     11         -2.433118   0.999295
     12         -1.807246   0.000000
     13         -1.682298   0.000000
     14         -1.462089   0.000000
     15         -1.452646   0.000000
     16         -1.174084   0.000000
     17         -1.166073   0.000000
     18          0.788382   0.000000
     19          1.639515   0.000000
     20          2.385448   0.000000
     21          2.536234   0.000000
     22          4.399548   0.000000
     23          4.958734   0.000000
     24          5.651368   0.000000
     25          6.326401   0.000000
     26          6.337819   0.000000
     27          6.565203   0.000000
     28          7.465418   0.000000
     29          7.506852   0.000000
     30          8.027157   0.000000
     31          8.356921   0.000000
     32          8.616297   0.000000
     33          8.977123   0.000000
     34          9.041566   0.000000
     35          9.064592   0.000000
     36          9.218092   0.000000
     37          9.257583   0.000000
     38          9.296580   0.000000
     39          9.325383   0.000000
     40          9.447323   0.000000
     41          9.521866   0.000000
     42          9.624562   0.000000
     43          9.702968   0.000000
     44          9.792947   0.000000
     45          9.976351   0.000000
     46         10.063582   0.000000
     47         10.197582   0.000000
     48         10.298788   0.000000
 
 -0.3030303E-01  0.3030303E-01  0.0000000E+00  0.1836547E-02
      1        -17.884690   1.000000
      2        -13.888448   1.000000
      3        -13.652830   1.000000
      4        -13.495102   1.000000
      5        -11.491677   1.000000
      6        -11.472657   1.000000
      7         -9.392785   1.000000
      8         -8.723781   1.000000
      9         -3.884030   1.000000
     10         -3.874726   1.000000
     11         -2.433120   0.999295
     12         -1.807245   0.000000
     13         -1.682296   0.000000
     14         -1.462096   0.000000
     15         -1.452640   0.000000
     16         -1.174083   0.000000
     17         -1.166075   0.000000
     18          0.788382   0.000000
     19          1.639515   0.000000
     20          2.385448   0.000000
     21          2.536234   0.000000
     22          4.399548   0.000000
     23          4.958734   0.000000
     24          5.651368   0.000000
     25          6.326409   0.000000
     26          6.337813   0.000000
     27          6.565200   0.000000
     28          7.465418   0.000000
     29          7.506852   0.000000
     30          8.027157   0.000000
     31          8.356921   0.000000
     32          8.616297   0.000000
     33          8.977118   0.000000
     34          9.041560   0.000000
     35          9.064591   0.000000
     36          9.218098   0.000000
     37          9.257557   0.000000
     38          9.296595   0.000000
     39          9.325408   0.000000
     40          9.447311   0.000000
     41          9.521872   0.000000
     42          9.624565   0.000000
     43          9.702936   0.000000
     44          9.792975   0.000000
     45          9.976345   0.000000
     46         10.063540   0.000000
     47         10.197637   0.000000
     48         10.298686   0.000000
 
  0.6060606E-01  0.3445226E-17  0.0000000E+00  0.3673095E-02
      1        -17.872139   1.000000
      2        -14.081064   1.000000
      3        -13.665844   1.000000
      4        -13.312097   1.000000
      5        -11.512395   1.000000
      6        -11.439267   1.000000
      7         -9.333006   1.000000
      8         -8.704631   1.000000
      9         -4.038668   1.000000
     10         -4.005124   1.000000
     11         -2.709397   1.000000
     12         -1.960177   0.000236
     13         -1.651325   0.000000
     14         -1.320422   0.000000
     15         -1.286518   0.000000
     16         -0.975858   0.000000
     17         -0.946521   0.000000
     18          0.809046   0.000000
     19          1.674019   0.000000
     20          2.406759   0.000000
     21          2.593947   0.000000
     22          4.420679   0.000000
     23          4.978801   0.000000
     24          5.517809   0.000000
     25          6.227667   0.000000
     26          6.290708   0.000000
     27          6.508954   0.000000
     28          7.315715   0.000000
     29          7.466404   0.000000
     30          7.953583   0.000000
     31          8.374478   0.000000
     32          8.631775   0.000000
     33          8.641243   0.000000
     34          8.844248   0.000000
     35          8.931771   0.000000
     36          9.057337   0.000000
     37          9.113421   0.000000
     38          9.195490   0.000000
     39          9.216292   0.000000
     40          9.538603   0.000000
     41          9.659688   0.000000
     42          9.854231   0.000000
     43          9.914579   0.000000
     44          9.934185   0.000000
     45         10.046267   0.000000
     46         10.086792   0.000000
     47         10.186283   0.000000
     48         10.419464   0.000000
 
 -0.6060606E-01  0.6060606E-01  0.0000000E+00  0.1836547E-02
      1        -17.872139   1.000000
      2        -14.081067   1.000000
      3        -13.665840   1.000000
      4        -13.312098   1.000000
      5        -11.512389   1.000000
      6        -11.439273   1.000000
      7         -9.333006   1.000000
      8         -8.704631   1.000000
      9         -4.038669   1.000000
     10         -4.005123   1.000000
     11         -2.709400   1.000000
     12         -1.960176   0.000236
     13         -1.651318   0.000000
     14         -1.320428   0.000000
     15         -1.286512   0.000000
     16         -0.975859   0.000000
     17         -0.946524   0.000000
     18          0.809046   0.000000
     19          1.674019   0.000000
     20          2.406759   0.000000
     21          2.593947   0.000000
     22          4.420679   0.000000
     23          4.978801   0.000000
     24          5.517811   0.000000
     25          6.227678   0.000000
     26          6.290702   0.000000
     27          6.508947   0.000000
     28          7.315715   0.000000
     29          7.466405   0.000000
     30          7.953583   0.000000
     31          8.374479   0.000000
     32          8.631773   0.000000
     33          8.641243   0.000000
     34          8.844232   0.000000
     35          8.931759   0.000000
     36          9.057310   0.000000
     37          9.113456   0.000000
     38          9.195497   0.000000
     39          9.216299   0.000000
     40          9.538599   0.000000
     41          9.659697   0.000000
     42          9.854227   0.000000
     43          9.914552   0.000000
     44          9.934223   0.000000
     45         10.046298   0.000000
     46         10.086798   0.000000
     47         10.186271   0.000000
     48         10.419456   0.000000
 
  0.9090909E-01  0.8961934E-17  0.0000000E+00  0.3673095E-02
      1        -17.851267   1.000000
      2        -14.275081   1.000000
      3        -13.686395   1.000000
      4        -13.136829   1.000000
      5        -11.538868   1.000000
      6        -11.384935   1.000000
      7         -9.239992   1.000000
      8         -8.672757   1.000000
      9         -4.259489   1.000000
     10         -4.193025   1.000000
     11         -3.023428   1.000000
     12         -2.125624   0.123822
     13         -1.668979   0.000000
     14         -1.113110   0.000000
     15         -1.046692   0.000000
     16         -0.748348   0.000000
     17         -0.641965   0.000000
     18          0.843477   0.000000
     19          1.728609   0.000000
     20          2.442273   0.000000
     21          2.689385   0.000000
     22          4.455825   0.000000
     23          5.011971   0.000000
     24          5.304116   0.000000
     25          6.061294   0.000000
     26          6.215480   0.000000
     27          6.437444   0.000000
     28          7.119128   0.000000
     29          7.403897   0.000000
     30          7.832810   0.000000
     31          8.197961   0.000000
     32          8.413967   0.000000
     33          8.585028   0.000000
     34          8.682646   0.000000
     35          8.841783   0.000000
     36          8.865476   0.000000
     37          8.915191   0.000000
     38          9.135604   0.000000
     39          9.224391   0.000000
     40          9.584786   0.000000
     41          9.775516   0.000000
     42          9.819967   0.000000
     43          9.994244   0.000000
     44         10.107747   0.000000
     45         10.124597   0.000000
     46         10.313351   0.000000
     47         10.389130   0.000000
     48         10.637466   0.000000
 
 -0.9090909E-01  0.9090909E-01  0.0000000E+00  0.1836547E-02
      1        -17.851266   1.000000
      2        -14.275084   1.000000
      3        -13.686392   1.000000
      4        -13.136828   1.000000
      5        -11.538863   1.000000
      6        -11.384941   1.000000
      7         -9.239992   1.000000
      8         -8.672757   1.000000
      9         -4.259489   1.000000
     10         -4.193025   1.000000
     11         -3.023431   1.000000
     12         -2.125624   0.123821
     13         -1.668971   0.000000
     14         -1.113116   0.000000
     15         -1.046686   0.000000
     16         -0.748349   0.000000
     17         -0.641970   0.000000
     18          0.843477   0.000000
     19          1.728609   0.000000
     20          2.442273   0.000000
     21          2.689385   0.000000
     22          4.455825   0.000000
     23          5.011971   0.000000
     24          5.304120   0.000000
     25          6.061303   0.000000
     26          6.215473   0.000000
     27          6.437436   0.000000
     28          7.119127   0.000000
     29          7.403898   0.000000
     30          7.832810   0.000000
     31          8.197962   0.000000
     32          8.413964   0.000000
     33          8.585001   0.000000
     34          8.682646   0.000000
     35          8.841781   0.000000
     36          8.865440   0.000000
     37          8.915226   0.000000
     38          9.135612   0.000000
     39          9.224396   0.000000
     40          9.584801   0.000000
     41          9.775576   0.000000
     42          9.819982   0.000000
     43          9.994223   0.000000
     44         10.107712   0.000000
     45         10.124564   0.000000
     46         10.313383   0.000000
     47         10.389137   0.000000
     48         10.637487   0.000000
 
  0.1212121E+00  0.6890452E-17  0.0000000E+00  0.3673095E-02
      1        -17.822150   1.000000
      2        -14.468367   1.000000
      3        -13.713048   1.000000
      4        -12.976020   1.000000
      5        -11.560523   1.000000
      6        -11.311413   1.000000
      7         -9.121803   1.000000
      8         -8.628229   1.000000
      9         -4.518718   1.000000
     10         -4.413829   1.000000
     11         -3.346974   1.000000
     12         -2.287010   0.869971
     13         -1.712618   0.000000
     14         -0.863776   0.000000
     15         -0.761182   0.000000
     16         -0.500206   0.000000
     17         -0.308154   0.000000
     18          0.891667   0.000000
     19          1.800194   0.000000
     20          2.491984   0.000000
     21          2.820644   0.000000
     22          4.504864   0.000000
     23          5.018415   0.000000
     24          5.062760   0.000000
     25          5.861155   0.000000
     26          6.116044   0.000000
     27          6.316117   0.000000
     28          6.935622   0.000000
     29          7.325204   0.000000
     30          7.667536   0.000000
     31          7.785345   0.000000
     32          8.254058   0.000000
     33          8.455618   0.000000
     34          8.684479   0.000000
     35          8.730911   0.000000
     36          8.740126   0.000000
     37          8.765491   0.000000
     38          9.047614   0.000000
     39          9.273201   0.000000
     40          9.559029   0.000000
     41          9.745579   0.000000
     42          9.982917   0.000000
     43         10.095344   0.000000
     44         10.128459   0.000000
     45         10.132864   0.000000
     46         10.444438   0.000000
     47         10.593752   0.000000
     48         10.828454   0.000000
 
 -0.1212121E+00  0.1212121E+00  0.0000000E+00  0.1836547E-02
      1        -17.822150   1.000000
      2        -14.468370   1.000000
      3        -13.713044   1.000000
      4        -12.976018   1.000000
      5        -11.560519   1.000000
      6        -11.311420   1.000000
      7         -9.121803   1.000000
      8         -8.628229   1.000000
      9         -4.518717   1.000000
     10         -4.413829   1.000000
     11         -3.346977   1.000000
     12         -2.287010   0.869971
     13         -1.712609   0.000000
     14         -0.863782   0.000000
     15         -0.761176   0.000000
     16         -0.500207   0.000000
     17         -0.308159   0.000000
     18          0.891667   0.000000
     19          1.800194   0.000000
     20          2.491984   0.000000
     21          2.820645   0.000000
     22          4.504864   0.000000
     23          5.018421   0.000000
     24          5.062760   0.000000
     25          5.861161   0.000000
     26          6.116037   0.000000
     27          6.316111   0.000000
     28          6.935619   0.000000
     29          7.325206   0.000000
     30          7.667536   0.000000
     31          7.785345   0.000000
     32          8.254030   0.000000
     33          8.455616   0.000000
     34          8.684454   0.000000
     35          8.730947   0.000000
     36          8.740126   0.000000
     37          8.765482   0.000000
     38          9.047613   0.000000
     39          9.273203   0.000000
     40          9.559081   0.000000
     41          9.745628   0.000000
     42          9.982914   0.000000
     43         10.095293   0.000000
     44         10.128396   0.000000
     45         10.132868   0.000000
     46         10.444444   0.000000
     47         10.593778   0.000000
     48         10.827171   0.000000
 
  0.1515152E+00  0.1096663E-16  0.0000000E+00  0.3673095E-02
      1        -17.784914   1.000000
      2        -14.659850   1.000000
      3        -13.744111   1.000000
      4        -12.837742   1.000000
      5        -11.564557   1.000000
      6        -11.220820   1.000000
      7         -8.987417   1.000000
      8         -8.571161   1.000000
      9         -4.797889   1.000000
     10         -4.649114   1.000000
     11         -3.670497   1.000000
     12         -2.439385   0.999483
     13         -1.770032   0.000000
     14         -0.589342   0.000000
     15         -0.448828   0.000000
     16         -0.236516   0.000000
     17          0.036618   0.000000
     18          0.953600   0.000000
     19          1.886193   0.000000
     20          2.555881   0.000000
     21          2.984004   0.000000
     22          4.567593   0.000000
     23          4.692002   0.000000
     24          5.117503   0.000000
     25          5.645694   0.000000
     26          5.996446   0.000000
     27          6.124010   0.000000
     28          6.802491   0.000000
     29          7.236421   0.000000
     30          7.382977   0.000000
     31          7.461347   0.000000
     32          7.897367   0.000000
     33          8.489550   0.000000
     34          8.536660   0.000000
     35          8.560670   0.000000
     36          8.699700   0.000000
     37          8.811292   0.000000
     38          8.953289   0.000000
     39          9.331003   0.000000
     40          9.485479   0.000000
     41          9.716278   0.000000
     42          9.813147   0.000000
     43         10.084408   0.000000
     44         10.263165   0.000000
     45         10.264877   0.000000
     46         10.474361   0.000000
     47         10.886023   0.000000
     48         10.962580   0.000000
 
 -0.1515152E+00  0.1515152E+00  0.0000000E+00  0.1836547E-02
      1        -17.784913   1.000000
      2        -14.659853   1.000000
      3        -13.744108   1.000000
      4        -12.837739   1.000000
      5        -11.564555   1.000000
      6        -11.220826   1.000000
      7         -8.987417   1.000000
      8         -8.571160   1.000000
      9         -4.797888   1.000000
     10         -4.649115   1.000000
     11         -3.670500   1.000000
     12         -2.439385   0.999483
     13         -1.770024   0.000000
     14         -0.589347   0.000000
     15         -0.448822   0.000000
     16         -0.236517   0.000000
     17          0.036613   0.000000
     18          0.953600   0.000000
     19          1.886193   0.000000
     20          2.555882   0.000000
     21          2.984005   0.000000
     22          4.567593   0.000000
     23          4.692010   0.000000
     24          5.117504   0.000000
     25          5.645698   0.000000
     26          5.996440   0.000000
     27          6.124006   0.000000
     28          6.802487   0.000000
     29          7.236423   0.000000
     30          7.382977   0.000000
     31          7.461347   0.000000
     32          7.897339   0.000000
     33          8.489537   0.000000
     34          8.536617   0.000000
     35          8.560735   0.000000
     36          8.699700   0.000000
     37          8.811291   0.000000
     38          8.953276   0.000000
     39          9.331008   0.000000
     40          9.485533   0.000000
     41          9.716318   0.000000
     42          9.813128   0.000000
     43         10.084367   0.000000
     44         10.263087   0.000000
     45         10.264921   0.000000
     46         10.474334   0.000000
     47         10.886068   0.000000
     48         10.962594   0.000000
 
  0.1818182E+00  0.1648334E-16  0.0000000E+00  0.3673095E-02
      1        -17.739728   1.000000
      2        -14.848629   1.000000
      3        -13.777891   1.000000
      4        -12.731039   1.000000
      5        -11.537900   1.000000
      6        -11.115488   1.000000
      7         -8.846165   1.000000
      8         -8.501707   1.000000
      9         -5.085395   1.000000
     10         -4.885339   1.000000
     11         -3.989603   1.000000
     12         -2.580832   1.000000
     13         -1.834637   0.000000
     14         -0.301032   0.000000
     15         -0.121578   0.000000
     16          0.040645   0.000000
     17          0.384783   0.000000
     18          1.029263   0.000000
     19          1.985039   0.000000
     20          2.633948   0.000000
     21          3.173684   0.000000
     22          4.333339   0.000000
     23          4.643705   0.000000
     24          5.180868   0.000000
     25          5.423456   0.000000
     26          5.860334   0.000000
     27          5.884885   0.000000
     28          6.709587   0.000000
     29          6.993236   0.000000
     30          7.142977   0.000000
     31          7.218508   0.000000
     32          7.537704   0.000000
     33          8.348415   0.000000
     34          8.404488   0.000000
     35          8.587432   0.000000
     36          8.638717   0.000000
     37          8.830409   0.000000
     38          8.922265   0.000000
     39          9.377925   0.000000
     40          9.420164   0.000000
     41          9.446199   0.000000
     42          9.636351   0.000000
     43         10.155410   0.000000
     44         10.424343   0.000000
     45         10.472694   0.000000
     46         10.474167   0.000000
     47         10.928749   0.000000
     48         11.024513   0.000000
 
 -0.1818182E+00  0.1818182E+00  0.0000000E+00  0.1836547E-02
      1        -17.739728   1.000000
      2        -14.848633   1.000000
      3        -13.777888   1.000000
      4        -12.731034   1.000000
      5        -11.537899   1.000000
      6        -11.115494   1.000000
      7         -8.846165   1.000000
      8         -8.501706   1.000000
      9         -5.085394   1.000000
     10         -4.885340   1.000000
     11         -3.989606   1.000000
     12         -2.580832   1.000000
     13         -1.834629   0.000000
     14         -0.301037   0.000000
     15         -0.121573   0.000000
     16          0.040644   0.000000
     17          0.384777   0.000000
     18          1.029263   0.000000
     19          1.985040   0.000000
     20          2.633950   0.000000
     21          3.173686   0.000000
     22          4.333347   0.000000
     23          4.643705   0.000000
     24          5.180870   0.000000
     25          5.423457   0.000000
     26          5.860327   0.000000
     27          5.884883   0.000000
     28          6.709582   0.000000
     29          6.993236   0.000000
     30          7.142978   0.000000
     31          7.218508   0.000000
     32          7.537678   0.000000
     33          8.348390   0.000000
     34          8.404513   0.000000
     35          8.587441   0.000000
     36          8.638727   0.000000
     37          8.830388   0.000000
     38          8.922260   0.000000
     39          9.377994   0.000000
     40          9.420133   0.000000
     41          9.446181   0.000000
     42          9.636407   0.000000
     43         10.155356   0.000000
     44         10.424289   0.000000
     45         10.472687   0.000000
     46         10.474152   0.000000
     47         10.928877   0.000000
     48         11.024448   0.000000
 
  0.2121212E+00  0.6823668E-17  0.0000000E+00  0.3673095E-02
      1        -17.686834   1.000000
      2        -15.033877   1.000000
      3        -13.812822   1.000000
      4        -12.662037   1.000000
      5        -11.471452   1.000000
      6        -10.997894   1.000000
      7         -8.707781   1.000000
      8         -8.420099   1.000000
      9         -5.373732   1.000000
     10         -5.111733   1.000000
     11         -4.301748   1.000000
     12         -2.710440   1.000000
     13         -1.902047   0.000008
     14         -0.006453   0.000000
     15          0.212651   0.000000
     16          0.330132   0.000000
     17          0.732410   0.000000
     18          1.118637   0.000000
     19          2.096137   0.000000
     20          2.726162   0.000000
     21          3.381873   0.000000
     22          3.962293   0.000000
     23          4.732741   0.000000
     24          5.128270   0.000000
     25          5.313689   0.000000
     26          5.632820   0.000000
     27          5.710707   0.000000
     28          6.616651   0.000000
     29          6.631378   0.000000
     30          6.943708   0.000000
     31          7.049288   0.000000
     32          7.187521   0.000000
     33          8.201197   0.000000
     34          8.262434   0.000000
     35          8.576653   0.000000
     36          8.666999   0.000000
     37          8.735039   0.000000
     38          9.022148   0.000000
     39          9.081521   0.000000
     40          9.265513   0.000000
     41          9.455519   0.000000
     42          9.586433   0.000000
     43         10.232443   0.000000
     44         10.307146   0.000000
     45         10.700704   0.000000
     46         10.712329   0.000000
     47         10.788896   0.000000
     48         11.094030   0.000000
 
 -0.2121212E+00  0.2121212E+00  0.0000000E+00  0.1836547E-02
      1        -17.686834   1.000000
      2        -15.033882   1.000000
      3        -13.812819   1.000000
      4        -12.662031   1.000000
      5        -11.471452   1.000000
      6        -10.997900   1.000000
      7         -8.707781   1.000000
      8         -8.420099   1.000000
      9         -5.373731   1.000000
     10         -5.111734   1.000000
     11         -4.301751   1.000000
     12         -2.710440   1.000000
     13         -1.902039   0.000008
     14         -0.006458   0.000000
     15          0.212657   0.000000
     16          0.330132   0.000000
     17          0.732404   0.000000
     18          1.118637   0.000000
     19          2.096137   0.000000
     20          2.726164   0.000000
     21          3.381875   0.000000
     22          3.962303   0.000000
     23          4.732742   0.000000
     24          5.128272   0.000000
     25          5.313689   0.000000
     26          5.632819   0.000000
     27          5.710700   0.000000
     28          6.616650   0.000000
     29          6.631372   0.000000
     30          6.943708   0.000000
     31          7.049285   0.000000
     32          7.187500   0.000000
     33          8.201172   0.000000
     34          8.262462   0.000000
     35          8.576675   0.000000
     36          8.667012   0.000000
     37          8.735001   0.000000
     38          9.022145   0.000000
     39          9.081501   0.000000
     40          9.265541   0.000000
     41          9.455511   0.000000
     42          9.586497   0.000000
     43         10.232382   0.000000
     44         10.307077   0.000000
     45         10.700706   0.000000
     46         10.712313   0.000000
     47         10.789022   0.000000
     48         11.093965   0.000000
 
  0.2424242E+00  0.2751676E-16  0.0000000E+00  0.3673095E-02
      1        -17.626563   1.000000
      2        -15.214718   1.000000
      3        -13.847492   1.000000
      4        -12.629342   1.000000
      5        -11.364781   1.000000
      6        -10.870623   1.000000
      7         -8.582591   1.000000
      8         -8.326664   1.000000
      9         -5.657502   1.000000
     10         -5.318549   1.000000
     11         -4.605148   1.000000
     12         -2.827720   1.000000
     13         -1.969022   0.000375
     14          0.288795   0.000000
     15          0.548110   0.000000
     16          0.631195   0.000000
     17          1.076931   0.000000
     18          1.221715   0.000000
     19          2.219562   0.000000
     20          2.832481   0.000000
     21          3.592077   0.000000
     22          3.598818   0.000000
     23          4.834088   0.000000
     24          4.881616   0.000000
     25          5.368934   0.000000
     26          5.412157   0.000000
     27          5.550059   0.000000
     28          6.253533   0.000000
     29          6.542962   0.000000
     30          6.641814   0.000000
     31          6.864545   0.000000
     32          6.958802   0.000000
     33          8.065306   0.000000
     34          8.134522   0.000000
     35          8.510662   0.000000
     36          8.636533   0.000000
     37          8.717887   0.000000
     38          8.766158   0.000000
     39          9.051887   0.000000
     40          9.145810   0.000000
     41          9.495465   0.000000
     42          9.639708   0.000000
     43         10.173688   0.000000
     44         10.310081   0.000000
     45         10.662155   0.000000
     46         10.935435   0.000000
     47         10.964334   0.000000
     48         11.101244   0.000000
 
 -0.2424242E+00  0.2424242E+00  0.0000000E+00  0.1836547E-02
      1        -17.626563   1.000000
      2        -15.214722   1.000000
      3        -13.847489   1.000000
      4        -12.629334   1.000000
      5        -11.364782   1.000000
      6        -10.870629   1.000000
      7         -8.582592   1.000000
      8         -8.326663   1.000000