 vasp.6.3.2 27Jun22 (build Dec 22 2022 13:13:19) complex                        
  
 executed on             LinuxIFC date 2023.11.03  15:05:05
 running   48 mpi-ranks, with    1 threads/rank
 distrk:  each k-point on   48 cores,    1 groups
 distr:  one band on NCORE=   1 cores,   48 groups


--------------------------------------------------------------------------------------------------------


 INCAR:
   SYSTEM = PDoS
   ISTART = 1
   ICHARG = 11
   PREC = Accurate
   LORBIT = 11
   NEDOS = 4000
   ENCUT = 450
   LCHARG = .FALSE.
   LWAVE = .FALSE.
   ALGO = Normal
   EDIFF = 1E-6
   EDIFFG = -1E-3
   SIGMA = 0.1
   ISMEAR = 0
   SYMPREC = 1E-6
   NSW = 0
   IBRION = -1
   POTIM = .5

 POTCAR:    PAW_PBE B 06Sep2000                   
 POTCAR:    PAW_PBE B 06Sep2000                   
   SHA256 =  a32ced30f5ae56fd4d10b4325ff17eb3e4e38ee0f4288bc219fb012fddfa6e97 B/POTCAR              
   COPYR  = (c) Copyright 06Sep2000 Georg Kresse                                                    
   COPYR  = This file is part of the software VASP. Any use, copying, and all other rights are regul
   COPYR  = If you do not have a valid VASP license, you may not use, copy or distribute this file. 
   VRHFIN =B: s2p1                                                                                  
   LEXCH  = PE                                                                                      
   EATOM  =    71.1703 eV,    5.2309 Ry                                                             
                                                                                                    
   TITEL  = PAW_PBE B 06Sep2000                                                                     
   LULTRA =        F    use ultrasoft PP ?                                                          
   IUNSCR =        1    unscreen: 0-lin 1-nonlin 2-no                                               
   RPACOR =    1.200    partial core radius                                                         
   POMASS =   10.811; ZVAL   =    3.000    mass and valenz                                          
   RCORE  =    1.700    outmost cutoff radius                                                       
   RWIGS  =    1.710; RWIGS  =    0.905    wigner-seitz radius (au A)                               
   ENMAX  =  318.614; ENMIN  =  238.960 eV                                                          
   ICORE  =        2    local potential                                                             
   LCOR   =        T    correct aug charges                                                         
   LPAW   =        T    paw PP                                                                      
   EAUG   =  535.514                                                                                
   DEXC   =    0.000                                                                                
   RMAX   =    1.732    core radius for proj-oper                                                   
   RAUG   =    1.300    factor for augmentation sphere                                              
   RDEP   =    1.757    radius for radial grids                                                     
   RDEPT  =    1.436    core radius for aug-charge                                                  
                                                                                                    
   Atomic configuration                                                                             
    4 entries                                                                                       
     n  l   j            E        occ.                                                              
     1  0  0.50      -180.5896   2.0000                                                             
     2  0  0.50        -9.4431   2.0000                                                             
     2  1  0.50        -3.6068   1.0000                                                             
     3  2  1.50        -4.0817   0.0000                                                             
   Description                                                                                      
     l       E           TYP  RCUT    TYP  RCUT                                                     
     0     -9.4430752     23  1.500                                                                 
     0      0.8675899     23  1.500                                                                 
     1     -3.6067955     23  1.700                                                                 
     1      6.1086146     23  1.700                                                                 
     2     -4.0817478      7  1.700                                                                 
  local pseudopotential read in
  partial core-charges read in
  partial kinetic energy density read in
  atomic valenz-charges read in
  non local Contribution for L=           0  read in
    real space projection operators read in
  non local Contribution for L=           0  read in
    real space projection operators read in
  non local Contribution for L=           1  read in
    real space projection operators read in
  non local Contribution for L=           1  read in
    real space projection operators read in
    PAW grid and wavefunctions read in
 
   number of l-projection  operators is LMAX  =           4
   number of lm-projection operators is LMMAX =           8
 
  PAW_PBE B 06Sep2000                   :
 energy of atom  1       EATOM=  -71.1703
 kinetic energy error for atom=    0.0015 (will be added to EATOM!!)
 
 
 POSCAR: Borophene with lattice parameter 5.051
  positions in direct lattice
  velocities in cartesian coordinates
 exchange correlation table for  LEXCH =        8
   RHO(1)=    0.500       N(1)  =     2000
   RHO(2)=  100.500       N(2)  =     4000

 VTST: version 4.2, (08/11/21)

 CHAIN: initializing optimizer
 
 OPT: Using VASP Dynamics algorithm
 CHAIN: Read ICHAIN            0
 
 POSCAR: Borophene with lattice parameter 5.051
  positions in direct lattice
  velocities in cartesian coordinates
 


--------------------------------------------------------------------------------------------------------


 ion  position               nearest neighbor table
   1  0.669  0.000  0.100-   3 1.67   6 1.67   7 1.69   8 1.69   2 1.71
   2  0.331  0.000  0.100-   5 1.67   4 1.67   7 1.69   8 1.69   1 1.71
   3  0.000  0.331  0.100-   5 1.67   1 1.67   8 1.69   7 1.69   4 1.71
   4  0.000  0.669  0.100-   2 1.67   6 1.67   8 1.69   7 1.69   3 1.71
   5  0.331  0.331  0.100-   2 1.67   3 1.67   7 1.69   8 1.69   6 1.71
   6  0.669  0.669  0.100-   1 1.67   4 1.67   7 1.69   8 1.69   5 1.71
   7  0.667  0.333  0.100-   1 1.69   5 1.69   6 1.69   2 1.69   4 1.69   3 1.69
   8  0.333  0.667  0.100-   4 1.69   5 1.69   6 1.69   3 1.69   1 1.69   2 1.69
 
  LATTYP: Found a hexagonal cell.
 ALAT       =     5.0509997276
 C/A-ratio  =     2.9697091287
  
  Lattice vectors:
  
 A1 = (   4.3742940000,   2.5255000000,   0.0000000000)
 A2 = (  -4.3742940000,   2.5255000000,   0.0000000000)
 A3 = (   0.0000000000,   0.0000000000,  15.0000000000)


Analysis of symmetry for initial positions (statically):
=====================================================================
 Subroutine PRICEL returns:
 Original cell was already a primitive cell.
 

 Routine SETGRP: Setting up the symmetry group for a 
 hexagonal supercell.


 Subroutine GETGRP returns: Found  4 space group operations
 (whereof  1 operations were pure point group operations)
 out of a pool of 24 trial point group operations.


The static configuration has the point symmetry C_1 .
 The point group associated with its full space group is C_2h.


Analysis of symmetry for dynamics (positions and initial velocities):
=====================================================================
 Subroutine PRICEL returns:
 Original cell was already a primitive cell.
 

 Routine SETGRP: Setting up the symmetry group for a 
 hexagonal supercell.


 Subroutine GETGRP returns: Found  4 space group operations
 (whereof  1 operations were pure point group operations)
 out of a pool of 24 trial point group operations.


The dynamic configuration has the point symmetry C_1 .
 The point group associated with its full space group is C_2h.


 Subroutine INISYM returns: Found  4 space group operations
 (whereof  1 operations are pure point group operations),
 and found     1 'primitive' translations


----------------------------------------------------------------------------------------

                                     Primitive cell                                     

  volume of cell :     331.4184

  direct lattice vectors                    reciprocal lattice vectors
     4.374294000  2.525500000  0.000000000     0.114304160  0.197980598  0.000000000
    -4.374294000  2.525500000  0.000000000    -0.114304160  0.197980598  0.000000000
     0.000000000  0.000000000 15.000000000     0.000000000  0.000000000  0.066666667

  length of vectors
     5.050999728  5.050999728 15.000000000     0.228608307  0.228608307  0.066666667

  position of ions in fractional coordinates (direct lattice)
     0.668931733  1.000000000  0.100000000
     0.331067267  1.000000000  0.100000000
     1.000000000  0.331067267  0.100000000
     1.000000000  0.668931733  0.100000000
     0.331067267  0.331067267  0.100000000
     0.668931733  0.668931733  0.100000000
     0.666666000  0.333333000  0.099956110
     0.333333000  0.666666000  0.100043890

  ion indices of the primitive-cell ions
   primitive index   ion index
                 1           1
                 2           2
                 3           3
                 4           4
                 5           5
                 6           6
                 7           7
                 8           8

----------------------------------------------------------------------------------------

 
 
 KPOINTS: k-points                                

Automatic generation of k-mesh.
 Grid dimensions read from file:
 generate k-points for:   33   33    1

 Generating k-lattice:

  Cartesian coordinates                     Fractional coordinates (reciprocal lattice)
     0.003463762  0.005999412  0.000000000     0.030303030 -0.000000000  0.000000000
    -0.003463762  0.005999412  0.000000000    -0.000000000  0.030303030  0.000000000
     0.000000000  0.000000000  0.066666667     0.000000000  0.000000000  1.000000000

  Length of vectors
     0.006927524  0.006927524  0.066666667

  Shift w.r.t. Gamma in fractional coordinates (k-lattice)
     0.000000000  0.000000000  0.000000000

 
 Subroutine IBZKPT returns following result:
 ===========================================
 
 Found    289 irreducible k-points:
 
 Following reciprocal coordinates:
            Coordinates               Weight
  0.000000  0.000000  0.000000      1.000000
  0.030303  0.000000  0.000000      4.000000
 -0.030303  0.030303  0.000000      2.000000
  0.060606  0.000000  0.000000      4.000000
 -0.060606  0.060606  0.000000      2.000000
  0.090909  0.000000  0.000000      4.000000
 -0.090909  0.090909  0.000000      2.000000
  0.121212  0.000000  0.000000      4.000000
 -0.121212  0.121212  0.000000      2.000000
  0.151515  0.000000  0.000000      4.000000
 -0.151515  0.151515  0.000000      2.000000
  0.181818  0.000000  0.000000      4.000000
 -0.181818  0.181818  0.000000      2.000000
  0.212121  0.000000  0.000000      4.000000
 -0.212121  0.212121  0.000000      2.000000
  0.242424  0.000000  0.000000      4.000000
 -0.242424  0.242424  0.000000      2.000000
  0.272727  0.000000  0.000000      4.000000
 -0.272727  0.272727  0.000000      2.000000
  0.303030  0.000000  0.000000      4.000000
 -0.303030  0.303030  0.000000      2.000000
  0.333333  0.000000  0.000000      4.000000
 -0.333333  0.333333  0.000000      2.000000
  0.363636  0.000000  0.000000      4.000000
 -0.363636  0.363636  0.000000      2.000000
  0.393939  0.000000  0.000000      4.000000
 -0.393939  0.393939  0.000000      2.000000
  0.424242  0.000000  0.000000      4.000000
 -0.424242  0.424242  0.000000      2.000000
  0.454545  0.000000  0.000000      4.000000
 -0.454545  0.454545  0.000000      2.000000
  0.484848  0.000000  0.000000      4.000000
 -0.484848  0.484848  0.000000      2.000000
  0.030303  0.030303  0.000000      2.000000
 -0.030303  0.060606  0.000000      4.000000
  0.060606  0.030303  0.000000      4.000000
 -0.030303  0.090909  0.000000      4.000000
 -0.090909  0.060606  0.000000      4.000000
  0.090909  0.030303  0.000000      4.000000
 -0.030303  0.121212  0.000000      4.000000
 -0.121212  0.090909  0.000000      4.000000
  0.121212  0.030303  0.000000      4.000000
 -0.030303  0.151515  0.000000      4.000000
 -0.151515  0.121212  0.000000      4.000000
  0.151515  0.030303  0.000000      4.000000
 -0.030303  0.181818  0.000000      4.000000
 -0.181818  0.151515  0.000000      4.000000
  0.181818  0.030303  0.000000      4.000000
 -0.030303  0.212121  0.000000      4.000000
 -0.212121  0.181818  0.000000      4.000000
  0.212121  0.030303  0.000000      4.000000
 -0.030303  0.242424  0.000000      4.000000
 -0.242424  0.212121  0.000000      4.000000
  0.242424  0.030303  0.000000      4.000000
 -0.030303  0.272727  0.000000      4.000000
 -0.272727  0.242424  0.000000      4.000000
  0.272727  0.030303  0.000000      4.000000
 -0.030303  0.303030  0.000000      4.000000
 -0.303030  0.272727  0.000000      4.000000
  0.303030  0.030303  0.000000      4.000000
 -0.030303  0.333333  0.000000      4.000000
 -0.333333  0.303030  0.000000      4.000000
  0.333333  0.030303  0.000000      4.000000
 -0.030303  0.363636  0.000000      4.000000
 -0.363636  0.333333  0.000000      4.000000
  0.363636  0.030303  0.000000      4.000000
 -0.030303  0.393939  0.000000      4.000000
 -0.393939  0.363636  0.000000      4.000000
  0.393939  0.030303  0.000000      4.000000
 -0.030303  0.424242  0.000000      4.000000
 -0.424242  0.393939  0.000000      4.000000
  0.424242  0.030303  0.000000      4.000000
 -0.030303  0.454545  0.000000      4.000000
 -0.454545  0.424242  0.000000      4.000000
  0.454545  0.030303  0.000000      4.000000
 -0.030303  0.484848  0.000000      4.000000
 -0.484848  0.454545  0.000000      4.000000
  0.484848  0.030303  0.000000      4.000000
  0.484848  0.484848  0.000000      2.000000
  0.060606  0.060606  0.000000      2.000000
 -0.060606  0.121212  0.000000      4.000000
  0.090909  0.060606  0.000000      4.000000
 -0.060606  0.151515  0.000000      4.000000
 -0.151515  0.090909  0.000000      4.000000
  0.121212  0.060606  0.000000      4.000000
 -0.060606  0.181818  0.000000      4.000000
 -0.181818  0.121212  0.000000      4.000000
  0.151515  0.060606  0.000000      4.000000
 -0.060606  0.212121  0.000000      4.000000
 -0.212121  0.151515  0.000000      4.000000
  0.181818  0.060606  0.000000      4.000000
 -0.060606  0.242424  0.000000      4.000000
 -0.242424  0.181818  0.000000      4.000000
  0.212121  0.060606  0.000000      4.000000
 -0.060606  0.272727  0.000000      4.000000
 -0.272727  0.212121  0.000000      4.000000
  0.242424  0.060606  0.000000      4.000000
 -0.060606  0.303030  0.000000      4.000000
 -0.303030  0.242424  0.000000      4.000000
  0.272727  0.060606  0.000000      4.000000
 -0.060606  0.333333  0.000000      4.000000
 -0.333333  0.272727  0.000000      4.000000
  0.303030  0.060606  0.000000      4.000000
 -0.060606  0.363636  0.000000      4.000000
 -0.363636  0.303030  0.000000      4.000000
  0.333333  0.060606  0.000000      4.000000
 -0.060606  0.393939  0.000000      4.000000
 -0.393939  0.333333  0.000000      4.000000
  0.363636  0.060606  0.000000      4.000000
 -0.060606  0.424242  0.000000      4.000000
 -0.424242  0.363636  0.000000      4.000000
  0.393939  0.060606  0.000000      4.000000
 -0.060606  0.454545  0.000000      4.000000
 -0.454545  0.393939  0.000000      4.000000
  0.424242  0.060606  0.000000      4.000000
 -0.060606  0.484848  0.000000      4.000000
 -0.484848  0.424242  0.000000      4.000000
  0.454545  0.060606  0.000000      4.000000
 -0.060606 -0.484848  0.000000      4.000000
  0.484848  0.454545  0.000000      4.000000
  0.090909  0.090909  0.000000      2.000000
 -0.090909  0.181818  0.000000      4.000000
  0.121212  0.090909  0.000000      4.000000
 -0.090909  0.212121  0.000000      4.000000
 -0.212121  0.121212  0.000000      4.000000
  0.151515  0.090909  0.000000      4.000000
 -0.090909  0.242424  0.000000      4.000000
 -0.242424  0.151515  0.000000      4.000000
  0.181818  0.090909  0.000000      4.000000
 -0.090909  0.272727  0.000000      4.000000
 -0.272727  0.181818  0.000000      4.000000
  0.212121  0.090909  0.000000      4.000000
 -0.090909  0.303030  0.000000      4.000000
 -0.303030  0.212121  0.000000      4.000000
  0.242424  0.090909  0.000000      4.000000
 -0.090909  0.333333  0.000000      4.000000
 -0.333333  0.242424  0.000000      4.000000
  0.272727  0.090909  0.000000      4.000000
 -0.090909  0.363636  0.000000      4.000000
 -0.363636  0.272727  0.000000      4.000000
  0.303030  0.090909  0.000000      4.000000
 -0.090909  0.393939  0.000000      4.000000
 -0.393939  0.303030  0.000000      4.000000
  0.333333  0.090909  0.000000      4.000000
 -0.090909  0.424242  0.000000      4.000000
 -0.424242  0.333333  0.000000      4.000000
  0.363636  0.090909  0.000000      4.000000
 -0.090909  0.454545  0.000000      4.000000
 -0.454545  0.363636  0.000000      4.000000
  0.393939  0.090909  0.000000      4.000000
 -0.090909  0.484848  0.000000      4.000000
 -0.484848  0.393939  0.000000      4.000000
  0.424242  0.090909  0.000000      4.000000
 -0.090909 -0.484848  0.000000      4.000000
  0.484848  0.424242  0.000000      4.000000
  0.454545  0.090909  0.000000      4.000000
  0.454545  0.454545  0.000000      2.000000
  0.121212  0.121212  0.000000      2.000000
 -0.121212  0.242424  0.000000      4.000000
  0.151515  0.121212  0.000000      4.000000
 -0.121212  0.272727  0.000000      4.000000
 -0.272727  0.151515  0.000000      4.000000
  0.181818  0.121212  0.000000      4.000000
 -0.121212  0.303030  0.000000      4.000000
 -0.303030  0.181818  0.000000      4.000000
  0.212121  0.121212  0.000000      4.000000
 -0.121212  0.333333  0.000000      4.000000
 -0.333333  0.212121  0.000000      4.000000
  0.242424  0.121212  0.000000      4.000000
 -0.121212  0.363636  0.000000      4.000000
 -0.363636  0.242424  0.000000      4.000000
  0.272727  0.121212  0.000000      4.000000
 -0.121212  0.393939  0.000000      4.000000
 -0.393939  0.272727  0.000000      4.000000
  0.303030  0.121212  0.000000      4.000000
 -0.121212  0.424242  0.000000      4.000000
 -0.424242  0.303030  0.000000      4.000000
  0.333333  0.121212  0.000000      4.000000
 -0.121212  0.454545  0.000000      4.000000
 -0.454545  0.333333  0.000000      4.000000
  0.363636  0.121212  0.000000      4.000000
 -0.121212  0.484848  0.000000      4.000000
 -0.484848  0.363636  0.000000      4.000000
  0.393939  0.121212  0.000000      4.000000
 -0.121212 -0.484848  0.000000      4.000000
  0.484848  0.393939  0.000000      4.000000
  0.424242  0.121212  0.000000      4.000000
 -0.121212 -0.454545  0.000000      4.000000
  0.454545  0.424242  0.000000      4.000000
  0.151515  0.151515  0.000000      2.000000
 -0.151515  0.303030  0.000000      4.000000
  0.181818  0.151515  0.000000      4.000000
 -0.151515  0.333333  0.000000      4.000000
 -0.333333  0.181818  0.000000      4.000000
  0.212121  0.151515  0.000000      4.000000
 -0.151515  0.363636  0.000000      4.000000
 -0.363636  0.212121  0.000000      4.000000
  0.242424  0.151515  0.000000      4.000000
 -0.151515  0.393939  0.000000      4.000000
 -0.393939  0.242424  0.000000      4.000000
  0.272727  0.151515  0.000000      4.000000
 -0.151515  0.424242  0.000000      4.000000
 -0.424242  0.272727  0.000000      4.000000
  0.303030  0.151515  0.000000      4.000000
 -0.151515  0.454545  0.000000      4.000000
 -0.454545  0.303030  0.000000      4.000000
  0.333333  0.151515  0.000000      4.000000
 -0.151515  0.484848  0.000000      4.000000
 -0.484848  0.333333  0.000000      4.000000
  0.363636  0.151515  0.000000      4.000000
 -0.151515 -0.484848  0.000000      4.000000
  0.484848  0.363636  0.000000      4.000000
  0.393939  0.151515  0.000000      4.000000
 -0.151515 -0.454545  0.000000      4.000000
  0.454545  0.393939  0.000000      4.000000
  0.424242  0.151515  0.000000      4.000000
  0.424242  0.424242  0.000000      2.000000
  0.181818  0.181818  0.000000      2.000000
 -0.181818  0.363636  0.000000      4.000000
  0.212121  0.181818  0.000000      4.000000
 -0.181818  0.393939  0.000000      4.000000
 -0.393939  0.212121  0.000000      4.000000
  0.242424  0.181818  0.000000      4.000000
 -0.181818  0.424242  0.000000      4.000000
 -0.424242  0.242424  0.000000      4.000000
  0.272727  0.181818  0.000000      4.000000
 -0.181818  0.454545  0.000000      4.000000
 -0.454545  0.272727  0.000000      4.000000
  0.303030  0.181818  0.000000      4.000000
 -0.181818  0.484848  0.000000      4.000000
 -0.484848  0.303030  0.000000      4.000000
  0.333333  0.181818  0.000000      4.000000
 -0.181818 -0.484848  0.000000      4.000000
  0.484848  0.333333  0.000000      4.000000
  0.363636  0.181818  0.000000      4.000000
 -0.181818 -0.454545  0.000000      4.000000
  0.454545  0.363636  0.000000      4.000000
  0.393939  0.181818  0.000000      4.000000
 -0.181818 -0.424242  0.000000      4.000000
  0.424242  0.393939  0.000000      4.000000
  0.212121  0.212121  0.000000      2.000000
 -0.212121  0.424242  0.000000      4.000000
  0.242424  0.212121  0.000000      4.000000
 -0.212121  0.454545  0.000000      4.000000
 -0.454545  0.242424  0.000000      4.000000
  0.272727  0.212121  0.000000      4.000000
 -0.212121  0.484848  0.000000      4.000000
 -0.484848  0.272727  0.000000      4.000000
  0.303030  0.212121  0.000000      4.000000
 -0.212121 -0.484848  0.000000      4.000000
  0.484848  0.303030  0.000000      4.000000
  0.333333  0.212121  0.000000      4.000000
 -0.212121 -0.454545  0.000000      4.000000
  0.454545  0.333333  0.000000      4.000000
  0.363636  0.212121  0.000000      4.000000
 -0.212121 -0.424242  0.000000      4.000000
  0.424242  0.363636  0.000000      4.000000
  0.393939  0.212121  0.000000      4.000000
  0.393939  0.393939  0.000000      2.000000
  0.242424  0.242424  0.000000      2.000000
 -0.242424  0.484848  0.000000      4.000000
  0.272727  0.242424  0.000000      4.000000
 -0.242424 -0.484848  0.000000      4.000000
  0.484848  0.272727  0.000000      4.000000
  0.303030  0.242424  0.000000      4.000000
 -0.242424 -0.454545  0.000000      4.000000
  0.454545  0.303030  0.000000      4.000000
  0.333333  0.242424  0.000000      4.000000
 -0.242424 -0.424242  0.000000      4.000000
  0.424242  0.333333  0.000000      4.000000
  0.363636  0.242424  0.000000      4.000000
 -0.242424 -0.393939  0.000000      4.000000
  0.393939  0.363636  0.000000      4.000000
  0.272727  0.272727  0.000000      2.000000
 -0.272727 -0.454545  0.000000      4.000000
  0.303030  0.272727  0.000000      4.000000
 -0.272727 -0.424242  0.000000      4.000000
  0.424242  0.303030  0.000000      4.000000
  0.333333  0.272727  0.000000      4.000000
 -0.272727 -0.393939  0.000000      4.000000
  0.393939  0.333333  0.000000      4.000000
  0.363636  0.272727  0.000000      4.000000
  0.363636  0.363636  0.000000      2.000000
  0.303030  0.303030  0.000000      2.000000
 -0.303030 -0.393939  0.000000      4.000000
  0.333333  0.303030  0.000000      4.000000
 -0.303030 -0.363636  0.000000      4.000000
  0.363636  0.333333  0.000000      4.000000
  0.333333  0.333333  0.000000      2.000000
 
 Following cartesian coordinates:
            Coordinates               Weight
  0.000000  0.000000  0.000000      1.000000
  0.003464  0.005999  0.000000      4.000000
 -0.006928 -0.000000  0.000000      2.000000
  0.006928  0.011999  0.000000      4.000000
 -0.013855 -0.000000  0.000000      2.000000
  0.010391  0.017998  0.000000      4.000000
 -0.020783  0.000000  0.000000      2.000000
  0.013855  0.023998  0.000000      4.000000
 -0.027710 -0.000000  0.000000      2.000000
  0.017319  0.029997  0.000000      4.000000
 -0.034638  0.000000  0.000000      2.000000
  0.020783  0.035996  0.000000      4.000000
 -0.041565 -0.000000  0.000000      2.000000
  0.024246  0.041996  0.000000      4.000000
 -0.048493  0.000000  0.000000      2.000000
  0.027710  0.047995  0.000000      4.000000
 -0.055420  0.000000  0.000000      2.000000
  0.031174  0.053995  0.000000      4.000000
 -0.062348  0.000000  0.000000      2.000000
  0.034638  0.059994  0.000000      4.000000
 -0.069275  0.000000  0.000000      2.000000
  0.038101  0.065994  0.000000      4.000000
 -0.076203 -0.000000  0.000000      2.000000
  0.041565  0.071993  0.000000      4.000000
 -0.083130  0.000000  0.000000      2.000000
  0.045029  0.077992  0.000000      4.000000
 -0.090058 -0.000000  0.000000      2.000000
  0.048493  0.083992  0.000000      4.000000
 -0.096985  0.000000  0.000000      2.000000
  0.051956  0.089991  0.000000      4.000000
 -0.103913 -0.000000  0.000000      2.000000
  0.055420  0.095991  0.000000      4.000000
 -0.110840  0.000000  0.000000      2.000000
 -0.000000  0.011999  0.000000      2.000000
 -0.010391  0.005999  0.000000      4.000000
  0.003464  0.017998  0.000000      4.000000
 -0.013855  0.011999  0.000000      4.000000
 -0.017319 -0.005999  0.000000      4.000000
  0.006928  0.023998  0.000000      4.000000
 -0.017319  0.017998  0.000000      4.000000
 -0.024246 -0.005999  0.000000      4.000000
  0.010391  0.029997  0.000000      4.000000
 -0.020783  0.023998  0.000000      4.000000
 -0.031174 -0.005999  0.000000      4.000000
  0.013855  0.035996  0.000000      4.000000
 -0.024246  0.029997  0.000000      4.000000
 -0.038101 -0.005999  0.000000      4.000000
  0.017319  0.041996  0.000000      4.000000
 -0.027710  0.035996  0.000000      4.000000
 -0.045029 -0.005999  0.000000      4.000000
  0.020783  0.047995  0.000000      4.000000
 -0.031174  0.041996  0.000000      4.000000
 -0.051956 -0.005999  0.000000      4.000000
  0.024246  0.053995  0.000000      4.000000
 -0.034638  0.047995  0.000000      4.000000
 -0.058884 -0.005999  0.000000      4.000000
  0.027710  0.059994  0.000000      4.000000
 -0.038101  0.053995  0.000000      4.000000
 -0.065811 -0.005999  0.000000      4.000000
  0.031174  0.065994  0.000000      4.000000
 -0.041565  0.059994  0.000000      4.000000
 -0.072739 -0.005999  0.000000      4.000000
  0.034638  0.071993  0.000000      4.000000
 -0.045029  0.065994  0.000000      4.000000
 -0.079667 -0.005999  0.000000      4.000000
  0.038101  0.077992  0.000000      4.000000
 -0.048493  0.071993  0.000000      4.000000
 -0.086594 -0.005999  0.000000      4.000000
  0.041565  0.083992  0.000000      4.000000
 -0.051956  0.077992  0.000000      4.000000
 -0.093522 -0.005999  0.000000      4.000000
  0.045029  0.089991  0.000000      4.000000
 -0.055420  0.083992  0.000000      4.000000
 -0.100449 -0.005999  0.000000      4.000000
  0.048493  0.095991  0.000000      4.000000
 -0.058884  0.089991  0.000000      4.000000
 -0.107377 -0.005999  0.000000      4.000000
  0.051956  0.101990  0.000000      4.000000
  0.000000  0.191981  0.000000      2.000000
 -0.000000  0.023998  0.000000      2.000000
 -0.020783  0.011999  0.000000      4.000000
  0.003464  0.029997  0.000000      4.000000
 -0.024246  0.017998  0.000000      4.000000
 -0.027710 -0.011999  0.000000      4.000000
  0.006928  0.035996  0.000000      4.000000
 -0.027710  0.023998  0.000000      4.000000
 -0.034638 -0.011999  0.000000      4.000000
  0.010391  0.041996  0.000000      4.000000
 -0.031174  0.029997  0.000000      4.000000
 -0.041565 -0.011999  0.000000      4.000000
  0.013855  0.047995  0.000000      4.000000
 -0.034638  0.035996  0.000000      4.000000
 -0.048493 -0.011999  0.000000      4.000000
  0.017319  0.053995  0.000000      4.000000
 -0.038101  0.041996  0.000000      4.000000
 -0.055420 -0.011999  0.000000      4.000000
  0.020783  0.059994  0.000000      4.000000
 -0.041565  0.047995  0.000000      4.000000
 -0.062348 -0.011999  0.000000      4.000000
  0.024246  0.065994  0.000000      4.000000
 -0.045029  0.053995  0.000000      4.000000
 -0.069275 -0.011999  0.000000      4.000000
  0.027710  0.071993  0.000000      4.000000
 -0.048493  0.059994  0.000000      4.000000
 -0.076203 -0.011999  0.000000      4.000000
  0.031174  0.077992  0.000000      4.000000
 -0.051956  0.065994  0.000000      4.000000
 -0.083130 -0.011999  0.000000      4.000000
  0.034638  0.083992  0.000000      4.000000
 -0.055420  0.071993  0.000000      4.000000
 -0.090058 -0.011999  0.000000      4.000000
  0.038101  0.089991  0.000000      4.000000
 -0.058884  0.077992  0.000000      4.000000
 -0.096985 -0.011999  0.000000      4.000000
  0.041565  0.095991  0.000000      4.000000
 -0.062348  0.083992  0.000000      4.000000
 -0.103913 -0.011999  0.000000      4.000000
  0.045029  0.101990  0.000000      4.000000
  0.048493 -0.107989  0.000000      4.000000
  0.003464  0.185982  0.000000      4.000000
  0.000000  0.035996  0.000000      2.000000
 -0.031174  0.017998  0.000000      4.000000
  0.003464  0.041996  0.000000      4.000000
 -0.034638  0.023998  0.000000      4.000000
 -0.038101 -0.017998  0.000000      4.000000
  0.006928  0.047995  0.000000      4.000000
 -0.038101  0.029997  0.000000      4.000000
 -0.045029 -0.017998  0.000000      4.000000
  0.010391  0.053995  0.000000      4.000000
 -0.041565  0.035996  0.000000      4.000000
 -0.051956 -0.017998  0.000000      4.000000
  0.013855  0.059994  0.000000      4.000000
 -0.045029  0.041996  0.000000      4.000000
 -0.058884 -0.017998  0.000000      4.000000
  0.017319  0.065994  0.000000      4.000000
 -0.048493  0.047995  0.000000      4.000000
 -0.065811 -0.017998  0.000000      4.000000
  0.020783  0.071993  0.000000      4.000000
 -0.051956  0.053995  0.000000      4.000000
 -0.072739 -0.017998  0.000000      4.000000
  0.024246  0.077992  0.000000      4.000000
 -0.055420  0.059994  0.000000      4.000000
 -0.079667 -0.017998  0.000000      4.000000
  0.027710  0.083992  0.000000      4.000000
 -0.058884  0.065994  0.000000      4.000000
 -0.086594 -0.017998  0.000000      4.000000
  0.031174  0.089991  0.000000      4.000000
 -0.062348  0.071993  0.000000      4.000000
 -0.093522 -0.017998  0.000000      4.000000
  0.034638  0.095991  0.000000      4.000000
 -0.065811  0.077992  0.000000      4.000000
 -0.100449 -0.017998  0.000000      4.000000
  0.038101  0.101990  0.000000      4.000000
  0.045029 -0.113989  0.000000      4.000000
  0.006928  0.179982  0.000000      4.000000
  0.041565  0.107989  0.000000      4.000000
  0.000000  0.179982  0.000000      2.000000
 -0.000000  0.047995  0.000000      2.000000
 -0.041565  0.023998  0.000000      4.000000
  0.003464  0.053995  0.000000      4.000000
 -0.045029  0.029997  0.000000      4.000000
 -0.048493 -0.023998  0.000000      4.000000
  0.006928  0.059994  0.000000      4.000000
 -0.048493  0.035996  0.000000      4.000000
 -0.055420 -0.023998  0.000000      4.000000
  0.010391  0.065994  0.000000      4.000000
 -0.051956  0.041996  0.000000      4.000000
 -0.062348 -0.023998  0.000000      4.000000
  0.013855  0.071993  0.000000      4.000000
 -0.055420  0.047995  0.000000      4.000000
 -0.069275 -0.023998  0.000000      4.000000
  0.017319  0.077992  0.000000      4.000000
 -0.058884  0.053995  0.000000      4.000000
 -0.076203 -0.023998  0.000000      4.000000
  0.020783  0.083992  0.000000      4.000000
 -0.062348  0.059994  0.000000      4.000000
 -0.083130 -0.023998  0.000000      4.000000
  0.024246  0.089991  0.000000      4.000000
 -0.065811  0.065994  0.000000      4.000000
 -0.090058 -0.023998  0.000000      4.000000
  0.027710  0.095991  0.000000      4.000000
 -0.069275  0.071993  0.000000      4.000000
 -0.096985 -0.023998  0.000000      4.000000
  0.031174  0.101990  0.000000      4.000000
  0.041565 -0.119988  0.000000      4.000000
  0.010391  0.173983  0.000000      4.000000
  0.034638  0.107989  0.000000      4.000000
  0.038101 -0.113989  0.000000      4.000000
  0.003464  0.173983  0.000000      4.000000
 -0.000000  0.059994  0.000000      2.000000
 -0.051956  0.029997  0.000000      4.000000
  0.003464  0.065994  0.000000      4.000000
 -0.055420  0.035996  0.000000      4.000000
 -0.058884 -0.029997  0.000000      4.000000
  0.006928  0.071993  0.000000      4.000000
 -0.058884  0.041996  0.000000      4.000000
 -0.065811 -0.029997  0.000000      4.000000
  0.010391  0.077992  0.000000      4.000000
 -0.062348  0.047995  0.000000      4.000000
 -0.072739 -0.029997  0.000000      4.000000
  0.013855  0.083992  0.000000      4.000000
 -0.065811  0.053995  0.000000      4.000000
 -0.079667 -0.029997  0.000000      4.000000
  0.017319  0.089991  0.000000      4.000000
 -0.069275  0.059994  0.000000      4.000000
 -0.086594 -0.029997  0.000000      4.000000
  0.020783  0.095991  0.000000      4.000000
 -0.072739  0.065994  0.000000      4.000000
 -0.093522 -0.029997  0.000000      4.000000
  0.024246  0.101990  0.000000      4.000000
  0.038101 -0.125988  0.000000      4.000000
  0.013855  0.167984  0.000000      4.000000
  0.027710  0.107989  0.000000      4.000000
  0.034638 -0.119988  0.000000      4.000000
  0.006928  0.167984  0.000000      4.000000
  0.031174  0.113989  0.000000      4.000000
  0.000000  0.167984  0.000000      2.000000
  0.000000  0.071993  0.000000      2.000000
 -0.062348  0.035996  0.000000      4.000000
  0.003464  0.077992  0.000000      4.000000
 -0.065811  0.041996  0.000000      4.000000
 -0.069275 -0.035996  0.000000      4.000000
  0.006928  0.083992  0.000000      4.000000
 -0.069275  0.047995  0.000000      4.000000
 -0.076203 -0.035996  0.000000      4.000000
  0.010391  0.089991  0.000000      4.000000
 -0.072739  0.053995  0.000000      4.000000
 -0.083130 -0.035996  0.000000      4.000000
  0.013855  0.095991  0.000000      4.000000
 -0.076203  0.059994  0.000000      4.000000
 -0.090058 -0.035996  0.000000      4.000000
  0.017319  0.101990  0.000000      4.000000
  0.034638 -0.131987  0.000000      4.000000
  0.017319  0.161984  0.000000      4.000000
  0.020783  0.107989  0.000000      4.000000
  0.031174 -0.125988  0.000000      4.000000
  0.010391  0.161984  0.000000      4.000000
  0.024246  0.113989  0.000000      4.000000
  0.027710 -0.119988  0.000000      4.000000
  0.003464  0.161984  0.000000      4.000000
  0.000000  0.083992  0.000000      2.000000
 -0.072739  0.041996  0.000000      4.000000
  0.003464  0.089991  0.000000      4.000000
 -0.076203  0.047995  0.000000      4.000000
 -0.079667 -0.041996  0.000000      4.000000
  0.006928  0.095991  0.000000      4.000000
 -0.079667  0.053995  0.000000      4.000000
 -0.086594 -0.041996  0.000000      4.000000
  0.010391  0.101990  0.000000      4.000000
  0.031174 -0.137986  0.000000      4.000000
  0.020783  0.155985  0.000000      4.000000
  0.013855  0.107989  0.000000      4.000000
  0.027710 -0.131987  0.000000      4.000000
  0.013855  0.155985  0.000000      4.000000
  0.017319  0.113989  0.000000      4.000000
  0.024246 -0.125988  0.000000      4.000000
  0.006928  0.155985  0.000000      4.000000
  0.020783  0.119988  0.000000      4.000000
  0.000000  0.155985  0.000000      2.000000
  0.000000  0.095991  0.000000      2.000000
 -0.083130  0.047995  0.000000      4.000000
  0.003464  0.101990  0.000000      4.000000
  0.027710 -0.143986  0.000000      4.000000
  0.024246  0.149985  0.000000      4.000000
  0.006928  0.107989  0.000000      4.000000
  0.024246 -0.137986  0.000000      4.000000
  0.017319  0.149985  0.000000      4.000000
  0.010391  0.113989  0.000000      4.000000
  0.020783 -0.131987  0.000000      4.000000
  0.010391  0.149985  0.000000      4.000000
  0.013855  0.119988  0.000000      4.000000
  0.017319 -0.125988  0.000000      4.000000
  0.003464  0.149985  0.000000      4.000000
 -0.000000  0.107989  0.000000      2.000000
  0.020783 -0.143986  0.000000      4.000000
  0.003464  0.113989  0.000000      4.000000
  0.017319 -0.137986  0.000000      4.000000
  0.013855  0.143986  0.000000      4.000000
  0.006928  0.119988  0.000000      4.000000
  0.013855 -0.131987  0.000000      4.000000
  0.006928  0.143986  0.000000      4.000000
  0.010391  0.125988  0.000000      4.000000
 -0.000000  0.143986  0.000000      2.000000
 -0.000000  0.119988  0.000000      2.000000
  0.010391 -0.137986  0.000000      4.000000
  0.003464  0.125988  0.000000      4.000000
  0.006928 -0.131987  0.000000      4.000000
  0.003464  0.137986  0.000000      4.000000
  0.000000  0.131987  0.000000      2.000000
 


--------------------------------------------------------------------------------------------------------




 Dimension of arrays:
   k-points           NKPTS =    289   k-points in BZ     NKDIM =    289   number of bands    NBANDS=     48
   number of dos      NEDOS =   4000   number of ions     NIONS =      8
   non local maximal  LDIM  =      4   non local SUM 2l+1 LMDIM =      8
   total plane-waves  NPLWV = 139968
   max r-space proj   IRMAX =      1   max aug-charges    IRDMAX=   6785
   dimension x,y,z NGX =    36 NGY =   36 NGZ =  108
   dimension x,y,z NGXF=    72 NGYF=   72 NGZF=  216
   support grid    NGXF=    72 NGYF=   72 NGZF=  216
   ions per type =               8
   NGX,Y,Z   is equivalent  to a cutoff of  11.85, 11.85, 11.97 a.u.
   NGXF,Y,Z  is equivalent  to a cutoff of  23.70, 23.70, 23.94 a.u.

 SYSTEM =  PDoS                                    
 POSCAR =  Borophene with lattice parameter 5.051  

 Startparameter for this run:
   NWRITE =      2    write-flag & timer
   PREC   = accura    normal or accurate (medium, high low for compatibility)
   ISTART =      0    job   : 0-new  1-cont  2-samecut
   ICHARG =     11    charge: 1-file 2-atom 10-const
   ISPIN  =      1    spin polarized calculation?
   LNONCOLLINEAR =      F non collinear calculations
   LSORBIT =      F    spin-orbit coupling
   INIWAV =      1    electr: 0-lowe 1-rand  2-diag
   LASPH  =      F    aspherical Exc in radial PAW
 Electronic Relaxation 1
   ENCUT  =  450.0 eV  33.07 Ry    5.75 a.u.   8.74  8.74 25.95*2*pi/ulx,y,z
   ENINI  =  450.0     initial cutoff
   ENAUG  =  535.5 eV  augmentation charge cutoff
   NELM   =     60;   NELMIN=  2; NELMDL=  0     # of ELM steps 
   EDIFF  = 0.1E-05   stopping-criterion for ELM
   LREAL  =      F    real-space projection
   NLSPLINE    = F    spline interpolate recip. space projectors
   LCOMPAT=      F    compatible to vasp.4.4
   GGA_COMPAT  = T    GGA compatible to vasp.4.4-vasp.4.6
   LMAXPAW     = -100 max onsite density
   LMAXMIX     =    2 max onsite mixed and CHGCAR
   VOSKOWN=      0    Vosko Wilk Nusair interpolation
   ROPT   =    0.00000
 Ionic relaxation
   EDIFFG = -.1E-02   stopping-criterion for IOM
   NSW    =      0    number of steps for IOM
   NBLOCK =      1;   KBLOCK =      1    inner block; outer block 
   IBRION =     -1    ionic relax: 0-MD 1-quasi-New 2-CG
   NFREE  =      0    steps in history (QN), initial steepest desc. (CG)
   ISIF   =      2    stress and relaxation
   IWAVPR =     10    prediction:  0-non 1-charg 2-wave 3-comb
   ISYM   =      2    0-nonsym 1-usesym 2-fastsym
   LCORR  =      T    Harris-Foulkes like correction to forces

   POTIM  = 0.5000    time-step for ionic-motion
   TEIN   =    0.0    initial temperature
   TEBEG  =    0.0;   TEEND  =   0.0 temperature during run
   SMASS  =  -3.00    Nose mass-parameter (am)
   estimated Nose-frequenzy (Omega)   =  0.10E-29 period in steps = 0.13E+47 mass=  -0.583E-27a.u.
   SCALEE = 1.0000    scale energy and forces
   NPACO  =    256;   APACO  = 10.0  distance and # of slots for P.C.
   PSTRESS=    0.0 pullay stress

  Mass of Ions in am
   POMASS =  10.81
  Ionic Valenz
   ZVAL   =   3.00
  Atomic Wigner-Seitz radii
   RWIGS  =  -1.00
  virtual crystal weights 
   VCA    =   1.00
   NELECT =      24.0000    total number of electrons
   NUPDOWN=      -1.0000    fix difference up-down

 DOS related values:
   EMIN   =  10.00;   EMAX   =-10.00  energy-range for DOS
   EFERMI =   0.00
   ISMEAR =     0;   SIGMA  =   0.10  broadening in eV -4-tet -1-fermi 0-gaus

 Electronic relaxation 2 (details)
   IALGO  =     38    algorithm
   LDIAG  =      T    sub-space diagonalisation (order eigenvalues)
   LSUBROT=      F    optimize rotation matrix (better conditioning)
   TURBO    =      0    0=normal 1=particle mesh
   IRESTART =      0    0=no restart 2=restart with 2 vectors
   NREBOOT  =      0    no. of reboots
   NMIN     =      0    reboot dimension
   EREF     =   0.00    reference energy to select bands
   IMIX   =      4    mixing-type and parameters
     AMIX     =   0.40;   BMIX     =  1.00
     AMIX_MAG =   1.60;   BMIX_MAG =  1.00
     AMIN     =   0.10
     WC   =   100.;   INIMIX=   1;  MIXPRE=   1;  MAXMIX= -45

 Intra band minimization:
   WEIMIN = 0.0000     energy-eigenvalue tresh-hold
   EBREAK =  0.52E-08  absolut break condition
   DEPER  =   0.30     relativ break condition  

   TIME   =   0.40     timestep for ELM

  volume/ion in A,a.u.               =      41.43       279.57
  Fermi-wavevector in a.u.,A,eV,Ry     =   0.682370  1.289492  6.335258  0.465628
  Thomas-Fermi vector in A             =   1.761423
 
 Write flags
   LWAVE        =      F    write WAVECAR
   LDOWNSAMPLE  =      F    k-point downsampling of WAVECAR
   LCHARG       =      F    write CHGCAR
   LVTOT        =      F    write LOCPOT, total local potential
   LVHAR        =      F    write LOCPOT, Hartree potential only
   LELF         =      F    write electronic localiz. function (ELF)
   LORBIT       =     11    0 simple, 1 ext, 2 COOP (PROOUT), +10 PAW based schemes


 Dipole corrections
   LMONO  =      F    monopole corrections only (constant potential shift)
   LDIPOL =      F    correct potential (dipole corrections)
   IDIPOL =      0    1-x, 2-y, 3-z, 4-all directions 
   EPSILON=  1.0000000 bulk dielectric constant

 Exchange correlation treatment:
   GGA     =    --    GGA type
   LEXCH   =     8    internal setting for exchange type
   LIBXC   =     F    Libxc                    
   VOSKOWN =     0    Vosko Wilk Nusair interpolation
   LHFCALC =     F    Hartree Fock is set to
   LHFONE  =     F    Hartree Fock one center treatment
   AEXX    =    0.0000 exact exchange contribution

 Linear response parameters
   LEPSILON=     F    determine dielectric tensor
   LRPA    =     F    only Hartree local field effects (RPA)
   LNABLA  =     F    use nabla operator in PAW spheres
   LVEL    =     F    velocity operator in full k-point grid
   CSHIFT  =0.1000    complex shift for real part using Kramers Kronig
   OMEGAMAX=  -1.0    maximum frequency
   DEG_THRESHOLD= 0.2000000E-02 threshold for treating states as degnerate
   RTIME   =   -0.100 relaxation time in fs
  (WPLASMAI=    0.000 imaginary part of plasma frequency in eV, 0.658/RTIME)
   DFIELD  = 0.0000000 0.0000000 0.0000000 field for delta impulse in time
 
  Optional k-point grid parameters
   LKPOINTS_OPT  =     F    use optional k-point grid
   KPOINTS_OPT_MODE=     1    mode for optional k-point grid
 
 Orbital magnetization related:
   ORBITALMAG=     F  switch on orbital magnetization
   LCHIMAG   =     F  perturbation theory with respect to B field
   DQ        =  0.001000  dq finite difference perturbation B field
   LLRAUG    =     F  two centre corrections for induced B field



--------------------------------------------------------------------------------------------------------


 Static calculation
 charge density and potential remain constant during run
 non-spin polarized calculation
 Variant of blocked Davidson
 Davidson routine will perform the subspace rotation
 perform sub-space diagonalisation
    after iterative eigenvector-optimisation
 no mixing
 using additional bands           36
 reciprocal scheme for non local part
 use partial core corrections
 calculate Harris-corrections to forces 
   (improved forces if not selfconsistent)
 use gradient corrections 
 WARNING: stress and forces are not correct
  (second derivative of E(xc) not defined)
 use of overlap-Matrix (Vanderbilt PP)
 Gauss-broadening in eV      SIGMA  =   0.10


--------------------------------------------------------------------------------------------------------


  energy-cutoff  :      450.00
  volume of cell :      331.42
      direct lattice vectors                 reciprocal lattice vectors
     4.374294000  2.525500000  0.000000000     0.114304160  0.197980598  0.000000000
    -4.374294000  2.525500000  0.000000000    -0.114304160  0.197980598  0.000000000
     0.000000000  0.000000000 15.000000000     0.000000000  0.000000000  0.066666667

  length of vectors
     5.050999728  5.050999728 15.000000000     0.228608307  0.228608307  0.066666667


 
 k-points in units of 2pi/SCALE and weight: k-points                                
   0.00000000  0.00000000  0.00000000       0.001
   0.00346376  0.00599941  0.00000000       0.004
  -0.00692752 -0.00000000  0.00000000       0.002
   0.00692752  0.01199882  0.00000000       0.004
  -0.01385505 -0.00000000  0.00000000       0.002
   0.01039129  0.01799824  0.00000000       0.004
  -0.02078257  0.00000000  0.00000000       0.002
   0.01385505  0.02399765  0.00000000       0.004
  -0.02771010 -0.00000000  0.00000000       0.002
   0.01731881  0.02999706  0.00000000       0.004
  -0.03463762  0.00000000  0.00000000       0.002
   0.02078257  0.03599647  0.00000000       0.004
  -0.04156515 -0.00000000  0.00000000       0.002
   0.02424634  0.04199588  0.00000000       0.004
  -0.04849267  0.00000000  0.00000000       0.002
   0.02771010  0.04799530  0.00000000       0.004
  -0.05542020  0.00000000  0.00000000       0.002
   0.03117386  0.05399471  0.00000000       0.004
  -0.06234772  0.00000000  0.00000000       0.002
   0.03463762  0.05999412  0.00000000       0.004
  -0.06927525  0.00000000  0.00000000       0.002
   0.03810139  0.06599353  0.00000000       0.004
  -0.07620277 -0.00000000  0.00000000       0.002
   0.04156515  0.07199294  0.00000000       0.004
  -0.08313030  0.00000000  0.00000000       0.002
   0.04502891  0.07799236  0.00000000       0.004
  -0.09005782 -0.00000000  0.00000000       0.002
   0.04849267  0.08399177  0.00000000       0.004
  -0.09698535  0.00000000  0.00000000       0.002
   0.05195644  0.08999118  0.00000000       0.004
  -0.10391287 -0.00000000  0.00000000       0.002
   0.05542020  0.09599059  0.00000000       0.004
  -0.11084040  0.00000000  0.00000000       0.002
  -0.00000000  0.01199882  0.00000000       0.002
  -0.01039129  0.00599941  0.00000000       0.004
   0.00346376  0.01799824  0.00000000       0.004
  -0.01385505  0.01199882  0.00000000       0.004
  -0.01731881 -0.00599941  0.00000000       0.004
   0.00692752  0.02399765  0.00000000       0.004
  -0.01731881  0.01799824  0.00000000       0.004
  -0.02424634 -0.00599941  0.00000000       0.004
   0.01039129  0.02999706  0.00000000       0.004
  -0.02078257  0.02399765  0.00000000       0.004
  -0.03117386 -0.00599941  0.00000000       0.004
   0.01385505  0.03599647  0.00000000       0.004
  -0.02424634  0.02999706  0.00000000       0.004
  -0.03810139 -0.00599941  0.00000000       0.004
   0.01731881  0.04199588  0.00000000       0.004
  -0.02771010  0.03599647  0.00000000       0.004
  -0.04502891 -0.00599941  0.00000000       0.004
   0.02078257  0.04799530  0.00000000       0.004
  -0.03117386  0.04199588  0.00000000       0.004
  -0.05195644 -0.00599941  0.00000000       0.004
   0.02424634  0.05399471  0.00000000       0.004
  -0.03463762  0.04799530  0.00000000       0.004
  -0.05888396 -0.00599941  0.00000000       0.004
   0.02771010  0.05999412  0.00000000       0.004
  -0.03810139  0.05399471  0.00000000       0.004
  -0.06581149 -0.00599941  0.00000000       0.004
   0.03117386  0.06599353  0.00000000       0.004
  -0.04156515  0.05999412  0.00000000       0.004
  -0.07273901 -0.00599941  0.00000000       0.004
   0.03463762  0.07199294  0.00000000       0.004
  -0.04502891  0.06599353  0.00000000       0.004
  -0.07966654 -0.00599941  0.00000000       0.004
   0.03810139  0.07799236  0.00000000       0.004
  -0.04849267  0.07199294  0.00000000       0.004
  -0.08659406 -0.00599941  0.00000000       0.004
   0.04156515  0.08399177  0.00000000       0.004
  -0.05195644  0.07799236  0.00000000       0.004
  -0.09352159 -0.00599941  0.00000000       0.004
   0.04502891  0.08999118  0.00000000       0.004
  -0.05542020  0.08399177  0.00000000       0.004
  -0.10044911 -0.00599941  0.00000000       0.004
   0.04849267  0.09599059  0.00000000       0.004
  -0.05888396  0.08999118  0.00000000       0.004
  -0.10737663 -0.00599941  0.00000000       0.004
   0.05195644  0.10199000  0.00000000       0.004
   0.00000000  0.19198119  0.00000000       0.002
  -0.00000000  0.02399765  0.00000000       0.002
  -0.02078257  0.01199882  0.00000000       0.004
   0.00346376  0.02999706  0.00000000       0.004
  -0.02424634  0.01799824  0.00000000       0.004
  -0.02771010 -0.01199882  0.00000000       0.004
   0.00692752  0.03599647  0.00000000       0.004
  -0.02771010  0.02399765  0.00000000       0.004
  -0.03463762 -0.01199882  0.00000000       0.004
   0.01039129  0.04199588  0.00000000       0.004
  -0.03117386  0.02999706  0.00000000       0.004
  -0.04156515 -0.01199882  0.00000000       0.004
   0.01385505  0.04799530  0.00000000       0.004
  -0.03463762  0.03599647  0.00000000       0.004
  -0.04849267 -0.01199882  0.00000000       0.004
   0.01731881  0.05399471  0.00000000       0.004
  -0.03810139  0.04199588  0.00000000       0.004
  -0.05542020 -0.01199882  0.00000000       0.004
   0.02078257  0.05999412  0.00000000       0.004
  -0.04156515  0.04799530  0.00000000       0.004
  -0.06234772 -0.01199882  0.00000000       0.004
   0.02424634  0.06599353  0.00000000       0.004
  -0.04502891  0.05399471  0.00000000       0.004
  -0.06927525 -0.01199882  0.00000000       0.004
   0.02771010  0.07199294  0.00000000       0.004
  -0.04849267  0.05999412  0.00000000       0.004
  -0.07620277 -0.01199882  0.00000000       0.004
   0.03117386  0.07799236  0.00000000       0.004
  -0.05195644  0.06599353  0.00000000       0.004
  -0.08313030 -0.01199882  0.00000000       0.004
   0.03463762  0.08399177  0.00000000       0.004
  -0.05542020  0.07199294  0.00000000       0.004
  -0.09005782 -0.01199882  0.00000000       0.004
   0.03810139  0.08999118  0.00000000       0.004
  -0.05888396  0.07799236  0.00000000       0.004
  -0.09698535 -0.01199882  0.00000000       0.004
   0.04156515  0.09599059  0.00000000       0.004
  -0.06234772  0.08399177  0.00000000       0.004
  -0.10391287 -0.01199882  0.00000000       0.004
   0.04502891  0.10199000  0.00000000       0.004
   0.04849267 -0.10798942  0.00000000       0.004
   0.00346376  0.18598177  0.00000000       0.004
   0.00000000  0.03599647  0.00000000       0.002
  -0.03117386  0.01799824  0.00000000       0.004
   0.00346376  0.04199588  0.00000000       0.004
  -0.03463762  0.02399765  0.00000000       0.004
  -0.03810139 -0.01799824  0.00000000       0.004
   0.00692752  0.04799530  0.00000000       0.004
  -0.03810139  0.02999706  0.00000000       0.004
  -0.04502891 -0.01799824  0.00000000       0.004
   0.01039129  0.05399471  0.00000000       0.004
  -0.04156515  0.03599647  0.00000000       0.004
  -0.05195644 -0.01799824  0.00000000       0.004
   0.01385505  0.05999412  0.00000000       0.004
  -0.04502891  0.04199588  0.00000000       0.004
  -0.05888396 -0.01799824  0.00000000       0.004
   0.01731881  0.06599353  0.00000000       0.004
  -0.04849267  0.04799530  0.00000000       0.004
  -0.06581149 -0.01799824  0.00000000       0.004
   0.02078257  0.07199294  0.00000000       0.004
  -0.05195644  0.05399471  0.00000000       0.004
  -0.07273901 -0.01799824  0.00000000       0.004
   0.02424634  0.07799236  0.00000000       0.004
  -0.05542020  0.05999412  0.00000000       0.004
  -0.07966654 -0.01799824  0.00000000       0.004
   0.02771010  0.08399177  0.00000000       0.004
  -0.05888396  0.06599353  0.00000000       0.004
  -0.08659406 -0.01799824  0.00000000       0.004
   0.03117386  0.08999118  0.00000000       0.004
  -0.06234772  0.07199294  0.00000000       0.004
  -0.09352159 -0.01799824  0.00000000       0.004
   0.03463762  0.09599059  0.00000000       0.004
  -0.06581149  0.07799236  0.00000000       0.004
  -0.10044911 -0.01799824  0.00000000       0.004
   0.03810139  0.10199000  0.00000000       0.004
   0.04502891 -0.11398883  0.00000000       0.004
   0.00692752  0.17998236  0.00000000       0.004
   0.04156515  0.10798942  0.00000000       0.004
   0.00000000  0.17998236  0.00000000       0.002
  -0.00000000  0.04799530  0.00000000       0.002
  -0.04156515  0.02399765  0.00000000       0.004
   0.00346376  0.05399471  0.00000000       0.004
  -0.04502891  0.02999706  0.00000000       0.004
  -0.04849267 -0.02399765  0.00000000       0.004
   0.00692752  0.05999412  0.00000000       0.004
  -0.04849267  0.03599647  0.00000000       0.004
  -0.05542020 -0.02399765  0.00000000       0.004
   0.01039129  0.06599353  0.00000000       0.004
  -0.05195644  0.04199588  0.00000000       0.004
  -0.06234772 -0.02399765  0.00000000       0.004
   0.01385505  0.07199294  0.00000000       0.004
  -0.05542020  0.04799530  0.00000000       0.004
  -0.06927525 -0.02399765  0.00000000       0.004
   0.01731881  0.07799236  0.00000000       0.004
  -0.05888396  0.05399471  0.00000000       0.004
  -0.07620277 -0.02399765  0.00000000       0.004
   0.02078257  0.08399177  0.00000000       0.004
  -0.06234772  0.05999412  0.00000000       0.004
  -0.08313030 -0.02399765  0.00000000       0.004
   0.02424634  0.08999118  0.00000000       0.004
  -0.06581149  0.06599353  0.00000000       0.004
  -0.09005782 -0.02399765  0.00000000       0.004
   0.02771010  0.09599059  0.00000000       0.004
  -0.06927525  0.07199294  0.00000000       0.004
  -0.09698535 -0.02399765  0.00000000       0.004
   0.03117386  0.10199000  0.00000000       0.004
   0.04156515 -0.11998824  0.00000000       0.004
   0.01039129  0.17398295  0.00000000       0.004
   0.03463762  0.10798942  0.00000000       0.004
   0.03810139 -0.11398883  0.00000000       0.004
   0.00346376  0.17398295  0.00000000       0.004
  -0.00000000  0.05999412  0.00000000       0.002
  -0.05195644  0.02999706  0.00000000       0.004
   0.00346376  0.06599353  0.00000000       0.004
  -0.05542020  0.03599647  0.00000000       0.004
  -0.05888396 -0.02999706  0.00000000       0.004
   0.00692752  0.07199294  0.00000000       0.004
  -0.05888396  0.04199588  0.00000000       0.004
  -0.06581149 -0.02999706  0.00000000       0.004
   0.01039129  0.07799236  0.00000000       0.004
  -0.06234772  0.04799530  0.00000000       0.004
  -0.07273901 -0.02999706  0.00000000       0.004
   0.01385505  0.08399177  0.00000000       0.004
  -0.06581149  0.05399471  0.00000000       0.004
  -0.07966654 -0.02999706  0.00000000       0.004
   0.01731881  0.08999118  0.00000000       0.004
  -0.06927525  0.05999412  0.00000000       0.004
  -0.08659406 -0.02999706  0.00000000       0.004
   0.02078257  0.09599059  0.00000000       0.004
  -0.07273901  0.06599353  0.00000000       0.004
  -0.09352159 -0.02999706  0.00000000       0.004
   0.02424634  0.10199000  0.00000000       0.004
   0.03810139 -0.12598765  0.00000000       0.004
   0.01385505  0.16798354  0.00000000       0.004
   0.02771010  0.10798942  0.00000000       0.004
   0.03463762 -0.11998824  0.00000000       0.004
   0.00692752  0.16798354  0.00000000       0.004
   0.03117386  0.11398883  0.00000000       0.004
   0.00000000  0.16798354  0.00000000       0.002
   0.00000000  0.07199294  0.00000000       0.002
  -0.06234772  0.03599647  0.00000000       0.004
   0.00346376  0.07799236  0.00000000       0.004
  -0.06581149  0.04199588  0.00000000       0.004
  -0.06927525 -0.03599647  0.00000000       0.004
   0.00692752  0.08399177  0.00000000       0.004
  -0.06927525  0.04799530  0.00000000       0.004
  -0.07620277 -0.03599647  0.00000000       0.004
   0.01039129  0.08999118  0.00000000       0.004
  -0.07273901  0.05399471  0.00000000       0.004
  -0.08313030 -0.03599647  0.00000000       0.004
   0.01385505  0.09599059  0.00000000       0.004
  -0.07620277  0.05999412  0.00000000       0.004
  -0.09005782 -0.03599647  0.00000000       0.004
   0.01731881  0.10199000  0.00000000       0.004
   0.03463762 -0.13198707  0.00000000       0.004
   0.01731881  0.16198413  0.00000000       0.004
   0.02078257  0.10798942  0.00000000       0.004
   0.03117386 -0.12598765  0.00000000       0.004
   0.01039129  0.16198413  0.00000000       0.004
   0.02424634  0.11398883  0.00000000       0.004
   0.02771010 -0.11998824  0.00000000       0.004
   0.00346376  0.16198413  0.00000000       0.004
   0.00000000  0.08399177  0.00000000       0.002
  -0.07273901  0.04199588  0.00000000       0.004
   0.00346376  0.08999118  0.00000000       0.004
  -0.07620277  0.04799530  0.00000000       0.004
  -0.07966654 -0.04199588  0.00000000       0.004
   0.00692752  0.09599059  0.00000000       0.004
  -0.07966654  0.05399471  0.00000000       0.004
  -0.08659406 -0.04199588  0.00000000       0.004
   0.01039129  0.10199000  0.00000000       0.004
   0.03117386 -0.13798648  0.00000000       0.004
   0.02078257  0.15598471  0.00000000       0.004
   0.01385505  0.10798942  0.00000000       0.004
   0.02771010 -0.13198707  0.00000000       0.004
   0.01385505  0.15598471  0.00000000       0.004
   0.01731881  0.11398883  0.00000000       0.004
   0.02424634 -0.12598765  0.00000000       0.004
   0.00692752  0.15598471  0.00000000       0.004
   0.02078257  0.11998824  0.00000000       0.004
   0.00000000  0.15598471  0.00000000       0.002
   0.00000000  0.09599059  0.00000000       0.002
  -0.08313030  0.04799530  0.00000000       0.004
   0.00346376  0.10199000  0.00000000       0.004
   0.02771010 -0.14398589  0.00000000       0.004
   0.02424634  0.14998530  0.00000000       0.004
   0.00692752  0.10798942  0.00000000       0.004
   0.02424634 -0.13798648  0.00000000       0.004
   0.01731881  0.14998530  0.00000000       0.004
   0.01039129  0.11398883  0.00000000       0.004
   0.02078257 -0.13198707  0.00000000       0.004
   0.01039129  0.14998530  0.00000000       0.004
   0.01385505  0.11998824  0.00000000       0.004
   0.01731881 -0.12598765  0.00000000       0.004
   0.00346376  0.14998530  0.00000000       0.004
  -0.00000000  0.10798942  0.00000000       0.002
   0.02078257 -0.14398589  0.00000000       0.004
   0.00346376  0.11398883  0.00000000       0.004
   0.01731881 -0.13798648  0.00000000       0.004
   0.01385505  0.14398589  0.00000000       0.004
   0.00692752  0.11998824  0.00000000       0.004
   0.01385505 -0.13198707  0.00000000       0.004
   0.00692752  0.14398589  0.00000000       0.004
   0.01039129  0.12598765  0.00000000       0.004
  -0.00000000  0.14398589  0.00000000       0.002
  -0.00000000  0.11998824  0.00000000       0.002
   0.01039129 -0.13798648  0.00000000       0.004
   0.00346376  0.12598765  0.00000000       0.004
   0.00692752 -0.13198707  0.00000000       0.004
   0.00346376  0.13798648  0.00000000       0.004
   0.00000000  0.13198707  0.00000000       0.002
 
 k-points in reciprocal lattice and weights: k-points                                
   0.00000000  0.00000000  0.00000000       0.001
   0.03030303  0.00000000  0.00000000       0.004
  -0.03030303  0.03030303  0.00000000       0.002
   0.06060606  0.00000000  0.00000000       0.004
  -0.06060606  0.06060606  0.00000000       0.002
   0.09090909  0.00000000  0.00000000       0.004
  -0.09090909  0.09090909  0.00000000       0.002
   0.12121212  0.00000000  0.00000000       0.004
  -0.12121212  0.12121212  0.00000000       0.002
   0.15151515  0.00000000  0.00000000       0.004
  -0.15151515  0.15151515  0.00000000       0.002
   0.18181818  0.00000000  0.00000000       0.004
  -0.18181818  0.18181818  0.00000000       0.002
   0.21212121  0.00000000  0.00000000       0.004
  -0.21212121  0.21212121  0.00000000       0.002
   0.24242424  0.00000000  0.00000000       0.004
  -0.24242424  0.24242424  0.00000000       0.002
   0.27272727  0.00000000  0.00000000       0.004
  -0.27272727  0.27272727  0.00000000       0.002
   0.30303030  0.00000000  0.00000000       0.004
  -0.30303030  0.30303030  0.00000000       0.002
   0.33333333  0.00000000  0.00000000       0.004
  -0.33333333  0.33333333  0.00000000       0.002
   0.36363636  0.00000000  0.00000000       0.004
  -0.36363636  0.36363636  0.00000000       0.002
   0.39393939  0.00000000  0.00000000       0.004
  -0.39393939  0.39393939  0.00000000       0.002
   0.42424242  0.00000000  0.00000000       0.004
  -0.42424242  0.42424242  0.00000000       0.002
   0.45454545  0.00000000  0.00000000       0.004
  -0.45454545  0.45454545  0.00000000       0.002
   0.48484848  0.00000000  0.00000000       0.004
  -0.48484848  0.48484848  0.00000000       0.002
   0.03030303  0.03030303  0.00000000       0.002
  -0.03030303  0.06060606  0.00000000       0.004
   0.06060606  0.03030303  0.00000000       0.004
  -0.03030303  0.09090909  0.00000000       0.004
  -0.09090909  0.06060606  0.00000000       0.004
   0.09090909  0.03030303  0.00000000       0.004
  -0.03030303  0.12121212  0.00000000       0.004
  -0.12121212  0.09090909  0.00000000       0.004
   0.12121212  0.03030303  0.00000000       0.004
  -0.03030303  0.15151515  0.00000000       0.004
  -0.15151515  0.12121212  0.00000000       0.004
   0.15151515  0.03030303  0.00000000       0.004
  -0.03030303  0.18181818  0.00000000       0.004
  -0.18181818  0.15151515  0.00000000       0.004
   0.18181818  0.03030303  0.00000000       0.004
  -0.03030303  0.21212121  0.00000000       0.004
  -0.21212121  0.18181818  0.00000000       0.004
   0.21212121  0.03030303  0.00000000       0.004
  -0.03030303  0.24242424  0.00000000       0.004
  -0.24242424  0.21212121  0.00000000       0.004
   0.24242424  0.03030303  0.00000000       0.004
  -0.03030303  0.27272727  0.00000000       0.004
  -0.27272727  0.24242424  0.00000000       0.004
   0.27272727  0.03030303  0.00000000       0.004
  -0.03030303  0.30303030  0.00000000       0.004
  -0.30303030  0.27272727  0.00000000       0.004
   0.30303030  0.03030303  0.00000000       0.004
  -0.03030303  0.33333333  0.00000000       0.004
  -0.33333333  0.30303030  0.00000000       0.004
   0.33333333  0.03030303  0.00000000       0.004
  -0.03030303  0.36363636  0.00000000       0.004
  -0.36363636  0.33333333  0.00000000       0.004
   0.36363636  0.03030303  0.00000000       0.004
  -0.03030303  0.39393939  0.00000000       0.004
  -0.39393939  0.36363636  0.00000000       0.004
   0.39393939  0.03030303  0.00000000       0.004
  -0.03030303  0.42424242  0.00000000       0.004
  -0.42424242  0.39393939  0.00000000       0.004
   0.42424242  0.03030303  0.00000000       0.004
  -0.03030303  0.45454545  0.00000000       0.004
  -0.45454545  0.42424242  0.00000000       0.004
   0.45454545  0.03030303  0.00000000       0.004
  -0.03030303  0.48484848  0.00000000       0.004
  -0.48484848  0.45454545  0.00000000       0.004
   0.48484848  0.03030303  0.00000000       0.004
   0.48484848  0.48484848  0.00000000       0.002
   0.06060606  0.06060606  0.00000000       0.002
  -0.06060606  0.12121212  0.00000000       0.004
   0.09090909  0.06060606  0.00000000       0.004
  -0.06060606  0.15151515  0.00000000       0.004
  -0.15151515  0.09090909  0.00000000       0.004
   0.12121212  0.06060606  0.00000000       0.004
  -0.06060606  0.18181818  0.00000000       0.004
  -0.18181818  0.12121212  0.00000000       0.004
   0.15151515  0.06060606  0.00000000       0.004
  -0.06060606  0.21212121  0.00000000       0.004
  -0.21212121  0.15151515  0.00000000       0.004
   0.18181818  0.06060606  0.00000000       0.004
  -0.06060606  0.24242424  0.00000000       0.004
  -0.24242424  0.18181818  0.00000000       0.004
   0.21212121  0.06060606  0.00000000       0.004
  -0.06060606  0.27272727  0.00000000       0.004
  -0.27272727  0.21212121  0.00000000       0.004
   0.24242424  0.06060606  0.00000000       0.004
  -0.06060606  0.30303030  0.00000000       0.004
  -0.30303030  0.24242424  0.00000000       0.004
   0.27272727  0.06060606  0.00000000       0.004
  -0.06060606  0.33333333  0.00000000       0.004
  -0.33333333  0.27272727  0.00000000       0.004
   0.30303030  0.06060606  0.00000000       0.004
  -0.06060606  0.36363636  0.00000000       0.004
  -0.36363636  0.30303030  0.00000000       0.004
   0.33333333  0.06060606  0.00000000       0.004
  -0.06060606  0.39393939  0.00000000       0.004
  -0.39393939  0.33333333  0.00000000       0.004
   0.36363636  0.06060606  0.00000000       0.004
  -0.06060606  0.42424242  0.00000000       0.004
  -0.42424242  0.36363636  0.00000000       0.004
   0.39393939  0.06060606  0.00000000       0.004
  -0.06060606  0.45454545  0.00000000       0.004
  -0.45454545  0.39393939  0.00000000       0.004
   0.42424242  0.06060606  0.00000000       0.004
  -0.06060606  0.48484848  0.00000000       0.004
  -0.48484848  0.42424242  0.00000000       0.004
   0.45454545  0.06060606  0.00000000       0.004
  -0.06060606 -0.48484848  0.00000000       0.004
   0.48484848  0.45454545  0.00000000       0.004
   0.09090909  0.09090909  0.00000000       0.002
  -0.09090909  0.18181818  0.00000000       0.004
   0.12121212  0.09090909  0.00000000       0.004
  -0.09090909  0.21212121  0.00000000       0.004
  -0.21212121  0.12121212  0.00000000       0.004
   0.15151515  0.09090909  0.00000000       0.004
  -0.09090909  0.24242424  0.00000000       0.004
  -0.24242424  0.15151515  0.00000000       0.004
   0.18181818  0.09090909  0.00000000       0.004
  -0.09090909  0.27272727  0.00000000       0.004
  -0.27272727  0.18181818  0.00000000       0.004
   0.21212121  0.09090909  0.00000000       0.004
  -0.09090909  0.30303030  0.00000000       0.004
  -0.30303030  0.21212121  0.00000000       0.004
   0.24242424  0.09090909  0.00000000       0.004
  -0.09090909  0.33333333  0.00000000       0.004
  -0.33333333  0.24242424  0.00000000       0.004
   0.27272727  0.09090909  0.00000000       0.004
  -0.09090909  0.36363636  0.00000000       0.004
  -0.36363636  0.27272727  0.00000000       0.004
   0.30303030  0.09090909  0.00000000       0.004
  -0.09090909  0.39393939  0.00000000       0.004
  -0.39393939  0.30303030  0.00000000       0.004
   0.33333333  0.09090909  0.00000000       0.004
  -0.09090909  0.42424242  0.00000000       0.004
  -0.42424242  0.33333333  0.00000000       0.004
   0.36363636  0.09090909  0.00000000       0.004
  -0.09090909  0.45454545  0.00000000       0.004
  -0.45454545  0.36363636  0.00000000       0.004
   0.39393939  0.09090909  0.00000000       0.004
  -0.09090909  0.48484848  0.00000000       0.004
  -0.48484848  0.39393939  0.00000000       0.004
   0.42424242  0.09090909  0.00000000       0.004
  -0.09090909 -0.48484848  0.00000000       0.004
   0.48484848  0.42424242  0.00000000       0.004
   0.45454545  0.09090909  0.00000000       0.004
   0.45454545  0.45454545  0.00000000       0.002
   0.12121212  0.12121212  0.00000000       0.002
  -0.12121212  0.24242424  0.00000000       0.004
   0.15151515  0.12121212  0.00000000       0.004
  -0.12121212  0.27272727  0.00000000       0.004
  -0.27272727  0.15151515  0.00000000       0.004
   0.18181818  0.12121212  0.00000000       0.004
  -0.12121212  0.30303030  0.00000000       0.004
  -0.30303030  0.18181818  0.00000000       0.004
   0.21212121  0.12121212  0.00000000       0.004
  -0.12121212  0.33333333  0.00000000       0.004
  -0.33333333  0.21212121  0.00000000       0.004
   0.24242424  0.12121212  0.00000000       0.004
  -0.12121212  0.36363636  0.00000000       0.004
  -0.36363636  0.24242424  0.00000000       0.004
   0.27272727  0.12121212  0.00000000       0.004
  -0.12121212  0.39393939  0.00000000       0.004
  -0.39393939  0.27272727  0.00000000       0.004
   0.30303030  0.12121212  0.00000000       0.004
  -0.12121212  0.42424242  0.00000000       0.004
  -0.42424242  0.30303030  0.00000000       0.004
   0.33333333  0.12121212  0.00000000       0.004
  -0.12121212  0.45454545  0.00000000       0.004
  -0.45454545  0.33333333  0.00000000       0.004
   0.36363636  0.12121212  0.00000000       0.004
  -0.12121212  0.48484848  0.00000000       0.004
  -0.48484848  0.36363636  0.00000000       0.004
   0.39393939  0.12121212  0.00000000       0.004
  -0.12121212 -0.48484848  0.00000000       0.004
   0.48484848  0.39393939  0.00000000       0.004
   0.42424242  0.12121212  0.00000000       0.004
  -0.12121212 -0.45454545  0.00000000       0.004
   0.45454545  0.42424242  0.00000000       0.004
   0.15151515  0.15151515  0.00000000       0.002
  -0.15151515  0.30303030  0.00000000       0.004
   0.18181818  0.15151515  0.00000000       0.004
  -0.15151515  0.33333333  0.00000000       0.004
  -0.33333333  0.18181818  0.00000000       0.004
   0.21212121  0.15151515  0.00000000       0.004
  -0.15151515  0.36363636  0.00000000       0.004
  -0.36363636  0.21212121  0.00000000       0.004
   0.24242424  0.15151515  0.00000000       0.004
  -0.15151515  0.39393939  0.00000000       0.004
  -0.39393939  0.24242424  0.00000000       0.004
   0.27272727  0.15151515  0.00000000       0.004
  -0.15151515  0.42424242  0.00000000       0.004
  -0.42424242  0.27272727  0.00000000       0.004
   0.30303030  0.15151515  0.00000000       0.004
  -0.15151515  0.45454545  0.00000000       0.004
  -0.45454545  0.30303030  0.00000000       0.004
   0.33333333  0.15151515  0.00000000       0.004
  -0.15151515  0.48484848  0.00000000       0.004
  -0.48484848  0.33333333  0.00000000       0.004
   0.36363636  0.15151515  0.00000000       0.004
  -0.15151515 -0.48484848  0.00000000       0.004
   0.48484848  0.36363636  0.00000000       0.004
   0.39393939  0.15151515  0.00000000       0.004
  -0.15151515 -0.45454545  0.00000000       0.004
   0.45454545  0.39393939  0.00000000       0.004
   0.42424242  0.15151515  0.00000000       0.004
   0.42424242  0.42424242  0.00000000       0.002
   0.18181818  0.18181818  0.00000000       0.002
  -0.18181818  0.36363636  0.00000000       0.004
   0.21212121  0.18181818  0.00000000       0.004
  -0.18181818  0.39393939  0.00000000       0.004
  -0.39393939  0.21212121  0.00000000       0.004
   0.24242424  0.18181818  0.00000000       0.004
  -0.18181818  0.42424242  0.00000000       0.004
  -0.42424242  0.24242424  0.00000000       0.004
   0.27272727  0.18181818  0.00000000       0.004
  -0.18181818  0.45454545  0.00000000       0.004
  -0.45454545  0.27272727  0.00000000       0.004
   0.30303030  0.18181818  0.00000000       0.004
  -0.18181818  0.48484848  0.00000000       0.004
  -0.48484848  0.30303030  0.00000000       0.004
   0.33333333  0.18181818  0.00000000       0.004
  -0.18181818 -0.48484848  0.00000000       0.004
   0.48484848  0.33333333  0.00000000       0.004
   0.36363636  0.18181818  0.00000000       0.004
  -0.18181818 -0.45454545  0.00000000       0.004
   0.45454545  0.36363636  0.00000000       0.004
   0.39393939  0.18181818  0.00000000       0.004
  -0.18181818 -0.42424242  0.00000000       0.004
   0.42424242  0.39393939  0.00000000       0.004
   0.21212121  0.21212121  0.00000000       0.002
  -0.21212121  0.42424242  0.00000000       0.004
   0.24242424  0.21212121  0.00000000       0.004
  -0.21212121  0.45454545  0.00000000       0.004
  -0.45454545  0.24242424  0.00000000       0.004
   0.27272727  0.21212121  0.00000000       0.004
  -0.21212121  0.48484848  0.00000000       0.004
  -0.48484848  0.27272727  0.00000000       0.004
   0.30303030  0.21212121  0.00000000       0.004
  -0.21212121 -0.48484848  0.00000000       0.004
   0.48484848  0.30303030  0.00000000       0.004
   0.33333333  0.21212121  0.00000000       0.004
  -0.21212121 -0.45454545  0.00000000       0.004
   0.45454545  0.33333333  0.00000000       0.004
   0.36363636  0.21212121  0.00000000       0.004
  -0.21212121 -0.42424242  0.00000000       0.004
   0.42424242  0.36363636  0.00000000       0.004
   0.39393939  0.21212121  0.00000000       0.004
   0.39393939  0.39393939  0.00000000       0.002
   0.24242424  0.24242424  0.00000000       0.002
  -0.24242424  0.48484848  0.00000000       0.004
   0.27272727  0.24242424  0.00000000       0.004
  -0.24242424 -0.48484848  0.00000000       0.004
   0.48484848  0.27272727  0.00000000       0.004
   0.30303030  0.24242424  0.00000000       0.004
  -0.24242424 -0.45454545  0.00000000       0.004
   0.45454545  0.30303030  0.00000000       0.004
   0.33333333  0.24242424  0.00000000       0.004
  -0.24242424 -0.42424242  0.00000000       0.004
   0.42424242  0.33333333  0.00000000       0.004
   0.36363636  0.24242424  0.00000000       0.004
  -0.24242424 -0.39393939  0.00000000       0.004
   0.39393939  0.36363636  0.00000000       0.004
   0.27272727  0.27272727  0.00000000       0.002
  -0.27272727 -0.45454545  0.00000000       0.004
   0.30303030  0.27272727  0.00000000       0.004
  -0.27272727 -0.42424242  0.00000000       0.004
   0.42424242  0.30303030  0.00000000       0.004
   0.33333333  0.27272727  0.00000000       0.004
  -0.27272727 -0.39393939  0.00000000       0.004
   0.39393939  0.33333333  0.00000000       0.004
   0.36363636  0.27272727  0.00000000       0.004
   0.36363636  0.36363636  0.00000000       0.002
   0.30303030  0.30303030  0.00000000       0.002
  -0.30303030 -0.39393939  0.00000000       0.004
   0.33333333  0.30303030  0.00000000       0.004
  -0.30303030 -0.36363636  0.00000000       0.004
   0.36363636  0.33333333  0.00000000       0.004
   0.33333333  0.33333333  0.00000000       0.002
 
 position of ions in fractional coordinates (direct lattice) 
   0.66893173  0.00000000  0.10000000
   0.33106727  0.00000000  0.10000000
   0.00000000  0.33106727  0.10000000
   0.00000000  0.66893173  0.10000000
   0.33106727  0.33106727  0.10000000
   0.66893173  0.66893173  0.10000000
   0.66666600  0.33333300  0.09995611
   0.33333300  0.66666600  0.10004389
 
 position of ions in cartesian coordinates  (Angst):
   2.92610407  1.68938709  1.50000000
   1.44818556  0.83611038  1.50000000
  -1.44818556  0.83611038  1.50000000
  -2.92610407  1.68938709  1.50000000
   0.00000000  1.67222076  1.50000000
  -0.00000000  3.37877418  1.50000000
   1.45809654  2.52549747  1.49934166
  -1.45809654  2.52549747  1.50065834
 


--------------------------------------------------------------------------------------------------------


 k-point   1 :   0.0000 0.0000 0.0000  plane waves:    7149
 k-point   2 :   0.0303 0.0000 0.0000  plane waves:    7167
 k-point   3 :  -0.0303 0.0303 0.0000  plane waves:    7167
 k-point   4 :   0.0606 0.0000 0.0000  plane waves:    7179
 k-point   5 :  -0.0606 0.0606 0.0000  plane waves:    7179
 k-point   6 :   0.0909 0.0000 0.0000  plane waves:    7191
 k-point   7 :  -0.0909 0.0909 0.0000  plane waves:    7191
 k-point   8 :   0.1212 0.0000 0.0000  plane waves:    7181
 k-point   9 :  -0.1212 0.1212 0.0000  plane waves:    7181
 k-point  10 :   0.1515 0.0000 0.0000  plane waves:    7197
 k-point  11 :  -0.1515 0.1515 0.0000  plane waves:    7197
 k-point  12 :   0.1818 0.0000 0.0000  plane waves:    7195
 k-point  13 :  -0.1818 0.1818 0.0000  plane waves:    7195
 k-point  14 :   0.2121 0.0000 0.0000  plane waves:    7205
 k-point  15 :  -0.2121 0.2121 0.0000  plane waves:    7205
 k-point  16 :   0.2424 0.0000 0.0000  plane waves:    7193
 k-point  17 :  -0.2424 0.2424 0.0000  plane waves:    7193
 k-point  18 :   0.2727 0.0000 0.0000  plane waves:    7189
 k-point  19 :  -0.2727 0.2727 0.0000  plane waves:    7189
 k-point  20 :   0.3030 0.0000 0.0000  plane waves:    7191
 k-point  21 :  -0.3030 0.3030 0.0000  plane waves:    7191
 k-point  22 :   0.3333 0.0000 0.0000  plane waves:    7191
 k-point  23 :  -0.3333 0.3333 0.0000  plane waves:    7191
 k-point  24 :   0.3636 0.0000 0.0000  plane waves:    7189
 k-point  25 :  -0.3636 0.3636 0.0000  plane waves:    7189
 k-point  26 :   0.3939 0.0000 0.0000  plane waves:    7185
 k-point  27 :  -0.3939 0.3939 0.0000  plane waves:    7185
 k-point  28 :   0.4242 0.0000 0.0000  plane waves:    7199
 k-point  29 :  -0.4242 0.4242 0.0000  plane waves:    7199
 k-point  30 :   0.4545 0.0000 0.0000  plane waves:    7206
 k-point  31 :  -0.4545 0.4545 0.0000  plane waves:    7206
 k-point  32 :   0.4848 0.0000 0.0000  plane waves:    7204
 k-point  33 :  -0.4848 0.4848 0.0000  plane waves:    7204
 k-point  34 :   0.0303 0.0303 0.0000  plane waves:    7181
 k-point  35 :  -0.0303 0.0606 0.0000  plane waves:    7181
 k-point  36 :   0.0606 0.0303 0.0000  plane waves:    7184
 k-point  37 :  -0.0303 0.0909 0.0000  plane waves:    7184
 k-point  38 :  -0.0909 0.0606 0.0000  plane waves:    7184
 k-point  39 :   0.0909 0.0303 0.0000  plane waves:    7175
 k-point  40 :  -0.0303 0.1212 0.0000  plane waves:    7175
 k-point  41 :  -0.1212 0.0909 0.0000  plane waves:    7175
 k-point  42 :   0.1212 0.0303 0.0000  plane waves:    7191
 k-point  43 :  -0.0303 0.1515 0.0000  plane waves:    7191
 k-point  44 :  -0.1515 0.1212 0.0000  plane waves:    7191
 k-point  45 :   0.1515 0.0303 0.0000  plane waves:    7193
 k-point  46 :  -0.0303 0.1818 0.0000  plane waves:    7193
 k-point  47 :  -0.1818 0.1515 0.0000  plane waves:    7193
 k-point  48 :   0.1818 0.0303 0.0000  plane waves:    7203
 k-point  49 :  -0.0303 0.2121 0.0000  plane waves:    7203
 k-point  50 :  -0.2121 0.1818 0.0000  plane waves:    7203
 k-point  51 :   0.2121 0.0303 0.0000  plane waves:    7197
 k-point  52 :  -0.0303 0.2424 0.0000  plane waves:    7197
 k-point  53 :  -0.2424 0.2121 0.0000  plane waves:    7197
 k-point  54 :   0.2424 0.0303 0.0000  plane waves:    7191
 k-point  55 :  -0.0303 0.2727 0.0000  plane waves:    7191
 k-point  56 :  -0.2727 0.2424 0.0000  plane waves:    7191
 k-point  57 :   0.2727 0.0303 0.0000  plane waves:    7198
 k-point  58 :  -0.0303 0.3030 0.0000  plane waves:    7198
 k-point  59 :  -0.3030 0.2727 0.0000  plane waves:    7198
 k-point  60 :   0.3030 0.0303 0.0000  plane waves:    7191
 k-point  61 :  -0.0303 0.3333 0.0000  plane waves:    7191
 k-point  62 :  -0.3333 0.3030 0.0000  plane waves:    7191
 k-point  63 :   0.3333 0.0303 0.0000  plane waves:    7177
 k-point  64 :  -0.0303 0.3636 0.0000  plane waves:    7177
 k-point  65 :  -0.3636 0.3333 0.0000  plane waves:    7177
 k-point  66 :   0.3636 0.0303 0.0000  plane waves:    7177
 k-point  67 :  -0.0303 0.3939 0.0000  plane waves:    7177
 k-point  68 :  -0.3939 0.3636 0.0000  plane waves:    7177
 k-point  69 :   0.3939 0.0303 0.0000  plane waves:    7191
 k-point  70 :  -0.0303 0.4242 0.0000  plane waves:    7191
 k-point  71 :  -0.4242 0.3939 0.0000  plane waves:    7191
 k-point  72 :   0.4242 0.0303 0.0000  plane waves:    7192
 k-point  73 :  -0.0303 0.4545 0.0000  plane waves:    7192
 k-point  74 :  -0.4545 0.4242 0.0000  plane waves:    7192
 k-point  75 :   0.4545 0.0303 0.0000  plane waves:    7204
 k-point  76 :  -0.0303 0.4848 0.0000  plane waves:    7204
 k-point  77 :  -0.4848 0.4545 0.0000  plane waves:    7204
 k-point  78 :   0.4848 0.0303 0.0000  plane waves:    7206
 k-point  79 :   0.4848 0.4848 0.0000  plane waves:    7206
 k-point  80 :   0.0606 0.0606 0.0000  plane waves:    7185
 k-point  81 :  -0.0606 0.1212 0.0000  plane waves:    7185
[...]
     45      11.3170      0.00000
     46      11.3306      0.00000
     47      11.4246      0.00000
     48      11.6522      0.00000

 k-point   284 :       0.3030    0.3030    0.0000
  band No.  band energies     occupation 
      1     -16.8031      2.00000
      2     -16.4820      2.00000
      3     -14.6121      2.00000
      4     -11.3143      2.00000
      5     -11.0245      2.00000
      6      -9.5986      2.00000
      7      -9.5964      2.00000
      8      -7.0102      2.00000
      9      -6.5137      2.00000
     10      -6.2070      2.00000
     11      -6.1147      2.00000
     12      -4.7527      2.00000
     13       0.3543      0.00000
     14       0.9673      0.00000
     15       1.1195      0.00000
     16       1.4319      0.00000
     17       2.1155      0.00000
     18       2.4769      0.00000
     19       2.8062      0.00000
     20       3.3626      0.00000
     21       3.6914      0.00000
     22       3.9373      0.00000
     23       4.5170      0.00000
     24       4.6035      0.00000
     25       4.6884      0.00000
     26       4.9670      0.00000
     27       5.0030      0.00000
     28       5.1879      0.00000
     29       5.2473      0.00000
     30       5.3257      0.00000
     31       6.4631      0.00000
     32       6.9805      0.00000
     33       7.1492      0.00000
     34       7.1689      0.00000
     35       7.2289      0.00000
     36       7.5076      0.00000
     37       7.7450      0.00000
     38       7.8201      0.00000
     39       9.3323      0.00000
     40       9.7516      0.00000
     41      10.1264      0.00000
     42      10.2045      0.00000
     43      10.7334      0.00000
     44      11.1351      0.00000
     45      11.1935      0.00000
     46      11.4427      0.00000
     47      11.6717      0.00000
     48      11.7197      0.00000

 k-point   285 :      -0.3030   -0.3939    0.0000
  band No.  band energies     occupation 
      1     -16.8031      2.00000
      2     -16.4820      2.00000
      3     -14.6121      2.00000
      4     -11.3143      2.00000
      5     -11.0245      2.00000
      6      -9.5986      2.00000
      7      -9.5964      2.00000
      8      -7.0102      2.00000
      9      -6.5137      2.00000
     10      -6.2070      2.00000
     11      -6.1147      2.00000
     12      -4.7527      2.00000
     13       0.3543      0.00000
     14       0.9673      0.00000
     15       1.1195      0.00000
     16       1.4319      0.00000
     17       2.1155      0.00000
     18       2.4769      0.00000
     19       2.8062      0.00000
     20       3.3626      0.00000
     21       3.6914      0.00000
     22       3.9373      0.00000
     23       4.5171      0.00000
     24       4.6035      0.00000
     25       4.6884      0.00000
     26       4.9670      0.00000
     27       5.0030      0.00000
     28       5.1874      0.00000
     29       5.2478      0.00000
     30       5.3257      0.00000
     31       6.4631      0.00000
     32       6.9805      0.00000
     33       7.1488      0.00000
     34       7.1693      0.00000
     35       7.2289      0.00000
     36       7.5076      0.00000
     37       7.7449      0.00000
     38       7.8202      0.00000
     39       9.3323      0.00000
     40       9.7516      0.00000
     41      10.1264      0.00000
     42      10.2045      0.00000
     43      10.7334      0.00000
     44      11.1351      0.00000
     45      11.1936      0.00000
     46      11.4427      0.00000
     47      11.6717      0.00000
     48      11.7197      0.00000

 k-point   286 :       0.3333    0.3030    0.0000
  band No.  band energies     occupation 
      1     -16.7299      2.00000
      2     -16.5579      2.00000
      3     -14.6304      2.00000
      4     -11.2465      2.00000
      5     -11.0165      2.00000
      6      -9.6816      2.00000
      7      -9.5766      2.00000
      8      -6.8914      2.00000
      9      -6.6314      2.00000
     10      -6.2003      2.00000
     11      -6.1074      2.00000
     12      -4.7907      2.00000
     13       0.4905      0.00000
     14       0.9663      0.00000
     15       1.1757      0.00000
     16       1.3305      0.00000
     17       2.0786      0.00000
     18       2.3258      0.00000
     19       2.9825      0.00000
     20       3.2217      0.00000
     21       3.6211      0.00000
     22       4.1532      0.00000
     23       4.3950      0.00000
     24       4.6420      0.00000
     25       4.7295      0.00000
     26       4.9642      0.00000
     27       5.1431      0.00000
     28       5.1675      0.00000
     29       5.2067      0.00000
     30       5.2805      0.00000
     31       6.6801      0.00000
     32       6.9137      0.00000
     33       7.1030      0.00000
     34       7.1469      0.00000
     35       7.1646      0.00000
     36       7.4698      0.00000
     37       7.6512      0.00000
     38       7.7564      0.00000
     39       9.3984      0.00000
     40       9.7014      0.00000
     41      10.1313      0.00000
     42      10.3261      0.00000
     43      10.7676      0.00000
     44      11.0216      0.00000
     45      11.3613      0.00000
     46      11.4693      0.00000
     47      11.5779      0.00000
     48      11.8358      0.00000

 k-point   287 :      -0.3030   -0.3636    0.0000
  band No.  band energies     occupation 
      1     -16.7299      2.00000
      2     -16.5579      2.00000
      3     -14.6304      2.00000
      4     -11.2465      2.00000
      5     -11.0165      2.00000
      6      -9.6816      2.00000
      7      -9.5766      2.00000
      8      -6.8914      2.00000
      9      -6.6314      2.00000
     10      -6.2003      2.00000
     11      -6.1074      2.00000
     12      -4.7907      2.00000
     13       0.4905      0.00000
     14       0.9663      0.00000
     15       1.1757      0.00000
     16       1.3305      0.00000
     17       2.0786      0.00000
     18       2.3258      0.00000
     19       2.9825      0.00000
     20       3.2217      0.00000
     21       3.6211      0.00000
     22       4.1532      0.00000
     23       4.3950      0.00000
     24       4.6420      0.00000
     25       4.7296      0.00000
     26       4.9641      0.00000
     27       5.1431      0.00000
     28       5.1675      0.00000
     29       5.2068      0.00000
     30       5.2805      0.00000
     31       6.6801      0.00000
     32       6.9136      0.00000
     33       7.1030      0.00000
     34       7.1469      0.00000
     35       7.1646      0.00000
     36       7.4698      0.00000
     37       7.6511      0.00000
     38       7.7564      0.00000
     39       9.3984      0.00000
     40       9.7014      0.00000
     41      10.1313      0.00000
     42      10.3261      0.00000
     43      10.7676      0.00000
     44      11.0215      0.00000
     45      11.3613      0.00000
     46      11.4693      0.00000
     47      11.5779      0.00000
     48      11.8343      0.00000

 k-point   288 :       0.3636    0.3333    0.0000
  band No.  band energies     occupation 
      1     -16.7299      2.00000
      2     -16.5579      2.00000
      3     -14.6304      2.00000
      4     -11.2465      2.00000
      5     -11.0165      2.00000
      6      -9.6816      2.00000
      7      -9.5766      2.00000
      8      -6.8914      2.00000
      9      -6.6314      2.00000
     10      -6.2003      2.00000
     11      -6.1074      2.00000
     12      -4.7907      2.00000
     13       0.4905      0.00000
     14       0.9663      0.00000
     15       1.1757      0.00000
     16       1.3305      0.00000
     17       2.0786      0.00000
     18       2.3258      0.00000
     19       2.9825      0.00000
     20       3.2217      0.00000
     21       3.6211      0.00000
     22       4.1532      0.00000
     23       4.3950      0.00000
     24       4.6420      0.00000
     25       4.7296      0.00000
     26       4.9640      0.00000
     27       5.1431      0.00000
     28       5.1675      0.00000
     29       5.2068      0.00000
     30       5.2805      0.00000
     31       6.6801      0.00000
     32       6.9136      0.00000
     33       7.1030      0.00000
     34       7.1469      0.00000
     35       7.1646      0.00000
     36       7.4697      0.00000
     37       7.6511      0.00000
     38       7.7564      0.00000
     39       9.3984      0.00000
     40       9.7014      0.00000
     41      10.1313      0.00000
     42      10.3262      0.00000
     43      10.7675      0.00000
     44      11.0216      0.00000
     45      11.3613      0.00000
     46      11.4693      0.00000
     47      11.5778      0.00000
     48      11.8303      0.00000

 k-point   289 :       0.3333    0.3333    0.0000
  band No.  band energies     occupation 
      1     -16.6441      2.00000
      2     -16.6441      2.00000
      3     -14.6405      2.00000
      4     -11.1143      2.00000
      5     -11.1143      2.00000
      6      -9.7212      2.00000
      7      -9.5669      2.00000
      8      -6.7597      2.00000
      9      -6.7597      2.00000
     10      -6.1489      2.00000
     11      -6.1489      2.00000
     12      -4.8125      2.00000
     13       0.7544      0.00000
     14       0.7544      0.00000
     15       1.2415      0.00000
     16       1.2415      0.00000
     17       2.0593      0.00000
     18       2.2647      0.00000
     19       3.1324      0.00000
     20       3.1324      0.00000
     21       3.5426      0.00000
     22       4.3492      0.00000
     23       4.3492      0.00000
     24       4.4718      0.00000
     25       4.9265      0.00000
     26       4.9272      0.00000
     27       5.0250      0.00000
     28       5.2357      0.00000
     29       5.2357      0.00000
     30       5.2653      0.00000
     31       6.8922      0.00000
     32       6.8925      0.00000
     33       6.9359      0.00000
     34       7.1772      0.00000
     35       7.1772      0.00000
     36       7.5634      0.00000
     37       7.5636      0.00000
     38       7.5894      0.00000
     39       9.5597      0.00000
     40       9.5598      0.00000
     41      10.1212      0.00000
     42      10.3818      0.00000
     43      10.8818      0.00000
     44      10.8819      0.00000
     45      11.5079      0.00000
     46      11.5080      0.00000
     47      11.5805      0.00000
     48      11.7731      0.00000


--------------------------------------------------------------------------------------------------------


 soft charge-density along one line, spin component           1
         0         1         2         3         4         5         6         7         8         9
 total charge-density along one line
 
 pseudopotential strength for first ion, spin component:           1
  6.792  10.368  -0.004  -0.000  -0.007  -0.007  -0.000  -0.012
 10.368  15.822  -0.006  -0.000  -0.011  -0.010  -0.000  -0.017
 -0.004  -0.006  -2.347   0.000   0.002  -4.036   0.000   0.005
 -0.000  -0.000   0.000  -2.341  -0.000   0.000  -4.023  -0.000
 -0.007  -0.011   0.002  -0.000  -2.344   0.005  -0.000  -4.030
 -0.007  -0.010  -4.036   0.000   0.005  -6.744   0.000   0.010
 -0.000  -0.000   0.000  -4.023  -0.000   0.000  -6.716  -0.000
 -0.012  -0.017   0.005  -0.000  -4.030   0.010  -0.000  -6.732
 total augmentation occupancy for first ion, spin component:           1
  2.000   0.000   0.000   0.000   0.000   0.000   0.000   0.000
  0.000   0.000   0.000   0.000   0.000   0.000   0.000   0.000
  0.000   0.000   0.333   0.000   0.000   0.000   0.000   0.000
  0.000   0.000   0.000   0.333   0.000   0.000   0.000   0.000
  0.000   0.000   0.000   0.000   0.333   0.000   0.000   0.000
  0.000   0.000   0.000   0.000   0.000   0.000   0.000   0.000
  0.000   0.000   0.000   0.000   0.000   0.000   0.000   0.000
  0.000   0.000   0.000   0.000   0.000   0.000   0.000   0.000


------------------------ aborting loop because EDIFF is reached ----------------------------------------





 total charge

# of ion       s       p       d       tot
------------------------------------------
    1        0.692   1.400   0.000   2.092
    2        0.692   1.400   0.000   2.092
    3        0.692   1.400   0.000   2.092
    4        0.692   1.400   0.000   2.092
    5        0.692   1.400   0.000   2.092
    6        0.692   1.400   0.000   2.092
    7        0.673   1.391   0.000   2.063
    8        0.673   1.391   0.000   2.063
--------------------------------------------------
tot          5.496  11.182   0.000  16.678
 
    CHARGE:  cpu time      0.4876: real time      0.4939
    FORLOC:  cpu time      0.0010: real time      0.0010
    FORNL :  cpu time      1.0212: real time      1.0247
    STRESS:  cpu time      7.3160: real time      7.3409
    FORCOR:  cpu time      0.0128: real time      0.0128
    FORHAR:  cpu time      0.0035: real time      0.0036
    OFIELD:  cpu time      0.0001: real time      0.0001

  FORCE on cell =-STRESS in cart. coord.  units (eV):
  Direction    XX          YY          ZZ          XY          YZ          ZX
  --------------------------------------------------------------------------------------
  Alpha Z    13.28498    13.28498    13.28498
  Ewald    2352.61982  2352.61965 -2948.37789    -0.00000     0.00000    -0.00000
  Hartree  2203.92179  2203.92170 -2190.04301     0.00000    -0.00000    -0.00000
  E(xc)     -76.71365   -76.71365   -79.23344    -0.00000    -0.00000    -0.00000
  Local   -4727.91464 -4727.91440  4910.63561     0.00000    -0.00000     0.00000
  n-local    -9.98657    -9.98656   -13.91597    -0.12516     0.00003     0.00000
  augment     0.24374     0.24374     0.30021     0.00000    -0.00000    -0.00000
  Kinetic   245.27022   245.27017   307.33778     0.07750    -0.00010     0.00000
  Fock        0.00000     0.00000     0.00000     0.00000     0.00000     0.00000
  -------------------------------------------------------------------------------------
  Total       0.72569     0.72563    -0.01173     0.00000     0.00000    -0.00000
  in kB       3.50821     3.50790    -0.05672     0.00000     0.00000    -0.00000
  external pressure =        2.32 kB  Pullay stress =        0.00 kB


 VOLUME and BASIS-vectors are now :
 -----------------------------------------------------------------------------
  energy-cutoff  :      450.00
  volume of cell :      331.42
      direct lattice vectors                 reciprocal lattice vectors
     4.374294000  2.525500000  0.000000000     0.114304160  0.197980598  0.000000000
    -4.374294000  2.525500000  0.000000000    -0.114304160  0.197980598  0.000000000
     0.000000000  0.000000000 15.000000000     0.000000000  0.000000000  0.066666667

  length of vectors
     5.050999728  5.050999728 15.000000000     0.228608307  0.228608307  0.066666667


 FORCES acting on ions
    electron-ion (+dipol)            ewald-force                    non-local-force                 convergence-correction
 -----------------------------------------------------------------------------------------------
   -.256E+02 -.148E+02 0.186E-06   0.283E+02 0.163E+02 0.764E-07   -.278E+01 -.161E+01 -.499E-09   0.912E-03 0.527E-03 0.141E-08
   0.256E+02 0.148E+02 0.160E-06   -.283E+02 -.163E+02 0.145E-06   0.278E+01 0.161E+01 0.499E-09   -.913E-03 -.527E-03 -.284E-09
   -.256E+02 0.148E+02 0.275E-05   0.283E+02 -.163E+02 -.145E-06   -.278E+01 0.161E+01 -.499E-09   0.912E-03 -.527E-03 0.656E-09
   0.256E+02 -.148E+02 0.265E-05   -.283E+02 0.163E+02 -.765E-07   0.278E+01 -.161E+01 0.499E-09   -.913E-03 0.527E-03 -.103E-08
   -.157E-04 0.295E+02 0.137E-05   0.142E-13 -.327E+02 -.627E-11   -.118E-15 0.321E+01 -.106E-20   0.255E-07 -.105E-02 -.154E-08
   -.157E-04 -.295E+02 0.132E-05   0.142E-13 0.327E+02 -.627E-11   -.843E-16 -.321E+01 0.169E-20   0.255E-07 0.105E-02 -.154E-08
   -.267E-03 0.863E-04 0.158E+00   0.211E-03 0.309E-03 -.163E+00   0.330E-04 0.295E-18 0.502E-02   0.687E-06 -.559E-08 0.506E-04
   0.132E-03 0.863E-04 -.158E+00   -.211E-03 0.309E-03 0.163E+00   -.330E-04 -.525E-18 -.502E-02   -.611E-06 -.560E-08 -.506E-04
 -----------------------------------------------------------------------------------------------
   -.672E-03 0.674E-03 0.109E-04   -.373E-14 0.320E-15 0.666E-15   -.646E-15 -.230E-18 0.000E+00   0.609E-07 -.211E-07 -.227E-07
 
 
 POSITION                                       TOTAL-FORCE (eV/Angst)
 -----------------------------------------------------------------------------------
      2.92610      1.68939      1.50000        -0.026225     -0.015135     -0.000000
      1.44819      0.83611      1.50000         0.026225      0.015135      0.000000
     -1.44819      0.83611      1.50000        -0.026225      0.015135     -0.000000
     -2.92610      1.68939      1.50000         0.026225     -0.015135      0.000000
      0.00000      1.67222      1.50000        -0.000000      0.030262     -0.000000
     -0.00000      3.37877      1.50000        -0.000000     -0.030262      0.000000
      1.45810      2.52550      1.49934         0.000045     -0.000000      0.000021
     -1.45810      2.52550      1.50066        -0.000045      0.000000     -0.000021
 -----------------------------------------------------------------------------------
    total drift:                               -0.000672      0.000674      0.000011


--------------------------------------------------------------------------------------------------------



  FREE ENERGIE OF THE ION-ELECTRON SYSTEM (eV)
  ---------------------------------------------------
  free  energy   TOTEN  =       -50.46833546 eV

  energy  without entropy=      -50.46320035  energy(sigma->0) =      -50.46576791
 


--------------------------------------------------------------------------------------------------------


    POTLOK:  cpu time      0.0175: real time      0.0176


--------------------------------------------------------------------------------------------------------


 stress matrix after NEB project (eV)
      0.72569      0.00000     -0.00000
      0.00000      0.72563      0.00000
     -0.00000      0.00000     -0.01173
  FORCES: max atom, RMS     0.030279    0.026218
  FORCE total and by dimension    0.074155    0.030262
  Stress total and by dimension    1.026303    0.725690
     LOOP+:  cpu time    100.7273: real time    101.4747
    4ORBIT:  cpu time      0.0000: real time      0.0000



 total charge

# of ion       s       p       d       tot
------------------------------------------
    1        0.692   1.400   0.000   2.092
    2        0.692   1.400   0.000   2.092
    3        0.692   1.400   0.000   2.092
    4        0.692   1.400   0.000   2.092
    5        0.692   1.400   0.000   2.092
    6        0.692   1.400   0.000   2.092
    7        0.673   1.391   0.000   2.063
    8        0.673   1.391   0.000   2.063
--------------------------------------------------
tot          5.496  11.182   0.000  16.678
 

 total amount of memory used by VASP MPI-rank0   207649. kBytes
=======================================================================

   base      :      30000. kBytes
   nonl-proj :     134986. kBytes
   fftplans  :       1560. kBytes
   grid      :       7121. kBytes
   one-center:         24. kBytes
   wavefun   :      33958. kBytes
 
  
  
 General timing and accounting informations for this job:
 ========================================================
  
                  Total CPU time used (sec):      113.148
                            User time (sec):      108.985
                          System time (sec):        4.163
                         Elapsed time (sec):      116.452
  
                   Maximum memory used (kb):      765176.
                   Average memory used (kb):          N/A
  
                          Minor page faults:       342884
                          Major page faults:         1889
                 Voluntary context switches:         7192
