  15  15   0  16
  0.2033749E+02  0.4846000E-09  0.4846000E-09  0.1500000E-08  0.5000000E-15
  1.000000000000000E-004
  CAR 
 Lattice                                 
     10.28977597    -21.65914992  301     -0.28084808      1.00000000
    -21.659  0.0000E+00  0.0000E+00
    -21.553  0.0000E+00  0.0000E+00
    -21.446  0.0000E+00  0.0000E+00
    -21.340  0.0000E+00  0.0000E+00
    -21.233  0.0000E+00  0.0000E+00
    -21.127  0.0000E+00  0.0000E+00
    -21.020  0.0000E+00  0.0000E+00
    -20.914  0.0000E+00  0.0000E+00
    -20.807  0.0000E+00  0.0000E+00
    -20.701  0.1579E-14  0.1682E-15
    -20.594  0.2586E-10  0.2754E-11
    -20.488  0.5148E-07  0.5485E-08
    -20.381  0.1370E-04  0.1464E-05
    -20.275  0.5439E-03  0.5938E-04
    -20.168  0.3944E-02  0.4794E-03
    -20.062  0.8292E-02  0.1362E-02
    -19.955  0.9030E-02  0.2324E-02
    -19.849  0.9870E-02  0.3375E-02
    -19.742  0.8302E-02  0.4259E-02
    -19.636  0.1074E-01  0.5403E-02
    -19.529  0.8486E-02  0.6306E-02
    -19.423  0.8421E-02  0.7203E-02
    -19.316  0.1202E-01  0.8483E-02
    -19.210  0.7743E-02  0.9308E-02
    -19.103  0.7616E-02  0.1012E-01
    -18.997  0.1218E-01  0.1142E-01
    -18.890  0.1053E-01  0.1254E-01
    -18.784  0.6040E-02  0.1318E-01
    -18.677  0.8423E-02  0.1408E-01
    -18.571  0.1386E-01  0.1555E-01
    -18.464  0.9315E-02  0.1654E-01
    -18.358  0.7647E-02  0.1736E-01
    -18.251  0.5854E-02  0.1798E-01
    -18.145  0.1285E-01  0.1935E-01
    -18.038  0.1350E-01  0.2079E-01
    -17.932  0.7360E-02  0.2157E-01
    -17.825  0.6394E-02  0.2225E-01
    -17.719  0.8128E-02  0.2312E-01
    -17.612  0.1205E-01  0.2440E-01
    -17.506  0.1406E-01  0.2590E-01
    -17.399  0.1378E-01  0.2737E-01
    -17.293  0.1660E-01  0.2914E-01
    -17.186  0.2097E-01  0.3137E-01
    -17.080  0.2970E-01  0.3453E-01
    -16.973  0.3311E-01  0.3806E-01
    -16.867  0.3855E-01  0.4216E-01
    -16.760  0.4198E-01  0.4663E-01
    -16.654  0.2369E-01  0.4916E-01
    -16.547  0.5863E-02  0.4978E-01
    -16.441  0.1303E-01  0.5117E-01
    -16.334  0.1702E-01  0.5298E-01
    -16.228  0.9410E-02  0.5398E-01
    -16.121  0.8427E-02  0.5488E-01
    -16.015  0.7623E-02  0.5569E-01
    -15.908  0.7881E-02  0.5653E-01
    -15.802  0.6782E-02  0.5726E-01
    -15.695  0.1519E-01  0.5887E-01
    -15.589  0.1698E-01  0.6068E-01
    -15.482  0.8394E-02  0.6158E-01
    -15.376  0.7744E-02  0.6240E-01
    -15.269  0.6689E-02  0.6311E-01
    -15.163  0.8905E-02  0.6406E-01
    -15.056  0.1295E-01  0.6544E-01
    -14.950  0.2558E-01  0.6816E-01
    -14.843  0.3786E-01  0.7219E-01
    -14.737  0.3817E-01  0.7626E-01
    -14.630  0.3181E-01  0.7965E-01
    -14.524  0.2094E-01  0.8188E-01
    -14.417  0.1664E-01  0.8365E-01
    -14.311  0.2667E-01  0.8649E-01
    -14.204  0.3232E-01  0.8993E-01
    -14.098  0.2629E-01  0.9273E-01
    -13.991  0.2115E-01  0.9498E-01
    -13.885  0.2862E-01  0.9803E-01
    -13.778  0.3817E-01  0.1021E+00
    -13.672  0.3564E-01  0.1059E+00
    -13.565  0.3413E-01  0.1095E+00
    -13.459  0.1893E-01  0.1115E+00
    -13.352  0.1167E-01  0.1128E+00
    -13.246  0.7056E-02  0.1135E+00
    -13.139  0.7235E-02  0.1143E+00
    -13.033  0.1276E-01  0.1157E+00
    -12.926  0.1457E-01  0.1172E+00
    -12.820  0.9744E-02  0.1183E+00
    -12.713  0.1259E-01  0.1196E+00
    -12.607  0.1463E-01  0.1212E+00
    -12.500  0.1134E-01  0.1224E+00
    -12.394  0.1118E-01  0.1236E+00
    -12.287  0.7201E-02  0.1243E+00
    -12.181  0.1060E-01  0.1254E+00
    -12.074  0.1696E-01  0.1273E+00
    -11.968  0.8307E-02  0.1281E+00
    -11.861  0.6170E-02  0.1288E+00
    -11.755  0.6857E-02  0.1295E+00
    -11.648  0.1031E-01  0.1306E+00
    -11.542  0.1411E-01  0.1321E+00
    -11.435  0.9216E-02  0.1331E+00
    -11.329  0.3657E-02  0.1335E+00
    -11.223  0.7992E-02  0.1343E+00
    -11.116  0.1166E-01  0.1356E+00
    -11.010  0.1053E-01  0.1367E+00
    -10.903  0.1373E-01  0.1382E+00
    -10.797  0.1490E-01  0.1398E+00
    -10.690  0.6437E-02  0.1404E+00
    -10.584  0.1615E-01  0.1422E+00
    -10.477  0.2794E-01  0.1451E+00
    -10.371  0.3037E-01  0.1484E+00
    -10.264  0.3036E-01  0.1516E+00
    -10.158  0.3181E-01  0.1550E+00
    -10.051  0.3440E-01  0.1587E+00
     -9.945  0.3171E-01  0.1620E+00
     -9.838  0.2115E-01  0.1643E+00
     -9.732  0.2054E-01  0.1665E+00
     -9.625  0.2665E-01  0.1693E+00
     -9.519  0.2249E-01  0.1717E+00
     -9.412  0.3288E-01  0.1752E+00
     -9.306  0.3924E-01  0.1794E+00
     -9.199  0.2713E-01  0.1823E+00
     -9.093  0.1803E-01  0.1842E+00
     -8.986  0.1372E-01  0.1857E+00
     -8.880  0.3401E-01  0.1893E+00
     -8.773  0.4225E-01  0.1938E+00
     -8.667  0.2559E-01  0.1965E+00
     -8.560  0.1655E-01  0.1983E+00
     -8.454  0.2444E-01  0.2009E+00
     -8.347  0.3793E-01  0.2049E+00
     -8.241  0.3426E-01  0.2086E+00
     -8.134  0.2664E-01  0.2114E+00
     -8.028  0.3502E-01  0.2151E+00
     -7.921  0.4583E-01  0.2200E+00
     -7.815  0.4923E-01  0.2253E+00
     -7.708  0.3826E-01  0.2293E+00
     -7.602  0.2280E-01  0.2318E+00
     -7.495  0.1371E-01  0.2332E+00
     -7.389  0.3187E-01  0.2366E+00
     -7.282  0.3798E-01  0.2407E+00
     -7.176  0.2689E-01  0.2435E+00
     -7.069  0.2194E-01  0.2459E+00
     -6.963  0.3062E-01  0.2491E+00
     -6.856  0.3643E-01  0.2530E+00
     -6.750  0.3843E-01  0.2571E+00
     -6.643  0.4490E-01  0.2619E+00
     -6.537  0.3937E-01  0.2661E+00
     -6.430  0.4294E-01  0.2706E+00
     -6.324  0.3581E-01  0.2744E+00
     -6.217  0.3622E-01  0.2783E+00
     -6.111  0.5173E-01  0.2838E+00
     -6.004  0.5008E-01  0.2891E+00
     -5.898  0.6064E-01  0.2956E+00
     -5.791  0.5373E-01  0.3013E+00
     -5.685  0.3840E-01  0.3054E+00
     -5.578  0.4189E-01  0.3099E+00
     -5.472  0.6511E-01  0.3168E+00
     -5.365  0.6873E-01  0.3241E+00
     -5.259  0.4123E-01  0.3285E+00
     -5.152  0.3234E-01  0.3320E+00
     -5.046  0.2154E-01  0.3343E+00
     -4.939  0.2100E-01  0.3365E+00
     -4.833  0.2728E-01  0.3394E+00
     -4.726  0.2289E-01  0.3418E+00
     -4.620  0.1594E-01  0.3435E+00
     -4.513  0.1738E-01  0.3454E+00
     -4.407  0.3143E-01  0.3487E+00
     -4.300  0.4838E-01  0.3539E+00
     -4.194  0.4456E-01  0.3586E+00
     -4.087  0.3428E-01  0.3623E+00
     -3.981  0.3778E-01  0.3663E+00
     -3.874  0.4913E-01  0.3715E+00
     -3.768  0.3887E-01  0.3757E+00
     -3.661  0.3861E-01  0.3798E+00
     -3.555  0.3995E-01  0.3840E+00
     -3.448  0.3285E-01  0.3875E+00
     -3.342  0.2503E-01  0.3902E+00
     -3.235  0.2504E-01  0.3929E+00
     -3.129  0.3570E-01  0.3967E+00
     -3.022  0.3550E-01  0.4005E+00
     -2.916  0.2465E-01  0.4031E+00
     -2.809  0.2467E-01  0.4057E+00
     -2.703  0.1715E-01  0.4075E+00
     -2.596  0.1888E-01  0.4095E+00
     -2.490  0.3270E-01  0.4130E+00
     -2.383  0.3547E-01  0.4168E+00
     -2.277  0.1128E-01  0.4180E+00
     -2.170  0.1047E-01  0.4191E+00
     -2.064  0.1892E-01  0.4211E+00
     -1.957  0.1856E-01  0.4231E+00
     -1.851  0.2101E-01  0.4253E+00
     -1.744  0.2201E-01  0.4277E+00
     -1.638  0.2067E-01  0.4299E+00
     -1.531  0.1745E-01  0.4318E+00
     -1.425  0.7636E-02  0.4326E+00
     -1.318  0.7910E-02  0.4334E+00
     -1.212  0.9177E-02  0.4344E+00
     -1.105  0.6190E-02  0.4350E+00
     -0.999  0.9774E-02  0.4361E+00
     -0.892  0.8811E-02  0.4370E+00
     -0.786  0.2228E-02  0.4373E+00
     -0.679  0.2036E-03  0.4373E+00
     -0.573  0.4457E-05  0.4373E+00
     -0.466  0.1767E-04  0.4373E+00
     -0.360  0.5198E-03  0.4373E+00
     -0.253  0.2117E-02  0.4376E+00
     -0.147  0.1303E-02  0.4377E+00
     -0.040  0.1171E-03  0.4377E+00
      0.066  0.1377E-05  0.4377E+00
      0.173  0.6133E-05  0.4377E+00
      0.279  0.4496E-03  0.4378E+00
      0.386  0.4323E-02  0.4382E+00
      0.492  0.6135E-02  0.4389E+00
      0.599  0.2422E-02  0.4391E+00
      0.705  0.7846E-02  0.4400E+00
      0.812  0.1424E-01  0.4415E+00
      0.918  0.2408E-01  0.4441E+00
      1.025  0.4753E-01  0.4491E+00
      1.131  0.3615E-01  0.4530E+00
      1.238  0.8388E-02  0.4539E+00
      1.344  0.1930E-02  0.4541E+00
      1.451  0.8338E-02  0.4550E+00
      1.557  0.2790E-01  0.4579E+00
      1.664  0.4123E-01  0.4623E+00
      1.770  0.2969E-01  0.4655E+00
      1.877  0.1959E-01  0.4676E+00
      1.983  0.1730E-01  0.4694E+00
      2.090  0.1979E-01  0.4715E+00
      2.196  0.1421E-01  0.4730E+00
      2.303  0.1798E-01  0.4749E+00
      2.409  0.1272E-01  0.4763E+00
      2.516  0.1203E-01  0.4776E+00
      2.622  0.2719E-01  0.4805E+00
      2.729  0.2024E-01  0.4826E+00
      2.835  0.9926E-02  0.4837E+00
      2.942  0.1258E-01  0.4850E+00
      3.048  0.1998E-01  0.4872E+00
      3.155  0.2436E-01  0.4897E+00
      3.261  0.1921E-01  0.4918E+00
      3.368  0.2126E-01  0.4941E+00
      3.474  0.1663E-01  0.4958E+00
      3.581  0.3264E-01  0.4993E+00
      3.687  0.4858E-01  0.5045E+00
      3.793  0.4865E-01  0.5097E+00
      3.900  0.4414E-01  0.5144E+00
      4.006  0.4346E-01  0.5190E+00
      4.113  0.5268E-01  0.5246E+00
      4.219  0.5293E-01  0.5302E+00
      4.326  0.4602E-01  0.5351E+00
      4.432  0.4818E-01  0.5403E+00
      4.539  0.4633E-01  0.5452E+00
      4.645  0.3799E-01  0.5492E+00
      4.752  0.5282E-01  0.5549E+00
      4.858  0.5662E-01  0.5609E+00
      4.965  0.4328E-01  0.5655E+00
      5.071  0.4785E-01  0.5706E+00
      5.178  0.5223E-01  0.5762E+00
      5.284  0.4294E-01  0.5807E+00
      5.391  0.4311E-01  0.5853E+00
      5.497  0.4761E-01  0.5904E+00
      5.604  0.5620E-01  0.5964E+00
      5.710  0.4361E-01  0.6010E+00
      5.817  0.4332E-01  0.6056E+00
      5.923  0.4055E-01  0.6100E+00
      6.030  0.4274E-01  0.6145E+00
      6.136  0.3267E-01  0.6180E+00
      6.243  0.3353E-01  0.6216E+00
      6.349  0.4599E-01  0.6265E+00
      6.456  0.4691E-01  0.6315E+00
      6.562  0.5122E-01  0.6369E+00
      6.669  0.5229E-01  0.6425E+00
      6.775  0.6811E-01  0.6497E+00
      6.882  0.5684E-01  0.6558E+00
      6.988  0.4979E-01  0.6611E+00
      7.095  0.5062E-01  0.6665E+00
      7.201  0.4323E-01  0.6711E+00
      7.308  0.3539E-01  0.6749E+00
      7.414  0.4368E-01  0.6795E+00
      7.521  0.4622E-01  0.6844E+00
      7.627  0.4312E-01  0.6890E+00
      7.734  0.5291E-01  0.6947E+00
      7.840  0.6436E-01  0.7015E+00
      7.947  0.6269E-01  0.7082E+00
      8.053  0.6266E-01  0.7149E+00
      8.160  0.6554E-01  0.7218E+00
      8.266  0.5585E-01  0.7278E+00
      8.373  0.7078E-01  0.7353E+00
      8.479  0.6889E-01  0.7427E+00
      8.586  0.3515E-01  0.7464E+00
      8.692  0.1837E-01  0.7484E+00
      8.799  0.8824E-02  0.7493E+00
      8.905  0.5345E-02  0.7499E+00
      9.012  0.1134E-02  0.7500E+00
      9.118  0.4308E-04  0.7500E+00
      9.225  0.2205E-06  0.7500E+00
      9.331  0.1326E-09  0.7500E+00
      9.438  0.8846E-14  0.7500E+00
      9.544  0.0000E+00  0.7500E+00
      9.651  0.0000E+00  0.7500E+00
      9.757  0.0000E+00  0.7500E+00
      9.864  0.0000E+00  0.7500E+00
      9.970  0.0000E+00  0.7500E+00
     10.077  0.0000E+00  0.7500E+00
     10.183  0.0000E+00  0.7500E+00
     10.290  0.0000E+00  0.7500E+00
