       N       E                     dE             d eps       ncg     rms          rms(c)
DAV:   1     0.259462225797E+03    0.25946E+03   -0.28633E+04 14208   0.964E+02
DAV:   2    -0.130087627965E+03   -0.38955E+03   -0.38908E+03 21888   0.180E+02
DAV:   3    -0.145756923282E+03   -0.15669E+02   -0.15649E+02 25776   0.499E+01
DAV:   4    -0.145795801920E+03   -0.38879E-01   -0.38857E-01 21984   0.236E+00
DAV:   5    -0.145795878094E+03   -0.76174E-04   -0.76174E-04 23904   0.104E-01    0.250E+01
DAV:   6    -0.107213079671E+03    0.38583E+02   -0.67933E+01 23904   0.266E+01    0.145E+01
DAV:   7    -0.114399785681E+03   -0.71867E+01   -0.10122E+01 22656   0.110E+01    0.856E+00
DAV:   8    -0.123593456263E+03   -0.91937E+01   -0.82445E+00 24192   0.908E+00    0.458E+00
DAV:   9    -0.131385283956E+03   -0.77918E+01   -0.42544E+00 17088   0.711E+00    0.302E+00
DAV:  10    -0.138607490660E+03   -0.72222E+01   -0.10013E+01 21600   0.788E+00    0.172E+00
DAV:  11    -0.140040584106E+03   -0.14331E+01   -0.17105E+00 21168   0.352E+00    0.116E+00
DAV:  12    -0.140289276740E+03   -0.24869E+00   -0.29601E-01 21072   0.155E+00    0.467E-01
DAV:  13    -0.140343315620E+03   -0.54039E-01   -0.45679E-02 17136   0.833E-01    0.197E-01
DAV:  14    -0.140368067076E+03   -0.24751E-01   -0.79474E-03 18384   0.323E-01    0.954E-02
DAV:  15    -0.140376992824E+03   -0.89257E-02   -0.54175E-03 18432   0.181E-01    0.469E-02
DAV:  16    -0.140378393163E+03   -0.14003E-02   -0.52071E-04 14448   0.925E-02    0.269E-02
DAV:  17    -0.140380137852E+03   -0.17447E-02   -0.24205E-04 15936   0.629E-02    0.174E-02
DAV:  18    -0.140381187361E+03   -0.10495E-02   -0.11423E-04 15696   0.468E-02    0.125E-02
DAV:  19    -0.140381697157E+03   -0.50980E-03   -0.70512E-05 18720   0.379E-02    0.783E-03
DAV:  20    -0.140381845835E+03   -0.14868E-03   -0.23175E-05 16368   0.233E-02    0.449E-03
DAV:  21    -0.140381890720E+03   -0.44885E-04   -0.10099E-05 18336   0.144E-02    0.271E-03
DAV:  22    -0.140381896051E+03   -0.53303E-05   -0.34211E-06 24288   0.837E-03    0.190E-03
DAV:  23    -0.140381903531E+03   -0.74801E-05   -0.15258E-06 20160   0.487E-03    0.906E-04
DAV:  24    -0.140381907294E+03   -0.37627E-05   -0.43522E-07 22128   0.244E-03    0.495E-04
DAV:  25    -0.140381909029E+03   -0.17355E-05   -0.10431E-07 20544   0.112E-03    0.266E-04
DAV:  26    -0.140381910027E+03   -0.99754E-06   -0.72852E-08 17712   0.876E-04
   1 F= -.14227033E+03 E0= -.14226924E+03  d E =-.142270E+03  mag=     0.0000
       N       E                     dE             d eps       ncg     rms          rms(c)
DAV:   1    -0.140336219443E+03    0.45690E-01   -0.16262E+01 14208   0.136E+01    0.115E+00
DAV:   2    -0.140296692964E+03    0.39526E-01   -0.28207E-01 24624   0.187E+00    0.556E-01
DAV:   3    -0.140292807896E+03    0.38851E-02   -0.38705E-02 22560   0.617E-01    0.240E-01
DAV:   4    -0.140292742432E+03    0.65464E-04   -0.43270E-03 19008   0.202E-01    0.941E-02
DAV:   5    -0.140292744695E+03   -0.22629E-05   -0.32880E-04 20496   0.675E-02    0.200E-02
DAV:   6    -0.140292748921E+03   -0.42262E-05   -0.39031E-05 21360   0.226E-02    0.123E-02
DAV:   7    -0.140292760330E+03   -0.11409E-04   -0.13514E-05 20496   0.121E-02    0.329E-03
DAV:   8    -0.140292770076E+03   -0.97468E-05   -0.17432E-06 21600   0.419E-03    0.167E-03
DAV:   9    -0.140292785891E+03   -0.15815E-04   -0.16815E-06 18432   0.282E-03    0.103E-03
DAV:  10    -0.140292792535E+03   -0.66437E-05   -0.44897E-07 20592   0.132E-03    0.838E-04
DAV:  11    -0.140292798960E+03   -0.64252E-05   -0.60819E-07 17520   0.135E-03    0.442E-04
DAV:  12    -0.140292801705E+03   -0.27454E-05   -0.26024E-07 16128   0.778E-04    0.252E-04
DAV:  13    -0.140292802223E+03   -0.51775E-06   -0.29248E-08 19776   0.322E-04
   2 F= -.14218592E+03 E0= -.14218447E+03  d E =0.844108E-01  mag=    -0.0000
       N       E                     dE             d eps       ncg     rms          rms(c)
DAV:   1    -0.140416433572E+03   -0.12363E+00   -0.86102E+00 14208   0.985E+00    0.840E-01
DAV:   2    -0.140396344758E+03    0.20089E-01   -0.14694E-01 24096   0.137E+00    0.405E-01
DAV:   3    -0.140394040691E+03    0.23041E-02   -0.23754E-02 22848   0.470E-01    0.164E-01
DAV:   4    -0.140393951662E+03    0.89029E-04   -0.26459E-03 18528   0.158E-01    0.728E-02
DAV:   5    -0.140393943983E+03    0.76792E-05   -0.21608E-04 19392   0.554E-02    0.132E-02
DAV:   6    -0.140393941154E+03    0.28293E-05   -0.41322E-05 19920   0.222E-02    0.672E-03
DAV:   7    -0.140393945395E+03   -0.42407E-05   -0.43079E-06 23568   0.715E-03    0.173E-03
DAV:   8    -0.140393949149E+03   -0.37542E-05   -0.30374E-07 21552   0.178E-03    0.127E-03
DAV:   9    -0.140393957257E+03   -0.81078E-05   -0.55639E-07 20352   0.172E-03    0.639E-04
DAV:  10    -0.140393962875E+03   -0.56183E-05   -0.31410E-07 16512   0.111E-03    0.576E-04
DAV:  11    -0.140393967842E+03   -0.49675E-05   -0.41064E-07 14784   0.104E-03    0.255E-04
DAV:  12    -0.140393968312E+03   -0.46944E-06   -0.11099E-08 23952   0.223E-04
   3 F= -.14228397E+03 E0= -.14228275E+03  d E =-.136330E-01  mag=    -0.0000
       N       E                     dE             d eps       ncg     rms          rms(c)
DAV:   1    -0.140393969426E+03   -0.15833E-05   -0.35076E-07 16224   0.198E-03    0.180E-04
DAV:   2    -0.140393969508E+03   -0.82757E-07   -0.68541E-09 24864   0.296E-04
   4 F= -.14228397E+03 E0= -.14228275E+03  d E =-.136335E-01  mag=    -0.0000
       N       E                     dE             d eps       ncg     rms          rms(c)
DAV:   1    -0.140394129881E+03   -0.16046E-03   -0.15910E-02 14208   0.547E-01    0.242E-02
DAV:   2    -0.140394132279E+03   -0.23981E-05   -0.11605E-04 24864   0.476E-02    0.159E-02
DAV:   3    -0.140394135391E+03   -0.31116E-05   -0.15639E-05 14400   0.158E-02    0.333E-03
DAV:   4    -0.140394135324E+03    0.67006E-07   -0.27453E-06 25056   0.665E-03
   5 F= -.14228411E+03 E0= -.14228290E+03  d E =-.138321E-03  mag=    -0.0000
       N       E                     dE             d eps       ncg     rms          rms(c)
DAV:   1    -0.140394154374E+03   -0.18984E-04   -0.19364E-03 14400   0.191E-01    0.866E-03
DAV:   2    -0.140394154454E+03   -0.79678E-07   -0.14662E-05 23520   0.170E-02    0.574E-03
DAV:   3    -0.140394155267E+03   -0.81236E-06   -0.19891E-06 15168   0.570E-03
   6 F= -.14228412E+03 E0= -.14228291E+03  d E =-.148722E-03  mag=    -0.0000
       N       E                     dE             d eps       ncg     rms          rms(c)
DAV:   1    -0.140394134908E+03    0.19546E-04   -0.19589E-02 14784   0.626E-01    0.316E-02
DAV:   2    -0.140394135891E+03   -0.98338E-06   -0.25799E-04 14976   0.731E-02    0.198E-02
DAV:   3    -0.140394135147E+03    0.74387E-06   -0.39905E-05 16896   0.267E-02    0.722E-03
DAV:   4    -0.140394135186E+03   -0.38212E-07   -0.81993E-06 23808   0.109E-02
   7 F= -.14228406E+03 E0= -.14228286E+03  d E =0.548727E-04  mag=     0.0000
       N       E                     dE             d eps       ncg     rms          rms(c)
DAV:   1    -0.140394192707E+03   -0.57559E-04   -0.81199E-03 15936   0.403E-01    0.206E-02
DAV:   2    -0.140394191912E+03    0.79455E-06   -0.10859E-04 14784   0.475E-02    0.128E-02
DAV:   3    -0.140394191443E+03    0.46931E-06   -0.16803E-05 14976   0.173E-02    0.457E-03
DAV:   4    -0.140394191601E+03   -0.15817E-06   -0.35176E-06 22560   0.709E-03
   8 F= -.14228414E+03 E0= -.14228294E+03  d E =-.239252E-04  mag=     0.0000
       N       E                     dE             d eps       ncg     rms          rms(c)
DAV:   1    -0.140394221158E+03   -0.29715E-04   -0.27202E-03 14976   0.232E-01    0.117E-02
DAV:   2    -0.140394221174E+03   -0.15635E-07   -0.37567E-05 15360   0.271E-02    0.743E-03
DAV:   3    -0.140394221381E+03   -0.20783E-06   -0.44292E-06 18864   0.874E-03
   9 F= -.14228414E+03 E0= -.14228294E+03  d E =-.352961E-05  mag=    -0.0000
       N       E                     dE             d eps       ncg     rms          rms(c)
DAV:   1    -0.140394213940E+03    0.72336E-05   -0.51515E-04 15168   0.101E-01    0.436E-03
DAV:   2    -0.140394214059E+03   -0.11919E-06   -0.70499E-06 14208   0.116E-02
  10 F= -.14228415E+03 E0= -.14228295E+03  d E =-.772519E-05  mag=    -0.0000
       N       E                     dE             d eps       ncg     rms          rms(c)
DAV:   1    -0.140394254274E+03   -0.40334E-04   -0.18343E-03 14208   0.191E-01    0.816E-03
DAV:   2    -0.140394254517E+03   -0.24289E-06   -0.16360E-05 14592   0.180E-02    0.535E-03
DAV:   3    -0.140394254828E+03   -0.31062E-06   -0.15395E-06 18336   0.498E-03
  11 F= -.14228416E+03 E0= -.14228296E+03  d E =-.999891E-05  mag=     0.0000
       N       E                     dE             d eps       ncg     rms          rms(c)
DAV:   1    -0.140394266305E+03   -0.11788E-04   -0.22019E-04 15360   0.665E-02    0.322E-03
DAV:   2    -0.140394266259E+03    0.46263E-07   -0.19437E-06 15936   0.625E-03
  12 F= -.14228416E+03 E0= -.14228296E+03  d E =-.108014E-04  mag=    -0.0000
       N       E                     dE             d eps       ncg     rms          rms(c)
DAV:   1    -0.140394312027E+03   -0.45721E-04   -0.19259E-03 14208   0.196E-01    0.900E-03
DAV:   2    -0.140394312157E+03   -0.13008E-06   -0.18248E-05 14208   0.194E-02    0.584E-03
DAV:   3    -0.140394312284E+03   -0.12721E-06   -0.17753E-06 14208   0.556E-03
  13 F= -.14228417E+03 E0= -.14228296E+03  d E =-.787072E-05  mag=    -0.0000
       N       E                     dE             d eps       ncg     rms          rms(c)
DAV:   1    -0.140394321955E+03   -0.97985E-05   -0.11354E-04 19104   0.475E-02    0.249E-03
DAV:   2    -0.140394321925E+03    0.30416E-07   -0.87060E-07 16896   0.422E-03
  14 F= -.14228417E+03 E0= -.14228297E+03  d E =-.830880E-05  mag=     0.0000
       N       E                     dE             d eps       ncg     rms          rms(c)
DAV:   1    -0.140394368431E+03   -0.46476E-04   -0.13360E-03 14208   0.164E-01    0.730E-03
DAV:   2    -0.140394368601E+03   -0.16993E-06   -0.11738E-05 14208   0.150E-02    0.493E-03
DAV:   3    -0.140394368789E+03   -0.18822E-06   -0.91780E-07 16416   0.385E-03
  15 F= -.14228418E+03 E0= -.14228297E+03  d E =-.868654E-05  mag=     0.0000
       N       E                     dE             d eps       ncg     rms          rms(c)
DAV:   1    -0.140394499111E+03   -0.13051E-03   -0.12087E-02 14208   0.494E-01    0.217E-02
DAV:   2    -0.140394501825E+03   -0.27139E-05   -0.10360E-04 14208   0.447E-02    0.146E-02
DAV:   3    -0.140394502186E+03   -0.36067E-06   -0.80326E-06 15456   0.113E-02
  16 F= -.14228419E+03 E0= -.14228299E+03  d E =-.275325E-04  mag=     0.0000
       N       E                     dE             d eps       ncg     rms          rms(c)
DAV:   1    -0.140394724700E+03   -0.22288E-03   -0.48363E-02 14208   0.988E-01    0.437E-02
DAV:   2    -0.140394738942E+03   -0.14242E-04   -0.41309E-04 15072   0.891E-02    0.293E-02
DAV:   3    -0.140394737427E+03    0.15149E-05   -0.31840E-05 14688   0.225E-02    0.646E-03
DAV:   4    -0.140394738060E+03   -0.63270E-06   -0.35029E-06 21984   0.700E-03
  17 F= -.14228420E+03 E0= -.14228300E+03  d E =-.345844E-04  mag=    -0.0000
       N       E                     dE             d eps       ncg     rms          rms(c)
DAV:   1    -0.140394645717E+03    0.91710E-04   -0.79116E-03 14208   0.400E-01    0.173E-02
DAV:   2    -0.140394647441E+03   -0.17240E-05   -0.68779E-05 17808   0.362E-02    0.117E-02
DAV:   3    -0.140394647442E+03   -0.65666E-09   -0.50097E-06 14208   0.865E-03
  18 F= -.14228420E+03 E0= -.14228300E+03  d E =-.366914E-04  mag=     0.0000
       N       E                     dE             d eps       ncg     rms          rms(c)
DAV:   1    -0.140394677464E+03   -0.30023E-04   -0.51322E-04 16128   0.101E-01    0.422E-03
DAV:   2    -0.140394677512E+03   -0.48708E-07   -0.45369E-06 14448   0.912E-03
  19 F= -.14228421E+03 E0= -.14228300E+03  d E =-.578395E-05  mag=     0.0000
       N       E                     dE             d eps       ncg     rms          rms(c)
DAV:   1    -0.140394765146E+03   -0.87682E-04   -0.46181E-03 14208   0.304E-01    0.141E-02
DAV:   2    -0.140394765924E+03   -0.77768E-06   -0.40240E-05 14208   0.278E-02    0.950E-03
DAV:   3    -0.140394766170E+03   -0.24575E-06   -0.31644E-06 14208   0.719E-03
  20 F= -.14228423E+03 E0= -.14228302E+03  d E =-.216254E-04  mag=    -0.0000
       N       E                     dE             d eps       ncg     rms          rms(c)
DAV:   1    -0.140394936019E+03   -0.17009E-03   -0.18567E-02 14208   0.609E-01    0.273E-02
DAV:   2    -0.140394941062E+03   -0.50435E-05   -0.16128E-04 14208   0.557E-02    0.184E-02
DAV:   3    -0.140394940929E+03    0.13272E-06   -0.12029E-05 14208   0.139E-02    0.419E-03
DAV:   4    -0.140394941229E+03   -0.29972E-06   -0.12877E-06 14400   0.461E-03
  21 F= -.14228425E+03 E0= -.14228305E+03  d E =-.510031E-04  mag=    -0.0000
       N       E                     dE             d eps       ncg     rms          rms(c)
DAV:   1    -0.140395260188E+03   -0.31926E-03   -0.74279E-02 14208   0.122E+00    0.545E-02
DAV:   2    -0.140395281207E+03   -0.21018E-04   -0.64228E-04 15072   0.111E-01    0.365E-02
DAV:   3    -0.140395277879E+03    0.33282E-05   -0.48712E-05 14688   0.276E-02    0.819E-03
DAV:   4    -0.140395278783E+03   -0.90487E-06   -0.50980E-06 14976   0.877E-03
  22 F= -.14228430E+03 E0= -.14228309E+03  d E =-.974871E-04  mag=    -0.0000
       N       E                     dE             d eps       ncg     rms          rms(c)
DAV:   1    -0.140395833380E+03   -0.55550E-03   -0.29713E-01 14208   0.244E+00    0.109E-01
DAV:   2    -0.140395922924E+03   -0.89544E-04   -0.25642E-03 15312   0.221E-01    0.730E-02
DAV:   3    -0.140395903637E+03    0.19287E-04   -0.19433E-04 15120   0.549E-02    0.163E-02
DAV:   4    -0.140395906182E+03   -0.25446E-05   -0.20157E-05 16032   0.173E-02    0.620E-03
DAV:   5    -0.140395906211E+03   -0.29229E-07   -0.24284E-06 15552   0.684E-03
  23 F= -.14228435E+03 E0= -.14228312E+03  d E =-.143614E-03  mag=    -0.0000
       N       E                     dE             d eps       ncg     rms          rms(c)
DAV:   1    -0.140395958591E+03   -0.52409E-04   -0.15707E-03 16224   0.178E-01    0.783E-03
DAV:   2    -0.140395958857E+03   -0.26631E-06   -0.13217E-05 16128   0.158E-02    0.520E-03
DAV:   3    -0.140395958937E+03   -0.79146E-07   -0.11701E-06 15744   0.474E-03
  24 F= -.14228436E+03 E0= -.14228313E+03  d E =-.103924E-04  mag=    -0.0000
       N       E                     dE             d eps       ncg     rms          rms(c)
DAV:   1    -0.140396110338E+03   -0.15148E-03   -0.14112E-02 14208   0.532E-01    0.235E-02
DAV:   2    -0.140396114283E+03   -0.39451E-05   -0.12267E-04 14688   0.488E-02    0.159E-02
DAV:   3    -0.140396114237E+03    0.46289E-07   -0.90309E-06 14688   0.123E-02
  25 F= -.14228439E+03 E0= -.14228316E+03  d E =-.387361E-04  mag=     0.0000
       N       E                     dE             d eps       ncg     rms          rms(c)
DAV:   1    -0.140396401294E+03   -0.28701E-03   -0.56463E-02 14208   0.106E+00    0.472E-02
DAV:   2    -0.140396419099E+03   -0.17805E-04   -0.48660E-04 14784   0.969E-02    0.319E-02
DAV:   3    -0.140396416911E+03    0.21883E-05   -0.35608E-05 14400   0.241E-02    0.718E-03
DAV:   4    -0.140396417656E+03   -0.74540E-06   -0.40275E-06 14208   0.859E-03
  26 F= -.14228444E+03 E0= -.14228321E+03  d E =-.884879E-04  mag=     0.0000
       N       E                     dE             d eps       ncg     rms          rms(c)
DAV:   1    -0.140396933453E+03   -0.51654E-03   -0.22590E-01 14208   0.213E+00    0.939E-02
DAV:   2    -0.140397005447E+03   -0.71994E-04   -0.19412E-03 14496   0.193E-01    0.632E-02
DAV:   3    -0.140396990868E+03    0.14579E-04   -0.14405E-04 14880   0.480E-02    0.143E-02
DAV:   4    -0.140396992938E+03   -0.20696E-05   -0.15807E-05 15072   0.163E-02    0.543E-03
DAV:   5    -0.140396992834E+03    0.10412E-06   -0.26053E-06 16032   0.805E-03
  27 F= -.14228450E+03 E0= -.14228327E+03  d E =-.156903E-03  mag=    -0.0000
       N       E                     dE             d eps       ncg     rms          rms(c)
DAV:   1    -0.140397787592E+03   -0.79465E-03   -0.90272E-01 14208   0.426E+00    0.187E-01
DAV:   2    -0.140398093346E+03   -0.30575E-03   -0.77727E-03 17376   0.386E-01    0.126E-01
DAV:   3    -0.140398013887E+03    0.79459E-04   -0.57778E-04 16080   0.937E-02    0.272E-02
DAV:   4    -0.140398019397E+03   -0.55109E-05   -0.60248E-05 17952   0.295E-02    0.104E-02
DAV:   5    -0.140398019607E+03   -0.20928E-06   -0.69626E-06 15312   0.103E-02
  28 F= -.14228452E+03 E0= -.14228328E+03  d E =-.173101E-03  mag=     0.0000
       N       E                     dE             d eps       ncg     rms          rms(c)
DAV:   1    -0.140397618246E+03    0.40115E-03   -0.12926E-01 14208   0.161E+00    0.709E-02
DAV:   2    -0.140397659114E+03   -0.40868E-04   -0.11139E-03 17424   0.146E-01    0.480E-02
DAV:   3    -0.140397649486E+03    0.96284E-05   -0.82829E-05 18144   0.358E-02    0.105E-02
DAV:   4    -0.140397650666E+03   -0.11797E-05   -0.90467E-06 14448   0.135E-02    0.404E-03
DAV:   5    -0.140397650634E+03    0.31355E-07   -0.19802E-06 14208   0.773E-03
  29 F= -.14228453E+03 E0= -.14228329E+03  d E =-.186071E-03  mag=    -0.0000
       N       E                     dE             d eps       ncg     rms          rms(c)
DAV:   1    -0.140397964745E+03   -0.31408E-03   -0.77662E-02 14208   0.125E+00    0.543E-02
DAV:   2    -0.140397989314E+03   -0.24569E-04   -0.67427E-04 14208   0.114E-01    0.368E-02
DAV:   3    -0.140397985109E+03    0.42050E-05   -0.49369E-05 14208   0.283E-02    0.869E-03
DAV:   4    -0.140397986071E+03   -0.96209E-06   -0.54929E-06 14208   0.956E-03
  30 F= -.14228458E+03 E0= -.14228333E+03  d E =-.447848E-04  mag=    -0.0000
       N       E                     dE             d eps       ncg     rms          rms(c)
DAV:   1    -0.140398399759E+03   -0.41465E-03   -0.16634E-01 14208   0.183E+00    0.800E-02
DAV:   2    -0.140398454042E+03   -0.54283E-04   -0.14275E-03 14304   0.166E-01    0.540E-02
DAV:   3    -0.140398443300E+03    0.10742E-04   -0.10493E-04 14496   0.413E-02    0.126E-02
DAV:   4    -0.140398444908E+03   -0.16078E-05   -0.12036E-05 15264   0.146E-02    0.480E-03
DAV:   5    -0.140398444633E+03    0.27518E-06   -0.23768E-06 16320   0.795E-03
  31 F= -.14228461E+03 E0= -.14228336E+03  d E =-.788930E-04  mag=     0.0000
       N       E                     dE             d eps       ncg     rms          rms(c)
DAV:   1    -0.140399081654E+03   -0.63675E-03   -0.66465E-01 14208   0.366E+00    0.160E-01
DAV:   2    -0.140399304087E+03   -0.22243E-03   -0.56608E-03 16896   0.330E-01    0.108E-01
DAV:   3    -0.140399247412E+03    0.56675E-04   -0.41810E-04 15552   0.804E-02    0.240E-02
DAV:   4    -0.140399251575E+03   -0.41629E-05   -0.45571E-05 15696   0.265E-02    0.918E-03
DAV:   5    -0.140399251575E+03    0.72214E-09   -0.60307E-06 15600   0.109E-02
  32 F= -.14228457E+03 E0= -.14228331E+03  d E =-.386097E-04  mag=    -0.0000
       N       E                     dE             d eps       ncg     rms          rms(c)
DAV:   1    -0.140398560682E+03    0.69089E-03   -0.37931E-01 14208   0.276E+00    0.121E-01
DAV:   2    -0.140398682963E+03   -0.12228E-03   -0.32108E-03 14784   0.250E-01    0.813E-02
DAV:   3    -0.140398651980E+03    0.30983E-04   -0.23997E-04 17856   0.622E-02    0.192E-02
DAV:   4    -0.140398654729E+03   -0.27487E-05   -0.24944E-05 14352   0.215E-02    0.715E-03
DAV:   5    -0.140398654137E+03    0.59148E-06   -0.52821E-06 14496   0.120E-02
  33 F= -.14228461E+03 E0= -.14228336E+03  d E =-.809509E-04  mag=     0.0000
       N       E                     dE             d eps       ncg     rms          rms(c)
DAV:   1    -0.140398727409E+03   -0.72680E-04   -0.42638E-03 15744   0.294E-01    0.126E-02
DAV:   2    -0.140398728621E+03   -0.12125E-05   -0.34188E-05 14208   0.264E-02    0.853E-03
DAV:   3    -0.140398727840E+03    0.78176E-06   -0.33196E-06 15792   0.951E-03
  34 F= -.14228463E+03 E0= -.14228338E+03  d E =-.179995E-04  mag=    -0.0000
       N       E                     dE             d eps       ncg     rms          rms(c)
DAV:   1    -0.140398912517E+03   -0.18390E-03   -0.38356E-02 14208   0.882E-01    0.375E-02
DAV:   2    -0.140398927520E+03   -0.15003E-04   -0.32331E-04 15408   0.800E-02    0.259E-02
DAV:   3    -0.140398925074E+03    0.24461E-05   -0.20809E-05 15600   0.205E-02    0.625E-03
DAV:   4    -0.140398925585E+03   -0.51155E-06   -0.39490E-06 14976   0.111E-02
  35 F= -.14228466E+03 E0= -.14228341E+03  d E =-.489197E-04  mag=    -0.0000
       N       E                     dE             d eps       ncg     rms          rms(c)
DAV:   1    -0.140399017851E+03   -0.92778E-04   -0.76627E-03 14208   0.395E-01    0.168E-02
DAV:   2    -0.140399021809E+03   -0.39579E-05   -0.68130E-05 14208   0.374E-02    0.118E-02
DAV:   3    -0.140399021010E+03    0.79884E-06   -0.47995E-06 15360   0.116E-02
  36 F= -.14228469E+03 E0= -.14228344E+03  d E =-.304915E-04  mag=     0.0000
       N       E                     dE             d eps       ncg     rms          rms(c)
DAV:   1    -0.140399114129E+03   -0.92320E-04   -0.12705E-02 14208   0.509E-01    0.213E-02
DAV:   2    -0.140399120515E+03   -0.63859E-05   -0.11083E-04 15408   0.475E-02    0.150E-02
DAV:   3    -0.140399119509E+03    0.10060E-05   -0.72906E-06 15504   0.140E-02    0.401E-03
DAV:   4    -0.140399119856E+03   -0.34712E-06   -0.30887E-06 14208   0.105E-02
  37 F= -.14228471E+03 E0= -.14228345E+03  d E =-.456532E-04  mag=     0.0000
       N       E                     dE             d eps       ncg     rms          rms(c)
DAV:   1    -0.140399188717E+03   -0.69208E-04   -0.64419E-03 15840   0.363E-01    0.152E-02
DAV:   2    -0.140399191237E+03   -0.25203E-05   -0.48816E-05 15984   0.308E-02    0.105E-02
DAV:   3    -0.140399190898E+03    0.33886E-06   -0.32446E-06 15024   0.870E-03
  38 F= -.14228473E+03 E0= -.14228348E+03  d E =-.206011E-04  mag=    -0.0000
       N       E                     dE             d eps       ncg     rms          rms(c)
DAV:   1    -0.140399309817E+03   -0.11858E-03   -0.32095E-02 14208   0.809E-01    0.335E-02
DAV:   2    -0.140399324697E+03   -0.14880E-04   -0.26058E-04 14592   0.717E-02    0.235E-02
DAV:   3    -0.140399323415E+03    0.12814E-05   -0.14305E-05 14736   0.172E-02    0.616E-03
DAV:   4    -0.140399323812E+03   -0.39713E-06   -0.22967E-06 14208   0.821E-03
  39 F= -.14228475E+03 E0= -.14228350E+03  d E =-.408727E-04  mag=    -0.0000
       N       E                     dE             d eps       ncg     rms          rms(c)
DAV:   1    -0.140399370841E+03   -0.47425E-04   -0.62476E-03 14880   0.357E-01    0.150E-02
DAV:   2    -0.140399373689E+03   -0.28487E-05   -0.50153E-05 14736   0.324E-02    0.103E-02
DAV:   3    -0.140399372915E+03    0.77450E-06   -0.38274E-06 15936   0.104E-02
  40 F= -.14228477E+03 E0= -.14228352E+03  d E =-.233048E-04  mag=     0.0000
       N       E                     dE             d eps       ncg     rms          rms(c)
DAV:   1    -0.140399412311E+03   -0.38622E-04   -0.97055E-03 14208   0.445E-01    0.185E-02
DAV:   2    -0.140399416916E+03   -0.46044E-05   -0.79827E-05 16032   0.407E-02    0.129E-02
DAV:   3    -0.140399416030E+03    0.88547E-06   -0.52815E-06 16032   0.120E-02
  41 F= -.14228478E+03 E0= -.14228352E+03  d E =-.342147E-04  mag=    -0.0000
       N       E                     dE             d eps       ncg     rms          rms(c)
DAV:   1    -0.140399460131E+03   -0.43216E-04   -0.87697E-03 14208   0.424E-01    0.180E-02
DAV:   2    -0.140399463766E+03   -0.36343E-05   -0.70002E-05 15168   0.379E-02    0.125E-02
DAV:   3    -0.140399463054E+03    0.71164E-06   -0.55857E-06 15216   0.123E-02
  42 F= -.14228481E+03 E0= -.14228355E+03  d E =-.278621E-04  mag=     0.0000
       N       E                     dE             d eps       ncg     rms          rms(c)
DAV:   1    -0.140399524566E+03   -0.60800E-04   -0.53458E-02 14208   0.105E+00    0.441E-02
DAV:   2    -0.140399546065E+03   -0.21499E-04   -0.41924E-04 15840   0.908E-02    0.307E-02
DAV:   3    -0.140399543064E+03    0.30010E-05   -0.26720E-05 15840   0.236E-02    0.743E-03
DAV:   4    -0.140399543661E+03   -0.59680E-06   -0.60953E-06 14208   0.141E-02
  43 F= -.14228485E+03 E0= -.14228358E+03  d E =-.612114E-04  mag=     0.0000
       N       E                     dE             d eps       ncg     rms          rms(c)
DAV:   1    -0.140399569283E+03   -0.26219E-04   -0.24038E-03 14208   0.221E-01    0.961E-03
DAV:   2    -0.140399570609E+03   -0.13253E-05   -0.20916E-05 15168   0.223E-02    0.676E-03
DAV:   3    -0.140399570240E+03    0.36806E-06   -0.38081E-06 15168   0.115E-02
  44 F= -.14228486E+03 E0= -.14228360E+03  d E =-.170848E-04  mag=    -0.0000
       N       E                     dE             d eps       ncg     rms          rms(c)
DAV:   1    -0.140399635941E+03   -0.65332E-04   -0.21481E-02 14208   0.661E-01    0.278E-02
DAV:   2    -0.140399644176E+03   -0.82349E-05   -0.16711E-04 16176   0.576E-02    0.195E-02
DAV:   3    -0.140399643083E+03    0.10931E-05   -0.12179E-05 16128   0.167E-02    0.413E-03
DAV:   4    -0.140399643479E+03   -0.39666E-06   -0.40742E-06 14208   0.118E-02
  45 F= -.14228491E+03 E0= -.14228365E+03  d E =-.618290E-04  mag=    -0.0000
       N       E                     dE             d eps       ncg     rms          rms(c)
DAV:   1    -0.140399729223E+03   -0.86141E-04   -0.86022E-02 14208   0.132E+00    0.562E-02
DAV:   2    -0.140399762493E+03   -0.33269E-04   -0.66235E-04 16992   0.113E-01    0.392E-02
DAV:   3    -0.140399757334E+03    0.51584E-05   -0.42880E-05 16704   0.273E-02    0.762E-03
DAV:   4    -0.140399758071E+03   -0.73656E-06   -0.53726E-06 14208   0.121E-02
  46 F= -.14228496E+03 E0= -.14228370E+03  d E =-.119640E-03  mag=    -0.0000
       N       E                     dE             d eps       ncg     rms          rms(c)
DAV:   1    -0.140399751399E+03    0.59350E-05   -0.34414E-01 14208   0.264E+00    0.113E-01
DAV:   2    -0.140399885120E+03   -0.13372E-03   -0.26155E-03 16032   0.225E-01    0.780E-02
DAV:   3    -0.140399859931E+03    0.25190E-04   -0.17202E-04 15984   0.543E-02    0.155E-02
DAV:   4    -0.140399862120E+03   -0.21898E-05   -0.19577E-05 14688   0.222E-02    0.563E-03
DAV:   5    -0.140399862070E+03    0.50730E-07   -0.77781E-06 14688   0.159E-02
  47 F= -.14228496E+03 E0= -.14228370E+03  d E =-.110660E-03  mag=     0.0000
       N       E                     dE             d eps       ncg     rms          rms(c)
DAV:   1    -0.140399783112E+03    0.79009E-04   -0.11870E-01 14208   0.155E+00    0.656E-02
DAV:   2    -0.140399827672E+03   -0.44560E-04   -0.91137E-04 14640   0.133E-01    0.456E-02
DAV:   3    -0.140399820386E+03    0.72857E-05   -0.58840E-05 14640   0.322E-02    0.960E-03
DAV:   4    -0.140399821286E+03   -0.89966E-06   -0.66496E-06 14208   0.128E-02
  48 F= -.14228498E+03 E0= -.14228372E+03  d E =-.136182E-03  mag=     0.0000
       N       E                     dE             d eps       ncg     rms          rms(c)
DAV:   1    -0.140399865733E+03   -0.45347E-04   -0.96264E-03 14208   0.442E-01    0.183E-02
DAV:   2    -0.140399868995E+03   -0.32623E-05   -0.75969E-05 14208   0.400E-02    0.128E-02
DAV:   3    -0.140399868521E+03    0.47427E-06   -0.79652E-06 16128   0.152E-02
  49 F= -.14228501E+03 E0= -.14228375E+03  d E =-.319653E-04  mag=    -0.0000
       N       E                     dE             d eps       ncg     rms          rms(c)
DAV:   1    -0.140399977024E+03   -0.10803E-03   -0.87090E-02 14208   0.133E+00    0.565E-02
DAV:   2    -0.140400010613E+03   -0.33589E-04   -0.66771E-04 16128   0.114E-01    0.394E-02
DAV:   3    -0.140400005973E+03    0.46407E-05   -0.47328E-05 16128   0.308E-02    0.789E-03
DAV:   4    -0.140400006618E+03   -0.64540E-06   -0.10618E-05 14208   0.186E-02    0.304E-03
DAV:   5    -0.140400006341E+03    0.27703E-06   -0.52347E-06 14208   0.134E-02
  50 F= -.14228511E+03 E0= -.14228384E+03  d E =-.123989E-03  mag=     0.0000
       N       E                     dE             d eps       ncg     rms          rms(c)
DAV:   1    -0.140400150025E+03   -0.14341E-03   -0.34863E-01 14208   0.266E+00    0.113E-01
DAV:   2    -0.140400282452E+03   -0.13243E-03   -0.26564E-03 18480   0.225E-01    0.786E-02
DAV:   3    -0.140400255771E+03    0.26680E-04   -0.17468E-04 15456   0.519E-02    0.146E-02
DAV:   4    -0.140400257833E+03   -0.20621E-05   -0.14866E-05 16608   0.150E-02    0.553E-03
DAV:   5    -0.140400257569E+03    0.26423E-06   -0.23094E-06 15696   0.617E-03
  51 F= -.14228527E+03 E0= -.14228399E+03  d E =-.284193E-03  mag=    -0.0000
       N       E                     dE             d eps       ncg     rms          rms(c)
DAV:   1    -0.140400251384E+03    0.64492E-05   -0.13943E+00 14208   0.532E+00    0.227E-01
DAV:   2    -0.140400776309E+03   -0.52492E-03   -0.10405E-02 17232   0.448E-01    0.157E-01
DAV:   3    -0.140400655365E+03    0.12094E-03   -0.69390E-04 15456   0.104E-01    0.298E-02
DAV:   4    -0.140400662532E+03   -0.71665E-05   -0.59497E-05 16992   0.301E-02    0.111E-02
DAV:   5    -0.140400661344E+03    0.11878E-05   -0.90149E-06 17088   0.121E-02    0.292E-03
DAV:   6    -0.140400661703E+03   -0.35879E-06   -0.19688E-06 14544   0.777E-03
  52 F= -.14228549E+03 E0= -.14228421E+03  d E =-.508578E-03  mag=    -0.0000
       N       E                     dE             d eps       ncg     rms          rms(c)
DAV:   1    -0.140399431441E+03    0.12299E-02   -0.55767E+00 14208   0.106E+01    0.454E-01
DAV:   2    -0.140401614503E+03   -0.21831E-02   -0.42056E-02 19776   0.896E-01    0.314E-01
DAV:   3    -0.140401068728E+03    0.54577E-03   -0.27514E-03 17376   0.202E-01    0.571E-02
DAV:   4    -0.140401089884E+03   -0.21155E-04   -0.22513E-04 22368   0.573E-02    0.217E-02
DAV:   5    -0.140401086686E+03    0.31984E-05   -0.28582E-05 18288   0.180E-02    0.494E-03
DAV:   6    -0.140401087239E+03   -0.55338E-06   -0.23466E-06 16848   0.643E-03
  53 F= -.14228557E+03 E0= -.14228426E+03  d E =-.583668E-03  mag=    -0.0000
       N       E                     dE             d eps       ncg     rms          rms(c)
DAV:   1    -0.140400780677E+03    0.30601E-03   -0.72409E-01 14208   0.383E+00    0.164E-01
DAV:   2    -0.140401047845E+03   -0.26717E-03   -0.54126E-03 14880   0.323E-01    0.113E-01
DAV:   3    -0.140400989427E+03    0.58419E-04   -0.36274E-04 15936   0.768E-02    0.230E-02
DAV:   4    -0.140400994110E+03   -0.46826E-05   -0.30341E-05 14544   0.213E-02    0.818E-03
DAV:   5    -0.140400993258E+03    0.85175E-06   -0.49416E-06 16992   0.833E-03
  54 F= -.14228560E+03 E0= -.14228430E+03  d E =-.614514E-03  mag=     0.0000
