<?xml version="1.0" encoding="ISO-8859-1"?>
<modeling>
 <generator>
  <i name="program" type="string">vasp </i>
  <i name="version" type="string">6.3.2  </i>
  <i name="subversion" type="string">27Jun22 (build Dec 22 2022 13:13:19) complex                          parallel </i>
  <i name="platform" type="string">LinuxIFC </i>
  <i name="date" type="string">2023 08 22 </i>
  <i name="time" type="string">23:08:48 </i>
 </generator>
 <incar>
  <i type="string" name="SYSTEM">Lattice</i>
  <i type="int" name="ISTART">     0</i>
  <i type="string" name="PREC">Accurate</i>
  <i type="string" name="ALGO">Normal</i>
  <i type="int" name="ISPIN">     2</i>
  <i type="int" name="ICHARG">     2</i>
  <i type="int" name="NELM">    64</i>
  <i type="int" name="IBRION">     2</i>
  <i name="EDIFF">      0.00000100</i>
  <i name="EDIFFG">     -0.00100000</i>
  <i type="int" name="NSW">   128</i>
  <i type="int" name="ISIF">     2</i>
  <i name="ENCUT">    450.00000000</i>
  <i name="POTIM">      0.50000000</i>
  <i type="int" name="ISMEAR">     0</i>
  <i name="SIGMA">      0.10000000</i>
  <i type="logical" name="LWAVE"> F  </i>
  <i type="logical" name="LCHARG"> F  </i>
  <i type="string" name="GGA">PE</i>
  <i type="int" name="IVDW">    12</i>
 </incar>
 <primitive_cell>
  <structure name="primitive_cell" >
   <crystal>
    <varray name="basis" >
     <v>       4.36650009       2.52100000       0.00000000 </v>
     <v>      -4.36650009       2.52100000       0.00000000 </v>
     <v>       0.00000000       0.00000000      15.00000000 </v>
    </varray>
    <i name="volume">    330.23840150 </i>
    <varray name="rec_basis" >
     <v>       0.11450819       0.19833399       0.00000000 </v>
     <v>      -0.11450819       0.19833399       0.00000000 </v>
     <v>       0.00000000       0.00000000       0.06666667 </v>
    </varray>
   </crystal>
   <varray name="positions" >
    <v>       0.33833034       0.66916432       0.10000000 </v>
    <v>       0.67165522       0.33584146       0.10000000 </v>
    <v>       0.16373946       0.31999962       0.10000000 </v>
    <v>       0.32250218       0.16126397       0.10000000 </v>
    <v>       0.16376430       0.84376384       0.10000000 </v>
    <v>       0.84623863       0.16123684       0.10000000 </v>
    <v>       0.68749850       0.84373000       0.10000000 </v>
    <v>       0.84626736       0.68499594       0.10000000 </v>
    <v>       0.24999933       0.24999967       0.32633333 </v>
    <v>       0.41666633       0.08333267       0.32633333 </v>
    <v>       0.24999933       0.74999967       0.32633333 </v>
    <v>       0.41666633       0.58333267       0.32633333 </v>
    <v>       0.74999933       0.24999967       0.32633333 </v>
    <v>       0.91666633       0.08333267       0.32633333 </v>
    <v>       0.74999933       0.74999967       0.32633333 </v>
    <v>       0.91666633       0.58333267       0.32633333 </v>
   </varray>
  </structure>
  <varray name="primitive_index" >
   <v type="int" >        1 </v>
   <v type="int" >        2 </v>
   <v type="int" >        3 </v>
   <v type="int" >        4 </v>
   <v type="int" >        5 </v>
   <v type="int" >        6 </v>
   <v type="int" >        7 </v>
   <v type="int" >        8 </v>
   <v type="int" >        9 </v>
   <v type="int" >       10 </v>
   <v type="int" >       11 </v>
   <v type="int" >       12 </v>
   <v type="int" >       13 </v>
   <v type="int" >       14 </v>
   <v type="int" >       15 </v>
   <v type="int" >       16 </v>
  </varray>
 </primitive_cell>
 <kpoints>
  <generation param="Gamma">
   <v type="int" name="divisions">      12       12        1 </v>
   <v name="usershift">      0.00000000       0.00000000       0.00000000 </v>
   <v name="genvec1">      0.08333333       0.00000000       0.00000000 </v>
   <v name="genvec2">      0.00000000       0.08333333       0.00000000 </v>
   <v name="genvec3">      0.00000000       0.00000000       1.00000000 </v>
   <v name="shift">      0.00000000       0.00000000       0.00000000 </v>
  </generation>
  <varray name="kpointlist" >
   <v>       0.00000000       0.00000000       0.00000000 </v>
   <v>       0.08333333      -0.00000000       0.00000000 </v>
   <v>      -0.00000000       0.08333333       0.00000000 </v>
   <v>      -0.08333333       0.08333333       0.00000000 </v>
   <v>       0.16666667      -0.00000000       0.00000000 </v>
   <v>      -0.00000000       0.16666667       0.00000000 </v>
   <v>      -0.16666667       0.16666667       0.00000000 </v>
   <v>       0.25000000      -0.00000000       0.00000000 </v>
   <v>      -0.00000000       0.25000000       0.00000000 </v>
   <v>      -0.25000000       0.25000000       0.00000000 </v>
   <v>       0.33333333      -0.00000000       0.00000000 </v>
   <v>      -0.00000000       0.33333333       0.00000000 </v>
   <v>      -0.33333333       0.33333333       0.00000000 </v>
   <v>       0.41666667      -0.00000000       0.00000000 </v>
   <v>       0.00000000       0.41666667       0.00000000 </v>
   <v>      -0.41666667       0.41666667       0.00000000 </v>
   <v>       0.50000000      -0.00000000       0.00000000 </v>
   <v>      -0.00000000       0.50000000       0.00000000 </v>
   <v>       0.50000000       0.50000000       0.00000000 </v>
   <v>       0.08333333       0.08333333       0.00000000 </v>
   <v>      -0.08333333       0.16666667       0.00000000 </v>
   <v>      -0.16666667       0.08333333       0.00000000 </v>
   <v>       0.16666667       0.08333333       0.00000000 </v>
   <v>      -0.08333333       0.25000000       0.00000000 </v>
   <v>      -0.25000000       0.16666667       0.00000000 </v>
   <v>      -0.16666667       0.25000000       0.00000000 </v>
   <v>       0.08333333       0.16666667       0.00000000 </v>
   <v>       0.25000000      -0.08333333       0.00000000 </v>
   <v>       0.25000000       0.08333333       0.00000000 </v>
   <v>      -0.08333333       0.33333333       0.00000000 </v>
   <v>      -0.33333333       0.25000000       0.00000000 </v>
   <v>      -0.25000000       0.33333333       0.00000000 </v>
   <v>       0.08333333       0.25000000       0.00000000 </v>
   <v>       0.33333333      -0.08333333       0.00000000 </v>
   <v>       0.33333333       0.08333333       0.00000000 </v>
   <v>      -0.08333333       0.41666667       0.00000000 </v>
   <v>      -0.41666667       0.33333333       0.00000000 </v>
   <v>      -0.33333333       0.41666667       0.00000000 </v>
   <v>       0.08333333       0.33333333       0.00000000 </v>
   <v>       0.41666667      -0.08333333       0.00000000 </v>
   <v>       0.41666667       0.08333333       0.00000000 </v>
   <v>      -0.08333333       0.50000000       0.00000000 </v>
   <v>       0.50000000       0.41666667       0.00000000 </v>
   <v>      -0.41666667       0.50000000       0.00000000 </v>
   <v>       0.08333333       0.41666667       0.00000000 </v>
   <v>       0.50000000      -0.08333333       0.00000000 </v>
   <v>       0.16666667       0.16666667       0.00000000 </v>
   <v>      -0.16666667       0.33333333       0.00000000 </v>
   <v>      -0.33333333       0.16666667       0.00000000 </v>
   <v>       0.25000000       0.16666667       0.00000000 </v>
   <v>      -0.16666667       0.41666667       0.00000000 </v>
   <v>      -0.41666667       0.25000000       0.00000000 </v>
   <v>      -0.25000000       0.41666667       0.00000000 </v>
   <v>       0.16666667       0.25000000       0.00000000 </v>
   <v>       0.41666667      -0.16666667       0.00000000 </v>
   <v>       0.33333333       0.16666667       0.00000000 </v>
   <v>      -0.16666667       0.50000000       0.00000000 </v>
   <v>       0.50000000       0.33333333       0.00000000 </v>
   <v>      -0.33333333       0.50000000       0.00000000 </v>
   <v>       0.16666667       0.33333333       0.00000000 </v>
   <v>       0.50000000      -0.16666667       0.00000000 </v>
   <v>       0.41666667       0.16666667       0.00000000 </v>
   <v>      -0.16666667      -0.41666667       0.00000000 </v>
   <v>       0.41666667       0.41666667       0.00000000 </v>
   <v>       0.25000000       0.25000000       0.00000000 </v>
   <v>      -0.25000000       0.50000000       0.00000000 </v>
   <v>       0.50000000       0.25000000       0.00000000 </v>
   <v>       0.33333333       0.25000000       0.00000000 </v>
   <v>      -0.25000000      -0.41666667       0.00000000 </v>
   <v>       0.41666667       0.33333333       0.00000000 </v>
   <v>      -0.33333333      -0.41666667       0.00000000 </v>
   <v>       0.25000000       0.33333333       0.00000000 </v>
   <v>      -0.41666667      -0.25000000       0.00000000 </v>
   <v>       0.33333333       0.33333333       0.00000000 </v>
  </varray>
  <varray name="weights" >
   <v>       0.00694444 </v>
   <v>       0.01388889 </v>
   <v>       0.01388889 </v>
   <v>       0.01388889 </v>
   <v>       0.01388889 </v>
   <v>       0.01388889 </v>
   <v>       0.01388889 </v>
   <v>       0.01388889 </v>
   <v>       0.01388889 </v>
   <v>       0.01388889 </v>
   <v>       0.01388889 </v>
   <v>       0.01388889 </v>
   <v>       0.01388889 </v>
   <v>       0.01388889 </v>
   <v>       0.01388889 </v>
   <v>       0.01388889 </v>
   <v>       0.00694444 </v>
   <v>       0.00694444 </v>
   <v>       0.00694444 </v>
   <v>       0.01388889 </v>
   <v>       0.01388889 </v>
   <v>       0.01388889 </v>
   <v>       0.01388889 </v>
   <v>       0.01388889 </v>
   <v>       0.01388889 </v>
   <v>       0.01388889 </v>
   <v>       0.01388889 </v>
   <v>       0.01388889 </v>
   <v>       0.01388889 </v>
   <v>       0.01388889 </v>
   <v>       0.01388889 </v>
   <v>       0.01388889 </v>
   <v>       0.01388889 </v>
   <v>       0.01388889 </v>
   <v>       0.01388889 </v>
   <v>       0.01388889 </v>
   <v>       0.01388889 </v>
   <v>       0.01388889 </v>
   <v>       0.01388889 </v>
   <v>       0.01388889 </v>
   <v>       0.01388889 </v>
   <v>       0.01388889 </v>
   <v>       0.01388889 </v>
   <v>       0.01388889 </v>
   <v>       0.01388889 </v>
   <v>       0.01388889 </v>
   <v>       0.01388889 </v>
   <v>       0.01388889 </v>
   <v>       0.01388889 </v>
   <v>       0.01388889 </v>
   <v>       0.01388889 </v>
   <v>       0.01388889 </v>
   <v>       0.01388889 </v>
   <v>       0.01388889 </v>
   <v>       0.01388889 </v>
   <v>       0.01388889 </v>
   <v>       0.01388889 </v>
   <v>       0.01388889 </v>
   <v>       0.01388889 </v>
   <v>       0.01388889 </v>
   <v>       0.01388889 </v>
   <v>       0.01388889 </v>
   <v>       0.01388889 </v>
   <v>       0.01388889 </v>
   <v>       0.01388889 </v>
   <v>       0.01388889 </v>
   <v>       0.01388889 </v>
   <v>       0.01388889 </v>
   <v>       0.01388889 </v>
   <v>       0.01388889 </v>
   <v>       0.01388889 </v>
   <v>       0.01388889 </v>
   <v>       0.01388889 </v>
   <v>       0.01388889 </v>
  </varray>
 </kpoints>
 <parameters>
  <separator name="general" >
   <i type="string" name="SYSTEM">Lattice</i>
   <i type="logical" name="LCOMPAT"> F  </i>
  </separator>
  <separator name="electronic" >
   <i type="string" name="PREC">accura</i>
   <i name="ENMAX">    450.00000000</i>
   <i name="ENAUG">    644.87300000</i>
   <i name="EDIFF">      0.00000100</i>
   <i type="int" name="IALGO">    38</i>
   <i type="int" name="IWAVPR">    11</i>
   <i type="int" name="NBANDS">    48</i>
   <i type="int" name="NBANDSLOW">    -1</i>
   <i type="int" name="NBANDSHIGH">    -1</i>
   <i name="NELECT">     62.00000000</i>
   <i type="int" name="TURBO">     0</i>
   <i type="int" name="IRESTART">     0</i>
   <i type="int" name="NREBOOT">     0</i>
   <i type="int" name="NMIN">     0</i>
   <i name="EREF">      0.00000000</i>
   <separator name="electronic smearing" >
    <i type="int" name="ISMEAR">     0</i>
    <i name="SIGMA">      0.10000000</i>
    <i name="KSPACING">      0.50000000</i>
    <i type="logical" name="KGAMMA"> T  </i>
    <i type="logical" name="KBLOWUP"> T  </i>
   </separator>
   <separator name="electronic projectors" >
    <i type="logical" name="LREAL"> F  </i>
    <v name="ROPT">      0.00000000      0.00000000</v>
    <i type="int" name="LMAXPAW">  -100</i>
    <i type="int" name="LMAXMIX">     2</i>
    <i type="logical" name="NLSPLINE"> F  </i>
   </separator>
   <separator name="electronic startup" >
    <i type="int" name="ISTART">     0</i>
    <i type="int" name="ICHARG">     2</i>
    <i type="int" name="INIWAV">     1</i>
   </separator>
   <separator name="electronic spin" >
    <i type="int" name="ISPIN">     2</i>
    <i type="logical" name="LNONCOLLINEAR"> F  </i>
    <v name="MAGMOM">      1.00000000      1.00000000      1.00000000      1.00000000      1.00000000      1.00000000      1.00000000      1.00000000      1.00000000      1.00000000      1.00000000      1.00000000      1.00000000      1.00000000      1.00000000      1.00000000</v>
    <i name="NUPDOWN">     -1.00000000</i>
    <i type="logical" name="LSORBIT"> F  </i>
    <v name="SAXIS">      0.00000000      0.00000000      1.00000000</v>
    <i type="logical" name="LSPIRAL"> F  </i>
    <v name="QSPIRAL">      0.00000000      0.00000000      0.00000000</v>
    <i type="logical" name="LZEROZ"> F  </i>
   </separator>
   <separator name="electronic exchange-correlation" >
    <i type="logical" name="LASPH"> F  </i>
    <i type="logical" name="LMETAGGA"> F  </i>
   </separator>
   <separator name="electronic convergence" >
    <i type="int" name="NELM">    64</i>
    <i type="int" name="NELMDL">    -5</i>
    <i type="int" name="NELMIN">     2</i>
    <i name="ENINI">    450.00000000</i>
    <separator name="electronic convergence detail" >
     <i type="logical" name="LDIAG"> T  </i>
     <i type="logical" name="LSUBROT"> F  </i>
     <i name="WEIMIN">      0.00100000</i>
     <i name="EBREAK">      0.00000001</i>
     <i name="DEPER">      0.30000000</i>
     <i type="int" name="NRMM">     4</i>
     <i name="TIME">      0.40000000</i>
    </separator>
   </separator>
   <separator name="electronic mixer" >
    <i name="AMIX">      0.40000000</i>
    <i name="BMIX">      1.00000000</i>
    <i name="AMIN">      0.10000000</i>
    <i name="AMIX_MAG">      1.60000000</i>
    <i name="BMIX_MAG">      1.00000000</i>
    <separator name="electronic mixer details" >
     <i type="int" name="IMIX">     4</i>
     <i type="logical" name="MIXFIRST"> F  </i>
     <i type="int" name="MAXMIX">   -45</i>
     <i name="WC">    100.00000000</i>
     <i type="int" name="INIMIX">     1</i>
     <i type="int" name="MIXPRE">     1</i>
     <i type="int" name="MREMOVE">     5</i>
    </separator>
   </separator>
   <separator name="electronic dipolcorrection" >
    <i type="logical" name="LDIPOL"> F  </i>
    <i type="logical" name="LMONO"> F  </i>
    <i type="int" name="IDIPOL">     0</i>
    <i name="EPSILON">      1.00000000</i>
    <v name="DIPOL">   -100.00000000   -100.00000000   -100.00000000</v>
    <i name="EFIELD">      0.00000000</i>
   </separator>
  </separator>
  <separator name="grids" >
   <i type="int" name="NGX">    36</i>
   <i type="int" name="NGY">    36</i>
   <i type="int" name="NGZ">   108</i>
   <i type="int" name="NGXF">    72</i>
   <i type="int" name="NGYF">    72</i>
   <i type="int" name="NGZF">   216</i>
   <i type="logical" name="ADDGRID"> F  </i>
  </separator>
  <separator name="ionic" >
   <i type="int" name="NSW">   128</i>
   <i type="int" name="IBRION">     2</i>
   <i type="int" name="MDALGO">     0</i>
   <i type="int" name="ISIF">     2</i>
   <i name="PSTRESS">      0.00000000</i>
   <i name="EDIFFG">     -0.00100000</i>
   <i type="int" name="NFREE">     1</i>
   <i name="POTIM">      0.50000000</i>
   <i name="SMASS">     -3.00000000</i>
   <i name="SCALEE">      1.00000000</i>
  </separator>
  <separator name="ionic md" >
   <i name="TEBEG">      0.00010000</i>
   <i name="TEEND">      0.00010000</i>
   <i type="int" name="NBLOCK">     1</i>
   <i type="int" name="KBLOCK">   128</i>
   <i type="int" name="NPACO">   256</i>
   <i name="APACO">     10.00000000</i>
  </separator>
  <separator name="symmetry" >
   <i type="int" name="ISYM">     2</i>
   <i name="SYMPREC">      0.00001000</i>
  </separator>
  <separator name="dos" >
   <i type="int" name="LORBIT">     0</i>
   <v name="RWIGS">     -1.00000000     -1.00000000</v>
   <i type="int" name="NEDOS">   301</i>
   <i name="EMIN">     10.00000000</i>
   <i name="EMAX">    -10.00000000</i>
   <i name="EFERMI">      0.00000000</i>
  </separator>
  <separator name="writing" >
   <i type="int" name="NWRITE">     2</i>
   <i type="logical" name="LWAVE"> F  </i>
   <i type="logical" name="LDOWNSAMPLE"> F  </i>
   <i type="logical" name="LCHARG"> F  </i>
   <i type="logical" name="LPARD"> F  </i>
   <i type="logical" name="LVTOT"> F  </i>
   <i type="logical" name="LVHAR"> F  </i>
   <i type="logical" name="LELF"> F  </i>
   <i type="logical" name="LOPTICS"> F  </i>
   <v name="STM">      0.00000000      0.00000000      0.00000000      0.00000000      0.00000000      0.00000000      0.00000000</v>
  </separator>
  <separator name="performance" >
   <i type="int" name="NPAR">    48</i>
   <i type="int" name="NSIM">     4</i>
   <i type="int" name="NBLK">    -1</i>
   <i type="logical" name="LPLANE"> T  </i>
   <i type="logical" name="LSCALAPACK"> T  </i>
   <i type="logical" name="LSCAAWARE"> F  </i>
   <i type="logical" name="LSCALU"> F  </i>
   <i type="logical" name="LASYNC"> F  </i>
   <i type="logical" name="LORBITALREAL"> F  </i>
  </separator>
  <separator name="miscellaneous" >
   <i type="int" name="IDIOT">     3</i>
   <i type="int" name="PHON_NSTRUCT">    -1</i>
   <i type="logical" name="LMUSIC"> F  </i>
   <v name="POMASS">     10.81100000     12.01100000</v>
   <v name="DARWINR">      0.00000000      0.00000000</v>
   <v name="DARWINV">      1.00000000      1.00000000</v>
   <i type="logical" name="LCORR"> T  </i>
  </separator>
  <i type="logical" name="GGA_COMPAT"> T  </i>
  <i type="logical" name="LBERRY"> F  </i>
  <i type="int" name="ICORELEVEL">     0</i>
  <i type="logical" name="LDAU"> F  </i>
  <i type="int" name="I_CONSTRAINED_M">     0</i>
  <separator name="electronic exchange-correlation" >
   <i type="string" name="GGA">PE</i>
   <i type="int" name="VOSKOWN">     0</i>
   <i type="logical" name="LHFCALC"> F  </i>
   <i type="string" name="PRECFOCK"></i>
   <i type="logical" name="LSYMGRAD"> F  </i>
   <i type="logical" name="LHFONE"> F  </i>
   <i type="logical" name="LRHFCALC"> F  </i>
   <i type="logical" name="LTHOMAS"> F  </i>
   <i type="logical" name="LMODELHF"> F  </i>
   <i type="logical" name="LFOCKACE"> F  </i>
   <i name="ENCUT4O">     -1.00000000</i>
   <i type="int" name="EXXOEP">     0</i>
   <i type="int" name="FOURORBIT">     0</i>
   <i name="AEXX">      0.00000000</i>
   <i name="HFALPHA">      0.00000000</i>
   <i name="MCALPHA">      0.00000000</i>
   <i name="ALDAX">      1.00000000</i>
   <i name="AGGAX">      1.00000000</i>
   <i name="ALDAC">      1.00000000</i>
   <i name="AGGAC">      1.00000000</i>
   <i type="int" name="NKREDX">     1</i>
   <i type="int" name="NKREDY">     1</i>
   <i type="int" name="NKREDZ">     1</i>
   <i type="logical" name="SHIFTRED"> F  </i>
   <i type="logical" name="ODDONLY"> F  </i>
   <i type="logical" name="EVENONLY"> F  </i>
   <i type="int" name="LMAXFOCK">     0</i>
   <i type="int" name="NMAXFOCKAE">     0</i>
   <i type="logical" name="LFOCKAEDFT"> F  </i>
   <i name="HFSCREEN">      0.00000000</i>
   <i name="HFSCREENC">      0.00000000</i>
   <i type="int" name="NBANDSGWLOW">     0</i>
  </separator>
  <separator name="vdW DFT" >
   <i type="logical" name="LUSE_VDW"> F  </i>
   <i name="Zab_VDW">     -0.84910000</i>
   <i name="PARAM1">      0.12340000</i>
   <i name="PARAM2">      1.00000000</i>
   <i name="PARAM3">      0.00000000</i>
  </separator>
  <separator name="model GW" >
   <i type="int" name="MODEL_GW">     0</i>
   <i name="MODEL_EPS0">     12.38394006</i>
   <i name="MODEL_ALPHA">      1.00000000</i>
  </separator>
  <separator name="linear response parameters" >
   <i type="logical" name="LEPSILON"> F  </i>
   <i type="logical" name="LRPA"> F  </i>
   <i type="logical" name="LNABLA"> F  </i>
   <i type="logical" name="LVEL"> F  </i>
   <i name="CSHIFT">      0.10000000</i>
   <i name="OMEGAMAX">     -1.00000000</i>
   <i name="DEG_THRESHOLD">      0.00200000</i>
   <i name="RTIME">     -0.10000000</i>
   <i name="WPLASMAI">      0.00000000</i>
   <v name="DFIELD">      0.00000000      0.00000000      0.00000000</v>
   <v name="WPLASMA">      0.00000000      0.00000000      0.00000000      0.00000000      0.00000000      0.00000000      0.00000000      0.00000000      0.00000000</v>
  </separator>
  <separator name="orbital magnetization" >
   <i type="logical" name="NUCIND"> F  </i>
   <v name="MAGPOS">      0.00000000      0.00000000      0.00000000</v>
   <i type="logical" name="LNICSALL"> T  </i>
   <i type="logical" name="ORBITALMAG"> F  </i>
   <i type="logical" name="LMAGBLOCH"> F  </i>
   <i type="logical" name="LCHIMAG"> F  </i>
   <i type="logical" name="LGAUGE"> T  </i>
   <i type="int" name="MAGATOM">     0</i>
   <v name="MAGDIPOL">      0.00000000      0.00000000      0.00000000</v>
   <v name="AVECCONST">      0.00000000      0.00000000      0.00000000</v>
  </separator>
  <separator name="response functions" >
   <i type="logical" name="LFINITE_TEMPERATURE"> F  </i>
   <i type="logical" name="LADDER"> F  </i>
   <i type="logical" name="LRPAFORCE"> F  </i>
   <i type="logical" name="LFXC"> F  </i>
   <i type="logical" name="LHARTREE"> T  </i>
   <i type="int" name="IBSE">     0</i>
   <v type="int" name="KPOINT">    -1     0     0     0</v>
   <i type="logical" name="LTCTC"> F  </i>
   <i type="logical" name="LTCTE"> F  </i>
   <i type="logical" name="LTETE"> F  </i>
   <i type="logical" name="LTRIPLET"> F  </i>
   <i type="logical" name="LFXCEPS"> F  </i>
   <i type="logical" name="LFXHEG"> F  </i>
   <i type="int" name="NATURALO">     2</i>
   <i type="logical" name="LHOLEGF"> F  </i>
   <i type="logical" name="L2ORDER"> F  </i>
   <i type="logical" name="LDMP1"> F  </i>
   <i type="logical" name="LMP2LT"> F  </i>
   <i type="logical" name="LSMP2LT"> F  </i>
   <i type="logical" name="LGWLF"> F  </i>
   <i name="ENCUTGW">     -2.00000000</i>
   <i name="ENCUTGWSOFT">     -2.00000000</i>
   <i name="ENCUTLF">     -1.00000000</i>
   <i type="logical" name="LESF_SPLINES"> F  </i>
   <i type="int" name="LMAXMP2">    -1</i>
   <i name="SCISSOR">      0.00000000</i>
   <i type="int" name="NOMEGA">     0</i>
   <i type="int" name="NOMEGAR">     0</i>
   <i type="int" name="NBANDSGW">    -1</i>
   <i type="int" name="NBANDSO">    -1</i>
   <i type="int" name="NBANDSV">    -1</i>
   <i type="int" name="NELMGW">     1</i>
   <i type="int" name="NELMHF">     1</i>
   <i type="int" name="DIM">     3</i>
   <i type="int" name="IESPILON">     4</i>
   <i type="int" name="ANTIRES">     0</i>
   <i name="OMEGAMAX">    -30.00000000</i>
   <i name="OMEGAMIN">    -30.00000000</i>
   <i name="OMEGATL">   -200.00000000</i>
   <i type="int" name="OMEGAGRID">     0</i>
   <i name="CSHIFT">     -0.10000000</i>
   <i type="logical" name="LSELFENERGY"> F  </i>
   <i type="logical" name="LSPECTRAL"> F  </i>
   <i type="logical" name="LSPECTRALGW"> F  </i>
   <i type="logical" name="LSINGLES"> F  </i>
   <i type="logical" name="LFERMIGW"> F  </i>
   <i type="logical" name="ODDONLYGW"> F  </i>
   <i type="logical" name="EVENONLYGW"> F  </i>
   <i type="int" name="NKREDLFX">     1</i>
   <i type="int" name="NKREDLFY">     1</i>
   <i type="int" name="NKREDLFZ">     1</i>
   <i type="int" name="MAXMEM">  2800</i>
   <i type="int" name="TELESCOPE">     0</i>
   <i type="int" name="NTAUPAR">    -1</i>
   <i type="int" name="NOMEGAPAR">    -1</i>
   <i name="DAMP_NEWTON">      0.80000001</i>
   <i name="LAMBDA">      1.00000000</i>
  </separator>
  <separator name="External order field" >
   <i name="OFIELD_KAPPA">      0.00000000</i>
   <v name="OFIELD_K">      0.00000000      0.00000000      0.00000000</v>
   <i name="OFIELD_Q6_NEAR">      0.00000000</i>
   <i name="OFIELD_Q6_FAR">      0.00000000</i>
   <i name="OFIELD_A">      0.00000000</i>
  </separator>
  <separator name="optional k-points parameters" >
   <i type="int" name="KPOINTS_OPT_MODE">     1</i>
   <i type="logical" name="LKPOINTS_OPT"> F  </i>
  </separator>
  <separator name="solvation model" >
   <i type="logical" name="LSOL"> F  </i>
  </separator>
 </parameters>
 <atominfo>
  <atoms>      16 </atoms>
  <types>       2 </types>
  <array name="atoms" >
   <dimension dim="1">ion</dimension>
   <field type="string">element</field>
   <field type="int">atomtype</field>
   <set>
    <rc><c>B </c><c>   1</c></rc>
    <rc><c>B </c><c>   1</c></rc>
    <rc><c>C </c><c>   2</c></rc>
    <rc><c>C </c><c>   2</c></rc>
    <rc><c>C </c><c>   2</c></rc>
    <rc><c>C </c><c>   2</c></rc>
    <rc><c>C </c><c>   2</c></rc>
    <rc><c>C </c><c>   2</c></rc>
    <rc><c>C </c><c>   2</c></rc>
    <rc><c>C </c><c>   2</c></rc>
    <rc><c>C </c><c>   2</c></rc>
    <rc><c>C </c><c>   2</c></rc>
    <rc><c>C </c><c>   2</c></rc>
    <rc><c>C </c><c>   2</c></rc>
    <rc><c>C </c><c>   2</c></rc>
    <rc><c>C </c><c>   2</c></rc>
   </set>
  </array>
  <array name="atomtypes" >
   <dimension dim="1">type</dimension>
   <field type="int">atomspertype</field>
   <field type="string">element</field>
   <field>mass</field>
   <field>valence</field>
   <field type="string">pseudopotential</field>
   <set>
    <rc><c>   2</c><c>B </c><c>     10.81100000</c><c>      3.00000000</c><c>  PAW_PBE B 06Sep2000                   </c></rc>
    <rc><c>  14</c><c>C </c><c>     12.01100000</c><c>      4.00000000</c><c>  PAW_PBE C 08Apr2002                   </c></rc>
   </set>
  </array>
 </atominfo>
 <structure name="initialpos" >
  <crystal>
   <varray name="basis" >
    <v>       4.36650009       2.52100000       0.00000000 </v>
    <v>      -4.36650009       2.52100000       0.00000000 </v>
    <v>       0.00000000       0.00000000      15.00000000 </v>
   </varray>
   <i name="volume">    330.23840150 </i>
   <varray name="rec_basis" >
    <v>       0.11450819       0.19833399       0.00000000 </v>
    <v>      -0.11450819       0.19833399       0.00000000 </v>
    <v>       0.00000000       0.00000000       0.06666667 </v>
   </varray>
  </crystal>
  <varray name="positions" >
   <v>       0.33833034       0.66916432       0.10000000 </v>
   <v>       0.67165522       0.33584146       0.10000000 </v>
   <v>       0.16373946       0.31999962       0.10000000 </v>
   <v>       0.32250218       0.16126397       0.10000000 </v>
   <v>       0.16376430       0.84376384       0.10000000 </v>
   <v>       0.84623863       0.16123684       0.10000000 </v>
   <v>       0.68749850       0.84373000       0.10000000 </v>
   <v>       0.84626736       0.68499594       0.10000000 </v>
   <v>       0.24999933       0.24999967       0.32633333 </v>
   <v>       0.41666633       0.08333267       0.32633333 </v>
   <v>       0.24999933       0.74999967       0.32633333 </v>
   <v>       0.41666633       0.58333267       0.32633333 </v>
   <v>       0.74999933       0.24999967       0.32633333 </v>
   <v>       0.91666633       0.08333267       0.32633333 </v>
   <v>       0.74999933       0.74999967       0.32633333 </v>
   <v>       0.91666633       0.58333267       0.32633333 </v>
  </varray>
 </structure>
 <calculation>
  <scstep>
   <time name="dav">    5.67    5.71</time>
   <time name="total">    5.72    5.77</time>
   <energy>
    <i name="alphaZ">     62.58923237 </i>
    <i name="ewald">   5439.44267749 </i>
    <i name="hartreedc">  -7257.09599013 </i>
    <i name="XCdc">    199.83243069 </i>
    <i name="pawpsdc">   1604.28699987 </i>
    <i name="pawaedc">  -1610.37247880 </i>
    <i name="eentropy">     -0.01833350 </i>
    <i name="bandstr">   -381.56123959 </i>
    <i name="atom">   2202.35892741 </i>
    <i name="e_fr_energy">    259.46222580 </i>
    <i name="e_wo_entrp">    259.48055930 </i>
    <i name="e_0_energy">    259.47139255 </i>
   </energy>
  </scstep>
  <scstep>
   <time name="dav">    8.82    8.88</time>
   <time name="total">    8.82    8.88</time>
   <energy>
    <i name="e_fr_energy">   -130.08762797 </i>
    <i name="e_wo_entrp">   -130.07735476 </i>
    <i name="e_0_energy">   -130.08249136 </i>
   </energy>
  </scstep>
  <scstep>
   <time name="dav">   11.03   11.11</time>
   <time name="total">   11.03   11.11</time>
   <energy>
    <i name="e_fr_energy">   -145.75692328 </i>
    <i name="e_wo_entrp">   -145.75008494 </i>
    <i name="e_0_energy">   -145.75350411 </i>
   </energy>
  </scstep>
  <scstep>
   <time name="dav">    9.24    9.32</time>
   <time name="total">    9.24    9.32</time>
   <energy>
    <i name="e_fr_energy">   -145.79580192 </i>
    <i name="e_wo_entrp">   -145.78890801 </i>
    <i name="e_0_energy">   -145.79235496 </i>
   </energy>
  </scstep>
  <scstep>
   <time name="dav">   10.16   10.23</time>
   <time name="total">   10.43   10.51</time>
   <energy>
    <i name="e_fr_energy">   -145.79587809 </i>
    <i name="e_wo_entrp">   -145.78898435 </i>
    <i name="e_0_energy">   -145.79243122 </i>
   </energy>
  </scstep>
  <scstep>
   <time name="dav">   10.08   10.16</time>
   <time name="total">   10.38   10.47</time>
   <energy>
    <i name="e_fr_energy">   -107.21307967 </i>
    <i name="e_wo_entrp">   -107.19172530 </i>
    <i name="e_0_energy">   -107.20240249 </i>
   </energy>
  </scstep>
  <scstep>
   <time name="dav">    9.59    9.66</time>
   <time name="total">    9.89    9.97</time>
   <energy>
    <i name="e_fr_energy">   -114.39978568 </i>
    <i name="e_wo_entrp">   -114.38192050 </i>
    <i name="e_0_energy">   -114.39085309 </i>
   </energy>
  </scstep>
  <scstep>
   <time name="dav">   10.30   10.36</time>
   <time name="total">   10.59   10.66</time>
   <energy>
    <i name="e_fr_energy">   -123.59345626 </i>
    <i name="e_wo_entrp">   -123.58644185 </i>
    <i name="e_0_energy">   -123.58994906 </i>
   </energy>
  </scstep>
  <scstep>
   <time name="dav">    6.90    6.95</time>
   <time name="total">    7.19    7.25</time>
   <energy>
    <i name="e_fr_energy">   -131.38528396 </i>
    <i name="e_wo_entrp">   -131.38029007 </i>
    <i name="e_0_energy">   -131.38278701 </i>
   </energy>
  </scstep>
  <scstep>
   <time name="dav">    9.00    9.07</time>
   <time name="total">    9.29    9.37</time>
   <energy>
    <i name="e_fr_energy">   -138.60749066 </i>
    <i name="e_wo_entrp">   -138.60550146 </i>
    <i name="e_0_energy">   -138.60649606 </i>
   </energy>
  </scstep>
  <scstep>
   <time name="dav">    8.79    8.85</time>
   <time name="total">    9.08    9.15</time>
   <energy>
    <i name="e_fr_energy">   -140.04058411 </i>
    <i name="e_wo_entrp">   -140.03876230 </i>
    <i name="e_0_energy">   -140.03967320 </i>
   </energy>
  </scstep>
  <scstep>
   <time name="dav">    8.76    8.82</time>
   <time name="total">    9.05    9.13</time>
   <energy>
    <i name="e_fr_energy">   -140.28927674 </i>
    <i name="e_wo_entrp">   -140.28756820 </i>
    <i name="e_0_energy">   -140.28842247 </i>
   </energy>
  </scstep>
  <scstep>
   <time name="dav">    7.00    7.06</time>
   <time name="total">    7.29    7.36</time>
   <energy>
    <i name="e_fr_energy">   -140.34331562 </i>
    <i name="e_wo_entrp">   -140.34140282 </i>
    <i name="e_0_energy">   -140.34235922 </i>
   </energy>
  </scstep>
  <scstep>
   <time name="dav">    7.56    7.62</time>
   <time name="total">    7.86    7.93</time>
   <energy>
    <i name="e_fr_energy">   -140.36806708 </i>
    <i name="e_wo_entrp">   -140.36600205 </i>
    <i name="e_0_energy">   -140.36703456 </i>
   </energy>
  </scstep>
  <scstep>
   <time name="dav">    7.52    7.57</time>
   <time name="total">    7.81    7.87</time>
   <energy>
    <i name="e_fr_energy">   -140.37699282 </i>
    <i name="e_wo_entrp">   -140.37483215 </i>
    <i name="e_0_energy">   -140.37591249 </i>
   </energy>
  </scstep>
  <scstep>
   <time name="dav">    5.75    5.79</time>
   <time name="total">    6.04    6.09</time>
   <energy>
    <i name="e_fr_energy">   -140.37839316 </i>
    <i name="e_wo_entrp">   -140.37620671 </i>
    <i name="e_0_energy">   -140.37729993 </i>
   </energy>
  </scstep>
  <scstep>
   <time name="dav">    6.44    6.49</time>
   <time name="total">    6.74    6.79</time>
   <energy>
    <i name="e_fr_energy">   -140.38013785 </i>
    <i name="e_wo_entrp">   -140.37795190 </i>
    <i name="e_0_energy">   -140.37904488 </i>
   </energy>
  </scstep>
  <scstep>
   <time name="dav">    6.28    6.32</time>
   <time name="total">    6.57    6.62</time>
   <energy>
    <i name="e_fr_energy">   -140.38118736 </i>
    <i name="e_wo_entrp">   -140.37901481 </i>
    <i name="e_0_energy">   -140.38010109 </i>
   </energy>
  </scstep>
  <scstep>
   <time name="dav">    7.54    7.60</time>
   <time name="total">    7.84    7.91</time>
   <energy>
    <i name="e_fr_energy">   -140.38169716 </i>
    <i name="e_wo_entrp">   -140.37952878 </i>
    <i name="e_0_energy">   -140.38061297 </i>
   </energy>
  </scstep>
  <scstep>
   <time name="dav">    6.65    6.70</time>
   <time name="total">    6.94    7.00</time>
   <energy>
    <i name="e_fr_energy">   -140.38184584 </i>
    <i name="e_wo_entrp">   -140.37967102 </i>
    <i name="e_0_energy">   -140.38075843 </i>
   </energy>
  </scstep>
  <scstep>
   <time name="dav">    7.48    7.53</time>
   <time name="total">    7.77    7.83</time>
   <energy>
    <i name="e_fr_energy">   -140.38189072 </i>
    <i name="e_wo_entrp">   -140.37971102 </i>
    <i name="e_0_energy">   -140.38080087 </i>
   </energy>
  </scstep>
  <scstep>
   <time name="dav">   10.30   10.37</time>
   <time name="total">   10.59   10.67</time>
   <energy>
    <i name="e_fr_energy">   -140.38189605 </i>
    <i name="e_wo_entrp">   -140.37971592 </i>
    <i name="e_0_energy">   -140.38080598 </i>
   </energy>
  </scstep>
  <scstep>
   <time name="dav">    8.29    8.34</time>
   <time name="total">    8.58    8.65</time>
   <energy>
    <i name="e_fr_energy">   -140.38190353 </i>
    <i name="e_wo_entrp">   -140.37972301 </i>
    <i name="e_0_energy">   -140.38081327 </i>
   </energy>
  </scstep>
  <scstep>
   <time name="dav">    9.28    9.34</time>
   <time name="total">    9.57    9.65</time>
   <energy>
    <i name="e_fr_energy">   -140.38190729 </i>
    <i name="e_wo_entrp">   -140.37972697 </i>
    <i name="e_0_energy">   -140.38081713 </i>
   </energy>
  </scstep>
  <scstep>
   <time name="dav">    8.58    8.64</time>
   <time name="total">    8.87    8.94</time>
   <energy>
    <i name="e_fr_energy">   -140.38190903 </i>
    <i name="e_wo_entrp">   -140.37972923 </i>
    <i name="e_0_energy">   -140.38081913 </i>
   </energy>
  </scstep>
  <scstep>
   <time name="dav">    7.22    7.27</time>
   <time name="total">    7.25    7.30</time>
   <energy>
    <i name="alphaZ">     62.58923237 </i>
    <i name="ewald">   5439.44267749 </i>
    <i name="hartreedc">  -7489.26917723 </i>
    <i name="XCdc">    206.46642312 </i>
    <i name="pawpsdc">   6324.77475706 </i>
    <i name="pawaedc">  -6332.79079908 </i>
    <i name="eentropy">     -0.00217954 </i>
    <i name="bandstr">   -553.95177162 </i>
    <i name="atom">   2202.35892741 </i>
    <i name="e_fr_energy">   -140.38191003 </i>
    <i name="e_wo_entrp">   -140.37973049 </i>
    <i name="e_0_energy">   -140.38082026 </i>
   </energy>
  </scstep>
  <structure>
   <crystal>
    <varray name="basis" >
     <v>       4.36650009       2.52100000       0.00000000 </v>
     <v>      -4.36650009       2.52100000       0.00000000 </v>
     <v>       0.00000000       0.00000000      15.00000000 </v>
    </varray>
    <i name="volume">    330.23840150 </i>
    <varray name="rec_basis" >
     <v>       0.11450819       0.19833399       0.00000000 </v>
     <v>      -0.11450819       0.19833399       0.00000000 </v>
     <v>       0.00000000       0.00000000       0.06666667 </v>
    </varray>
   </crystal>
   <varray name="positions" >
    <v>       0.33833034       0.66916432       0.10000000 </v>
    <v>       0.67165522       0.33584146       0.10000000 </v>
    <v>       0.16373946       0.31999962       0.10000000 </v>
    <v>       0.32250218       0.16126397       0.10000000 </v>
    <v>       0.16376430       0.84376384       0.10000000 </v>
    <v>       0.84623863       0.16123684       0.10000000 </v>
    <v>       0.68749850       0.84373000       0.10000000 </v>
    <v>       0.84626736       0.68499594       0.10000000 </v>
    <v>       0.24999933       0.24999967       0.32633333 </v>
    <v>       0.41666633       0.08333267       0.32633333 </v>
    <v>       0.24999933       0.74999967       0.32633333 </v>
    <v>       0.41666633       0.58333267       0.32633333 </v>
    <v>       0.74999933       0.24999967       0.32633333 </v>
    <v>       0.91666633       0.08333267       0.32633333 </v>
    <v>       0.74999933       0.74999967       0.32633333 </v>
    <v>       0.91666633       0.58333267       0.32633333 </v>
   </varray>
  </structure>
  <varray name="forces" >
   <v>       0.01974100       0.00013890       0.04445242 </v>
   <v>       0.02510730      -0.00006268       0.02600613 </v>
   <v>      -0.29910156       0.52336326      -0.01767948 </v>
   <v>       0.28455999       0.49944977      -0.00801346 </v>
   <v>       0.57271994      -0.00030200      -0.01393764 </v>
   <v>      -0.60570482      -0.00089926      -0.01263595 </v>
   <v>      -0.29995192      -0.52118388      -0.01755847 </v>
   <v>       0.28123403      -0.50015596      -0.00793688 </v>
   <v>       0.02418214      -0.02808873       0.02249147 </v>
   <v>      -0.02838677      -0.02168183       0.01956732 </v>
   <v>      -0.03314260       0.00061542      -0.01969621 </v>
   <v>       0.01941260      -0.00018804      -0.03223143 </v>
   <v>       0.00712911      -0.00045359      -0.03878332 </v>
   <v>       0.03715730      -0.00039581       0.01505724 </v>
   <v>       0.02361600       0.02848592       0.02295281 </v>
   <v>      -0.02857173       0.02135849       0.01794545 </v>
  </varray>
  <varray name="stress" >
   <v>       3.04234075      -0.00459253       0.35046290 </v>
   <v>      -0.00459252       2.84140890      -0.00852002 </v>
   <v>       0.35046288      -0.00852005      -2.22563448 </v>
  </varray>
  <energy>
   <i name="e_fr_energy">   -142.27033412 </i>
   <i name="e_wo_entrp">   -142.26815458 </i>
   <i name="e_0_energy">   -142.26924435 </i>
  </energy>
  <time name="totalsc">  225.69  227.50</time>
 </calculation>
 <calculation>
  <scstep>
   <time name="dav">    5.73    5.78</time>
   <time name="total">    6.02    6.08</time>
   <energy>
    <i name="alphaZ">     62.58923237 </i>
    <i name="ewald">   5430.35973865 </i>
    <i name="hartreedc">  -7482.61614015 </i>
    <i name="XCdc">    206.32369252 </i>
    <i name="pawpsdc">   6324.79174404 </i>
    <i name="pawaedc">  -6332.80778758 </i>
    <i name="eentropy">     -0.00281822 </i>
    <i name="bandstr">   -551.33280846 </i>
    <i name="atom">   2202.35892741 </i>
    <i name="e_fr_energy">   -140.33621944 </i>
    <i name="e_wo_entrp">   -140.33340122 </i>
    <i name="e_0_energy">   -140.33481033 </i>
   </energy>
  </scstep>
  <scstep>
   <time name="dav">   10.39   10.46</time>
   <time name="total">   10.68   10.76</time>
   <energy>
    <i name="e_fr_energy">   -140.29669296 </i>
    <i name="e_wo_entrp">   -140.29370155 </i>
    <i name="e_0_energy">   -140.29519725 </i>
   </energy>
  </scstep>
  <scstep>
   <time name="dav">    9.43    9.49</time>
   <time name="total">    9.71    9.79</time>
   <energy>
    <i name="e_fr_energy">   -140.29280790 </i>
    <i name="e_wo_entrp">   -140.28985607 </i>
    <i name="e_0_energy">   -140.29133198 </i>
   </energy>
  </scstep>
  <scstep>
   <time name="dav">    7.79    7.84</time>
   <time name="total">    8.08    8.15</time>
   <energy>
    <i name="e_fr_energy">   -140.29274243 </i>
    <i name="e_wo_entrp">   -140.28980415 </i>
    <i name="e_0_energy">   -140.29127329 </i>
   </energy>
  </scstep>
  <scstep>
   <time name="dav">    8.43    8.49</time>
   <time name="total">    8.72    8.79</time>
   <energy>
    <i name="e_fr_energy">   -140.29274469 </i>
    <i name="e_wo_entrp">   -140.28983797 </i>
    <i name="e_0_energy">   -140.29129133 </i>
   </energy>
  </scstep>
  <scstep>
   <time name="dav">    8.92    8.97</time>
   <time name="total">    9.21    9.27</time>
   <energy>
    <i name="e_fr_energy">   -140.29274892 </i>
    <i name="e_wo_entrp">   -140.28983703 </i>
    <i name="e_0_energy">   -140.29129297 </i>
   </energy>
  </scstep>
  <scstep>
   <time name="dav">    8.48    8.54</time>
   <time name="total">    8.77    8.84</time>
   <energy>
    <i name="e_fr_energy">   -140.29276033 </i>
    <i name="e_wo_entrp">   -140.28984512 </i>
    <i name="e_0_energy">   -140.29130273 </i>
   </energy>
  </scstep>
  <scstep>
   <time name="dav">    8.98    9.04</time>
   <time name="total">    9.27    9.34</time>
   <energy>
    <i name="e_fr_energy">   -140.29277008 </i>
    <i name="e_wo_entrp">   -140.28985611 </i>
    <i name="e_0_energy">   -140.29131309 </i>
   </energy>
  </scstep>
  <scstep>
   <time name="dav">    7.48    7.53</time>
   <time name="total">    7.76    7.83</time>
   <energy>
    <i name="e_fr_energy">   -140.29278589 </i>
    <i name="e_wo_entrp">   -140.28987427 </i>
    <i name="e_0_energy">   -140.29133008 </i>
   </energy>
  </scstep>
  <scstep>
   <time name="dav">    8.48    8.54</time>
   <time name="total">    8.77    8.84</time>
   <energy>
    <i name="e_fr_energy">   -140.29279253 </i>
    <i name="e_wo_entrp">   -140.28988122 </i>
    <i name="e_0_energy">   -140.29133688 </i>
   </energy>
  </scstep>
  <scstep>
   <time name="dav">    7.03    7.08</time>
   <time name="total">    7.33    7.39</time>
   <energy>
    <i name="e_fr_energy">   -140.29279896 </i>
    <i name="e_wo_entrp">   -140.28988773 </i>
    <i name="e_0_energy">   -140.29134335 </i>
   </energy>
  </scstep>
  <scstep>
   <time name="dav">    6.41    6.45</time>
   <time name="total">    6.70    6.76</time>
   <energy>
    <i name="e_fr_energy">   -140.29280171 </i>
    <i name="e_wo_entrp">   -140.28989064 </i>
    <i name="e_0_energy">   -140.29134617 </i>
   </energy>
  </scstep>
  <scstep>
   <time name="dav">    8.14    8.19</time>
   <time name="total">    8.17    8.22</time>
   <energy>
    <i name="alphaZ">     62.58923237 </i>
    <i name="ewald">   5430.35973865 </i>
    <i name="hartreedc">  -7479.90133186 </i>
    <i name="XCdc">    206.21659184 </i>
    <i name="pawpsdc">   6283.32934498 </i>
    <i name="pawaedc">  -6291.33107102 </i>
    <i name="eentropy">     -0.00291098 </i>
    <i name="bandstr">   -553.91132361 </i>
    <i name="atom">   2202.35892741 </i>
    <i name="e_fr_energy">   -140.29280222 </i>
    <i name="e_wo_entrp">   -140.28989124 </i>
    <i name="e_0_energy">   -140.29134673 </i>
   </energy>
  </scstep>
  <structure>
   <crystal>
    <varray name="basis" >
     <v>       4.36650009       2.52100000       0.00000000 </v>
     <v>      -4.36650009       2.52100000       0.00000000 </v>
     <v>       0.00000000       0.00000000      15.00000000 </v>
    </varray>
    <i name="volume">    330.23840150 </i>
    <varray name="rec_basis" >
     <v>       0.11450819       0.19833399       0.00000000 </v>
     <v>      -0.11450819       0.19833399       0.00000000 </v>
     <v>       0.00000000       0.00000000       0.06666667 </v>
    </varray>
   </crystal>
   <varray name="positions" >
    <v>       0.33844073       0.66905660       0.10014297 </v>
    <v>       0.67179331       0.33570216       0.10008364 </v>
    <v>       0.16709480       0.32665954       0.09994314 </v>
    <v>       0.32885296       0.16447082       0.09997423 </v>
    <v>       0.16692522       0.84059714       0.09995517 </v>
    <v>       0.84288401       0.16457426       0.09995936 </v>
    <v>       0.68085475       0.84040022       0.09994353 </v>
    <v>       0.84303537       0.67865678       0.09997447 </v>
    <v>       0.24986416       0.24959732       0.32640567 </v>
    <v>       0.41630206       0.08328203       0.32639627 </v>
    <v>       0.24982214       0.75018864       0.32626999 </v>
    <v>       0.41677177       0.58322363       0.32622967 </v>
    <v>       0.75003438       0.24995594       0.32620860 </v>
    <v>       0.91686781       0.08312362       0.32638176 </v>
    <v>       0.75040235       0.75014177       0.32640715 </v>
    <v>       0.91671286       0.58369486       0.32639105 </v>
   </varray>
  </structure>
  <varray name="forces" >
   <v>      -0.06292615       0.00097235       0.00761358 </v>
   <v>      -0.07823208       0.00039027       0.00411439 </v>
   <v>       0.77604650      -1.39785074      -0.00156920 </v>
   <v>      -0.76450095      -1.31206162      -0.00628689 </v>
   <v>      -1.52473599      -0.00203368       0.00266723 </v>
   <v>       1.62221362       0.00585296      -0.00783304 </v>
   <v>       0.77321798       1.39175940      -0.00157132 </v>
   <v>      -0.75958498       1.31330861      -0.00611958 </v>
   <v>      -0.04839194       0.06324177       0.00603789 </v>
   <v>       0.07756626       0.04727159      -0.00164910 </v>
   <v>       0.07807709      -0.00183980      -0.00016360 </v>
   <v>      -0.03490346       0.00059994      -0.00303824 </v>
   <v>      -0.01450295       0.00073424       0.00157643 </v>
   <v>      -0.07021454       0.00097873       0.00213376 </v>
   <v>      -0.04705471      -0.06499828       0.00592962 </v>
   <v>       0.07792628      -0.04632573      -0.00184192 </v>
  </varray>
  <varray name="stress" >
   <v>      -4.48084155      -0.02768863       0.29886513 </v>
   <v>      -0.02768863      -4.99816677      -0.00707540 </v>
   <v>       0.29886513      -0.00707536      -2.21342386 </v>
  </varray>
  <energy>
   <i name="e_fr_energy">   -142.18592334 </i>
   <i name="e_wo_entrp">   -142.18301236 </i>
   <i name="e_0_energy">   -142.18446785 </i>
  </energy>
  <time name="totalsc">  114.45  115.35</time>
 </calculation>
 <calculation>
  <scstep>
   <time name="dav">    5.65    5.68</time>
   <time name="total">    5.94    5.98</time>
   <energy>
    <i name="alphaZ">     62.58923237 </i>
    <i name="ewald">   5436.74621109 </i>
    <i name="hartreedc">  -7484.46272892 </i>
    <i name="XCdc">    206.31249577 </i>
    <i name="pawpsdc">   6283.32242764 </i>
    <i name="pawaedc">  -6291.32415996 </i>
    <i name="eentropy">     -0.00169207 </i>
    <i name="bandstr">   -555.95714690 </i>
    <i name="atom">   2202.35892741 </i>
    <i name="e_fr_energy">   -140.41643357 </i>
    <i name="e_wo_entrp">   -140.41474150 </i>
    <i name="e_0_energy">   -140.41558754 </i>
   </energy>
  </scstep>
  <scstep>
   <time name="dav">   10.14   10.20</time>
   <time name="total">   10.43   10.50</time>
   <energy>
    <i name="e_fr_energy">   -140.39634476 </i>
    <i name="e_wo_entrp">   -140.39433229 </i>
    <i name="e_0_energy">   -140.39533852 </i>
   </energy>
  </scstep>
  <scstep>
   <time name="dav">    9.63    9.70</time>
   <time name="total">    9.92   10.00</time>
   <energy>
    <i name="e_fr_energy">   -140.39404069 </i>
    <i name="e_wo_entrp">   -140.39173094 </i>
    <i name="e_0_energy">   -140.39288582 </i>
   </energy>
  </scstep>
  <scstep>
   <time name="dav">    7.57    7.62</time>
   <time name="total">    7.86    7.92</time>
   <energy>
    <i name="e_fr_energy">   -140.39395166 </i>
    <i name="e_wo_entrp">   -140.39159731 </i>
    <i name="e_0_energy">   -140.39277449 </i>
   </energy>
  </scstep>
  <scstep>
   <time name="dav">    7.86    7.91</time>
   <time name="total">    8.15    8.21</time>
   <energy>
    <i name="e_fr_energy">   -140.39394398 </i>
    <i name="e_wo_entrp">   -140.39151142 </i>
    <i name="e_0_energy">   -140.39272770 </i>
   </energy>
  </scstep>
  <scstep>
   <time name="dav">    8.26    8.32</time>
   <time name="total">    8.55    8.62</time>
   <energy>
    <i name="e_fr_energy">   -140.39394115 </i>
    <i name="e_wo_entrp">   -140.39151913 </i>
    <i name="e_0_energy">   -140.39273014 </i>
   </energy>
  </scstep>
  <scstep>
   <time name="dav">    9.88    9.94</time>
   <time name="total">   10.17   10.24</time>
   <energy>
    <i name="e_fr_energy">   -140.39394539 </i>
    <i name="e_wo_entrp">   -140.39152219 </i>
    <i name="e_0_energy">   -140.39273379 </i>
   </energy>
  </scstep>
  <scstep>
   <time name="dav">    9.00    9.06</time>
   <time name="total">    9.29    9.36</time>
   <energy>
    <i name="e_fr_energy">   -140.39394915 </i>
    <i name="e_wo_entrp">   -140.39152364 </i>
    <i name="e_0_energy">   -140.39273639 </i>
   </energy>
  </scstep>
  <scstep>
   <time name="dav">    8.26    8.31</time>
   <time name="total">    8.56    8.63</time>
   <energy>
    <i name="e_fr_energy">   -140.39395726 </i>
    <i name="e_wo_entrp">   -140.39152820 </i>
    <i name="e_0_energy">   -140.39274273 </i>
   </energy>
  </scstep>
  <scstep>
   <time name="dav">    6.55    6.59</time>
   <time name="total">    6.84    6.90</time>
   <energy>
    <i name="e_fr_energy">   -140.39396287 </i>
    <i name="e_wo_entrp">   -140.39153286 </i>
    <i name="e_0_energy">   -140.39274787 </i>
   </energy>
  </scstep>
  <scstep>
   <time name="dav">    5.88    5.91</time>
   <time name="total">    6.16    6.21</time>
   <energy>
    <i name="e_fr_energy">   -140.39396784 </i>
    <i name="e_wo_entrp">   -140.39153757 </i>
    <i name="e_0_energy">   -140.39275271 </i>
   </energy>
  </scstep>
  <scstep>
   <time name="dav">   10.09   10.15</time>
   <time name="total">   10.12   10.18</time>
   <energy>
    <i name="alphaZ">     62.58923237 </i>
    <i name="ewald">   5436.74621109 </i>
    <i name="hartreedc">  -7486.53979843 </i>
    <i name="XCdc">    206.39374672 </i>
    <i name="pawpsdc">   6310.73242211 </i>
    <i name="pawaedc">  -6318.74345715 </i>
    <i name="eentropy">     -0.00243042 </i>
    <i name="bandstr">   -553.92882200 </i>
    <i name="atom">   2202.35892741 </i>
    <i name="e_fr_energy">   -140.39396831 </i>
    <i name="e_wo_entrp">   -140.39153789 </i>
    <i name="e_0_energy">   -140.39275310 </i>
   </energy>
  </scstep>
  <structure>
   <crystal>
    <varray name="basis" >
     <v>       4.36650009       2.52100000       0.00000000 </v>
     <v>      -4.36650009       2.52100000       0.00000000 </v>
     <v>       0.00000000       0.00000000      15.00000000 </v>
    </varray>
    <i name="volume">    330.23840150 </i>
    <varray name="rec_basis" >
     <v>       0.11450819       0.19833399       0.00000000 </v>
     <v>      -0.11450819       0.19833399       0.00000000 </v>
     <v>       0.00000000       0.00000000       0.06666667 </v>
    </varray>
   </crystal>
   <varray name="positions" >
    <v>       0.33836017       0.66913521       0.10003864 </v>
    <v>       0.67169254       0.33580382       0.10002260 </v>
    <v>       0.16464625       0.32179948       0.09998463 </v>
    <v>       0.32421849       0.16213063       0.09999303 </v>
    <v>       0.16461855       0.84290803       0.09998789 </v>
    <v>       0.84533204       0.16213879       0.09998902 </v>
    <v>       0.68570301       0.84283012       0.09998474 </v>
    <v>       0.84539390       0.68328277       0.09999310 </v>
    <v>       0.24996280       0.24989093       0.32635288 </v>
    <v>       0.41656789       0.08331898       0.32635034 </v>
    <v>       0.24995145       0.75005074       0.32631621 </v>
    <v>       0.41669483       0.58330320       0.32630532 </v>
    <v>       0.75000880       0.24998785       0.32629962 </v>
    <v>       0.91672078       0.08327617       0.32634642 </v>
    <v>       0.75010825       0.75003807       0.32635328 </v>
    <v>       0.91667891       0.58343055       0.32634893 </v>
   </varray>
  </structure>
  <varray name="forces" >
   <v>      -0.00054951       0.00031605       0.03383966 </v>
   <v>      -0.00028089       0.00001533       0.01973482 </v>
   <v>      -0.00488521      -0.00443622      -0.01312610 </v>
   <v>      -0.00430944       0.00113145      -0.00735947 </v>
   <v>      -0.00449965      -0.00086477      -0.00928571 </v>
   <v>       0.00547936       0.00111186      -0.01109671 </v>
   <v>      -0.00624950       0.00427927      -0.01304847 </v>
   <v>      -0.00527343      -0.00116919      -0.00724111 </v>
   <v>       0.00487386      -0.00345599       0.01808765 </v>
   <v>      -0.00009866      -0.00311887       0.01385801 </v>
   <v>      -0.00295416      -0.00003877      -0.01446994 </v>
   <v>       0.00455655       0.00000639      -0.02448343 </v>
   <v>       0.00150537      -0.00012552      -0.02801915 </v>
   <v>       0.00800259      -0.00004642       0.01159563 </v>
   <v>       0.00481729       0.00329228       0.01839457 </v>
   <v>      -0.00013456       0.00310313       0.01261975 </v>
  </varray>
  <varray name="stress" >
   <v>       0.47962435      -0.01185444       0.33739995 </v>
   <v>      -0.01185446       0.19837733      -0.00811626 </v>
   <v>       0.33739994      -0.00811628      -2.22477501 </v>
  </varray>
  <energy>
   <i name="e_fr_energy">   -142.28396715 </i>
   <i name="e_wo_entrp">   -142.28153673 </i>
   <i name="e_0_energy">   -142.28275194 </i>
  </energy>
  <time name="totalsc">  107.23  108.05</time>
 </calculation>
 <calculation>
  <scstep>
   <time name="dav">    6.59    6.63</time>
   <time name="total">    6.88    6.94</time>
   <energy>
    <i name="alphaZ">     62.58923237 </i>
    <i name="ewald">   5436.74758480 </i>
    <i name="hartreedc">  -7486.54211838 </i>
    <i name="XCdc">    206.39376586 </i>
    <i name="pawpsdc">   6310.73569031 </i>
    <i name="pawaedc">  -6318.74671723 </i>
    <i name="eentropy">     -0.00243017 </i>
    <i name="bandstr">   -553.92790439 </i>
    <i name="atom">   2202.35892741 </i>
    <i name="e_fr_energy">   -140.39396943 </i>
    <i name="e_wo_entrp">   -140.39153926 </i>
    <i name="e_0_energy">   -140.39275434 </i>
   </energy>
  </scstep>
  <scstep>
   <time name="dav">   10.58   10.65</time>
   <time name="total">   10.62   10.68</time>
   <energy>
    <i name="alphaZ">     62.58923237 </i>
    <i name="ewald">   5436.74758480 </i>
    <i name="hartreedc">  -7486.54282985 </i>
    <i name="XCdc">    206.39378041 </i>
    <i name="pawpsdc">   6310.74036421 </i>
    <i name="pawaedc">  -6318.75139209 </i>
    <i name="eentropy">     -0.00243022 </i>
    <i name="bandstr">   -553.92720653 </i>
    <i name="atom">   2202.35892741 </i>
    <i name="e_fr_energy">   -140.39396951 </i>
    <i name="e_wo_entrp">   -140.39153929 </i>
    <i name="e_0_energy">   -140.39275440 </i>
   </energy>
  </scstep>
  <structure>
   <crystal>
    <varray name="basis" >
     <v>       4.36650009       2.52100000       0.00000000 </v>
     <v>      -4.36650009       2.52100000       0.00000000 </v>
     <v>       0.00000000       0.00000000      15.00000000 </v>
    </varray>
    <i name="volume">    330.23840150 </i>
    <varray name="rec_basis" >
     <v>       0.11450819       0.19833399       0.00000000 </v>
     <v>      -0.11450819       0.19833399       0.00000000 </v>
     <v>       0.00000000       0.00000000       0.06666667 </v>
    </varray>
   </crystal>
   <varray name="positions" >
    <v>       0.33836016       0.66913522       0.10003862 </v>
    <v>       0.67169252       0.33580383       0.10002259 </v>
    <v>       0.16464577       0.32179853       0.09998464 </v>
    <v>       0.32421759       0.16213017       0.09999304 </v>
    <v>       0.16461810       0.84290849       0.09998789 </v>
    <v>       0.84533252       0.16213831       0.09998902 </v>
    <v>       0.68570396       0.84283060       0.09998475 </v>
    <v>       0.84539437       0.68328367       0.09999311 </v>
    <v>       0.24996282       0.24989099       0.32635287 </v>
    <v>       0.41656794       0.08331899       0.32635033 </v>
    <v>       0.24995147       0.75005071       0.32631622 </v>
    <v>       0.41669481       0.58330321       0.32630533 </v>
    <v>       0.75000880       0.24998786       0.32629964 </v>
    <v>       0.91672075       0.08327620       0.32634641 </v>
    <v>       0.75010819       0.75003805       0.32635327 </v>
    <v>       0.91667890       0.58343050       0.32634892 </v>
   </varray>
  </structure>
  <varray name="forces" >
   <v>      -0.00054074       0.00031591       0.03384549 </v>
   <v>      -0.00026887       0.00001539       0.01973834 </v>
   <v>      -0.00500655      -0.00421842      -0.01312876 </v>
   <v>      -0.00419096       0.00133506      -0.00736012 </v>
   <v>      -0.00426239      -0.00086462      -0.00928839 </v>
   <v>       0.00522744       0.00111104      -0.01109756 </v>
   <v>      -0.00637056       0.00406254      -0.01305116 </v>
   <v>      -0.00515590      -0.00137310      -0.00724185 </v>
   <v>       0.00488017      -0.00346607       0.01809001 </v>
   <v>      -0.00011039      -0.00312440       0.01386108 </v>
   <v>      -0.00296486      -0.00003846      -0.01447269 </v>
   <v>       0.00456365       0.00000626      -0.02448710 </v>
   <v>       0.00150977      -0.00012570      -0.02802454 </v>
   <v>       0.00801316      -0.00004653       0.01159757 </v>
   <v>       0.00482334       0.00330258       0.01839704 </v>
   <v>      -0.00014631       0.00310854       0.01262265 </v>
  </varray>
  <varray name="stress" >
   <v>       0.48141327      -0.01185500       0.33740860 </v>
   <v>      -0.01185501       0.20013605      -0.00811632 </v>
   <v>       0.33740865      -0.00811632      -2.22353141 </v>
  </varray>
  <energy>
   <i name="e_fr_energy">   -142.28396758 </i>
   <i name="e_wo_entrp">   -142.28153736 </i>
   <i name="e_0_energy">   -142.28275247 </i>
  </energy>
  <time name="totalsc">   22.84   23.01</time>
 </calculation>
 <calculation>
  <scstep>
   <time name="dav">    5.64    5.68</time>
   <time name="total">    5.93    5.98</time>
   <energy>
    <i name="alphaZ">     62.58923237 </i>
    <i name="ewald">   5436.41755116 </i>
    <i name="hartreedc">  -7486.21092652 </i>
    <i name="XCdc">    206.39397959 </i>
    <i name="pawpsdc">   6310.74183314 </i>
    <i name="pawaedc">  -6318.75286186 </i>
    <i name="eentropy">     -0.00242507 </i>
    <i name="bandstr">   -553.92944009 </i>
    <i name="atom">   2202.35892741 </i>
    <i name="e_fr_energy">   -140.39412988 </i>
    <i name="e_wo_entrp">   -140.39170481 </i>
    <i name="e_0_energy">   -140.39291734 </i>
   </energy>
  </scstep>
  <scstep>
   <time name="dav">   10.51   10.58</time>
   <time name="total">   10.79   10.87</time>
   <energy>
    <i name="e_fr_energy">   -140.39413228 </i>
    <i name="e_wo_entrp">   -140.39171066 </i>
    <i name="e_0_energy">   -140.39292147 </i>
   </energy>
  </scstep>
  <scstep>
   <time name="dav">    5.73    5.77</time>
   <time name="total">    6.02    6.07</time>
   <energy>
    <i name="e_fr_energy">   -140.39413539 </i>
    <i name="e_wo_entrp">   -140.39171798 </i>
    <i name="e_0_energy">   -140.39292668 </i>
   </energy>
  </scstep>
  <scstep>
   <time name="dav">   10.60   10.66</time>
   <time name="total">   10.63   10.70</time>
   <energy>
    <i name="alphaZ">     62.58923237 </i>
    <i name="ewald">   5436.41755116 </i>
    <i name="hartreedc">  -7486.19333562 </i>
    <i name="XCdc">    206.39399994 </i>
    <i name="pawpsdc">   6310.74456647 </i>
    <i name="pawaedc">  -6318.75559025 </i>
    <i name="eentropy">     -0.00241721 </i>
    <i name="bandstr">   -553.94706959 </i>
    <i name="atom">   2202.35892741 </i>
    <i name="e_fr_energy">   -140.39413532 </i>
    <i name="e_wo_entrp">   -140.39171811 </i>
    <i name="e_0_energy">   -140.39292672 </i>
   </energy>
  </scstep>
  <structure>
   <crystal>
    <varray name="basis" >
     <v>       4.36650009       2.52100000       0.00000000 </v>
     <v>      -4.36650009       2.52100000       0.00000000 </v>
     <v>       0.00000000       0.00000000      15.00000000 </v>
    </varray>
    <i name="volume">    330.23840150 </i>
    <varray name="rec_basis" >
     <v>       0.11450819       0.19833399       0.00000000 </v>
     <v>      -0.11450819       0.19833399       0.00000000 </v>
     <v>       0.00000000       0.00000000       0.06666667 </v>
    </varray>
   </crystal>
   <varray name="positions" >
    <v>       0.33836044       0.66914011       0.10013190 </v>
    <v>       0.67169169       0.33580491       0.10007700 </v>
    <v>       0.16459528       0.32180277       0.09994845 </v>
    <v>       0.32422312       0.16216812       0.09997276 </v>
    <v>       0.16459808       0.84291435       0.09996228 </v>
    <v>       0.84535866       0.16213029       0.09995845 </v>
    <v>       0.68569205       0.84288630       0.09994877 </v>
    <v>       0.84535150       0.68328242       0.09997316 </v>
    <v>       0.24995722       0.24983873       0.32640272 </v>
    <v>       0.41654106       0.08329386       0.32638855 </v>
    <v>       0.24993677       0.75006481       0.32627633 </v>
    <v>       0.41671663       0.58328149       0.32623784 </v>
    <v>       0.75001497       0.24997961       0.32622238 </v>
    <v>       0.91675863       0.08323754       0.32637838 </v>
    <v>       0.75015885       0.75004260       0.32640397 </v>
    <v>       0.91670372       0.58345741       0.32638372 </v>
   </varray>
  </structure>
  <varray name="forces" >
   <v>      -0.00857978      -0.00100446       0.01540309 </v>
   <v>      -0.00030251       0.00057607       0.01040090 </v>
   <v>       0.00959319       0.00929970      -0.00502206 </v>
   <v>      -0.00315425      -0.00724994      -0.00573918 </v>
   <v>      -0.00663482       0.00089460      -0.00128215 </v>
   <v>      -0.01560845      -0.00126564      -0.00934718 </v>
   <v>       0.00918256      -0.00601596      -0.00492962 </v>
   <v>      -0.00473238       0.00513122      -0.00563930 </v>
   <v>      -0.00108531       0.00609244       0.00783444 </v>
   <v>       0.00689786       0.00550132       0.00066183 </v>
   <v>       0.01255901      -0.00003156      -0.00473519 </v>
   <v>      -0.00163476      -0.00017235      -0.00665030 </v>
   <v>       0.00482286       0.00013182      -0.00411698 </v>
   <v>      -0.00728008      -0.00007772       0.00517862 </v>
   <v>      -0.00099166      -0.00603073       0.00775413 </v>
   <v>       0.00694853      -0.00577878       0.00022896 </v>
  </varray>
  <varray name="stress" >
   <v>       0.44512637      -0.00219287       0.33221761 </v>
   <v>      -0.00219288       0.25944794      -0.00786658 </v>
   <v>       0.33221758      -0.00786658      -2.24807956 </v>
  </varray>
  <energy>
   <i name="e_fr_energy">   -142.28410590 </i>
   <i name="e_wo_entrp">   -142.28168869 </i>
   <i name="e_0_energy">   -142.28289730 </i>
  </energy>
  <time name="totalsc">   38.61   38.90</time>
 </calculation>
 <calculation>
  <scstep>
   <time name="dav">    5.74    5.78</time>
   <time name="total">    6.03    6.08</time>
   <energy>
    <i name="alphaZ">     62.58923237 </i>
    <i name="ewald">   5436.30188976 </i>
    <i name="hartreedc">  -7486.07475947 </i>
    <i name="XCdc">    206.39403532 </i>
    <i name="pawpsdc">   6310.74837645 </i>
    <i name="pawaedc">  -6318.75940181 </i>
    <i name="eentropy">     -0.00241502 </i>
    <i name="bandstr">   -553.95003938 </i>
    <i name="atom">   2202.35892741 </i>
    <i name="e_fr_energy">   -140.39415437 </i>
    <i name="e_wo_entrp">   -140.39173935 </i>
    <i name="e_0_energy">   -140.39294686 </i>
   </energy>
  </scstep>
  <scstep>
   <time name="dav">    9.77    9.83</time>
   <time name="total">   10.06   10.13</time>
   <energy>
    <i name="e_fr_energy">   -140.39415445 </i>
    <i name="e_wo_entrp">   -140.39174081 </i>
    <i name="e_0_energy">   -140.39294763 </i>
   </energy>
  </scstep>
  <scstep>
   <time name="dav">    6.09    6.13</time>
   <time name="total">    6.12    6.16</time>
   <energy>
    <i name="alphaZ">     62.58923237 </i>
    <i name="ewald">   5436.30188976 </i>
    <i name="hartreedc">  -7486.06505345 </i>
    <i name="XCdc">    206.39403230 </i>
    <i name="pawpsdc">   6310.76395231 </i>
    <i name="pawaedc">  -6318.77498261 </i>
    <i name="eentropy">     -0.00241185 </i>
    <i name="bandstr">   -553.95974151 </i>
    <i name="atom">   2202.35892741 </i>
    <i name="e_fr_energy">   -140.39415527 </i>
    <i name="e_wo_entrp">   -140.39174341 </i>
    <i name="e_0_energy">   -140.39294934 </i>
   </energy>
  </scstep>
  <structure>
   <crystal>
    <varray name="basis" >
     <v>       4.36650009       2.52100000       0.00000000 </v>
     <v>      -4.36650009       2.52100000       0.00000000 </v>
     <v>       0.00000000       0.00000000      15.00000000 </v>
    </varray>
    <i name="volume">    330.23840150 </i>
    <varray name="rec_basis" >
     <v>       0.11450819       0.19833399       0.00000000 </v>
     <v>      -0.11450819       0.19833399       0.00000000 </v>
     <v>       0.00000000       0.00000000       0.06666667 </v>
    </varray>
   </crystal>
   <varray name="positions" >
    <v>       0.33836054       0.66914182       0.10016440 </v>
    <v>       0.67169140       0.33580529       0.10009595 </v>
    <v>       0.16457769       0.32180425       0.09993584 </v>
    <v>       0.32422504       0.16218134       0.09996570 </v>
    <v>       0.16459111       0.84291640       0.09995335 </v>
    <v>       0.84536776       0.16212749       0.09994780 </v>
    <v>       0.68568790       0.84290571       0.09993624 </v>
    <v>       0.84533656       0.68328198       0.09996621 </v>
    <v>       0.24995526       0.24982053       0.32642009 </v>
    <v>       0.41653170       0.08328511       0.32640186 </v>
    <v>       0.24993165       0.75006972       0.32626243 </v>
    <v>       0.41672424       0.58327392       0.32621433 </v>
    <v>       0.75001712       0.24997673       0.32619547 </v>
    <v>       0.91677183       0.08322407       0.32638951 </v>
    <v>       0.75017649       0.75004419       0.32642163 </v>
    <v>       0.91671236       0.58346679       0.32639585 </v>
   </varray>
  </structure>
  <varray name="forces" >
   <v>      -0.01149636      -0.00144895       0.00900671 </v>
   <v>      -0.00050652       0.00076297       0.00716122 </v>
   <v>       0.01482493       0.01407188      -0.00215553 </v>
   <v>      -0.00273221      -0.01022096      -0.00516395 </v>
   <v>      -0.00745413       0.00151223       0.00154072 </v>
   <v>      -0.02290206      -0.00210984      -0.00875167 </v>
   <v>       0.01473080      -0.00957968      -0.00206666 </v>
   <v>      -0.00453023       0.00737527      -0.00507316 </v>
   <v>      -0.00338949       0.00963167       0.00419724 </v>
   <v>       0.00954223       0.00873043      -0.00397448 </v>
   <v>       0.01827642      -0.00003091      -0.00132147 </v>
   <v>      -0.00387977      -0.00023776      -0.00041604 </v>
   <v>       0.00604451       0.00022138       0.00426037 </v>
   <v>      -0.01291106      -0.00008616       0.00289719 </v>
   <v>      -0.00324024      -0.00949356       0.00398230 </v>
   <v>       0.00962319      -0.00909799      -0.00412278 </v>
  </varray>
  <varray name="stress" >
   <v>       0.43256931       0.00109303       0.33028631 </v>
   <v>       0.00109303       0.27913149      -0.00779018 </v>
   <v>       0.33028631      -0.00779018      -2.25470463 </v>
  </varray>
  <energy>
   <i name="e_fr_energy">   -142.28411631 </i>
   <i name="e_wo_entrp">   -142.28170445 </i>
   <i name="e_0_energy">   -142.28291038 </i>
  </energy>
  <time name="totalsc">   27.45   27.66</time>
 </calculation>
 <calculation>
  <scstep>
   <time name="dav">    5.94    5.98</time>
   <time name="total">    6.22    6.28</time>
   <energy>
    <i name="alphaZ">     62.58923237 </i>
    <i name="ewald">   5435.89648790 </i>
    <i name="hartreedc">  -7485.65872842 </i>
    <i name="XCdc">    206.39398078 </i>
    <i name="pawpsdc">   6310.76107515 </i>
    <i name="pawaedc">  -6318.77210483 </i>
    <i name="eentropy">     -0.00240676 </i>
    <i name="bandstr">   -553.96059851 </i>
    <i name="atom">   2202.35892741 </i>
    <i name="e_fr_energy">   -140.39413491 </i>
    <i name="e_wo_entrp">   -140.39172815 </i>
    <i name="e_0_energy">   -140.39293153 </i>
   </energy>
  </scstep>
  <scstep>
   <time name="dav">    5.98    6.02</time>
   <time name="total">    6.27    6.33</time>
   <energy>
    <i name="e_fr_energy">   -140.39413589 </i>
    <i name="e_wo_entrp">   -140.39173216 </i>
    <i name="e_0_energy">   -140.39293403 </i>
   </energy>
  </scstep>
  <scstep>
   <time name="dav">    6.88    6.92</time>
   <time name="total">    7.17    7.22</time>
   <energy>
    <i name="e_fr_energy">   -140.39413515 </i>
    <i name="e_wo_entrp">   -140.39173448 </i>
    <i name="e_0_energy">   -140.39293481 </i>
   </energy>
  </scstep>
  <scstep>
   <time name="dav">   10.00   10.07</time>
   <time name="total">   10.04   10.10</time>
   <energy>
    <i name="alphaZ">     62.58923237 </i>
    <i name="ewald">   5435.89648790 </i>
    <i name="hartreedc">  -7485.63468765 </i>
    <i name="XCdc">    206.39388629 </i>
    <i name="pawpsdc">   6310.60108838 </i>
    <i name="pawaedc">  -6318.61208444 </i>
    <i name="eentropy">     -0.00240008 </i>
    <i name="bandstr">   -553.98458535 </i>
    <i name="atom">   2202.35892741 </i>
    <i name="e_fr_energy">   -140.39413519 </i>
    <i name="e_wo_entrp">   -140.39173510 </i>
    <i name="e_0_energy">   -140.39293514 </i>
   </energy>
  </scstep>
  <structure>
   <crystal>
    <varray name="basis" >
     <v>       4.36650009       2.52100000       0.00000000 </v>
     <v>      -4.36650009       2.52100000       0.00000000 </v>
     <v>       0.00000000       0.00000000      15.00000000 </v>
    </varray>
    <i name="volume">    330.23840150 </i>
    <varray name="rec_basis" >
     <v>       0.11450819       0.19833399       0.00000000 </v>
     <v>      -0.11450819       0.19833399       0.00000000 </v>
     <v>       0.00000000       0.00000000       0.06666667 </v>
    </varray>
   </crystal>
   <varray name="positions" >
    <v>       0.33829003       0.66919023       0.10024938 </v>
    <v>       0.67169499       0.33581519       0.10015111 </v>
    <v>       0.16474384       0.32185509       0.09990681 </v>
    <v>       0.32412538       0.16212959       0.09993781 </v>
    <v>       0.16455416       0.84297092       0.09994182 </v>
    <v>       0.84525014       0.16221960       0.09990291 </v>
    <v>       0.68567103       0.84278258       0.09990760 </v>
    <v>       0.84535128       0.68336852       0.09993879 </v>
    <v>       0.25001883       0.24988904       0.32646369 </v>
    <v>       0.41663931       0.08329751       0.32641415 </v>
    <v>       0.25001438       0.74998607       0.32623352 </v>
    <v>       0.41671626       0.58327779       0.32617077 </v>
    <v>       0.75005344       0.24994299       0.32615953 </v>
    <v>       0.91672968       0.08326423       0.32641808 </v>
    <v>       0.75010893       0.74998042       0.32646513 </v>
    <v>       0.91669697       0.58335558       0.32640556 </v>
   </varray>
  </structure>
  <varray name="forces" >
   <v>       0.01151429       0.00444967      -0.00622051 </v>
   <v>      -0.02409645      -0.00281058      -0.00455723 </v>
   <v>      -0.05136726      -0.03533230       0.00113763 </v>
   <v>       0.01649173       0.02429718       0.00073527 </v>
   <v>       0.00310420      -0.00689264       0.00465240 </v>
   <v>       0.05515067       0.00883298      -0.00305745 </v>
   <v>      -0.05148819       0.02150970       0.00128453 </v>
   <v>       0.02072379      -0.01369534       0.00079942 </v>
   <v>       0.00857009      -0.01307303      -0.00546863 </v>
   <v>      -0.00532367      -0.01155149      -0.00759105 </v>
   <v>      -0.02030644      -0.00018536       0.00336230 </v>
   <v>       0.01313991       0.00031139       0.01283946 </v>
   <v>      -0.00377392      -0.00051964       0.01496433 </v>
   <v>       0.02471432       0.00011393       0.00013715 </v>
   <v>       0.00834467       0.01247373      -0.00582824 </v>
   <v>      -0.00539775       0.01207181      -0.00718939 </v>
  </varray>
  <varray name="stress" >
   <v>       0.69038279      -0.05023202       0.32924331 </v>
   <v>      -0.05023200       0.02303443      -0.00769723 </v>
   <v>       0.32924335      -0.00769724      -2.26988691 </v>
  </varray>
  <energy>
   <i name="e_fr_energy">   -142.28406143 </i>
   <i name="e_wo_entrp">   -142.28166135 </i>
   <i name="e_0_energy">   -142.28286139 </i>
  </energy>
  <time name="totalsc">   34.95   35.21</time>
 </calculation>
 <calculation>
  <scstep>
   <time name="dav">    6.38    6.43</time>
   <time name="total">    6.67    6.72</time>
   <energy>
    <i name="alphaZ">     62.58923237 </i>
    <i name="ewald">   5436.15649458 </i>
    <i name="hartreedc">  -7485.88939538 </i>
    <i name="XCdc">    206.39388875 </i>
    <i name="pawpsdc">   6310.66270499 </i>
    <i name="pawaedc">  -6318.67371789 </i>
    <i name="eentropy">     -0.00240254 </i>
    <i name="bandstr">   -553.98992499 </i>
    <i name="atom">   2202.35892741 </i>
    <i name="e_fr_energy">   -140.39419271 </i>
    <i name="e_wo_entrp">   -140.39179017 </i>
    <i name="e_0_energy">   -140.39299144 </i>
   </energy>
  </scstep>
  <scstep>
   <time name="dav">    5.87    5.90</time>
   <time name="total">    6.15    6.20</time>
   <energy>
    <i name="e_fr_energy">   -140.39419191 </i>
    <i name="e_wo_entrp">   -140.39178767 </i>
    <i name="e_0_energy">   -140.39298979 </i>
   </energy>
  </scstep>
  <scstep>
   <time name="dav">    6.04    6.09</time>
   <time name="total">    6.33    6.39</time>
   <energy>
    <i name="e_fr_energy">   -140.39419144 </i>
    <i name="e_wo_entrp">   -140.39178552 </i>
    <i name="e_0_energy">   -140.39298848 </i>
   </energy>
  </scstep>
  <scstep>
   <time name="dav">    9.40    9.46</time>
   <time name="total">    9.44    9.50</time>
   <energy>
    <i name="alphaZ">     62.58923237 </i>
    <i name="ewald">   5436.15649458 </i>
    <i name="hartreedc">  -7485.89624962 </i>
    <i name="XCdc">    206.39388891 </i>
    <i name="pawpsdc">   6310.82328130 </i>
    <i name="pawaedc">  -6318.83432425 </i>
    <i name="eentropy">     -0.00240614 </i>
    <i name="bandstr">   -553.98303615 </i>
    <i name="atom">   2202.35892741 </i>
    <i name="e_fr_energy">   -140.39419160 </i>
    <i name="e_wo_entrp">   -140.39178546 </i>
    <i name="e_0_energy">   -140.39298853 </i>
   </energy>
  </scstep>
  <structure>
   <crystal>
    <varray name="basis" >
     <v>       4.36650009       2.52100000       0.00000000 </v>
     <v>      -4.36650009       2.52100000       0.00000000 </v>
     <v>       0.00000000       0.00000000      15.00000000 </v>
    </varray>
    <i name="volume">    330.23840150 </i>
    <varray name="rec_basis" >
     <v>       0.11450819       0.19833399       0.00000000 </v>
     <v>      -0.11450819       0.19833399       0.00000000 </v>
     <v>       0.00000000       0.00000000       0.06666667 </v>
    </varray>
   </crystal>
   <varray name="positions" >
    <v>       0.33833524       0.66915919       0.10019489 </v>
    <v>       0.67169269       0.33580884       0.10011574 </v>
    <v>       0.16463730       0.32182249       0.09992543 </v>
    <v>       0.32418929       0.16216277       0.09995570 </v>
    <v>       0.16457785       0.84293596       0.09994921 </v>
    <v>       0.84532556       0.16216054       0.09993169 </v>
    <v>       0.68568185       0.84286153       0.09992596 </v>
    <v>       0.84534184       0.68331303       0.09995637 </v>
    <v>       0.24997807       0.24984511       0.32643573 </v>
    <v>       0.41657031       0.08328956       0.32640627 </v>
    <v>       0.24996133       0.75003971       0.32625206 </v>
    <v>       0.41672138       0.58327531       0.32619870 </v>
    <v>       0.75003015       0.24996463       0.32618257 </v>
    <v>       0.91675671       0.08323848       0.32639976 </v>
    <v>       0.75015226       0.75002131       0.32643724 </v>
    <v>       0.91670684       0.58342689       0.32639933 </v>
   </varray>
  </structure>
  <varray name="forces" >
   <v>      -0.00316569       0.00066196       0.00353319 </v>
   <v>      -0.00876696      -0.00050504       0.00290808 </v>
   <v>      -0.00917750      -0.00397424      -0.00102339 </v>
   <v>       0.00417612       0.00204181      -0.00312937 </v>
   <v>      -0.00388531      -0.00152591       0.00264407 </v>
   <v>       0.00528957       0.00186073      -0.00693115 </v>
   <v>      -0.00923669       0.00183641      -0.00092290 </v>
   <v>       0.00456425      -0.00003426      -0.00304370 </v>
   <v>       0.00112924       0.00122314       0.00091420 </v>
   <v>       0.00402711       0.00119611      -0.00518710 </v>
   <v>       0.00404878      -0.00008662       0.00030520 </v>
   <v>       0.00232166      -0.00003852       0.00428179 </v>
   <v>       0.00247829      -0.00004581       0.00804561 </v>
   <v>       0.00100503      -0.00001470       0.00210418 </v>
   <v>       0.00114244      -0.00135283       0.00064667 </v>
   <v>       0.00404966      -0.00124223      -0.00514538 </v>
  </varray>
  <varray name="stress" >
   <v>       0.53009126      -0.01844125       0.32978513 </v>
   <v>      -0.01844124       0.18125887      -0.00777090 </v>
   <v>       0.32978511      -0.00777092      -2.25334925 </v>
  </varray>
  <energy>
   <i name="e_fr_energy">   -142.28414023 </i>
   <i name="e_wo_entrp">   -142.28173409 </i>
   <i name="e_0_energy">   -142.28293716 </i>
  </energy>
  <time name="totalsc">   33.83   34.10</time>
 </calculation>
 <calculation>
  <scstep>
   <time name="dav">    5.99    6.03</time>
   <time name="total">    6.28    6.33</time>
   <energy>
    <i name="alphaZ">     62.58923237 </i>
    <i name="ewald">   5435.92708205 </i>
    <i name="hartreedc">  -7485.66832358 </i>
    <i name="XCdc">    206.39380321 </i>
    <i name="pawpsdc">   6310.79536532 </i>
    <i name="pawaedc">  -6318.80639967 </i>
    <i name="eentropy">     -0.00240780 </i>
    <i name="bandstr">   -553.98150047 </i>
    <i name="atom">   2202.35892741 </i>
    <i name="e_fr_energy">   -140.39422116 </i>
    <i name="e_wo_entrp">   -140.39181336 </i>
    <i name="e_0_energy">   -140.39301726 </i>
   </energy>
  </scstep>
  <scstep>
   <time name="dav">    6.17    6.22</time>
   <time name="total">    6.46    6.52</time>
   <energy>
    <i name="e_fr_energy">   -140.39422117 </i>
    <i name="e_wo_entrp">   -140.39181429 </i>
    <i name="e_0_energy">   -140.39301773 </i>
   </energy>
  </scstep>
  <scstep>
   <time name="dav">    7.78    7.83</time>
   <time name="total">    7.81    7.86</time>
   <energy>
    <i name="alphaZ">     62.58923237 </i>
    <i name="ewald">   5435.92708205 </i>
    <i name="hartreedc">  -7485.66102504 </i>
    <i name="XCdc">    206.39380709 </i>
    <i name="pawpsdc">   6310.74648372 </i>
    <i name="pawaedc">  -6318.75749744 </i>
    <i name="eentropy">     -0.00240619 </i>
    <i name="bandstr">   -553.98882535 </i>
    <i name="atom">   2202.35892741 </i>
    <i name="e_fr_energy">   -140.39422138 </i>
    <i name="e_wo_entrp">   -140.39181519 </i>
    <i name="e_0_energy">   -140.39301829 </i>
   </energy>
  </scstep>
  <structure>
   <crystal>
    <varray name="basis" >
     <v>       4.36650009       2.52100000       0.00000000 </v>
     <v>      -4.36650009       2.52100000       0.00000000 </v>
     <v>       0.00000000       0.00000000      15.00000000 </v>
    </varray>
    <i name="volume">    330.23840150 </i>
[...]
    <v>       0.16113620       0.32546147       0.09909095 </v>
    <v>       0.32076403       0.16579509       0.09988550 </v>
    <v>       0.16113179       0.84659596       0.10032901 </v>
    <v>       0.84191822       0.16579607       0.09869406 </v>
    <v>       0.68224068       0.84654172       0.09911922 </v>
    <v>       0.84196965       0.68696668       0.09991808 </v>
    <v>       0.25345248       0.24619017       0.32687274 </v>
    <v>       0.42000101       0.07966108       0.32678934 </v>
    <v>       0.25343807       0.74634953       0.32673552 </v>
    <v>       0.42014010       0.57963365       0.32663531 </v>
    <v>       0.75349025       0.24629051       0.32669478 </v>
    <v>       0.92015642       0.07961514       0.32672295 </v>
    <v>       0.75359541       0.74633436       0.32687544 </v>
    <v>       0.92011132       0.57977130       0.32678423 </v>
   </varray>
  </structure>
  <varray name="forces" >
   <v>      -0.00377436      -0.00293184       0.01922282 </v>
   <v>       0.01374277       0.00235680      -0.02523566 </v>
   <v>       0.01271632       0.01281952      -0.00371140 </v>
   <v>      -0.01762559       0.00076309       0.01110752 </v>
   <v>       0.00923696       0.00502391      -0.01483715 </v>
   <v>      -0.02131791      -0.00591797       0.01899445 </v>
   <v>       0.01188213      -0.00212535      -0.00370055 </v>
   <v>      -0.02284781      -0.00963058       0.01053069 </v>
   <v>      -0.01524796      -0.00124828      -0.01859775 </v>
   <v>       0.02015135       0.00163574       0.01562213 </v>
   <v>      -0.01529354      -0.00126354      -0.02635099 </v>
   <v>       0.01850668       0.00112257       0.01532738 </v>
   <v>      -0.01473550      -0.00118829      -0.02389183 </v>
   <v>       0.01977214       0.00118014       0.02910878 </v>
   <v>      -0.01527212      -0.00134202      -0.01894792 </v>
   <v>       0.02010642       0.00074608       0.01535948 </v>
  </varray>
  <varray name="stress" >
   <v>       0.35815324       0.01972359       0.29584061 </v>
   <v>       0.01972358       0.32703909      -0.00655459 </v>
   <v>       0.29584061      -0.00655455      -2.56041224 </v>
  </varray>
  <energy>
   <i name="e_fr_energy">   -142.28510544 </i>
   <i name="e_wo_entrp">   -142.28257660 </i>
   <i name="e_0_energy">   -142.28384102 </i>
  </energy>
  <time name="totalsc">   36.40   36.70</time>
 </calculation>
 <calculation>
  <scstep>
   <time name="dav">    5.65    5.69</time>
   <time name="total">    5.94    5.99</time>
   <energy>
    <i name="alphaZ">     62.58923237 </i>
    <i name="ewald">   5408.18229406 </i>
    <i name="hartreedc">  -7457.93122342 </i>
    <i name="XCdc">    206.38527821 </i>
    <i name="pawpsdc">   6310.27769165 </i>
    <i name="pawaedc">  -6318.28849651 </i>
    <i name="eentropy">     -0.00253811 </i>
    <i name="bandstr">   -553.97131568 </i>
    <i name="atom">   2202.35892741 </i>
    <i name="e_fr_energy">   -140.40015002 </i>
    <i name="e_wo_entrp">   -140.39761192 </i>
    <i name="e_0_energy">   -140.39888097 </i>
   </energy>
  </scstep>
  <scstep>
   <time name="dav">    7.57    7.62</time>
   <time name="total">    7.86    7.92</time>
   <energy>
    <i name="e_fr_energy">   -140.40028245 </i>
    <i name="e_wo_entrp">   -140.39774336 </i>
    <i name="e_0_energy">   -140.39901291 </i>
   </energy>
  </scstep>
  <scstep>
   <time name="dav">    6.25    6.30</time>
   <time name="total">    6.54    6.60</time>
   <energy>
    <i name="e_fr_energy">   -140.40025577 </i>
    <i name="e_wo_entrp">   -140.39771480 </i>
    <i name="e_0_energy">   -140.39898528 </i>
   </energy>
  </scstep>
  <scstep>
   <time name="dav">    6.75    6.80</time>
   <time name="total">    7.04    7.10</time>
   <energy>
    <i name="e_fr_energy">   -140.40025783 </i>
    <i name="e_wo_entrp">   -140.39771648 </i>
    <i name="e_0_energy">   -140.39898716 </i>
   </energy>
  </scstep>
  <scstep>
   <time name="dav">    6.32    6.36</time>
   <time name="total">    6.35    6.40</time>
   <energy>
    <i name="alphaZ">     62.58923237 </i>
    <i name="ewald">   5408.18229406 </i>
    <i name="hartreedc">  -7457.94916579 </i>
    <i name="XCdc">    206.38580408 </i>
    <i name="pawpsdc">   6310.46841226 </i>
    <i name="pawaedc">  -6318.47929255 </i>
    <i name="eentropy">     -0.00254166 </i>
    <i name="bandstr">   -553.95392774 </i>
    <i name="atom">   2202.35892741 </i>
    <i name="e_fr_energy">   -140.40025757 </i>
    <i name="e_wo_entrp">   -140.39771591 </i>
    <i name="e_0_energy">   -140.39898674 </i>
   </energy>
  </scstep>
  <structure>
   <crystal>
    <varray name="basis" >
     <v>       4.36650009       2.52100000       0.00000000 </v>
     <v>      -4.36650009       2.52100000       0.00000000 </v>
     <v>       0.00000000       0.00000000      15.00000000 </v>
    </varray>
    <i name="volume">    330.23840150 </i>
    <varray name="rec_basis" >
     <v>       0.11450819       0.19833399       0.00000000 </v>
     <v>      -0.11450819       0.19833399       0.00000000 </v>
     <v>       0.00000000       0.00000000       0.06666667 </v>
    </varray>
   </crystal>
   <varray name="positions" >
    <v>       0.33454290       0.67320168       0.09967796 </v>
    <v>       0.66785282       0.33987731       0.09978751 </v>
    <v>       0.16077418       0.32581765       0.09916978 </v>
    <v>       0.32040061       0.16612717       0.09981413 </v>
    <v>       0.16077508       0.84695889       0.10017719 </v>
    <v>       0.84156795       0.16617740       0.09884382 </v>
    <v>       0.68191362       0.84692520       0.09919062 </v>
    <v>       0.84166246       0.68735633       0.09983927 </v>
    <v>       0.25378233       0.24581591       0.32688506 </v>
    <v>       0.42035008       0.07927429       0.32679422 </v>
    <v>       0.25376903       0.74599329       0.32672227 </v>
    <v>       0.42050088       0.57925448       0.32664610 </v>
    <v>       0.75381815       0.24593726       0.32670289 </v>
    <v>       0.92052535       0.07922683       0.32674011 </v>
    <v>       0.75394473       0.74597938       0.32688735 </v>
    <v>       0.92047851       0.57940226       0.32678841 </v>
   </varray>
  </structure>
  <varray name="forces" >
   <v>       0.00298812      -0.00196739       0.02311252 </v>
   <v>       0.01566353       0.00260269      -0.02238036 </v>
   <v>       0.01503053       0.01670889      -0.00560617 </v>
   <v>      -0.02617753       0.00846534       0.01071293 </v>
   <v>       0.01533606       0.00828465      -0.01454817 </v>
   <v>      -0.02058525      -0.00743354       0.01687497 </v>
   <v>       0.01084929      -0.00575591      -0.00552622 </v>
   <v>      -0.03111521      -0.02054089       0.01020028 </v>
   <v>      -0.00924456       0.00267266      -0.01897344 </v>
   <v>       0.01292581       0.00421208       0.01479195 </v>
   <v>      -0.00316155      -0.00061302      -0.02254457 </v>
   <v>       0.01085043       0.00037261       0.01421530 </v>
   <v>      -0.00229667      -0.00058301      -0.02309326 </v>
   <v>       0.00534054       0.00056463       0.02740752 </v>
   <v>      -0.00925121      -0.00395065      -0.01929301 </v>
   <v>       0.01284767      -0.00303915       0.01464973 </v>
  </varray>
  <varray name="stress" >
   <v>       0.36133502       0.02901138       0.29521921 </v>
   <v>       0.02901138       0.39204428      -0.00632971 </v>
   <v>       0.29521920      -0.00632972      -2.56713716 </v>
  </varray>
  <energy>
   <i name="e_fr_energy">   -142.28526564 </i>
   <i name="e_wo_entrp">   -142.28272398 </i>
   <i name="e_0_energy">   -142.28399481 </i>
  </energy>
  <time name="totalsc">   39.00   39.31</time>
 </calculation>
 <calculation>
  <scstep>
   <time name="dav">    5.64    5.68</time>
   <time name="total">    5.94    5.99</time>
   <energy>
    <i name="alphaZ">     62.58923237 </i>
    <i name="ewald">   5407.41943810 </i>
    <i name="hartreedc">  -7457.17309662 </i>
    <i name="XCdc">    206.38586271 </i>
    <i name="pawpsdc">   6310.46427646 </i>
    <i name="pawaedc">  -6318.47515747 </i>
    <i name="eentropy">     -0.00255597 </i>
    <i name="bandstr">   -553.96717837 </i>
    <i name="atom">   2202.35892741 </i>
    <i name="e_fr_energy">   -140.40025138 </i>
    <i name="e_wo_entrp">   -140.39769541 </i>
    <i name="e_0_energy">   -140.39897340 </i>
   </energy>
  </scstep>
  <scstep>
   <time name="dav">    6.98    7.02</time>
   <time name="total">    7.26    7.32</time>
   <energy>
    <i name="e_fr_energy">   -140.40077631 </i>
    <i name="e_wo_entrp">   -140.39821715 </i>
    <i name="e_0_energy">   -140.39949673 </i>
   </energy>
  </scstep>
  <scstep>
   <time name="dav">    6.12    6.16</time>
   <time name="total">    6.41    6.47</time>
   <energy>
    <i name="e_fr_energy">   -140.40065537 </i>
    <i name="e_wo_entrp">   -140.39809113 </i>
    <i name="e_0_energy">   -140.39937325 </i>
   </energy>
  </scstep>
  <scstep>
   <time name="dav">    6.90    6.95</time>
   <time name="total">    7.19    7.25</time>
   <energy>
    <i name="e_fr_energy">   -140.40066253 </i>
    <i name="e_wo_entrp">   -140.39809790 </i>
    <i name="e_0_energy">   -140.39938022 </i>
   </energy>
  </scstep>
  <scstep>
   <time name="dav">    6.97    7.02</time>
   <time name="total">    7.26    7.32</time>
   <energy>
    <i name="e_fr_energy">   -140.40066134 </i>
    <i name="e_wo_entrp">   -140.39809638 </i>
    <i name="e_0_energy">   -140.39937886 </i>
   </energy>
  </scstep>
  <scstep>
   <time name="dav">    5.78    5.83</time>
   <time name="total">    5.81    5.86</time>
   <energy>
    <i name="alphaZ">     62.58923237 </i>
    <i name="ewald">   5407.41943810 </i>
    <i name="hartreedc">  -7457.20966253 </i>
    <i name="XCdc">    206.38694469 </i>
    <i name="pawpsdc">   6310.76278772 </i>
    <i name="pawaedc">  -6318.77378890 </i>
    <i name="eentropy">     -0.00256517 </i>
    <i name="bandstr">   -553.93197539 </i>
    <i name="atom">   2202.35892741 </i>
    <i name="e_fr_energy">   -140.40066170 </i>
    <i name="e_wo_entrp">   -140.39809654 </i>
    <i name="e_0_energy">   -140.39937912 </i>
   </energy>
  </scstep>
  <structure>
   <crystal>
    <varray name="basis" >
     <v>       4.36650009       2.52100000       0.00000000 </v>
     <v>      -4.36650009       2.52100000       0.00000000 </v>
     <v>       0.00000000       0.00000000      15.00000000 </v>
    </varray>
    <i name="volume">    330.23840150 </i>
    <varray name="rec_basis" >
     <v>       0.11450819       0.19833399       0.00000000 </v>
     <v>      -0.11450819       0.19833399       0.00000000 </v>
     <v>       0.00000000       0.00000000       0.06666667 </v>
    </varray>
   </crystal>
   <varray name="positions" >
    <v>       0.33382360       0.67395591       0.09962012 </v>
    <v>       0.66713747       0.34063583       0.09973725 </v>
    <v>       0.16005014       0.32653001       0.09932743 </v>
    <v>       0.31967376       0.16679134       0.09967138 </v>
    <v>       0.16006166       0.84768474       0.09987354 </v>
    <v>       0.84086743       0.16694006       0.09914333 </v>
    <v>       0.68125950       0.84769218       0.09933341 </v>
    <v>       0.84104807       0.68813563       0.09968163 </v>
    <v>       0.25444202       0.24506738       0.32690971 </v>
    <v>       0.42104821       0.07850071       0.32680399 </v>
    <v>       0.25443094       0.74528080       0.32669576 </v>
    <v>       0.42122246       0.57849614       0.32666766 </v>
    <v>       0.75447395       0.24523077       0.32671910 </v>
    <v>       0.92126321       0.07845021       0.32677443 </v>
    <v>       0.75464337       0.74526942       0.32691117 </v>
    <v>       0.92121288       0.57866420       0.32679676 </v>
   </varray>
  </structure>
  <varray name="forces" >
   <v>       0.01664459      -0.00000977       0.03096664 </v>
   <v>       0.01919075       0.00306816      -0.01661933 </v>
   <v>       0.01977684       0.02479472      -0.00985783 </v>
   <v>      -0.04306652       0.02397528       0.01040922 </v>
   <v>       0.02756127       0.01485500      -0.01316909 </v>
   <v>      -0.01904193      -0.01049336       0.01178737 </v>
   <v>       0.00881849      -0.01333318      -0.00955595 </v>
   <v>      -0.04746011      -0.04248214       0.01007070 </v>
   <v>       0.00268733       0.01057487      -0.01978369 </v>
   <v>      -0.00157198       0.00944713       0.01311477 </v>
   <v>       0.02110890       0.00068995      -0.01491949 </v>
   <v>      -0.00450488      -0.00113135       0.01194966 </v>
   <v>       0.02252201       0.00063410      -0.02152645 </v>
   <v>      -0.02366705      -0.00066925       0.02395768 </v>
   <v>       0.00271805      -0.00922197      -0.02004134 </v>
   <v>      -0.00171577      -0.01069821       0.01321712 </v>
  </varray>
  <varray name="stress" >
   <v>       0.34883739       0.04822443       0.29209333 </v>
   <v>       0.04822441       0.51874398      -0.00598892 </v>
   <v>       0.29209336      -0.00598897      -2.58337331 </v>
  </varray>
  <energy>
   <i name="e_fr_energy">   -142.28549002 </i>
   <i name="e_wo_entrp">   -142.28292486 </i>
   <i name="e_0_energy">   -142.28420744 </i>
  </energy>
  <time name="totalsc">   45.13   45.50</time>
 </calculation>
 <calculation>
  <scstep>
   <time name="dav">    5.65    5.69</time>
   <time name="total">    5.94    5.99</time>
   <energy>
    <i name="alphaZ">     62.58923237 </i>
    <i name="ewald">   5405.83870360 </i>
    <i name="hartreedc">  -7455.60337378 </i>
    <i name="XCdc">    206.38585937 </i>
    <i name="pawpsdc">   6310.75767289 </i>
    <i name="pawaedc">  -6318.76867545 </i>
    <i name="eentropy">     -0.00257706 </i>
    <i name="bandstr">   -553.95520079 </i>
    <i name="atom">   2202.35892741 </i>
    <i name="e_fr_energy">   -140.39943144 </i>
    <i name="e_wo_entrp">   -140.39685438 </i>
    <i name="e_0_energy">   -140.39814291 </i>
   </energy>
  </scstep>
  <scstep>
   <time name="dav">    8.07    8.12</time>
   <time name="total">    8.36    8.42</time>
   <energy>
    <i name="e_fr_energy">   -140.40161450 </i>
    <i name="e_wo_entrp">   -140.39902712 </i>
    <i name="e_0_energy">   -140.40032081 </i>
   </energy>
  </scstep>
  <scstep>
   <time name="dav">    6.93    6.98</time>
   <time name="total">    7.22    7.28</time>
   <energy>
    <i name="e_fr_energy">   -140.40106873 </i>
    <i name="e_wo_entrp">   -140.39846526 </i>
    <i name="e_0_energy">   -140.39976700 </i>
   </energy>
  </scstep>
  <scstep>
   <time name="dav">    9.45    9.51</time>
   <time name="total">    9.73    9.81</time>
   <energy>
    <i name="e_fr_energy">   -140.40108988 </i>
    <i name="e_wo_entrp">   -140.39848710 </i>
    <i name="e_0_energy">   -140.39978849 </i>
   </energy>
  </scstep>
  <scstep>
   <time name="dav">    7.53    7.57</time>
   <time name="total">    7.81    7.87</time>
   <energy>
    <i name="e_fr_energy">   -140.40108669 </i>
    <i name="e_wo_entrp">   -140.39848413 </i>
    <i name="e_0_energy">   -140.39978541 </i>
   </energy>
  </scstep>
  <scstep>
   <time name="dav">    6.85    6.90</time>
   <time name="total">    6.88    6.93</time>
   <energy>
    <i name="alphaZ">     62.58923237 </i>
    <i name="ewald">   5405.83870360 </i>
    <i name="hartreedc">  -7455.66597021 </i>
    <i name="XCdc">    206.38801934 </i>
    <i name="pawpsdc">   6311.09535791 </i>
    <i name="pawaedc">  -6319.10648627 </i>
    <i name="eentropy">     -0.00260309 </i>
    <i name="bandstr">   -553.89626830 </i>
    <i name="atom">   2202.35892741 </i>
    <i name="e_fr_energy">   -140.40108724 </i>
    <i name="e_wo_entrp">   -140.39848415 </i>
    <i name="e_0_energy">   -140.39978569 </i>
   </energy>
  </scstep>
  <structure>
   <crystal>
    <varray name="basis" >
     <v>       4.36650009       2.52100000       0.00000000 </v>
     <v>      -4.36650009       2.52100000       0.00000000 </v>
     <v>       0.00000000       0.00000000      15.00000000 </v>
    </varray>
    <i name="volume">    330.23840150 </i>
    <varray name="rec_basis" >
     <v>       0.11450819       0.19833399       0.00000000 </v>
     <v>      -0.11450819       0.19833399       0.00000000 </v>
     <v>       0.00000000       0.00000000       0.06666667 </v>
    </varray>
   </crystal>
   <varray name="positions" >
    <v>       0.33238499       0.67546435       0.09950443 </v>
    <v>       0.66570678       0.34215288       0.09963673 </v>
    <v>       0.15860206       0.32795475       0.09964275 </v>
    <v>       0.31822007       0.16811968       0.09938588 </v>
    <v>       0.15863482       0.84913645       0.09926624 </v>
    <v>       0.83946637       0.16846538       0.09974236 </v>
    <v>       0.67995127       0.84922612       0.09961900 </v>
    <v>       0.83981931       0.68969423       0.09936635 </v>
    <v>       0.25576140       0.24357034       0.32695900 </v>
    <v>       0.42244447       0.07695356       0.32682352 </v>
    <v>       0.25575476       0.74385581       0.32664274 </v>
    <v>       0.42266562       0.57697946       0.32671079 </v>
    <v>       0.75578556       0.24381779       0.32675152 </v>
    <v>       0.92273894       0.07689698       0.32684308 </v>
    <v>       0.75604064       0.74384949       0.32695881 </v>
    <v>       0.92268163       0.57718807       0.32681347 </v>
   </varray>
  </structure>
  <varray name="forces" >
   <v>       0.04471420       0.00389265       0.04675062 </v>
   <v>       0.02621938       0.00397086      -0.00512938 </v>
   <v>       0.02869791       0.04114386      -0.01837786 </v>
   <v>      -0.07644907       0.05500797       0.00971305 </v>
   <v>       0.05130943       0.02804675      -0.01109743 </v>
   <v>      -0.01593793      -0.01660081       0.00219986 </v>
   <v>       0.00424995      -0.02868146      -0.01766684 </v>
   <v>      -0.07984339      -0.08639887       0.00967674 </v>
   <v>       0.02662137       0.02642637      -0.02142816 </v>
   <v>      -0.03050062       0.01988204       0.00986323 </v>
   <v>       0.06958770       0.00330373       0.00041593 </v>
   <v>      -0.03513548      -0.00414164       0.00741041 </v>
   <v>       0.07204069       0.00307609      -0.01830223 </v>
   <v>      -0.08151709      -0.00314723       0.01707047 </v>
   <v>       0.02671857      -0.01979243      -0.02156398 </v>
   <v>      -0.03077561      -0.02598788       0.01046556 </v>
  </varray>
  <varray name="stress" >
   <v>       0.24472209       0.08969103       0.28517291 </v>
   <v>       0.08969104       0.76415287      -0.00598913 </v>
   <v>       0.28517291      -0.00598914      -2.61498366 </v>
  </varray>
  <energy>
   <i name="e_fr_energy">   -142.28556512 </i>
   <i name="e_wo_entrp">   -142.28296202 </i>
   <i name="e_0_energy">   -142.28426357 </i>
  </energy>
  <time name="totalsc">   51.21   51.61</time>
 </calculation>
 <calculation>
  <scstep>
   <time name="dav">    5.76    5.80</time>
   <time name="total">    6.05    6.10</time>
   <energy>
    <i name="alphaZ">     62.58923237 </i>
    <i name="ewald">   5406.41661722 </i>
    <i name="hartreedc">  -7456.25030766 </i>
    <i name="XCdc">    206.38802766 </i>
    <i name="pawpsdc">   6311.08203245 </i>
    <i name="pawaedc">  -6319.09316056 </i>
    <i name="eentropy">     -0.00260098 </i>
    <i name="bandstr">   -553.88954857 </i>
    <i name="atom">   2202.35892741 </i>
    <i name="e_fr_energy">   -140.40078068 </i>
    <i name="e_wo_entrp">   -140.39817969 </i>
    <i name="e_0_energy">   -140.39948019 </i>
   </energy>
  </scstep>
  <scstep>
   <time name="dav">    5.95    5.99</time>
   <time name="total">    6.23    6.29</time>
   <energy>
    <i name="e_fr_energy">   -140.40104785 </i>
    <i name="e_wo_entrp">   -140.39845164 </i>
    <i name="e_0_energy">   -140.39974974 </i>
   </energy>
  </scstep>
  <scstep>
