   16   16  128    2
  0.2066447E+02  0.5045000E-09  0.5045000E-09  0.1500000E-08  0.5000000E-15
  1.000000000000000E-004
  CAR 
 Lattice                                 
     62     74     48
