Lattice                                 
           1
     4.369098    2.522500    0.000000
    -4.369098    2.522500    0.000000
     0.000000    0.000000   15.000000
   B    C 
     2    14
Direct configuration=     1
   0.33833034  0.66916432  0.10000000
   0.67165522  0.33584146  0.10000000
   0.16373946  0.31999962  0.10000000
   0.32250218  0.16126397  0.10000000
   0.16376430  0.84376384  0.10000000
   0.84623863  0.16123684  0.10000000
   0.68749850  0.84373000  0.10000000
   0.84626736  0.68499594  0.10000000
   0.24999933  0.24999967  0.32633333
   0.41666633  0.08333267  0.32633333
   0.24999933  0.74999967  0.32633333
   0.41666633  0.58333267  0.32633333
   0.74999933  0.24999967  0.32633333
   0.91666633  0.08333267  0.32633333
   0.74999933  0.74999967  0.32633333
   0.91666633  0.58333267  0.32633333
Direct configuration=     2
   0.33844091  0.66905632  0.10014328
   0.67179346  0.33570196  0.10008380
   0.16700955  0.32648879  0.09994273
   0.32868167  0.16438531  0.09997381
   0.16683956  0.84068287  0.09995473
   0.84296945  0.16448902  0.09995910
   0.68102555  0.84048558  0.09994311
   0.84312089  0.67882792  0.09997405
   0.24986380  0.24959665  0.32640599
   0.41630183  0.08328212  0.32639664
   0.24982221  0.75018858  0.32627010
   0.41677161  0.58322378  0.32622975
   0.75003429  0.24995603  0.32620860
   0.91686817  0.08312324  0.32638208
   0.75040300  0.75014210  0.32640748
   0.91671271  0.58369505  0.32639141
Direct configuration=     3
   0.33836037  0.66913500  0.10003891
   0.67169275  0.33580358  0.10002276
   0.16462745  0.32176174  0.09998445
   0.32418020  0.16211156  0.09999289
   0.16459938  0.84292721  0.09998771
   0.84535090  0.16211996  0.09998889
   0.68574079  0.84284899  0.09998455
   0.84541294  0.68332104  0.09999295
   0.24996253  0.24989023  0.32635306
   0.41656735  0.08331894  0.32635052
   0.24995124  0.75005096  0.32631616
   0.41669492  0.58330310  0.32630520
   0.75000883  0.24998782  0.32629946
   0.91672114  0.08327580  0.32634657
   0.75010895  0.75003834  0.32635347
   0.91667893  0.58343107  0.32634910
Direct configuration=     4
   0.33836069  0.66913986  0.10013251
   0.67169199  0.33580453  0.10007739
   0.16457670  0.32176576  0.09994794
   0.32418558  0.16214952  0.09997224
   0.16457916  0.84293327  0.09996174
   0.84537713  0.16211195  0.09995803
   0.68572905  0.84290494  0.09994826
   0.84537014  0.68332000  0.09997263
   0.24995698  0.24983761  0.32640319
   0.41654008  0.08329367  0.32638894
   0.24993638  0.75006522  0.32627635
   0.41671678  0.58328131  0.32623781
   0.75001503  0.24997952  0.32622231
   0.91675914  0.08323698  0.32637881
   0.75015996  0.75004284  0.32640444
   0.91670386  0.58345835  0.32638410
Direct configuration=     5
   0.33836080  0.66914154  0.10016492
   0.67169173  0.33580486  0.10009632
   0.16455913  0.32176715  0.09993530
   0.32418744  0.16216266  0.09996508
   0.16457216  0.84293537  0.09995275
   0.84538621  0.16210918  0.09994734
   0.68572499  0.84292431  0.09993569
   0.84535531  0.68331964  0.09996559
   0.24995505  0.24981938  0.32642054
   0.41653064  0.08328491  0.32640224
   0.24993124  0.75007015  0.32626256
   0.41672435  0.58327377  0.32621447
   0.75001718  0.24997665  0.32619560
   0.91677230  0.08322354  0.32638997
   0.75017763  0.75004440  0.32642209
   0.91671250  0.58346780  0.32639621
Direct configuration=     6
   0.33829028  0.66919004  0.10024910
   0.67169501  0.33581531  0.10015095
   0.16472334  0.32181490  0.09990623
   0.32408517  0.16210966  0.09993692
   0.16453422  0.84299106  0.09994097
   0.84527061  0.16219905  0.09990243
   0.68571131  0.84280315  0.09990700
   0.84537123  0.68340864  0.09993789
   0.25001816  0.24988824  0.32646406
   0.41663873  0.08329733  0.32641451
   0.25001386  0.74998653  0.32623419
   0.41671649  0.58327756  0.32617175
   0.75005319  0.24994315  0.32616056
   0.91673031  0.08326358  0.32641867
   0.75010965  0.74998101  0.32646550
   0.91669711  0.58335613  0.32640594
Direct configuration=     7
   0.33833537  0.66915903  0.10019527
   0.67169291  0.33580862  0.10011601
   0.16461833  0.32178437  0.09992482
   0.32415057  0.16214355  0.09995493
   0.16455848  0.84295545  0.09994850
   0.84534453  0.16214158  0.09993115
   0.68572006  0.84288063  0.09992534
   0.84536105  0.68335173  0.09995560
   0.24997781  0.24984421  0.32643624
   0.41656961  0.08328939  0.32640666
   0.24996103  0.75004000  0.32625233
   0.41672152  0.58327514  0.32619907
   0.75003016  0.24996457  0.32618296
   0.91675716  0.08323798  0.32640032
   0.75015312  0.75002154  0.32643774
   0.91670695  0.58342754  0.32639972
Direct configuration=     8
   0.33831250  0.66918767  0.10022096
   0.67165128  0.33584529  0.10013414
   0.16458077  0.32180472  0.09991623
   0.32416456  0.16213064  0.09994112
   0.16452228  0.84297176  0.09995267
   0.84535860  0.16215090  0.09990434
   0.68568989  0.84291066  0.09991708
   0.84538369  0.68334880  0.09994210
   0.25000476  0.24986222  0.32644747
   0.41661805  0.08328329  0.32639604
   0.24999482  0.75000469  0.32624755
   0.41672985  0.58326537  0.32620166
   0.75004801  0.24994652  0.32619668
   0.91675307  0.08324143  0.32641168
   0.75013434  0.74999348  0.32644826
   0.91671218  0.58337791  0.32638869
Direct configuration=     9
   0.33832249  0.66917517  0.10020974
   0.67166945  0.33582928  0.10012623
   0.16459717  0.32179584  0.09991998
   0.32415845  0.16213628  0.09994715
   0.16453808  0.84296464  0.09995085
   0.84535246  0.16214684  0.09991604
   0.68570306  0.84289755  0.09992069
   0.84537381  0.68335008  0.09994799
   0.24999299  0.24985436  0.32644256
   0.41659690  0.08328596  0.32640068
   0.24998007  0.75002010  0.32624964
   0.41672621  0.58326963  0.32620053
   0.75004022  0.24995440  0.32619069
   0.91675486  0.08323992  0.32640672
   0.75014254  0.75000573  0.32644367
   0.91670990  0.58339957  0.32639351
Direct configuration=    10
   0.33829886  0.66919881  0.10022718
   0.67165280  0.33584923  0.10013665
   0.16458164  0.32180489  0.09991179
   0.32414396  0.16217138  0.09993761
   0.16453377  0.84297177  0.09995657
   0.84533976  0.16216098  0.09989212
   0.68569651  0.84292223  0.09991291
   0.84533144  0.68336160  0.09993884
   0.25000674  0.24983167  0.32644808
   0.41660947  0.08326535  0.32638898
   0.24999249  0.75000640  0.32624699
   0.41674594  0.58324908  0.32621138
   0.75005572  0.24993735  0.32620987
   0.91677613  0.08321772  0.32641757
   0.75016378  0.74999062  0.32644842
   0.91672966  0.58338625  0.32638170
Direct configuration=    11
   0.33829044  0.66920723  0.10023339
   0.67164687  0.33585633  0.10014036
   0.16457610  0.32180812  0.09990887
   0.32413880  0.16218388  0.09993422
   0.16453224  0.84297431  0.09995860
   0.84533524  0.16216602  0.09988360
   0.68569418  0.84293103  0.09991014
   0.84531634  0.68336570  0.09993558
   0.25001164  0.24982359  0.32645005
   0.41661394  0.08325801  0.32638482
   0.24999692  0.75000152  0.32624605
   0.41675296  0.58324176  0.32621525
   0.75006124  0.24993128  0.32621670
   0.91678371  0.08320982  0.32642143
   0.75017135  0.74998524  0.32645011
   0.91673670  0.58338150  0.32637749
Direct configuration=    12
   0.33828572  0.66921389  0.10024259
   0.67163781  0.33586495  0.10014022
   0.16456437  0.32184254  0.09989786
   0.32410979  0.16218666  0.09993254
   0.16449400  0.84300640  0.09996335
   0.84530972  0.16219659  0.09986566
   0.68566107  0.84294446  0.09989960
   0.84531479  0.68339999  0.09993431
   0.25002774  0.24978932  0.32645151
   0.41661899  0.08323542  0.32638107
   0.25001066  0.74998706  0.32624321
   0.41677276  0.58322057  0.32622813
   0.75008054  0.24991084  0.32622916
   0.91680839  0.08318342  0.32643270
   0.75020463  0.74996830  0.32645104
   0.91675768  0.58337493  0.32637372
Direct configuration=    13
   0.33828442  0.66921573  0.10024512
   0.67163532  0.33586733  0.10014018
   0.16456114  0.32185200  0.09989484
   0.32410182  0.16218742  0.09993208
   0.16448348  0.84301523  0.09996466
   0.84530270  0.16220500  0.09986072
   0.68565196  0.84294815  0.09989671
   0.84531437  0.68340942  0.09993396
   0.25003217  0.24977990  0.32645191
   0.41662037  0.08322920  0.32638004
   0.25001444  0.74998308  0.32624242
   0.41677820  0.58321474  0.32623168
   0.75008585  0.24990522  0.32623259
   0.91681518  0.08317616  0.32643580
   0.75021379  0.74996364  0.32645129
   0.91676345  0.58337312  0.32637268
Direct configuration=    14
   0.33826536  0.66923575  0.10024597
   0.67161752  0.33588703  0.10013320
   0.16453943  0.32186998  0.09988376
   0.32408242  0.16220979  0.09993544
   0.16446560  0.84303375  0.09996930
   0.84528427  0.16222552  0.09984823
   0.68563551  0.84297263  0.09988610
   0.84529164  0.68342920  0.09993773
   0.25005254  0.24976215  0.32645264
   0.41664234  0.08320962  0.32638313
   0.25003545  0.74996080  0.32624122
   0.41679666  0.58319502  0.32624082
   0.75010514  0.24988477  0.32623725
   0.91683266  0.08315745  0.32644430
   0.75023035  0.74994203  0.32645183
   0.91678176  0.58334984  0.32637574
Direct configuration=    15
   0.33820820  0.66929584  0.10024850
   0.67156412  0.33594614  0.10011226
   0.16447430  0.32192390  0.09985055
   0.32402424  0.16227691  0.09994552
   0.16441197  0.84308930  0.09998323
   0.84522899  0.16228710  0.09981076
   0.68558617  0.84304605  0.09985430
   0.84522347  0.68348856  0.09994903
   0.25011365  0.24970889  0.32645483
   0.41670822  0.08315088  0.32639240
   0.25009847  0.74989394  0.32623762
   0.41685202  0.58313585  0.32626824
   0.75016302  0.24982342  0.32625125
   0.91688511  0.08310134  0.32646978
   0.75028004  0.74987720  0.32645346
   0.91683668  0.58328001  0.32638494
Direct configuration=    16
   0.33809388  0.66941600  0.10025357
   0.67145731  0.33606436  0.10007039
   0.16434402  0.32203173  0.09978413
   0.32390787  0.16241115  0.09996569
   0.16430470  0.84320040  0.10001107
   0.84511843  0.16241025  0.09973580
   0.68548748  0.84319290  0.09979069
   0.84508713  0.68360729  0.09997163
   0.25023587  0.24960237  0.32645920
   0.41683999  0.08303341  0.32641094
   0.25022450  0.74976023  0.32623042
   0.41696276  0.58301751  0.32632309
   0.75027878  0.24970072  0.32627925
   0.91699000  0.08298911  0.32652075
   0.75037943  0.74974755  0.32645670
   0.91694651  0.58314035  0.32640334
Direct configuration=    17
   0.33813365  0.66937419  0.10025181
   0.67149447  0.33602323  0.10008496
   0.16438934  0.32199422  0.09980724
   0.32394835  0.16236445  0.09995867
   0.16434202  0.84316175  0.10000138
   0.84515690  0.16236740  0.09976188
   0.68552182  0.84314181  0.09981282
   0.84513456  0.68356599  0.09996377
   0.25019335  0.24963943  0.32645768
   0.41679415  0.08307428  0.32640449
   0.25018065  0.74980675  0.32623292
   0.41692424  0.58305868  0.32630401
   0.75023851  0.24974341  0.32626951
   0.91695351  0.08302815  0.32650302
   0.75034485  0.74979265  0.32645557
   0.91690830  0.58318894  0.32639694
Direct configuration=    18
   0.33812043  0.66938864  0.10024939
   0.67147918  0.33603863  0.10008112
   0.16437817  0.32200853  0.09980183
   0.32393706  0.16237625  0.09995976
   0.16432899  0.84317480  0.10000604
   0.84514507  0.16238088  0.09975298
   0.68550783  0.84315351  0.09980770
   0.84512392  0.68357876  0.09996511
   0.25020544  0.24962607  0.32646030
   0.41680669  0.08306064  0.32640658
   0.25019261  0.74979391  0.32623472
   0.41693742  0.58304476  0.32630633
   0.75025084  0.24973015  0.32627197
   0.91696646  0.08301445  0.32650567
   0.75035734  0.74977969  0.32645817
   0.91692121  0.58317566  0.32639901
Direct configuration=    19
   0.33808077  0.66943199  0.10024215
   0.67143333  0.33608482  0.10006959
   0.16434464  0.32205148  0.09978560
   0.32390317  0.16241163  0.09996301
   0.16428990  0.84321393  0.10002002
   0.84510959  0.16242129  0.09972627
   0.68546589  0.84318858  0.09979235
   0.84509199  0.68361710  0.09996916
   0.25024173  0.24958599  0.32646816
   0.41684431  0.08301972  0.32641285
   0.25022849  0.74975540  0.32624010
   0.41697696  0.58300298  0.32631327
   0.75028783  0.24969040  0.32627936
   0.91700532  0.08297336  0.32651360
   0.75039481  0.74974080  0.32646598
   0.91695992  0.58313585  0.32640520
Direct configuration=    20
   0.33800145  0.66951869  0.10022766
   0.67134163  0.33617721  0.10004654
   0.16427759  0.32213737  0.09975314
   0.32383540  0.16248239  0.09996951
   0.16421173  0.84329221  0.10004796
   0.84503863  0.16250213  0.09967287
   0.68538200  0.84325874  0.09976166
   0.84502813  0.68369377  0.09997724
   0.25031429  0.24950583  0.32648389
   0.41691955  0.08293789  0.32642538
   0.25030025  0.74967837  0.32625086
   0.41705604  0.58291944  0.32632715
   0.75036182  0.24961088  0.32629412
   0.91708305  0.08289117  0.32652948
   0.75046975  0.74966302  0.32648161
   0.91703736  0.58305622  0.32641760
Direct configuration=    21
   0.33784281  0.66969208  0.10019867
   0.67115822  0.33636199  0.10000045
   0.16414348  0.32230915  0.09968823
   0.32369985  0.16262393  0.09998252
   0.16405538  0.84344875  0.10010385
   0.84489672  0.16266379  0.09956605
   0.68521421  0.84339905  0.09970026
   0.84490041  0.68384712  0.09999340
   0.25045942  0.24934551  0.32651534
   0.41707002  0.08277423  0.32645046
   0.25044378  0.74952433  0.32627239
   0.41721420  0.58275236  0.32635491
   0.75050980  0.24945185  0.32632366
   0.91723849  0.08272678  0.32656123
   0.75061963  0.74950746  0.32651285
   0.91719223  0.58289697  0.32644239
