<?xml version="1.0" encoding="ISO-8859-1"?>
<modeling>
 <generator>
  <i name="program" type="string">vasp </i>
  <i name="version" type="string">6.3.2  </i>
  <i name="subversion" type="string">27Jun22 (build Dec 22 2022 13:13:19) complex                          parallel </i>
  <i name="platform" type="string">LinuxIFC </i>
  <i name="date" type="string">2023 11 01 </i>
  <i name="time" type="string">20:06:55 </i>
 </generator>
 <incar>
  <i type="string" name="SYSTEM">SC</i>
  <i type="int" name="ISTART">     0</i>
  <i type="string" name="PREC">Accurate</i>
  <i type="string" name="ALGO">Normal</i>
  <i type="int" name="ICHARG">     2</i>
  <i type="int" name="NELM">    64</i>
  <i type="int" name="IBRION">    -1</i>
  <i name="EDIFF">      0.00000100</i>
  <i name="EDIFFG">     -0.00100000</i>
  <i name="SYMPREC">      0.00000100</i>
  <i name="ENCUT">    450.00000000</i>
  <i type="int" name="ISMEAR">     0</i>
  <i name="SIGMA">      0.10000000</i>
  <i type="logical" name="LWAVE"> T  </i>
  <i type="logical" name="LCHARG"> T  </i>
  <i type="string" name="GGA">PE</i>
  <i type="int" name="IVDW">    12</i>
 </incar>
 <primitive_cell>
  <structure name="primitive_cell" >
   <crystal>
    <varray name="basis" >
     <v>       4.37429400       2.52550000       0.00000000 </v>
     <v>      -4.37429400       2.52550000       0.00000000 </v>
     <v>       0.00000000       0.00000000      15.00000000 </v>
    </varray>
    <i name="volume">    331.41838491 </i>
    <varray name="rec_basis" >
     <v>       0.11430416       0.19798060       0.00000000 </v>
     <v>      -0.11430416       0.19798060       0.00000000 </v>
     <v>       0.00000000       0.00000000       0.06666667 </v>
    </varray>
   </crystal>
   <varray name="positions" >
    <v>       0.66893173       1.00000000       0.10000000 </v>
    <v>       0.33106727       1.00000000       0.10000000 </v>
    <v>       1.00000000       0.33106727       0.10000000 </v>
    <v>       1.00000000       0.66893173       0.10000000 </v>
    <v>       0.33106727       0.33106727       0.10000000 </v>
    <v>       0.66893173       0.66893173       0.10000000 </v>
    <v>       0.66666600       0.33333300       0.09995611 </v>
    <v>       0.33333300       0.66666600       0.10004389 </v>
   </varray>
  </structure>
  <varray name="primitive_index" >
   <v type="int" >        1 </v>
   <v type="int" >        2 </v>
   <v type="int" >        3 </v>
   <v type="int" >        4 </v>
   <v type="int" >        5 </v>
   <v type="int" >        6 </v>
   <v type="int" >        7 </v>
   <v type="int" >        8 </v>
  </varray>
 </primitive_cell>
 <kpoints>
  <generation param="Gamma">
   <v type="int" name="divisions">      41       41        1 </v>
   <v name="usershift">      0.00000000       0.00000000       0.00000000 </v>
   <v name="genvec1">      0.02439024       0.00000000       0.00000000 </v>
   <v name="genvec2">      0.00000000       0.02439024       0.00000000 </v>
   <v name="genvec3">      0.00000000       0.00000000       1.00000000 </v>
   <v name="shift">      0.00000000       0.00000000       0.00000000 </v>
  </generation>
  <varray name="kpointlist" >
   <v>       0.00000000       0.00000000       0.00000000 </v>
   <v>       0.02439024       0.00000000       0.00000000 </v>
   <v>      -0.02439024       0.02439024       0.00000000 </v>
   <v>       0.04878049       0.00000000       0.00000000 </v>
   <v>      -0.04878049       0.04878049       0.00000000 </v>
   <v>       0.07317073       0.00000000       0.00000000 </v>
   <v>      -0.07317073       0.07317073       0.00000000 </v>
   <v>       0.09756098       0.00000000       0.00000000 </v>
   <v>      -0.09756098       0.09756098       0.00000000 </v>
   <v>       0.12195122       0.00000000       0.00000000 </v>
   <v>      -0.12195122       0.12195122       0.00000000 </v>
   <v>       0.14634146       0.00000000       0.00000000 </v>
   <v>      -0.14634146       0.14634146       0.00000000 </v>
   <v>       0.17073171       0.00000000       0.00000000 </v>
   <v>      -0.17073171       0.17073171       0.00000000 </v>
   <v>       0.19512195       0.00000000       0.00000000 </v>
   <v>      -0.19512195       0.19512195       0.00000000 </v>
   <v>       0.21951220       0.00000000       0.00000000 </v>
   <v>      -0.21951220       0.21951220       0.00000000 </v>
   <v>       0.24390244       0.00000000       0.00000000 </v>
   <v>      -0.24390244       0.24390244       0.00000000 </v>
   <v>       0.26829268       0.00000000       0.00000000 </v>
   <v>      -0.26829268       0.26829268       0.00000000 </v>
   <v>       0.29268293       0.00000000       0.00000000 </v>
   <v>      -0.29268293       0.29268293       0.00000000 </v>
   <v>       0.31707317       0.00000000       0.00000000 </v>
   <v>      -0.31707317       0.31707317       0.00000000 </v>
   <v>       0.34146341       0.00000000       0.00000000 </v>
   <v>      -0.34146341       0.34146341       0.00000000 </v>
   <v>       0.36585366       0.00000000       0.00000000 </v>
   <v>      -0.36585366       0.36585366       0.00000000 </v>
   <v>       0.39024390       0.00000000       0.00000000 </v>
   <v>      -0.39024390       0.39024390       0.00000000 </v>
   <v>       0.41463415       0.00000000       0.00000000 </v>
   <v>      -0.41463415       0.41463415       0.00000000 </v>
   <v>       0.43902439       0.00000000       0.00000000 </v>
   <v>      -0.43902439       0.43902439       0.00000000 </v>
   <v>       0.46341463       0.00000000       0.00000000 </v>
   <v>      -0.46341463       0.46341463       0.00000000 </v>
   <v>       0.48780488       0.00000000       0.00000000 </v>
   <v>      -0.48780488       0.48780488       0.00000000 </v>
   <v>       0.02439024       0.02439024       0.00000000 </v>
   <v>      -0.02439024       0.04878049       0.00000000 </v>
   <v>       0.04878049       0.02439024       0.00000000 </v>
   <v>      -0.02439024       0.07317073       0.00000000 </v>
   <v>      -0.07317073       0.04878049       0.00000000 </v>
   <v>       0.07317073       0.02439024       0.00000000 </v>
   <v>      -0.02439024       0.09756098       0.00000000 </v>
   <v>      -0.09756098       0.07317073       0.00000000 </v>
   <v>       0.09756098       0.02439024       0.00000000 </v>
   <v>      -0.02439024       0.12195122       0.00000000 </v>
   <v>      -0.12195122       0.09756098       0.00000000 </v>
   <v>       0.12195122       0.02439024       0.00000000 </v>
   <v>      -0.02439024       0.14634146       0.00000000 </v>
   <v>      -0.14634146       0.12195122       0.00000000 </v>
   <v>       0.14634146       0.02439024       0.00000000 </v>
   <v>      -0.02439024       0.17073171       0.00000000 </v>
   <v>      -0.17073171       0.14634146       0.00000000 </v>
   <v>       0.17073171       0.02439024       0.00000000 </v>
   <v>      -0.02439024       0.19512195       0.00000000 </v>
   <v>      -0.19512195       0.17073171       0.00000000 </v>
   <v>       0.19512195       0.02439024       0.00000000 </v>
   <v>      -0.02439024       0.21951220       0.00000000 </v>
   <v>      -0.21951220       0.19512195       0.00000000 </v>
   <v>       0.21951220       0.02439024       0.00000000 </v>
   <v>      -0.02439024       0.24390244       0.00000000 </v>
   <v>      -0.24390244       0.21951220       0.00000000 </v>
   <v>       0.24390244       0.02439024       0.00000000 </v>
   <v>      -0.02439024       0.26829268       0.00000000 </v>
   <v>      -0.26829268       0.24390244       0.00000000 </v>
   <v>       0.26829268       0.02439024       0.00000000 </v>
   <v>      -0.02439024       0.29268293       0.00000000 </v>
   <v>      -0.29268293       0.26829268       0.00000000 </v>
   <v>       0.29268293       0.02439024       0.00000000 </v>
   <v>      -0.02439024       0.31707317       0.00000000 </v>
   <v>      -0.31707317       0.29268293       0.00000000 </v>
   <v>       0.31707317       0.02439024       0.00000000 </v>
   <v>      -0.02439024       0.34146341       0.00000000 </v>
   <v>      -0.34146341       0.31707317       0.00000000 </v>
   <v>       0.34146341       0.02439024       0.00000000 </v>
   <v>      -0.02439024       0.36585366       0.00000000 </v>
   <v>      -0.36585366       0.34146341       0.00000000 </v>
   <v>       0.36585366       0.02439024       0.00000000 </v>
   <v>      -0.02439024       0.39024390       0.00000000 </v>
   <v>      -0.39024390       0.36585366       0.00000000 </v>
   <v>       0.39024390       0.02439024       0.00000000 </v>
   <v>      -0.02439024       0.41463415       0.00000000 </v>
   <v>      -0.41463415       0.39024390       0.00000000 </v>
   <v>       0.41463415       0.02439024       0.00000000 </v>
   <v>      -0.02439024       0.43902439       0.00000000 </v>
   <v>      -0.43902439       0.41463415       0.00000000 </v>
   <v>       0.43902439       0.02439024       0.00000000 </v>
   <v>      -0.02439024       0.46341463       0.00000000 </v>
   <v>      -0.46341463       0.43902439       0.00000000 </v>
   <v>       0.46341463       0.02439024       0.00000000 </v>
   <v>      -0.02439024       0.48780488       0.00000000 </v>
   <v>      -0.48780488       0.46341463       0.00000000 </v>
   <v>       0.48780488       0.02439024       0.00000000 </v>
   <v>       0.48780488       0.48780488       0.00000000 </v>
   <v>       0.04878049       0.04878049       0.00000000 </v>
   <v>      -0.04878049       0.09756098       0.00000000 </v>
   <v>       0.07317073       0.04878049       0.00000000 </v>
   <v>      -0.04878049       0.12195122       0.00000000 </v>
   <v>      -0.12195122       0.07317073       0.00000000 </v>
   <v>       0.09756098       0.04878049       0.00000000 </v>
   <v>      -0.04878049       0.14634146       0.00000000 </v>
   <v>      -0.14634146       0.09756098       0.00000000 </v>
   <v>       0.12195122       0.04878049       0.00000000 </v>
   <v>      -0.04878049       0.17073171       0.00000000 </v>
   <v>      -0.17073171       0.12195122       0.00000000 </v>
   <v>       0.14634146       0.04878049       0.00000000 </v>
   <v>      -0.04878049       0.19512195       0.00000000 </v>
   <v>      -0.19512195       0.14634146       0.00000000 </v>
   <v>       0.17073171       0.04878049       0.00000000 </v>
   <v>      -0.04878049       0.21951220       0.00000000 </v>
   <v>      -0.21951220       0.17073171       0.00000000 </v>
   <v>       0.19512195       0.04878049       0.00000000 </v>
   <v>      -0.04878049       0.24390244       0.00000000 </v>
   <v>      -0.24390244       0.19512195       0.00000000 </v>
   <v>       0.21951220       0.04878049       0.00000000 </v>
   <v>      -0.04878049       0.26829268       0.00000000 </v>
   <v>      -0.26829268       0.21951220       0.00000000 </v>
   <v>       0.24390244       0.04878049       0.00000000 </v>
   <v>      -0.04878049       0.29268293       0.00000000 </v>
   <v>      -0.29268293       0.24390244       0.00000000 </v>
   <v>       0.26829268       0.04878049       0.00000000 </v>
   <v>      -0.04878049       0.31707317       0.00000000 </v>
   <v>      -0.31707317       0.26829268       0.00000000 </v>
   <v>       0.29268293       0.04878049       0.00000000 </v>
   <v>      -0.04878049       0.34146341       0.00000000 </v>
   <v>      -0.34146341       0.29268293       0.00000000 </v>
   <v>       0.31707317       0.04878049       0.00000000 </v>
   <v>      -0.04878049       0.36585366       0.00000000 </v>
   <v>      -0.36585366       0.31707317       0.00000000 </v>
   <v>       0.34146341       0.04878049       0.00000000 </v>
   <v>      -0.04878049       0.39024390       0.00000000 </v>
   <v>      -0.39024390       0.34146341       0.00000000 </v>
   <v>       0.36585366       0.04878049       0.00000000 </v>
   <v>      -0.04878049       0.41463415       0.00000000 </v>
   <v>      -0.41463415       0.36585366       0.00000000 </v>
   <v>       0.39024390       0.04878049       0.00000000 </v>
   <v>      -0.04878049       0.43902439       0.00000000 </v>
   <v>      -0.43902439       0.39024390       0.00000000 </v>
   <v>       0.41463415       0.04878049       0.00000000 </v>
   <v>      -0.04878049       0.46341463       0.00000000 </v>
   <v>      -0.46341463       0.41463415       0.00000000 </v>
   <v>       0.43902439       0.04878049       0.00000000 </v>
   <v>      -0.04878049       0.48780488       0.00000000 </v>
   <v>      -0.48780488       0.43902439       0.00000000 </v>
   <v>       0.46341463       0.04878049       0.00000000 </v>
   <v>      -0.04878049      -0.48780488       0.00000000 </v>
   <v>       0.48780488       0.46341463       0.00000000 </v>
   <v>       0.07317073       0.07317073       0.00000000 </v>
   <v>      -0.07317073       0.14634146       0.00000000 </v>
   <v>       0.09756098       0.07317073       0.00000000 </v>
   <v>      -0.07317073       0.17073171       0.00000000 </v>
   <v>      -0.17073171       0.09756098       0.00000000 </v>
   <v>       0.12195122       0.07317073       0.00000000 </v>
   <v>      -0.07317073       0.19512195       0.00000000 </v>
   <v>      -0.19512195       0.12195122       0.00000000 </v>
   <v>       0.14634146       0.07317073       0.00000000 </v>
   <v>      -0.07317073       0.21951220       0.00000000 </v>
   <v>      -0.21951220       0.14634146       0.00000000 </v>
   <v>       0.17073171       0.07317073       0.00000000 </v>
   <v>      -0.07317073       0.24390244       0.00000000 </v>
   <v>      -0.24390244       0.17073171       0.00000000 </v>
   <v>       0.19512195       0.07317073       0.00000000 </v>
   <v>      -0.07317073       0.26829268       0.00000000 </v>
   <v>      -0.26829268       0.19512195       0.00000000 </v>
   <v>       0.21951220       0.07317073       0.00000000 </v>
   <v>      -0.07317073       0.29268293       0.00000000 </v>
   <v>      -0.29268293       0.21951220       0.00000000 </v>
   <v>       0.24390244       0.07317073       0.00000000 </v>
   <v>      -0.07317073       0.31707317       0.00000000 </v>
   <v>      -0.31707317       0.24390244       0.00000000 </v>
   <v>       0.26829268       0.07317073       0.00000000 </v>
   <v>      -0.07317073       0.34146341       0.00000000 </v>
   <v>      -0.34146341       0.26829268       0.00000000 </v>
   <v>       0.29268293       0.07317073       0.00000000 </v>
   <v>      -0.07317073       0.36585366       0.00000000 </v>
   <v>      -0.36585366       0.29268293       0.00000000 </v>
   <v>       0.31707317       0.07317073       0.00000000 </v>
   <v>      -0.07317073       0.39024390       0.00000000 </v>
   <v>      -0.39024390       0.31707317       0.00000000 </v>
   <v>       0.34146341       0.07317073       0.00000000 </v>
   <v>      -0.07317073       0.41463415       0.00000000 </v>
   <v>      -0.41463415       0.34146341       0.00000000 </v>
   <v>       0.36585366       0.07317073       0.00000000 </v>
   <v>      -0.07317073       0.43902439       0.00000000 </v>
   <v>      -0.43902439       0.36585366       0.00000000 </v>
   <v>       0.39024390       0.07317073       0.00000000 </v>
   <v>      -0.07317073       0.46341463       0.00000000 </v>
   <v>      -0.46341463       0.39024390       0.00000000 </v>
   <v>       0.41463415       0.07317073       0.00000000 </v>
   <v>      -0.07317073       0.48780488       0.00000000 </v>
   <v>      -0.48780488       0.41463415       0.00000000 </v>
   <v>       0.43902439       0.07317073       0.00000000 </v>
   <v>      -0.07317073      -0.48780488       0.00000000 </v>
   <v>       0.48780488       0.43902439       0.00000000 </v>
   <v>       0.46341463       0.07317073       0.00000000 </v>
   <v>       0.46341463       0.46341463       0.00000000 </v>
   <v>       0.09756098       0.09756098       0.00000000 </v>
   <v>      -0.09756098       0.19512195       0.00000000 </v>
   <v>       0.12195122       0.09756098       0.00000000 </v>
   <v>      -0.09756098       0.21951220       0.00000000 </v>
   <v>      -0.21951220       0.12195122       0.00000000 </v>
   <v>       0.14634146       0.09756098       0.00000000 </v>
   <v>      -0.09756098       0.24390244       0.00000000 </v>
   <v>      -0.24390244       0.14634146       0.00000000 </v>
   <v>       0.17073171       0.09756098       0.00000000 </v>
   <v>      -0.09756098       0.26829268       0.00000000 </v>
   <v>      -0.26829268       0.17073171       0.00000000 </v>
   <v>       0.19512195       0.09756098       0.00000000 </v>
   <v>      -0.09756098       0.29268293       0.00000000 </v>
   <v>      -0.29268293       0.19512195       0.00000000 </v>
   <v>       0.21951220       0.09756098       0.00000000 </v>
   <v>      -0.09756098       0.31707317       0.00000000 </v>
   <v>      -0.31707317       0.21951220       0.00000000 </v>
   <v>       0.24390244       0.09756098       0.00000000 </v>
   <v>      -0.09756098       0.34146341       0.00000000 </v>
   <v>      -0.34146341       0.24390244       0.00000000 </v>
   <v>       0.26829268       0.09756098       0.00000000 </v>
   <v>      -0.09756098       0.36585366       0.00000000 </v>
   <v>      -0.36585366       0.26829268       0.00000000 </v>
   <v>       0.29268293       0.09756098       0.00000000 </v>
   <v>      -0.09756098       0.39024390       0.00000000 </v>
   <v>      -0.39024390       0.29268293       0.00000000 </v>
   <v>       0.31707317       0.09756098       0.00000000 </v>
   <v>      -0.09756098       0.41463415       0.00000000 </v>
   <v>      -0.41463415       0.31707317       0.00000000 </v>
   <v>       0.34146341       0.09756098       0.00000000 </v>
   <v>      -0.09756098       0.43902439       0.00000000 </v>
   <v>      -0.43902439       0.34146341       0.00000000 </v>
   <v>       0.36585366       0.09756098       0.00000000 </v>
   <v>      -0.09756098       0.46341463       0.00000000 </v>
   <v>      -0.46341463       0.36585366       0.00000000 </v>
   <v>       0.39024390       0.09756098       0.00000000 </v>
   <v>      -0.09756098       0.48780488       0.00000000 </v>
   <v>      -0.48780488       0.39024390       0.00000000 </v>
   <v>       0.41463415       0.09756098       0.00000000 </v>
   <v>      -0.09756098      -0.48780488       0.00000000 </v>
   <v>       0.48780488       0.41463415       0.00000000 </v>
   <v>       0.43902439       0.09756098       0.00000000 </v>
   <v>      -0.09756098      -0.46341463       0.00000000 </v>
   <v>       0.46341463       0.43902439       0.00000000 </v>
   <v>       0.12195122       0.12195122       0.00000000 </v>
   <v>      -0.12195122       0.24390244       0.00000000 </v>
   <v>       0.14634146       0.12195122       0.00000000 </v>
   <v>      -0.12195122       0.26829268       0.00000000 </v>
   <v>      -0.26829268       0.14634146       0.00000000 </v>
   <v>       0.17073171       0.12195122       0.00000000 </v>
   <v>      -0.12195122       0.29268293       0.00000000 </v>
   <v>      -0.29268293       0.17073171       0.00000000 </v>
   <v>       0.19512195       0.12195122       0.00000000 </v>
   <v>      -0.12195122       0.31707317       0.00000000 </v>
   <v>      -0.31707317       0.19512195       0.00000000 </v>
   <v>       0.21951220       0.12195122       0.00000000 </v>
   <v>      -0.12195122       0.34146341       0.00000000 </v>
   <v>      -0.34146341       0.21951220       0.00000000 </v>
   <v>       0.24390244       0.12195122       0.00000000 </v>
   <v>      -0.12195122       0.36585366       0.00000000 </v>
   <v>      -0.36585366       0.24390244       0.00000000 </v>
   <v>       0.26829268       0.12195122       0.00000000 </v>
   <v>      -0.12195122       0.39024390       0.00000000 </v>
   <v>      -0.39024390       0.26829268       0.00000000 </v>
   <v>       0.29268293       0.12195122       0.00000000 </v>
   <v>      -0.12195122       0.41463415       0.00000000 </v>
   <v>      -0.41463415       0.29268293       0.00000000 </v>
   <v>       0.31707317       0.12195122       0.00000000 </v>
   <v>      -0.12195122       0.43902439       0.00000000 </v>
   <v>      -0.43902439       0.31707317       0.00000000 </v>
   <v>       0.34146341       0.12195122       0.00000000 </v>
   <v>      -0.12195122       0.46341463       0.00000000 </v>
   <v>      -0.46341463       0.34146341       0.00000000 </v>
   <v>       0.36585366       0.12195122       0.00000000 </v>
   <v>      -0.12195122       0.48780488       0.00000000 </v>
   <v>      -0.48780488       0.36585366       0.00000000 </v>
   <v>       0.39024390       0.12195122       0.00000000 </v>
   <v>      -0.12195122      -0.48780488       0.00000000 </v>
   <v>       0.48780488       0.39024390       0.00000000 </v>
   <v>       0.41463415       0.12195122       0.00000000 </v>
   <v>      -0.12195122      -0.46341463       0.00000000 </v>
   <v>       0.46341463       0.41463415       0.00000000 </v>
   <v>       0.43902439       0.12195122       0.00000000 </v>
   <v>       0.43902439       0.43902439       0.00000000 </v>
   <v>       0.14634146       0.14634146       0.00000000 </v>
   <v>      -0.14634146       0.29268293       0.00000000 </v>
   <v>       0.17073171       0.14634146       0.00000000 </v>
   <v>      -0.14634146       0.31707317       0.00000000 </v>
   <v>      -0.31707317       0.17073171       0.00000000 </v>
   <v>       0.19512195       0.14634146       0.00000000 </v>
   <v>      -0.14634146       0.34146341       0.00000000 </v>
   <v>      -0.34146341       0.19512195       0.00000000 </v>
   <v>       0.21951220       0.14634146       0.00000000 </v>
   <v>      -0.14634146       0.36585366       0.00000000 </v>
   <v>      -0.36585366       0.21951220       0.00000000 </v>
   <v>       0.24390244       0.14634146       0.00000000 </v>
   <v>      -0.14634146       0.39024390       0.00000000 </v>
   <v>      -0.39024390       0.24390244       0.00000000 </v>
   <v>       0.26829268       0.14634146       0.00000000 </v>
   <v>      -0.14634146       0.41463415       0.00000000 </v>
   <v>      -0.41463415       0.26829268       0.00000000 </v>
   <v>       0.29268293       0.14634146       0.00000000 </v>
   <v>      -0.14634146       0.43902439       0.00000000 </v>
   <v>      -0.43902439       0.29268293       0.00000000 </v>
   <v>       0.31707317       0.14634146       0.00000000 </v>
   <v>      -0.14634146       0.46341463       0.00000000 </v>
   <v>      -0.46341463       0.31707317       0.00000000 </v>
   <v>       0.34146341       0.14634146       0.00000000 </v>
   <v>      -0.14634146       0.48780488       0.00000000 </v>
   <v>      -0.48780488       0.34146341       0.00000000 </v>
   <v>       0.36585366       0.14634146       0.00000000 </v>
   <v>      -0.14634146      -0.48780488       0.00000000 </v>
   <v>       0.48780488       0.36585366       0.00000000 </v>
   <v>       0.39024390       0.14634146       0.00000000 </v>
   <v>      -0.14634146      -0.46341463       0.00000000 </v>
   <v>       0.46341463       0.39024390       0.00000000 </v>
   <v>       0.41463415       0.14634146       0.00000000 </v>
   <v>      -0.14634146      -0.43902439       0.00000000 </v>
   <v>       0.43902439       0.41463415       0.00000000 </v>
   <v>       0.17073171       0.17073171       0.00000000 </v>
   <v>      -0.17073171       0.34146341       0.00000000 </v>
   <v>       0.19512195       0.17073171       0.00000000 </v>
   <v>      -0.17073171       0.36585366       0.00000000 </v>
   <v>      -0.36585366       0.19512195       0.00000000 </v>
   <v>       0.21951220       0.17073171       0.00000000 </v>
   <v>      -0.17073171       0.39024390       0.00000000 </v>
   <v>      -0.39024390       0.21951220       0.00000000 </v>
   <v>       0.24390244       0.17073171       0.00000000 </v>
   <v>      -0.17073171       0.41463415       0.00000000 </v>
   <v>      -0.41463415       0.24390244       0.00000000 </v>
   <v>       0.26829268       0.17073171       0.00000000 </v>
   <v>      -0.17073171       0.43902439       0.00000000 </v>
   <v>      -0.43902439       0.26829268       0.00000000 </v>
   <v>       0.29268293       0.17073171       0.00000000 </v>
   <v>      -0.17073171       0.46341463       0.00000000 </v>
   <v>      -0.46341463       0.29268293       0.00000000 </v>
   <v>       0.31707317       0.17073171       0.00000000 </v>
   <v>      -0.17073171       0.48780488       0.00000000 </v>
   <v>      -0.48780488       0.31707317       0.00000000 </v>
   <v>       0.34146341       0.17073171       0.00000000 </v>
   <v>      -0.17073171      -0.48780488       0.00000000 </v>
   <v>       0.48780488       0.34146341       0.00000000 </v>
   <v>       0.36585366       0.17073171       0.00000000 </v>
   <v>      -0.17073171      -0.46341463       0.00000000 </v>
   <v>       0.46341463       0.36585366       0.00000000 </v>
   <v>       0.39024390       0.17073171       0.00000000 </v>
   <v>      -0.17073171      -0.43902439       0.00000000 </v>
   <v>       0.43902439       0.39024390       0.00000000 </v>
   <v>       0.41463415       0.17073171       0.00000000 </v>
   <v>       0.41463415       0.41463415       0.00000000 </v>
   <v>       0.19512195       0.19512195       0.00000000 </v>
   <v>      -0.19512195       0.39024390       0.00000000 </v>
   <v>       0.21951220       0.19512195       0.00000000 </v>
   <v>      -0.19512195       0.41463415       0.00000000 </v>
   <v>      -0.41463415       0.21951220       0.00000000 </v>
   <v>       0.24390244       0.19512195       0.00000000 </v>
   <v>      -0.19512195       0.43902439       0.00000000 </v>
   <v>      -0.43902439       0.24390244       0.00000000 </v>
   <v>       0.26829268       0.19512195       0.00000000 </v>
   <v>      -0.19512195       0.46341463       0.00000000 </v>
   <v>      -0.46341463       0.26829268       0.00000000 </v>
   <v>       0.29268293       0.19512195       0.00000000 </v>
   <v>      -0.19512195       0.48780488       0.00000000 </v>
   <v>      -0.48780488       0.29268293       0.00000000 </v>
   <v>       0.31707317       0.19512195       0.00000000 </v>
   <v>      -0.19512195      -0.48780488       0.00000000 </v>
   <v>       0.48780488       0.31707317       0.00000000 </v>
   <v>       0.34146341       0.19512195       0.00000000 </v>
   <v>      -0.19512195      -0.46341463       0.00000000 </v>
   <v>       0.46341463       0.34146341       0.00000000 </v>
   <v>       0.36585366       0.19512195       0.00000000 </v>
   <v>      -0.19512195      -0.43902439       0.00000000 </v>
   <v>       0.43902439       0.36585366       0.00000000 </v>
   <v>       0.39024390       0.19512195       0.00000000 </v>
   <v>      -0.19512195      -0.41463415       0.00000000 </v>
   <v>       0.41463415       0.39024390       0.00000000 </v>
   <v>       0.21951220       0.21951220       0.00000000 </v>
   <v>      -0.21951220       0.43902439       0.00000000 </v>
   <v>       0.24390244       0.21951220       0.00000000 </v>
   <v>      -0.21951220       0.46341463       0.00000000 </v>
   <v>      -0.46341463       0.24390244       0.00000000 </v>
   <v>       0.26829268       0.21951220       0.00000000 </v>
   <v>      -0.21951220       0.48780488       0.00000000 </v>
   <v>      -0.48780488       0.26829268       0.00000000 </v>
   <v>       0.29268293       0.21951220       0.00000000 </v>
   <v>      -0.21951220      -0.48780488       0.00000000 </v>
   <v>       0.48780488       0.29268293       0.00000000 </v>
   <v>       0.31707317       0.21951220       0.00000000 </v>
   <v>      -0.21951220      -0.46341463       0.00000000 </v>
   <v>       0.46341463       0.31707317       0.00000000 </v>
   <v>       0.34146341       0.21951220       0.00000000 </v>
   <v>      -0.21951220      -0.43902439       0.00000000 </v>
   <v>       0.43902439       0.34146341       0.00000000 </v>
   <v>       0.36585366       0.21951220       0.00000000 </v>
   <v>      -0.21951220      -0.41463415       0.00000000 </v>
   <v>       0.41463415       0.36585366       0.00000000 </v>
   <v>       0.39024390       0.21951220       0.00000000 </v>
   <v>       0.39024390       0.39024390       0.00000000 </v>
   <v>       0.24390244       0.24390244       0.00000000 </v>
   <v>      -0.24390244       0.48780488       0.00000000 </v>
   <v>       0.26829268       0.24390244       0.00000000 </v>
   <v>      -0.24390244      -0.48780488       0.00000000 </v>
   <v>       0.48780488       0.26829268       0.00000000 </v>
   <v>       0.29268293       0.24390244       0.00000000 </v>
   <v>      -0.24390244      -0.46341463       0.00000000 </v>
   <v>       0.46341463       0.29268293       0.00000000 </v>
   <v>       0.31707317       0.24390244       0.00000000 </v>
   <v>      -0.24390244      -0.43902439       0.00000000 </v>
   <v>       0.43902439       0.31707317       0.00000000 </v>
   <v>       0.34146341       0.24390244       0.00000000 </v>
   <v>      -0.24390244      -0.41463415       0.00000000 </v>
   <v>       0.41463415       0.34146341       0.00000000 </v>
   <v>       0.36585366       0.24390244       0.00000000 </v>
   <v>      -0.24390244      -0.39024390       0.00000000 </v>
   <v>       0.39024390       0.36585366       0.00000000 </v>
   <v>       0.26829268       0.26829268       0.00000000 </v>
   <v>      -0.26829268      -0.46341463       0.00000000 </v>
   <v>       0.29268293       0.26829268       0.00000000 </v>
   <v>      -0.26829268      -0.43902439       0.00000000 </v>
   <v>       0.43902439       0.29268293       0.00000000 </v>
   <v>       0.31707317       0.26829268       0.00000000 </v>
   <v>      -0.26829268      -0.41463415       0.00000000 </v>
   <v>       0.41463415       0.31707317       0.00000000 </v>
   <v>       0.34146341       0.26829268       0.00000000 </v>
   <v>      -0.26829268      -0.39024390       0.00000000 </v>
   <v>       0.39024390       0.34146341       0.00000000 </v>
   <v>       0.36585366       0.26829268       0.00000000 </v>
   <v>       0.36585366       0.36585366       0.00000000 </v>
   <v>       0.29268293       0.29268293       0.00000000 </v>
   <v>      -0.29268293      -0.41463415       0.00000000 </v>
   <v>       0.31707317       0.29268293       0.00000000 </v>
   <v>      -0.29268293      -0.39024390       0.00000000 </v>
   <v>       0.39024390       0.31707317       0.00000000 </v>
   <v>       0.34146341       0.29268293       0.00000000 </v>
   <v>      -0.29268293      -0.36585366       0.00000000 </v>
   <v>       0.36585366       0.34146341       0.00000000 </v>
   <v>       0.31707317       0.31707317       0.00000000 </v>
   <v>      -0.31707317      -0.36585366       0.00000000 </v>
   <v>       0.34146341       0.31707317       0.00000000 </v>
   <v>       0.34146341       0.34146341       0.00000000 </v>
  </varray>
  <varray name="weights" >
   <v>       0.00059488 </v>
   <v>       0.00237954 </v>
   <v>       0.00118977 </v>
   <v>       0.00237954 </v>
   <v>       0.00118977 </v>
   <v>       0.00237954 </v>
   <v>       0.00118977 </v>
   <v>       0.00237954 </v>
   <v>       0.00118977 </v>
   <v>       0.00237954 </v>
   <v>       0.00118977 </v>
   <v>       0.00237954 </v>
   <v>       0.00118977 </v>
   <v>       0.00237954 </v>
   <v>       0.00118977 </v>
   <v>       0.00237954 </v>
   <v>       0.00118977 </v>
   <v>       0.00237954 </v>
   <v>       0.00118977 </v>
   <v>       0.00237954 </v>
   <v>       0.00118977 </v>
   <v>       0.00237954 </v>
   <v>       0.00118977 </v>
   <v>       0.00237954 </v>
   <v>       0.00118977 </v>
   <v>       0.00237954 </v>
   <v>       0.00118977 </v>
   <v>       0.00237954 </v>
   <v>       0.00118977 </v>
   <v>       0.00237954 </v>
   <v>       0.00118977 </v>
   <v>       0.00237954 </v>
   <v>       0.00118977 </v>
   <v>       0.00237954 </v>
   <v>       0.00118977 </v>
   <v>       0.00237954 </v>
   <v>       0.00118977 </v>
   <v>       0.00237954 </v>
   <v>       0.00118977 </v>
   <v>       0.00237954 </v>
   <v>       0.00118977 </v>
   <v>       0.00118977 </v>
   <v>       0.00237954 </v>
   <v>       0.00237954 </v>
   <v>       0.00237954 </v>
   <v>       0.00237954 </v>
   <v>       0.00237954 </v>
   <v>       0.00237954 </v>
   <v>       0.00237954 </v>
   <v>       0.00237954 </v>
   <v>       0.00237954 </v>
   <v>       0.00237954 </v>
   <v>       0.00237954 </v>
   <v>       0.00237954 </v>
   <v>       0.00237954 </v>
   <v>       0.00237954 </v>
   <v>       0.00237954 </v>
   <v>       0.00237954 </v>
   <v>       0.00237954 </v>
   <v>       0.00237954 </v>
   <v>       0.00237954 </v>
   <v>       0.00237954 </v>
   <v>       0.00237954 </v>
   <v>       0.00237954 </v>
   <v>       0.00237954 </v>
   <v>       0.00237954 </v>
   <v>       0.00237954 </v>
   <v>       0.00237954 </v>
   <v>       0.00237954 </v>
   <v>       0.00237954 </v>
   <v>       0.00237954 </v>
   <v>       0.00237954 </v>
   <v>       0.00237954 </v>
   <v>       0.00237954 </v>
   <v>       0.00237954 </v>
   <v>       0.00237954 </v>
   <v>       0.00237954 </v>
   <v>       0.00237954 </v>
   <v>       0.00237954 </v>
   <v>       0.00237954 </v>
   <v>       0.00237954 </v>
   <v>       0.00237954 </v>
   <v>       0.00237954 </v>
   <v>       0.00237954 </v>
   <v>       0.00237954 </v>
   <v>       0.00237954 </v>
   <v>       0.00237954 </v>
   <v>       0.00237954 </v>
   <v>       0.00237954 </v>
   <v>       0.00237954 </v>
   <v>       0.00237954 </v>
   <v>       0.00237954 </v>
   <v>       0.00237954 </v>
   <v>       0.00237954 </v>
   <v>       0.00237954 </v>
   <v>       0.00237954 </v>
   <v>       0.00237954 </v>
   <v>       0.00237954 </v>
   <v>       0.00118977 </v>
   <v>       0.00118977 </v>
   <v>       0.00237954 </v>
   <v>       0.00237954 </v>
   <v>       0.00237954 </v>
   <v>       0.00237954 </v>
   <v>       0.00237954 </v>
   <v>       0.00237954 </v>
   <v>       0.00237954 </v>
   <v>       0.00237954 </v>
   <v>       0.00237954 </v>
   <v>       0.00237954 </v>
   <v>       0.00237954 </v>
   <v>       0.00237954 </v>
   <v>       0.00237954 </v>
   <v>       0.00237954 </v>
   <v>       0.00237954 </v>
   <v>       0.00237954 </v>
   <v>       0.00237954 </v>
   <v>       0.00237954 </v>
   <v>       0.00237954 </v>
   <v>       0.00237954 </v>
   <v>       0.00237954 </v>
   <v>       0.00237954 </v>
   <v>       0.00237954 </v>
   <v>       0.00237954 </v>
   <v>       0.00237954 </v>
   <v>       0.00237954 </v>
   <v>       0.00237954 </v>
   <v>       0.00237954 </v>
   <v>       0.00237954 </v>
   <v>       0.00237954 </v>
   <v>       0.00237954 </v>
   <v>       0.00237954 </v>
   <v>       0.00237954 </v>
   <v>       0.00237954 </v>
   <v>       0.00237954 </v>
   <v>       0.00237954 </v>
   <v>       0.00237954 </v>
   <v>       0.00237954 </v>
   <v>       0.00237954 </v>
   <v>       0.00237954 </v>
   <v>       0.00237954 </v>
   <v>       0.00237954 </v>
   <v>       0.00237954 </v>
   <v>       0.00237954 </v>
   <v>       0.00237954 </v>
   <v>       0.00237954 </v>
   <v>       0.00237954 </v>
   <v>       0.00237954 </v>
   <v>       0.00237954 </v>
   <v>       0.00237954 </v>
   <v>       0.00237954 </v>
   <v>       0.00237954 </v>
   <v>       0.00118977 </v>
   <v>       0.00237954 </v>
   <v>       0.00237954 </v>
   <v>       0.00237954 </v>
   <v>       0.00237954 </v>
   <v>       0.00237954 </v>
   <v>       0.00237954 </v>
   <v>       0.00237954 </v>
   <v>       0.00237954 </v>
   <v>       0.00237954 </v>
   <v>       0.00237954 </v>
   <v>       0.00237954 </v>
   <v>       0.00237954 </v>
   <v>       0.00237954 </v>
   <v>       0.00237954 </v>
   <v>       0.00237954 </v>
   <v>       0.00237954 </v>
   <v>       0.00237954 </v>
   <v>       0.00237954 </v>
   <v>       0.00237954 </v>
   <v>       0.00237954 </v>
   <v>       0.00237954 </v>
   <v>       0.00237954 </v>
   <v>       0.00237954 </v>
   <v>       0.00237954 </v>
   <v>       0.00237954 </v>
   <v>       0.00237954 </v>
   <v>       0.00237954 </v>
   <v>       0.00237954 </v>
   <v>       0.00237954 </v>
   <v>       0.00237954 </v>
   <v>       0.00237954 </v>
   <v>       0.00237954 </v>
   <v>       0.00237954 </v>
   <v>       0.00237954 </v>
   <v>       0.00237954 </v>
   <v>       0.00237954 </v>
   <v>       0.00237954 </v>
   <v>       0.00237954 </v>
   <v>       0.00237954 </v>
   <v>       0.00237954 </v>
   <v>       0.00237954 </v>
   <v>       0.00237954 </v>
   <v>       0.00237954 </v>
   <v>       0.00237954 </v>
   <v>       0.00237954 </v>
   <v>       0.00237954 </v>
   <v>       0.00237954 </v>
   <v>       0.00118977 </v>
   <v>       0.00118977 </v>
   <v>       0.00237954 </v>
   <v>       0.00237954 </v>
   <v>       0.00237954 </v>
   <v>       0.00237954 </v>
   <v>       0.00237954 </v>
   <v>       0.00237954 </v>
   <v>       0.00237954 </v>
   <v>       0.00237954 </v>
   <v>       0.00237954 </v>
   <v>       0.00237954 </v>
   <v>       0.00237954 </v>
   <v>       0.00237954 </v>
   <v>       0.00237954 </v>
   <v>       0.00237954 </v>
   <v>       0.00237954 </v>
   <v>       0.00237954 </v>
   <v>       0.00237954 </v>
   <v>       0.00237954 </v>
   <v>       0.00237954 </v>
   <v>       0.00237954 </v>
   <v>       0.00237954 </v>
   <v>       0.00237954 </v>
   <v>       0.00237954 </v>
   <v>       0.00237954 </v>
   <v>       0.00237954 </v>
   <v>       0.00237954 </v>
   <v>       0.00237954 </v>
   <v>       0.00237954 </v>
   <v>       0.00237954 </v>
   <v>       0.00237954 </v>
   <v>       0.00237954 </v>
   <v>       0.00237954 </v>
   <v>       0.00237954 </v>
   <v>       0.00237954 </v>
   <v>       0.00237954 </v>
   <v>       0.00237954 </v>
   <v>       0.00237954 </v>
   <v>       0.00237954 </v>
   <v>       0.00237954 </v>
   <v>       0.00237954 </v>
   <v>       0.00237954 </v>
   <v>       0.00237954 </v>
   <v>       0.00237954 </v>
   <v>       0.00118977 </v>
   <v>       0.00237954 </v>
   <v>       0.00237954 </v>
   <v>       0.00237954 </v>
   <v>       0.00237954 </v>
   <v>       0.00237954 </v>
   <v>       0.00237954 </v>
   <v>       0.00237954 </v>
   <v>       0.00237954 </v>
   <v>       0.00237954 </v>
   <v>       0.00237954 </v>
   <v>       0.00237954 </v>
   <v>       0.00237954 </v>
   <v>       0.00237954 </v>
   <v>       0.00237954 </v>
   <v>       0.00237954 </v>
   <v>       0.00237954 </v>
   <v>       0.00237954 </v>
   <v>       0.00237954 </v>
   <v>       0.00237954 </v>
   <v>       0.00237954 </v>
   <v>       0.00237954 </v>
   <v>       0.00237954 </v>
   <v>       0.00237954 </v>
   <v>       0.00237954 </v>
   <v>       0.00237954 </v>
   <v>       0.00237954 </v>
   <v>       0.00237954 </v>
   <v>       0.00237954 </v>
   <v>       0.00237954 </v>
   <v>       0.00237954 </v>
   <v>       0.00237954 </v>
   <v>       0.00237954 </v>
   <v>       0.00237954 </v>
   <v>       0.00237954 </v>
   <v>       0.00237954 </v>
   <v>       0.00237954 </v>
   <v>       0.00237954 </v>
   <v>       0.00237954 </v>
   <v>       0.00118977 </v>
   <v>       0.00118977 </v>
   <v>       0.00237954 </v>
   <v>       0.00237954 </v>
   <v>       0.00237954 </v>
   <v>       0.00237954 </v>
   <v>       0.00237954 </v>
   <v>       0.00237954 </v>
   <v>       0.00237954 </v>
   <v>       0.00237954 </v>
   <v>       0.00237954 </v>
   <v>       0.00237954 </v>
   <v>       0.00237954 </v>
   <v>       0.00237954 </v>
   <v>       0.00237954 </v>
   <v>       0.00237954 </v>
   <v>       0.00237954 </v>
   <v>       0.00237954 </v>
   <v>       0.00237954 </v>
   <v>       0.00237954 </v>
   <v>       0.00237954 </v>
   <v>       0.00237954 </v>
   <v>       0.00237954 </v>
   <v>       0.00237954 </v>
   <v>       0.00237954 </v>
   <v>       0.00237954 </v>
   <v>       0.00237954 </v>
   <v>       0.00237954 </v>
   <v>       0.00237954 </v>
   <v>       0.00237954 </v>
   <v>       0.00237954 </v>
   <v>       0.00237954 </v>
   <v>       0.00237954 </v>
   <v>       0.00237954 </v>
   <v>       0.00237954 </v>
   <v>       0.00237954 </v>
   <v>       0.00118977 </v>
   <v>       0.00237954 </v>
   <v>       0.00237954 </v>
   <v>       0.00237954 </v>
   <v>       0.00237954 </v>
   <v>       0.00237954 </v>
   <v>       0.00237954 </v>
   <v>       0.00237954 </v>
   <v>       0.00237954 </v>
   <v>       0.00237954 </v>
   <v>       0.00237954 </v>
   <v>       0.00237954 </v>
   <v>       0.00237954 </v>
   <v>       0.00237954 </v>
   <v>       0.00237954 </v>
   <v>       0.00237954 </v>
   <v>       0.00237954 </v>
   <v>       0.00237954 </v>
   <v>       0.00237954 </v>
   <v>       0.00237954 </v>
   <v>       0.00237954 </v>
   <v>       0.00237954 </v>
   <v>       0.00237954 </v>
   <v>       0.00237954 </v>
   <v>       0.00237954 </v>
   <v>       0.00237954 </v>
   <v>       0.00237954 </v>
   <v>       0.00237954 </v>
   <v>       0.00237954 </v>
   <v>       0.00237954 </v>
   <v>       0.00118977 </v>
   <v>       0.00118977 </v>
   <v>       0.00237954 </v>
   <v>       0.00237954 </v>
   <v>       0.00237954 </v>
   <v>       0.00237954 </v>
   <v>       0.00237954 </v>
   <v>       0.00237954 </v>
   <v>       0.00237954 </v>
   <v>       0.00237954 </v>
   <v>       0.00237954 </v>
   <v>       0.00237954 </v>
   <v>       0.00237954 </v>
   <v>       0.00237954 </v>
   <v>       0.00237954 </v>
   <v>       0.00237954 </v>
   <v>       0.00237954 </v>
   <v>       0.00237954 </v>
   <v>       0.00237954 </v>
   <v>       0.00237954 </v>
   <v>       0.00237954 </v>
   <v>       0.00237954 </v>
   <v>       0.00237954 </v>
   <v>       0.00237954 </v>
   <v>       0.00237954 </v>
   <v>       0.00237954 </v>
   <v>       0.00237954 </v>
   <v>       0.00118977 </v>
   <v>       0.00237954 </v>
   <v>       0.00237954 </v>
   <v>       0.00237954 </v>
   <v>       0.00237954 </v>
   <v>       0.00237954 </v>
   <v>       0.00237954 </v>
   <v>       0.00237954 </v>
   <v>       0.00237954 </v>
   <v>       0.00237954 </v>
   <v>       0.00237954 </v>
   <v>       0.00237954 </v>
   <v>       0.00237954 </v>
   <v>       0.00237954 </v>
   <v>       0.00237954 </v>
   <v>       0.00237954 </v>
   <v>       0.00237954 </v>
   <v>       0.00237954 </v>
   <v>       0.00237954 </v>
   <v>       0.00237954 </v>
   <v>       0.00237954 </v>
   <v>       0.00118977 </v>
   <v>       0.00118977 </v>
   <v>       0.00237954 </v>
   <v>       0.00237954 </v>
   <v>       0.00237954 </v>
   <v>       0.00237954 </v>
   <v>       0.00237954 </v>
   <v>       0.00237954 </v>
   <v>       0.00237954 </v>
   <v>       0.00237954 </v>
   <v>       0.00237954 </v>
   <v>       0.00237954 </v>
   <v>       0.00237954 </v>
   <v>       0.00237954 </v>
   <v>       0.00237954 </v>
   <v>       0.00237954 </v>
   <v>       0.00237954 </v>
   <v>       0.00237954 </v>
   <v>       0.00118977 </v>
   <v>       0.00237954 </v>
   <v>       0.00237954 </v>
   <v>       0.00237954 </v>
   <v>       0.00237954 </v>
   <v>       0.00237954 </v>
   <v>       0.00237954 </v>
   <v>       0.00237954 </v>
   <v>       0.00237954 </v>
   <v>       0.00237954 </v>
   <v>       0.00237954 </v>
   <v>       0.00237954 </v>
   <v>       0.00118977 </v>
   <v>       0.00118977 </v>
   <v>       0.00237954 </v>
   <v>       0.00237954 </v>
   <v>       0.00237954 </v>
   <v>       0.00237954 </v>
   <v>       0.00237954 </v>
   <v>       0.00237954 </v>
   <v>       0.00237954 </v>
   <v>       0.00118977 </v>
   <v>       0.00237954 </v>
   <v>       0.00237954 </v>
   <v>       0.00118977 </v>
  </varray>
 </kpoints>
 <parameters>
  <separator name="general" >
   <i type="string" name="SYSTEM">SC</i>
   <i type="logical" name="LCOMPAT"> F  </i>
  </separator>
  <separator name="electronic" >
   <i type="string" name="PREC">accura</i>
   <i name="ENMAX">    450.00000000</i>
   <i name="ENAUG">    535.51400000</i>
   <i name="EDIFF">      0.00000100</i>
   <i type="int" name="IALGO">    38</i>
   <i type="int" name="IWAVPR">    10</i>
   <i type="int" name="NBANDS">    48</i>
   <i type="int" name="NBANDSLOW">    -1</i>
   <i type="int" name="NBANDSHIGH">    -1</i>
   <i name="NELECT">     24.00000000</i>
   <i type="int" name="TURBO">     0</i>
   <i type="int" name="IRESTART">     0</i>
   <i type="int" name="NREBOOT">     0</i>
   <i type="int" name="NMIN">     0</i>
   <i name="EREF">      0.00000000</i>
   <separator name="electronic smearing" >
    <i type="int" name="ISMEAR">     0</i>
    <i name="SIGMA">      0.10000000</i>
    <i name="KSPACING">      0.50000000</i>
    <i type="logical" name="KGAMMA"> T  </i>
    <i type="logical" name="KBLOWUP"> T  </i>
   </separator>
   <separator name="electronic projectors" >
    <i type="logical" name="LREAL"> F  </i>
    <v name="ROPT">      0.00000000</v>
    <i type="int" name="LMAXPAW">  -100</i>
    <i type="int" name="LMAXMIX">     2</i>
    <i type="logical" name="NLSPLINE"> F  </i>
   </separator>
   <separator name="electronic startup" >
    <i type="int" name="ISTART">     0</i>
    <i type="int" name="ICHARG">     2</i>
    <i type="int" name="INIWAV">     1</i>
   </separator>
   <separator name="electronic spin" >
    <i type="int" name="ISPIN">     1</i>
    <i type="logical" name="LNONCOLLINEAR"> F  </i>
    <v name="MAGMOM">      1.00000000      1.00000000      1.00000000      1.00000000      1.00000000      1.00000000      1.00000000      1.00000000</v>
    <i name="NUPDOWN">     -1.00000000</i>
    <i type="logical" name="LSORBIT"> F  </i>
    <v name="SAXIS">      0.00000000      0.00000000      1.00000000</v>
    <i type="logical" name="LSPIRAL"> F  </i>
    <v name="QSPIRAL">      0.00000000      0.00000000      0.00000000</v>
    <i type="logical" name="LZEROZ"> F  </i>
   </separator>
   <separator name="electronic exchange-correlation" >
    <i type="logical" name="LASPH"> F  </i>
    <i type="logical" name="LMETAGGA"> F  </i>
   </separator>
   <separator name="electronic convergence" >
    <i type="int" name="NELM">    64</i>
    <i type="int" name="NELMDL">    -5</i>
    <i type="int" name="NELMIN">     2</i>
    <i name="ENINI">    450.00000000</i>
    <separator name="electronic convergence detail" >
     <i type="logical" name="LDIAG"> T  </i>
     <i type="logical" name="LSUBROT"> F  </i>
     <i name="WEIMIN">      0.00000000</i>
     <i name="EBREAK">      0.00000001</i>
     <i name="DEPER">      0.30000000</i>
     <i type="int" name="NRMM">     4</i>
     <i name="TIME">      0.40000000</i>
    </separator>
   </separator>
   <separator name="electronic mixer" >
    <i name="AMIX">      0.40000000</i>
    <i name="BMIX">      1.00000000</i>
    <i name="AMIN">      0.10000000</i>
    <i name="AMIX_MAG">      1.60000000</i>
    <i name="BMIX_MAG">      1.00000000</i>
    <separator name="electronic mixer details" >
     <i type="int" name="IMIX">     4</i>
     <i type="logical" name="MIXFIRST"> F  </i>
     <i type="int" name="MAXMIX">   -45</i>
     <i name="WC">    100.00000000</i>
     <i type="int" name="INIMIX">     1</i>
     <i type="int" name="MIXPRE">     1</i>
     <i type="int" name="MREMOVE">     5</i>
    </separator>
   </separator>
   <separator name="electronic dipolcorrection" >
    <i type="logical" name="LDIPOL"> F  </i>
    <i type="logical" name="LMONO"> F  </i>
    <i type="int" name="IDIPOL">     0</i>
    <i name="EPSILON">      1.00000000</i>
    <v name="DIPOL">   -100.00000000   -100.00000000   -100.00000000</v>
    <i name="EFIELD">      0.00000000</i>
   </separator>
  </separator>
  <separator name="grids" >
   <i type="int" name="NGX">    36</i>
   <i type="int" name="NGY">    36</i>
   <i type="int" name="NGZ">   108</i>
   <i type="int" name="NGXF">    72</i>
   <i type="int" name="NGYF">    72</i>
   <i type="int" name="NGZF">   216</i>
   <i type="logical" name="ADDGRID"> F  </i>
  </separator>
  <separator name="ionic" >
   <i type="int" name="NSW">     0</i>
   <i type="int" name="IBRION">    -1</i>
   <i type="int" name="MDALGO">     0</i>
   <i type="int" name="ISIF">     2</i>
   <i name="PSTRESS">      0.00000000</i>
   <i name="EDIFFG">     -0.00100000</i>
   <i type="int" name="NFREE">     0</i>
   <i name="POTIM">      0.50000000</i>
   <i name="SMASS">     -3.00000000</i>
   <i name="SCALEE">      1.00000000</i>
  </separator>
  <separator name="ionic md" >
   <i name="TEBEG">      0.00010000</i>
   <i name="TEEND">      0.00010000</i>
   <i type="int" name="NBLOCK">     1</i>
   <i type="int" name="KBLOCK">     1</i>
   <i type="int" name="NPACO">   256</i>
   <i name="APACO">     10.00000000</i>
  </separator>
  <separator name="symmetry" >
   <i type="int" name="ISYM">     2</i>
   <i name="SYMPREC">      0.00000100</i>
  </separator>
  <separator name="dos" >
   <i type="int" name="LORBIT">     0</i>
   <v name="RWIGS">     -1.00000000</v>
   <i type="int" name="NEDOS">   301</i>
   <i name="EMIN">     10.00000000</i>
   <i name="EMAX">    -10.00000000</i>
   <i name="EFERMI">      0.00000000</i>
  </separator>
  <separator name="writing" >
   <i type="int" name="NWRITE">     2</i>
   <i type="logical" name="LWAVE"> T  </i>
   <i type="logical" name="LDOWNSAMPLE"> F  </i>
   <i type="logical" name="LCHARG"> T  </i>
   <i type="logical" name="LPARD"> F  </i>
   <i type="logical" name="LVTOT"> F  </i>
   <i type="logical" name="LVHAR"> F  </i>
   <i type="logical" name="LELF"> F  </i>
   <i type="logical" name="LOPTICS"> F  </i>
   <v name="STM">      0.00000000      0.00000000      0.00000000      0.00000000      0.00000000      0.00000000      0.00000000</v>
  </separator>
  <separator name="performance" >
   <i type="int" name="NPAR">    48</i>
   <i type="int" name="NSIM">     4</i>
   <i type="int" name="NBLK">    -1</i>
   <i type="logical" name="LPLANE"> T  </i>
   <i type="logical" name="LSCALAPACK"> T  </i>
   <i type="logical" name="LSCAAWARE"> F  </i>
   <i type="logical" name="LSCALU"> F  </i>
   <i type="logical" name="LASYNC"> F  </i>
   <i type="logical" name="LORBITALREAL"> F  </i>
  </separator>
  <separator name="miscellaneous" >
   <i type="int" name="IDIOT">     3</i>
   <i type="int" name="PHON_NSTRUCT">    -1</i>
   <i type="logical" name="LMUSIC"> F  </i>
   <v name="POMASS">     10.81100000</v>
   <v name="DARWINR">      0.00000000</v>
   <v name="DARWINV">      1.00000000</v>
   <i type="logical" name="LCORR"> T  </i>
  </separator>
  <i type="logical" name="GGA_COMPAT"> T  </i>
  <i type="logical" name="LBERRY"> F  </i>
  <i type="int" name="ICORELEVEL">     0</i>
  <i type="logical" name="LDAU"> F  </i>
  <i type="int" name="I_CONSTRAINED_M">     0</i>
  <separator name="electronic exchange-correlation" >
   <i type="string" name="GGA">PE</i>
   <i type="int" name="VOSKOWN">     0</i>
   <i type="logical" name="LHFCALC"> F  </i>
   <i type="string" name="PRECFOCK"></i>
   <i type="logical" name="LSYMGRAD"> F  </i>
   <i type="logical" name="LHFONE"> F  </i>
   <i type="logical" name="LRHFCALC"> F  </i>
   <i type="logical" name="LTHOMAS"> F  </i>
   <i type="logical" name="LMODELHF"> F  </i>
   <i type="logical" name="LFOCKACE"> F  </i>
   <i name="ENCUT4O">     -1.00000000</i>
   <i type="int" name="EXXOEP">     0</i>
   <i type="int" name="FOURORBIT">     0</i>
   <i name="AEXX">      0.00000000</i>
   <i name="HFALPHA">      0.00000000</i>
   <i name="MCALPHA">      0.00000000</i>
   <i name="ALDAX">      1.00000000</i>
   <i name="AGGAX">      1.00000000</i>
   <i name="ALDAC">      1.00000000</i>
   <i name="AGGAC">      1.00000000</i>
   <i type="int" name="NKREDX">     1</i>
   <i type="int" name="NKREDY">     1</i>
   <i type="int" name="NKREDZ">     1</i>
   <i type="logical" name="SHIFTRED"> F  </i>
   <i type="logical" name="ODDONLY"> F  </i>
   <i type="logical" name="EVENONLY"> F  </i>
   <i type="int" name="LMAXFOCK">     0</i>
   <i type="int" name="NMAXFOCKAE">     0</i>
   <i type="logical" name="LFOCKAEDFT"> F  </i>
   <i name="HFSCREEN">      0.00000000</i>
   <i name="HFSCREENC">      0.00000000</i>
   <i type="int" name="NBANDSGWLOW">     0</i>
  </separator>
  <separator name="vdW DFT" >
   <i type="logical" name="LUSE_VDW"> F  </i>
   <i name="Zab_VDW">     -0.84910000</i>
   <i name="PARAM1">      0.12340000</i>
   <i name="PARAM2">      1.00000000</i>
   <i name="PARAM3">      0.00000000</i>
  </separator>
  <separator name="model GW" >
   <i type="int" name="MODEL_GW">     0</i>
   <i name="MODEL_EPS0">     24.85637887</i>
   <i name="MODEL_ALPHA">      1.00000000</i>
  </separator>
  <separator name="linear response parameters" >
   <i type="logical" name="LEPSILON"> F  </i>
   <i type="logical" name="LRPA"> F  </i>
   <i type="logical" name="LNABLA"> F  </i>
   <i type="logical" name="LVEL"> F  </i>
   <i name="CSHIFT">      0.10000000</i>
   <i name="OMEGAMAX">     -1.00000000</i>
   <i name="DEG_THRESHOLD">      0.00200000</i>
   <i name="RTIME">     -0.10000000</i>
   <i name="WPLASMAI">      0.00000000</i>
   <v name="DFIELD">      0.00000000      0.00000000      0.00000000</v>
   <v name="WPLASMA">      0.00000000      0.00000000      0.00000000      0.00000000      0.00000000      0.00000000      0.00000000      0.00000000      0.00000000</v>
  </separator>
  <separator name="orbital magnetization" >
   <i type="logical" name="NUCIND"> F  </i>
   <v name="MAGPOS">      0.00000000      0.00000000      0.00000000</v>
   <i type="logical" name="LNICSALL"> T  </i>
   <i type="logical" name="ORBITALMAG"> F  </i>
   <i type="logical" name="LMAGBLOCH"> F  </i>
   <i type="logical" name="LCHIMAG"> F  </i>
   <i type="logical" name="LGAUGE"> T  </i>
   <i type="int" name="MAGATOM">     0</i>
   <v name="MAGDIPOL">      0.00000000      0.00000000      0.00000000</v>
   <v name="AVECCONST">      0.00000000      0.00000000      0.00000000</v>
  </separator>
  <separator name="response functions" >
   <i type="logical" name="LFINITE_TEMPERATURE"> F  </i>
   <i type="logical" name="LADDER"> F  </i>
   <i type="logical" name="LRPAFORCE"> F  </i>
   <i type="logical" name="LFXC"> F  </i>
   <i type="logical" name="LHARTREE"> T  </i>
   <i type="int" name="IBSE">     0</i>
   <v type="int" name="KPOINT">    -1     0     0     0</v>
   <i type="logical" name="LTCTC"> F  </i>
   <i type="logical" name="LTCTE"> F  </i>
   <i type="logical" name="LTETE"> F  </i>
   <i type="logical" name="LTRIPLET"> F  </i>
   <i type="logical" name="LFXCEPS"> F  </i>
   <i type="logical" name="LFXHEG"> F  </i>
   <i type="int" name="NATURALO">     2</i>
   <i type="logical" name="LHOLEGF"> F  </i>
   <i type="logical" name="L2ORDER"> F  </i>
   <i type="logical" name="LDMP1"> F  </i>
   <i type="logical" name="LMP2LT"> F  </i>
   <i type="logical" name="LSMP2LT"> F  </i>
   <i type="logical" name="LGWLF"> F  </i>
   <i name="ENCUTGW">     -2.00000000</i>
   <i name="ENCUTGWSOFT">     -2.00000000</i>
   <i name="ENCUTLF">     -1.00000000</i>
   <i type="logical" name="LESF_SPLINES"> F  </i>
   <i type="int" name="LMAXMP2">    -1</i>
   <i name="SCISSOR">      0.00000000</i>
   <i type="int" name="NOMEGA">     0</i>
   <i type="int" name="NOMEGAR">     0</i>
   <i type="int" name="NBANDSGW">    -1</i>
   <i type="int" name="NBANDSO">    -1</i>
   <i type="int" name="NBANDSV">    -1</i>
   <i type="int" name="NELMGW">     1</i>
   <i type="int" name="NELMHF">     1</i>
   <i type="int" name="DIM">     3</i>
   <i type="int" name="IESPILON">     4</i>
   <i type="int" name="ANTIRES">     0</i>
   <i name="OMEGAMAX">    -30.00000000</i>
   <i name="OMEGAMIN">    -30.00000000</i>
   <i name="OMEGATL">   -200.00000000</i>
   <i type="int" name="OMEGAGRID">     0</i>
   <i name="CSHIFT">     -0.10000000</i>
   <i type="logical" name="LSELFENERGY"> F  </i>
   <i type="logical" name="LSPECTRAL"> F  </i>
   <i type="logical" name="LSPECTRALGW"> F  </i>
   <i type="logical" name="LSINGLES"> F  </i>
   <i type="logical" name="LFERMIGW"> F  </i>
   <i type="logical" name="ODDONLYGW"> F  </i>
   <i type="logical" name="EVENONLYGW"> F  </i>
   <i type="int" name="NKREDLFX">     1</i>
   <i type="int" name="NKREDLFY">     1</i>
   <i type="int" name="NKREDLFZ">     1</i>
   <i type="int" name="MAXMEM">  2800</i>
   <i type="int" name="TELESCOPE">     0</i>
   <i type="int" name="NTAUPAR">    -1</i>
   <i type="int" name="NOMEGAPAR">    -1</i>
   <i name="DAMP_NEWTON">      0.80000001</i>
   <i name="LAMBDA">      1.00000000</i>
  </separator>
  <separator name="External order field" >
   <i name="OFIELD_KAPPA">      0.00000000</i>
   <v name="OFIELD_K">      0.00000000      0.00000000      0.00000000</v>
   <i name="OFIELD_Q6_NEAR">      0.00000000</i>
   <i name="OFIELD_Q6_FAR">      0.00000000</i>
   <i name="OFIELD_A">      0.00000000</i>
  </separator>
  <separator name="optional k-points parameters" >
   <i type="int" name="KPOINTS_OPT_MODE">     1</i>
   <i type="logical" name="LKPOINTS_OPT"> F  </i>
  </separator>
  <separator name="solvation model" >
   <i type="logical" name="LSOL"> F  </i>
  </separator>
 </parameters>
 <atominfo>
  <atoms>       8 </atoms>
  <types>       1 </types>
  <array name="atoms" >
   <dimension dim="1">ion</dimension>
   <field type="string">element</field>
   <field type="int">atomtype</field>
   <set>
    <rc><c>B </c><c>   1</c></rc>
    <rc><c>B </c><c>   1</c></rc>
    <rc><c>B </c><c>   1</c></rc>
    <rc><c>B </c><c>   1</c></rc>
    <rc><c>B </c><c>   1</c></rc>
    <rc><c>B </c><c>   1</c></rc>
    <rc><c>B </c><c>   1</c></rc>
    <rc><c>B </c><c>   1</c></rc>
   </set>
  </array>
  <array name="atomtypes" >
   <dimension dim="1">type</dimension>
   <field type="int">atomspertype</field>
   <field type="string">element</field>
   <field>mass</field>
   <field>valence</field>
   <field type="string">pseudopotential</field>
   <set>
    <rc><c>   8</c><c>B </c><c>     10.81100000</c><c>      3.00000000</c><c>  PAW_PBE B 06Sep2000                   </c></rc>
   </set>
  </array>
 </atominfo>
 <structure name="initialpos" >
  <crystal>
   <varray name="basis" >
    <v>       4.37429400       2.52550000       0.00000000 </v>
    <v>      -4.37429400       2.52550000       0.00000000 </v>
    <v>       0.00000000       0.00000000      15.00000000 </v>
   </varray>
   <i name="volume">    331.41838491 </i>
   <varray name="rec_basis" >
    <v>       0.11430416       0.19798060       0.00000000 </v>
    <v>      -0.11430416       0.19798060       0.00000000 </v>
    <v>       0.00000000       0.00000000       0.06666667 </v>
   </varray>
  </crystal>
  <varray name="positions" >
   <v>       0.66893173       0.00000000       0.10000000 </v>
   <v>       0.33106727       0.00000000       0.10000000 </v>
   <v>       0.00000000       0.33106727       0.10000000 </v>
   <v>       0.00000000       0.66893173       0.10000000 </v>
   <v>       0.33106727       0.33106727       0.10000000 </v>
   <v>       0.66893173       0.66893173       0.10000000 </v>
   <v>       0.66666600       0.33333300       0.09995611 </v>
   <v>       0.33333300       0.66666600       0.10004389 </v>
  </varray>
 </structure>
 <calculation>
  <scstep>
   <time name="dav">   15.38   15.51</time>
   <time name="total">   15.41   15.54</time>
   <energy>
    <i name="alphaZ">     13.28497877 </i>
    <i name="ewald">   1756.86243280 </i>
    <i name="hartreedc">  -2116.54577085 </i>
    <i name="XCdc">     55.32216351 </i>
    <i name="pawpsdc">    347.99892404 </i>
    <i name="pawaedc">   -341.15636447 </i>
    <i name="eentropy">     -0.00490554 </i>
    <i name="bandstr">   -249.92899419 </i>
    <i name="atom">    569.35051449 </i>
    <i name="e_fr_energy">     35.18297857 </i>
    <i name="e_wo_entrp">     35.18788410 </i>
    <i name="e_0_energy">     35.18543133 </i>
   </energy>
  </scstep>
  <scstep>
   <time name="dav">   24.56   24.76</time>
   <time name="total">   24.56   24.76</time>
   <energy>
    <i name="e_fr_energy">    -54.44785829 </i>
    <i name="e_wo_entrp">    -54.44461486 </i>
    <i name="e_0_energy">    -54.44623658 </i>
   </energy>
  </scstep>
  <scstep>
   <time name="dav">   24.16   24.33</time>
   <time name="total">   24.17   24.33</time>
   <energy>
    <i name="e_fr_energy">    -55.26111689 </i>
    <i name="e_wo_entrp">    -55.25750285 </i>
    <i name="e_0_energy">    -55.25930987 </i>
   </energy>
  </scstep>
  <scstep>
   <time name="dav">   26.55   26.73</time>
   <time name="total">   26.55   26.73</time>
   <energy>
    <i name="e_fr_energy">    -55.26315105 </i>
    <i name="e_wo_entrp">    -55.25953839 </i>
    <i name="e_0_energy">    -55.26134472 </i>
   </energy>
  </scstep>
  <scstep>
   <time name="dav">   23.78   23.93</time>
   <time name="total">   24.52   24.70</time>
   <energy>
    <i name="e_fr_energy">    -55.26315171 </i>
    <i name="e_wo_entrp">    -55.25953906 </i>
    <i name="e_0_energy">    -55.26134539 </i>
   </energy>
  </scstep>
  <scstep>
   <time name="dav">   25.24   25.39</time>
   <time name="total">   26.02   26.25</time>
   <energy>
    <i name="e_fr_energy">    -52.06592314 </i>
    <i name="e_wo_entrp">    -52.06048095 </i>
    <i name="e_0_energy">    -52.06320204 </i>
   </energy>
  </scstep>
  <scstep>
   <time name="dav">   30.71   30.89</time>
   <time name="total">   31.43   31.63</time>
   <energy>
    <i name="e_fr_energy">    -50.54727853 </i>
    <i name="e_wo_entrp">    -50.54223006 </i>
    <i name="e_0_energy">    -50.54475430 </i>
   </energy>
  </scstep>
  <scstep>
   <time name="dav">   26.21   26.38</time>
   <time name="total">   26.96   27.15</time>
   <energy>
    <i name="e_fr_energy">    -50.48978702 </i>
    <i name="e_wo_entrp">    -50.48480810 </i>
    <i name="e_0_energy">    -50.48729756 </i>
   </energy>
  </scstep>
  <scstep>
   <time name="dav">   28.51   28.68</time>
   <time name="total">   29.23   29.41</time>
   <energy>
    <i name="e_fr_energy">    -50.47380077 </i>
    <i name="e_wo_entrp">    -50.46882951 </i>
    <i name="e_0_energy">    -50.47131514 </i>
   </energy>
  </scstep>
  <scstep>
   <time name="dav">   26.72   26.89</time>
   <time name="total">   27.45   27.63</time>
   <energy>
    <i name="e_fr_energy">    -50.46387670 </i>
    <i name="e_wo_entrp">    -50.45888215 </i>
    <i name="e_0_energy">    -50.46137942 </i>
   </energy>
  </scstep>
  <scstep>
   <time name="dav">   23.45   23.60</time>
   <time name="total">   24.17   24.32</time>
   <energy>
    <i name="e_fr_energy">    -50.46204980 </i>
    <i name="e_wo_entrp">    -50.45705383 </i>
    <i name="e_0_energy">    -50.45955181 </i>
   </energy>
  </scstep>
  <scstep>
   <time name="dav">   23.50   23.64</time>
   <time name="total">   24.23   24.38</time>
   <energy>
    <i name="e_fr_energy">    -50.46231381 </i>
    <i name="e_wo_entrp">    -50.45732211 </i>
    <i name="e_0_energy">    -50.45981796 </i>
   </energy>
  </scstep>
  <scstep>
   <time name="dav">   24.41   24.56</time>
   <time name="total">   25.12   25.28</time>
   <energy>
    <i name="e_fr_energy">    -50.46616690 </i>
    <i name="e_wo_entrp">    -50.46117380 </i>
    <i name="e_0_energy">    -50.46367035 </i>
   </energy>
  </scstep>
  <scstep>
   <time name="dav">   27.45   27.61</time>
   <time name="total">   28.17   28.34</time>
   <energy>
    <i name="e_fr_energy">    -50.46711313 </i>
    <i name="e_wo_entrp">    -50.46211811 </i>
    <i name="e_0_energy">    -50.46461562 </i>
   </energy>
  </scstep>
  <scstep>
   <time name="dav">   24.14   24.28</time>
   <time name="total">   24.86   25.00</time>
   <energy>
    <i name="e_fr_energy">    -50.46821532 </i>
    <i name="e_wo_entrp">    -50.46322046 </i>
    <i name="e_0_energy">    -50.46571789 </i>
   </energy>
  </scstep>
  <scstep>
   <time name="dav">   25.22   25.37</time>
   <time name="total">   25.95   26.11</time>
   <energy>
    <i name="e_fr_energy">    -50.46831872 </i>
    <i name="e_wo_entrp">    -50.46332406 </i>
    <i name="e_0_energy">    -50.46582139 </i>
   </energy>
  </scstep>
  <scstep>
   <time name="dav">   19.78   19.91</time>
   <time name="total">   20.50   20.63</time>
   <energy>
    <i name="e_fr_energy">    -50.46836580 </i>
    <i name="e_wo_entrp">    -50.46337099 </i>
    <i name="e_0_energy">    -50.46586839 </i>
   </energy>
  </scstep>
  <scstep>
   <time name="dav">   21.35   21.48</time>
   <time name="total">   22.08   22.21</time>
   <energy>
    <i name="e_fr_energy">    -50.46837068 </i>
    <i name="e_wo_entrp">    -50.46337587 </i>
    <i name="e_0_energy">    -50.46587327 </i>
   </energy>
  </scstep>
  <scstep>
   <time name="dav">   20.16   20.29</time>
   <time name="total">   20.88   21.02</time>
   <energy>
    <i name="e_fr_energy">    -50.46837173 </i>
    <i name="e_wo_entrp">    -50.46337691 </i>
    <i name="e_0_energy">    -50.46587432 </i>
   </energy>
  </scstep>
  <scstep>
   <time name="dav">   18.19   18.31</time>
   <time name="total">   18.21   18.33</time>
   <energy>
    <i name="alphaZ">     13.28497877 </i>
    <i name="ewald">   1756.86243280 </i>
    <i name="hartreedc">  -2217.79801649 </i>
    <i name="XCdc">     58.09398878 </i>
    <i name="pawpsdc">   2366.06703378 </i>
    <i name="pawaedc">  -2359.96017197 </i>
    <i name="eentropy">     -0.00499482 </i>
    <i name="bandstr">   -236.36413721 </i>
    <i name="atom">    569.35051449 </i>
    <i name="e_fr_energy">    -50.46837187 </i>
    <i name="e_wo_entrp">    -50.46337706 </i>
    <i name="e_0_energy">    -50.46587446 </i>
   </energy>
  </scstep>
  <structure>
   <crystal>
    <varray name="basis" >
     <v>       4.37429400       2.52550000       0.00000000 </v>
     <v>      -4.37429400       2.52550000       0.00000000 </v>
     <v>       0.00000000       0.00000000      15.00000000 </v>
    </varray>
    <i name="volume">    331.41838491 </i>
    <varray name="rec_basis" >
     <v>       0.11430416       0.19798060       0.00000000 </v>
     <v>      -0.11430416       0.19798060       0.00000000 </v>
     <v>       0.00000000       0.00000000       0.06666667 </v>
    </varray>
   </crystal>
   <varray name="positions" >
    <v>       0.66893173       0.00000000       0.10000000 </v>
    <v>       0.33106727       0.00000000       0.10000000 </v>
    <v>       0.00000000       0.33106727       0.10000000 </v>
    <v>       0.00000000       0.66893173       0.10000000 </v>
    <v>       0.33106727       0.33106727       0.10000000 </v>
    <v>       0.66893173       0.66893173       0.10000000 </v>
    <v>       0.66666600       0.33333300       0.09995611 </v>
    <v>       0.33333300       0.66666600       0.10004389 </v>
   </varray>
  </structure>
  <varray name="forces" >
   <v>      -0.02234385      -0.01289418      -0.00000000 </v>
   <v>       0.02234385       0.01289418       0.00000000 </v>
   <v>      -0.02234385       0.01289418      -0.00000000 </v>
   <v>       0.02234385      -0.01289418       0.00000000 </v>
   <v>      -0.00000000       0.02577957      -0.00000000 </v>
   <v>      -0.00000000      -0.02577957      -0.00000000 </v>
   <v>       0.00004554      -0.00000000       0.00004198 </v>
   <v>      -0.00004554      -0.00000000      -0.00004198 </v>
  </varray>
  <varray name="stress" >
   <v>       0.12885934       0.00000000      -0.00000033 </v>
   <v>       0.00000000       0.12854640       0.00000000 </v>
   <v>      -0.00000032       0.00000000      -0.09179159 </v>
  </varray>
  <energy>
   <i name="e_fr_energy">    -51.13565322 </i>
   <i name="e_wo_entrp">    -51.13065840 </i>
   <i name="e_0_energy">    -51.13315581 </i>
  </energy>
  <time name="totalsc">  508.53  513.95</time>
  <eigenvalues>
   <array>
    <dimension dim="1">band</dimension>
    <dimension dim="2">kpoint</dimension>
    <dimension dim="3">spin</dimension>
    <field>eigene</field>
    <field>occ</field>
    <set>
     <set comment="spin 1">
      <set comment="kpoint 1">
       <r>  -17.8888    1.0000 </r>
       <r>  -13.7320    1.0000 </r>
       <r>  -13.6484    1.0000 </r>
       <r>  -13.6484    1.0000 </r>
       <r>  -11.4839    1.0000 </r>
       <r>  -11.4839    1.0000 </r>
       <r>   -9.4135    1.0000 </r>
       <r>   -8.7301    1.0000 </r>
       <r>   -3.8275    1.0000 </r>
       <r>   -3.8275    1.0000 </r>
       <r>   -2.2972    0.8989 </r>
       <r>   -1.7301    0.0000 </r>
       <r>   -1.7301    0.0000 </r>
       <r>   -1.5131    0.0000 </r>
       <r>   -1.5131    0.0000 </r>
       <r>   -1.2558    0.0000 </r>
       <r>   -1.2558    0.0000 </r>
       <r>    0.7816    0.0000 </r>
       <r>    1.6281    0.0000 </r>
       <r>    2.3779    0.0000 </r>
       <r>    2.5174    0.0000 </r>
       <r>    4.3959    0.0000 </r>
       <r>    4.9494    0.0000 </r>
       <r>    5.6970    0.0000 </r>
       <r>    6.3540    0.0000 </r>
       <r>    6.3540    0.0000 </r>
       <r>    6.5931    0.0000 </r>
       <r>    7.5208    0.0000 </r>
       <r>    7.5208    0.0000 </r>
       <r>    8.0517    0.0000 </r>
       <r>    8.3523    0.0000 </r>
       <r>    8.6078    0.0000 </r>
       <r>    9.0124    0.0000 </r>
       <r>    9.1041    0.0000 </r>
       <r>    9.3171    0.0000 </r>
       <r>    9.3627    0.0000 </r>
       <r>    9.3628    0.0000 </r>
       <r>    9.3860    0.0000 </r>
       <r>    9.4353    0.0000 </r>
       <r>    9.4354    0.0000 </r>
       <r>    9.5007    0.0000 </r>
       <r>    9.5347    0.0000 </r>
       <r>    9.5348    0.0000 </r>
       <r>    9.5708    0.0000 </r>
       <r>    9.5709    0.0000 </r>
       <r>   10.3400    0.0000 </r>
       <r>   10.3461    0.0000 </r>
       <r>   10.4152    0.0000 </r>
      </set>
      <set comment="kpoint 2">
       <r>  -17.8861    1.0000 </r>
       <r>  -13.8515    1.0000 </r>
       <r>  -13.6513    1.0000 </r>
       <r>  -13.5308    1.0000 </r>
       <r>  -11.4890    1.0000 </r>
       <r>  -11.4766    1.0000 </r>
       <r>   -9.4001    1.0000 </r>
       <r>   -8.7260    1.0000 </r>
       <r>   -3.8645    1.0000 </r>
       <r>   -3.8584    1.0000 </r>
       <r>   -2.3897    0.9951 </r>
       <r>   -1.7829    0.0000 </r>
       <r>   -1.6945    0.0000 </r>
       <r>   -1.4797    0.0000 </r>
       <r>   -1.4735    0.0000 </r>
       <r>   -1.2030    0.0000 </r>
       <r>   -1.1950    0.0000 </r>
       <r>    0.7861    0.0000 </r>
       <r>    1.6358    0.0000 </r>
       <r>    2.3825    0.0000 </r>
       <r>    2.5299    0.0000 </r>
       <r>    4.4004    0.0000 </r>
       <r>    4.9537    0.0000 </r>
       <r>    5.6674    0.0000 </r>
       <r>    6.3367    0.0000 </r>
       <r>    6.3435    0.0000 </r>
       <r>    6.5743    0.0000 </r>
       <r>    7.4846    0.0000 </r>
       <r>    7.5117    0.0000 </r>
       <r>    8.0357    0.0000 </r>
       <r>    8.3564    0.0000 </r>
       <r>    8.6132    0.0000 </r>
       <r>    8.9901    0.0000 </r>
       <r>    9.0617    0.0000 </r>
       <r>    9.1494    0.0000 </r>
       <r>    9.2326    0.0000 </r>
       <r>    9.2979    0.0000 </r>
       <r>    9.3130    0.0000 </r>
       <r>    9.3688    0.0000 </r>
       <r>    9.4293    0.0000 </r>
       <r>    9.4988    0.0000 </r>
       <r>    9.5701    0.0000 </r>
       <r>    9.6631    0.0000 </r>
       <r>    9.7457    0.0000 </r>
       <r>    9.8893    0.0000 </r>
       <r>   10.1197    0.0000 </r>
       <r>   10.2293    0.0000 </r>
       <r>   10.3239    0.0000 </r>
      </set>
      <set comment="kpoint 3">
       <r>  -17.8861    1.0000 </r>
       <r>  -13.8515    1.0000 </r>
       <r>  -13.6513    1.0000 </r>
       <r>  -13.5308    1.0000 </r>
       <r>  -11.4890    1.0000 </r>
       <r>  -11.4766    1.0000 </r>
       <r>   -9.4001    1.0000 </r>
       <r>   -8.7260    1.0000 </r>
       <r>   -3.8645    1.0000 </r>
       <r>   -3.8584    1.0000 </r>
       <r>   -2.3897    0.9951 </r>
       <r>   -1.7829    0.0000 </r>
       <r>   -1.6945    0.0000 </r>
       <r>   -1.4797    0.0000 </r>
       <r>   -1.4735    0.0000 </r>
       <r>   -1.2030    0.0000 </r>
       <r>   -1.1950    0.0000 </r>
       <r>    0.7861    0.0000 </r>
       <r>    1.6358    0.0000 </r>
       <r>    2.3825    0.0000 </r>
       <r>    2.5299    0.0000 </r>
       <r>    4.4004    0.0000 </r>
       <r>    4.9537    0.0000 </r>
       <r>    5.6674    0.0000 </r>
       <r>    6.3367    0.0000 </r>
       <r>    6.3435    0.0000 </r>
       <r>    6.5743    0.0000 </r>
       <r>    7.4846    0.0000 </r>
       <r>    7.5117    0.0000 </r>
       <r>    8.0357    0.0000 </r>
       <r>    8.3564    0.0000 </r>
       <r>    8.6132    0.0000 </r>
       <r>    8.9901    0.0000 </r>
       <r>    9.0617    0.0000 </r>
       <r>    9.1494    0.0000 </r>
       <r>    9.2326    0.0000 </r>
       <r>    9.2979    0.0000 </r>
       <r>    9.3130    0.0000 </r>
       <r>    9.3688    0.0000 </r>
       <r>    9.4292    0.0000 </r>
       <r>    9.4988    0.0000 </r>
       <r>    9.5701    0.0000 </r>
       <r>    9.6631    0.0000 </r>
       <r>    9.7457    0.0000 </r>
       <r>    9.8893    0.0000 </r>
       <r>   10.1196    0.0000 </r>
       <r>   10.2292    0.0000 </r>
       <r>   10.3243    0.0000 </r>
      </set>
      <set comment="kpoint 4">
       <r>  -17.8780    1.0000 </r>
       <r>  -14.0054    1.0000 </r>
       <r>  -13.6598    1.0000 </r>
       <r>  -13.3829    1.0000 </r>
       <r>  -11.5031    1.0000 </r>
       <r>  -11.4549    1.0000 </r>
       <r>   -9.3608    1.0000 </r>
       <r>   -8.7136    1.0000 </r>
       <r>   -3.9688    1.0000 </r>
       <r>   -3.9460    1.0000 </r>
       <r>   -2.5939    1.0000 </r>
       <r>   -1.8973    0.0000 </r>
       <r>   -1.6563    0.0000 </r>
       <r>   -1.3849    0.0000 </r>
       <r>   -1.3618    0.0000 </r>
       <r>   -1.0564    0.0000 </r>
       <r>   -1.0487    0.0000 </r>
       <r>    0.7995    0.0000 </r>
       <r>    1.6584    0.0000 </r>
       <r>    2.3963    0.0000 </r>
       <r>    2.5673    0.0000 </r>
       <r>    4.4141    0.0000 </r>
       <r>    4.9668    0.0000 </r>
       <r>    5.5800    0.0000 </r>
       <r>    6.2758    0.0000 </r>
       <r>    6.3127    0.0000 </r>
       <r>    6.5320    0.0000 </r>
       <r>    7.3828    0.0000 </r>
       <r>    7.4850    0.0000 </r>
       <r>    7.9879    0.0000 </r>
       <r>    8.3683    0.0000 </r>
       <r>    8.6294    0.0000 </r>
       <r>    8.8001    0.0000 </r>
       <r>    8.9128    0.0000 </r>
       <r>    8.9729    0.0000 </r>
       <r>    9.1351    0.0000 </r>
       <r>    9.1950    0.0000 </r>
       <r>    9.1951    0.0000 </r>
       <r>    9.2476    0.0000 </r>
       <r>    9.5058    0.0000 </r>
       <r>    9.6030    0.0000 </r>
       <r>    9.8133    0.0000 </r>
       <r>    9.8325    0.0000 </r>
       <r>    9.9198    0.0000 </r>
       <r>    9.9463    0.0000 </r>
       <r>   10.1096    0.0000 </r>
       <r>   10.2237    0.0000 </r>
       <r>   10.2497    0.0000 </r>
      </set>
      <set comment="kpoint 5">
       <r>  -17.8780    1.0000 </r>
       <r>  -14.0054    1.0000 </r>
       <r>  -13.6598    1.0000 </r>
       <r>  -13.3829    1.0000 </r>
       <r>  -11.5031    1.0000 </r>
       <r>  -11.4549    1.0000 </r>
       <r>   -9.3608    1.0000 </r>
       <r>   -8.7136    1.0000 </r>
       <r>   -3.9688    1.0000 </r>
       <r>   -3.9460    1.0000 </r>
       <r>   -2.5939    1.0000 </r>
       <r>   -1.8973    0.0000 </r>
       <r>   -1.6563    0.0000 </r>
       <r>   -1.3849    0.0000 </r>
       <r>   -1.3618    0.0000 </r>
       <r>   -1.0564    0.0000 </r>
       <r>   -1.0487    0.0000 </r>
       <r>    0.7995    0.0000 </r>
       <r>    1.6584    0.0000 </r>
       <r>    2.3963    0.0000 </r>
       <r>    2.5673    0.0000 </r>
       <r>    4.4141    0.0000 </r>
       <r>    4.9668    0.0000 </r>
       <r>    5.5801    0.0000 </r>
       <r>    6.2758    0.0000 </r>
       <r>    6.3127    0.0000 </r>
       <r>    6.5320    0.0000 </r>
       <r>    7.3828    0.0000 </r>
       <r>    7.4850    0.0000 </r>
       <r>    7.9879    0.0000 </r>
       <r>    8.3683    0.0000 </r>
       <r>    8.6294    0.0000 </r>
       <r>    8.8001    0.0000 </r>
       <r>    8.9127    0.0000 </r>
       <r>    8.9729    0.0000 </r>
       <r>    9.1351    0.0000 </r>
       <r>    9.1950    0.0000 </r>
       <r>    9.1951    0.0000 </r>
       <r>    9.2476    0.0000 </r>
       <r>    9.5058    0.0000 </r>
       <r>    9.6030    0.0000 </r>
       <r>    9.8133    0.0000 </r>
       <r>    9.8326    0.0000 </r>
       <r>    9.9198    0.0000 </r>
       <r>    9.9463    0.0000 </r>
       <r>   10.1095    0.0000 </r>
       <r>   10.2240    0.0000 </r>
       <r>   10.2497    0.0000 </r>
      </set>
      <set comment="kpoint 6">
       <r>  -17.8644    1.0000 </r>
       <r>  -14.1614    1.0000 </r>
       <r>  -13.6735    1.0000 </r>
       <r>  -13.2380    1.0000 </r>
       <r>  -11.5232    1.0000 </r>
       <r>  -11.4192    1.0000 </r>
       <r>   -9.2981    1.0000 </r>
       <r>   -8.6929    1.0000 </r>
       <r>   -4.1241    1.0000 </r>
       <r>   -4.0777    1.0000 </r>
       <r>   -2.8372    1.0000 </r>
       <r>   -2.0288    0.0058 </r>
       <r>   -1.6542    0.0000 </r>
       <r>   -1.2408    0.0000 </r>
       <r>   -1.1941    0.0000 </r>
       <r>   -0.8847    0.0000 </r>
       <r>   -0.8259    0.0000 </r>
       <r>    0.8218    0.0000 </r>
       <r>    1.6949    0.0000 </r>
       <r>    2.4193    0.0000 </r>
       <r>    2.6294    0.0000 </r>
       <r>    4.4369    0.0000 </r>
       <r>    4.9884    0.0000 </r>
       <r>    5.4384    0.0000 </r>
       <r>    6.1650    0.0000 </r>
       <r>    6.2628    0.0000 </r>
       <r>    6.4827    0.0000 </r>
       <r>    7.2364    0.0000 </r>
       <r>    7.4428    0.0000 </r>
       <r>    7.9089    0.0000 </r>
       <r>    8.3798    0.0000 </r>
       <r>    8.4624    0.0000 </r>
       <r>    8.6563    0.0000 </r>
       <r>    8.7498    0.0000 </r>
       <r>    8.8929    0.0000 </r>
       <r>    8.9771    0.0000 </r>
       <r>    9.0301    0.0000 </r>
       <r>    9.1837    0.0000 </r>
       <r>    9.2031    0.0000 </r>
       <r>    9.5648    0.0000 </r>
       <r>    9.7242    0.0000 </r>
       <r>    9.8130    0.0000 </r>
       <r>    9.9793    0.0000 </r>
       <r>   10.0001    0.0000 </r>
       <r>   10.1526    0.0000 </r>
       <r>   10.1559    0.0000 </r>
       <r>   10.1660    0.0000 </r>
       <r>   10.5862    0.0000 </r>
      </set>
      <set comment="kpoint 7">
       <r>  -17.8644    1.0000 </r>
       <r>  -14.1614    1.0000 </r>
       <r>  -13.6735    1.0000 </r>
       <r>  -13.2380    1.0000 </r>
       <r>  -11.5232    1.0000 </r>
       <r>  -11.4192    1.0000 </r>
       <r>   -9.2981    1.0000 </r>
       <r>   -8.6929    1.0000 </r>
       <r>   -4.1241    1.0000 </r>
       <r>   -4.0777    1.0000 </r>
       <r>   -2.8372    1.0000 </r>
       <r>   -2.0288    0.0058 </r>
       <r>   -1.6542    0.0000 </r>
       <r>   -1.2408    0.0000 </r>
       <r>   -1.1941    0.0000 </r>
       <r>   -0.8847    0.0000 </r>
       <r>   -0.8259    0.0000 </r>
       <r>    0.8218    0.0000 </r>
       <r>    1.6949    0.0000 </r>
       <r>    2.4193    0.0000 </r>
       <r>    2.6294    0.0000 </r>
       <r>    4.4369    0.0000 </r>
       <r>    4.9884    0.0000 </r>
       <r>    5.4384    0.0000 </r>
       <r>    6.1650    0.0000 </r>
       <r>    6.2628    0.0000 </r>
       <r>    6.4827    0.0000 </r>
       <r>    7.2364    0.0000 </r>
       <r>    7.4428    0.0000 </r>
       <r>    7.9089    0.0000 </r>
       <r>    8.3798    0.0000 </r>
       <r>    8.4624    0.0000 </r>
       <r>    8.6563    0.0000 </r>
       <r>    8.7497    0.0000 </r>
       <r>    8.8929    0.0000 </r>
       <r>    8.9771    0.0000 </r>
[...]
      </set>
      <set comment="kpoint 440">
       <r>  -16.6831    1.0000 </r>
       <r>  -16.6049    1.0000 </r>
       <r>  -14.6383    1.0000 </r>
       <r>  -11.1750    1.0000 </r>
       <r>  -11.0607    1.0000 </r>
       <r>   -9.7129    1.0000 </r>
       <r>   -9.5688    1.0000 </r>
       <r>   -6.8187    1.0000 </r>
       <r>   -6.7014    1.0000 </r>
       <r>   -6.1737    1.0000 </r>
       <r>   -6.1267    1.0000 </r>
       <r>   -4.8078    1.0000 </r>
       <r>    0.6311    0.0000 </r>
       <r>    0.8674    0.0000 </r>
       <r>    1.2098    0.0000 </r>
       <r>    1.2784    0.0000 </r>
       <r>    2.0635    0.0000 </r>
       <r>    2.2771    0.0000 </r>
       <r>    3.0763    0.0000 </r>
       <r>    3.1722    0.0000 </r>
       <r>    3.5631    0.0000 </r>
       <r>    4.2881    0.0000 </r>
       <r>    4.3506    0.0000 </r>
       <r>    4.5375    0.0000 </r>
       <r>    4.8657    0.0000 </r>
       <r>    4.9189    0.0000 </r>
       <r>    5.0973    0.0000 </r>
       <r>    5.2029    0.0000 </r>
       <r>    5.2444    0.0000 </r>
       <r>    5.2583    0.0000 </r>
       <r>    6.8343    0.0000 </r>
       <r>    6.8624    0.0000 </r>
       <r>    7.0385    0.0000 </r>
       <r>    7.1452    0.0000 </r>
       <r>    7.1858    0.0000 </r>
       <r>    7.5057    0.0000 </r>
       <r>    7.5826    0.0000 </r>
       <r>    7.6600    0.0000 </r>
       <r>    9.4836    0.0000 </r>
       <r>    9.6307    0.0000 </r>
       <r>   10.1240    0.0000 </r>
       <r>   10.3715    0.0000 </r>
       <r>   10.8226    0.0000 </r>
       <r>   10.9501    0.0000 </r>
       <r>   11.4531    0.0000 </r>
       <r>   11.5401    0.0000 </r>
       <r>   11.5497    0.0000 </r>
       <r>   11.7905    0.0000 </r>
      </set>
      <set comment="kpoint 441">
       <r>  -16.6831    1.0000 </r>
       <r>  -16.6049    1.0000 </r>
       <r>  -14.6383    1.0000 </r>
       <r>  -11.1750    1.0000 </r>
       <r>  -11.0607    1.0000 </r>
       <r>   -9.7129    1.0000 </r>
       <r>   -9.5688    1.0000 </r>
       <r>   -6.8187    1.0000 </r>
       <r>   -6.7014    1.0000 </r>
       <r>   -6.1737    1.0000 </r>
       <r>   -6.1267    1.0000 </r>
       <r>   -4.8078    1.0000 </r>
       <r>    0.6311    0.0000 </r>
       <r>    0.8674    0.0000 </r>
       <r>    1.2098    0.0000 </r>
       <r>    1.2784    0.0000 </r>
       <r>    2.0635    0.0000 </r>
       <r>    2.2771    0.0000 </r>
       <r>    3.0763    0.0000 </r>
       <r>    3.1722    0.0000 </r>
       <r>    3.5631    0.0000 </r>
       <r>    4.2881    0.0000 </r>
       <r>    4.3506    0.0000 </r>
       <r>    4.5375    0.0000 </r>
       <r>    4.8661    0.0000 </r>
       <r>    4.9184    0.0000 </r>
       <r>    5.0974    0.0000 </r>
       <r>    5.2029    0.0000 </r>
       <r>    5.2445    0.0000 </r>
       <r>    5.2583    0.0000 </r>
       <r>    6.8345    0.0000 </r>
       <r>    6.8622    0.0000 </r>
       <r>    7.0386    0.0000 </r>
       <r>    7.1452    0.0000 </r>
       <r>    7.1858    0.0000 </r>
       <r>    7.5057    0.0000 </r>
       <r>    7.5826    0.0000 </r>
       <r>    7.6601    0.0000 </r>
       <r>    9.4836    0.0000 </r>
       <r>    9.6308    0.0000 </r>
       <r>   10.1240    0.0000 </r>
       <r>   10.3715    0.0000 </r>
       <r>   10.8225    0.0000 </r>
       <r>   10.9502    0.0000 </r>
       <r>   11.4532    0.0000 </r>
       <r>   11.5400    0.0000 </r>
       <r>   11.5497    0.0000 </r>
       <r>   11.7906    0.0000 </r>
      </set>
     </set>
    </set>
   </array>
  </eigenvalues>
  <separator name="orbital magnetization" >
   <v name="MAGDIPOLOUT">      0.00000000      0.00000000      0.00000000</v>
  </separator>
  <dos>
   <i name="efermi">     -2.20704036 </i>
   <total>
    <array>
     <dimension dim="1">gridpoints</dimension>
     <dimension dim="2">spin</dimension>
     <field>energy</field>
     <field>total</field>
     <field>integrated</field>
     <set>
      <set comment="spin 1">
       <r>   -19.3742     0.0000     0.0000 </r>
       <r>   -19.2652     0.0000     0.0000 </r>
       <r>   -19.1563     0.0000     0.0000 </r>
       <r>   -19.0474     0.0000     0.0000 </r>
       <r>   -18.9385     0.0000     0.0000 </r>
       <r>   -18.8295     0.0000     0.0000 </r>
       <r>   -18.7206     0.0000     0.0000 </r>
       <r>   -18.6117     0.0000     0.0000 </r>
       <r>   -18.5028     0.0000     0.0000 </r>
       <r>   -18.3938     0.0000     0.0000 </r>
       <r>   -18.2849     0.0000     0.0000 </r>
       <r>   -18.1760     0.0000     0.0000 </r>
       <r>   -18.0671     0.0019     0.0002 </r>
       <r>   -17.9581     0.0877     0.0098 </r>
       <r>   -17.8492     0.6802     0.0839 </r>
       <r>   -17.7403     1.4357     0.2402 </r>
       <r>   -17.6314     1.6398     0.4189 </r>
       <r>   -17.5224     1.6889     0.6028 </r>
       <r>   -17.4135     1.7479     0.7932 </r>
       <r>   -17.3046     1.8394     0.9936 </r>
       <r>   -17.1957     2.0211     1.2137 </r>
       <r>   -17.0867     2.4026     1.4754 </r>
       <r>   -16.9778     2.3468     1.7310 </r>
       <r>   -16.8689     1.4339     1.8872 </r>
       <r>   -16.7600     0.7163     1.9652 </r>
       <r>   -16.6510     0.3054     1.9985 </r>
       <r>   -16.5421     0.2747     2.0284 </r>
       <r>   -16.4332     0.6673     2.1011 </r>
       <r>   -16.3243     1.4634     2.2605 </r>
       <r>   -16.2153     2.1791     2.4979 </r>
       <r>   -16.1064     1.8652     2.7010 </r>
       <r>   -15.9975     1.4514     2.8591 </r>
       <r>   -15.8886     1.2364     2.9938 </r>
       <r>   -15.7796     1.0914     3.1127 </r>
       <r>   -15.6707     0.9777     3.2192 </r>
       <r>   -15.5618     0.8823     3.3153 </r>
       <r>   -15.4529     0.7995     3.4024 </r>
       <r>   -15.3439     0.7257     3.4814 </r>
       <r>   -15.2350     0.6589     3.5532 </r>
       <r>   -15.1261     0.5975     3.6183 </r>
       <r>   -15.0172     0.5407     3.6771 </r>
       <r>   -14.9082     0.4876     3.7303 </r>
       <r>   -14.7993     0.4412     3.7783 </r>
       <r>   -14.6904     0.5108     3.8340 </r>
       <r>   -14.5815     1.0690     3.9504 </r>
       <r>   -14.4725     1.6503     4.1302 </r>
       <r>   -14.3636     1.8396     4.3305 </r>
       <r>   -14.2547     1.9982     4.5482 </r>
       <r>   -14.1458     2.2994     4.7986 </r>
       <r>   -14.0368     2.9074     5.1153 </r>
       <r>   -13.9279     3.0762     5.4504 </r>
       <r>   -13.8190     2.3310     5.7043 </r>
       <r>   -13.7101     1.6967     5.8891 </r>
       <r>   -13.6011     0.8853     5.9856 </r>
       <r>   -13.4922     0.1998     6.0073 </r>
       <r>   -13.3833     0.1003     6.0182 </r>
       <r>   -13.2744     0.1410     6.0336 </r>
       <r>   -13.1654     0.1914     6.0545 </r>
       <r>   -13.0565     0.2495     6.0816 </r>
       <r>   -12.9476     0.3214     6.1166 </r>
       <r>   -12.8387     0.4654     6.1673 </r>
       <r>   -12.7297     1.1556     6.2932 </r>
       <r>   -12.6208     2.4993     6.5654 </r>
       <r>   -12.5119     2.6397     6.8530 </r>
       <r>   -12.4030     1.9381     7.0641 </r>
       <r>   -12.2940     1.5271     7.2304 </r>
       <r>   -12.1851     1.2854     7.3704 </r>
       <r>   -12.0762     1.1067     7.4910 </r>
       <r>   -11.9673     0.9670     7.5963 </r>
       <r>   -11.8583     0.8369     7.6875 </r>
       <r>   -11.7494     0.7471     7.7689 </r>
       <r>   -11.6405     1.2378     7.9037 </r>
       <r>   -11.5316     2.8074     8.2095 </r>
       <r>   -11.4227     2.8917     8.5245 </r>
       <r>   -11.3137     2.2682     8.7715 </r>
       <r>   -11.2048     2.0702     8.9970 </r>
       <r>   -11.0959     2.0724     9.2228 </r>
       <r>   -10.9870     2.2674     9.4697 </r>
       <r>   -10.8780     2.2460     9.7144 </r>
       <r>   -10.7691     2.0846     9.9414 </r>
       <r>   -10.6602     1.9849    10.1576 </r>
       <r>   -10.5513     1.9138    10.3661 </r>
       <r>   -10.4423     1.8543    10.5681 </r>
       <r>   -10.3334     1.7952    10.7636 </r>
       <r>   -10.2245     1.6486    10.9432 </r>
       <r>   -10.1156     1.4447    11.1006 </r>
       <r>   -10.0066     1.6283    11.2779 </r>
       <r>    -9.8977     1.8489    11.4793 </r>
       <r>    -9.7888     1.7301    11.6678 </r>
       <r>    -9.6799     1.6895    11.8518 </r>
       <r>    -9.5709     1.4765    12.0126 </r>
       <r>    -9.4620     0.8194    12.1019 </r>
       <r>    -9.3531     0.6826    12.1762 </r>
       <r>    -9.2442     0.8671    12.2707 </r>
       <r>    -9.1352     0.9946    12.3790 </r>
       <r>    -9.0263     1.1209    12.5011 </r>
       <r>    -8.9174     1.2783    12.6404 </r>
       <r>    -8.8085     1.5488    12.8091 </r>
       <r>    -8.6995     2.2862    13.0581 </r>
       <r>    -8.5906     3.4202    13.4306 </r>
       <r>    -8.4817     4.2739    13.8962 </r>
       <r>    -8.3728     3.7044    14.2997 </r>
       <r>    -8.2638     1.7488    14.4902 </r>
       <r>    -8.1549     1.1208    14.6122 </r>
       <r>    -8.0460     1.1017    14.7322 </r>
       <r>    -7.9371     1.1212    14.8544 </r>
       <r>    -7.8281     1.1478    14.9794 </r>
       <r>    -7.7192     1.1863    15.1086 </r>
       <r>    -7.6103     1.2488    15.2446 </r>
       <r>    -7.5014     1.3806    15.3950 </r>
       <r>    -7.3924     1.6291    15.5725 </r>
       <r>    -7.2835     1.5427    15.7405 </r>
       <r>    -7.1746     1.1970    15.8709 </r>
       <r>    -7.0657     1.1989    16.0015 </r>
       <r>    -6.9567     1.1611    16.1280 </r>
       <r>    -6.8478     1.0783    16.2454 </r>
       <r>    -6.7389     1.0699    16.3619 </r>
       <r>    -6.6300     1.2575    16.4989 </r>
       <r>    -6.5210     1.7134    16.6855 </r>
       <r>    -6.4121     2.7240    16.9823 </r>
       <r>    -6.3032     3.6960    17.3848 </r>
       <r>    -6.1943     3.6112    17.7782 </r>
       <r>    -6.0853     3.3267    18.1406 </r>
       <r>    -5.9764     3.7295    18.5468 </r>
       <r>    -5.8675     4.7133    19.0602 </r>
       <r>    -5.7586     4.8487    19.5883 </r>
       <r>    -5.6496     2.8957    19.9037 </r>
       <r>    -5.5407     1.9757    20.1189 </r>
       <r>    -5.4318     1.6901    20.3030 </r>
       <r>    -5.3229     1.5227    20.4689 </r>
       <r>    -5.2139     1.3829    20.6195 </r>
       <r>    -5.1050     1.2711    20.7580 </r>
       <r>    -4.9961     1.1796    20.8865 </r>
       <r>    -4.8872     1.1110    21.0075 </r>
       <r>    -4.7782     1.2684    21.1456 </r>
       <r>    -4.6693     1.4817    21.3070 </r>
       <r>    -4.5604     1.5435    21.4752 </r>
       <r>    -4.4515     1.4897    21.6374 </r>
       <r>    -4.3425     1.4747    21.7981 </r>
       <r>    -4.2336     1.4454    21.9555 </r>
       <r>    -4.1247     1.4171    22.1099 </r>
       <r>    -4.0158     1.4032    22.2627 </r>
       <r>    -3.9068     1.3729    22.4122 </r>
       <r>    -3.7979     1.2889    22.5526 </r>
       <r>    -3.6890     1.1682    22.6799 </r>
       <r>    -3.5801     1.1906    22.8096 </r>
       <r>    -3.4711     1.2265    22.9432 </r>
       <r>    -3.3622     1.3929    23.0949 </r>
       <r>    -3.2533     1.4784    23.2559 </r>
       <r>    -3.1444     1.2565    23.3928 </r>
       <r>    -3.0354     0.9661    23.4980 </r>
       <r>    -2.9265     0.8209    23.5874 </r>
       <r>    -2.8176     0.6895    23.6625 </r>
       <r>    -2.7087     0.6095    23.7289 </r>
       <r>    -2.5997     0.5146    23.7850 </r>
       <r>    -2.4908     0.4547    23.8345 </r>
       <r>    -2.3819     0.4049    23.8786 </r>
       <r>    -2.2730     0.5694    23.9406 </r>
       <r>    -2.1640     0.9552    24.0447 </r>
       <r>    -2.0551     1.1370    24.1685 </r>
       <r>    -1.9462     1.1736    24.2963 </r>
       <r>    -1.8373     1.2796    24.4357 </r>
       <r>    -1.7283     1.4032    24.5886 </r>
       <r>    -1.6194     1.7070    24.7745 </r>
       <r>    -1.5105     1.6389    24.9530 </r>
       <r>    -1.4016     1.4421    25.1101 </r>
       <r>    -1.2926     1.3788    25.2603 </r>
       <r>    -1.1837     1.2492    25.3964 </r>
       <r>    -1.0748     1.3896    25.5477 </r>
       <r>    -0.9659     1.2225    25.6809 </r>
       <r>    -0.8569     1.3645    25.8295 </r>
       <r>    -0.7480     1.2793    25.9689 </r>
       <r>    -0.6391     1.3103    26.1116 </r>
       <r>    -0.5302     1.4203    26.2663 </r>
       <r>    -0.4212     1.2805    26.4058 </r>
       <r>    -0.3123     1.5349    26.5730 </r>
       <r>    -0.2034     1.3645    26.7216 </r>
       <r>    -0.0945     1.5363    26.8889 </r>
       <r>     0.0145     1.5774    27.0608 </r>
       <r>     0.1234     1.4797    27.2219 </r>
       <r>     0.2323     1.7989    27.4179 </r>
       <r>     0.3412     1.5365    27.5852 </r>
       <r>     0.4502     1.8718    27.7891 </r>
       <r>     0.5591     1.8292    27.9884 </r>
       <r>     0.6680     1.8631    28.1913 </r>
       <r>     0.7769     2.4532    28.4585 </r>
       <r>     0.8859     2.9298    28.7777 </r>
       <r>     0.9948     3.7588    29.1871 </r>
       <r>     1.1037     4.1591    29.6401 </r>
       <r>     1.2126     3.9817    30.0738 </r>
       <r>     1.3216     3.8547    30.4937 </r>
       <r>     1.4305     3.4807    30.8728 </r>
       <r>     1.5394     3.7865    31.2853 </r>
       <r>     1.6483     4.7418    31.8018 </r>
       <r>     1.7573     4.4043    32.2815 </r>
       <r>     1.8662     4.1816    32.7370 </r>
       <r>     1.9751     4.3258    33.2082 </r>
       <r>     2.0840     4.3903    33.6864 </r>
       <r>     2.1930     4.5725    34.1844 </r>
       <r>     2.3019     4.5212    34.6769 </r>
       <r>     2.4108     4.6546    35.1839 </r>
       <r>     2.5197     5.3183    35.7632 </r>
       <r>     2.6287     5.6949    36.3835 </r>
       <r>     2.7376     5.5996    36.9934 </r>
       <r>     2.8465     5.8096    37.6263 </r>
       <r>     2.9554     5.6508    38.2418 </r>
       <r>     3.0644     5.5224    38.8433 </r>
       <r>     3.1733     5.9306    39.4893 </r>
       <r>     3.2822     5.8138    40.1226 </r>
       <r>     3.3911     5.8365    40.7583 </r>
       <r>     3.5001     6.0312    41.4152 </r>
       <r>     3.6090     5.7203    42.0383 </r>
       <r>     3.7179     5.1195    42.5960 </r>
       <r>     3.8268     5.0441    43.1454 </r>
       <r>     3.9358     5.9007    43.7881 </r>
       <r>     4.0447     6.8258    44.5316 </r>
       <r>     4.1536     6.3995    45.2287 </r>
       <r>     4.2625     5.9185    45.8734 </r>
       <r>     4.3715     5.6535    46.4892 </r>
       <r>     4.4804     5.7872    47.1195 </r>
       <r>     4.5893     5.9623    47.7690 </r>
       <r>     4.6982     5.9684    48.4191 </r>
       <r>     4.8072     6.2070    49.0952 </r>
       <r>     4.9161     6.5057    49.8038 </r>
       <r>     5.0250     7.1588    50.5836 </r>
       <r>     5.1339     7.5194    51.4027 </r>
       <r>     5.2429     7.7346    52.2451 </r>
       <r>     5.3518     7.5326    53.0656 </r>
       <r>     5.4607     6.1119    53.7314 </r>
       <r>     5.5696     5.4864    54.3290 </r>
       <r>     5.6786     5.8124    54.9621 </r>
       <r>     5.7875     6.5051    55.6707 </r>
       <r>     5.8964     6.5413    56.3832 </r>
       <r>     6.0053     6.3527    57.0751 </r>
       <r>     6.1143     6.2973    57.7611 </r>
       <r>     6.2232     6.2852    58.4457 </r>
       <r>     6.3321     6.1541    59.1160 </r>
       <r>     6.4410     6.2468    59.7965 </r>
       <r>     6.5500     6.5776    60.5129 </r>
       <r>     6.6589     6.5406    61.2254 </r>
       <r>     6.7678     6.5486    61.9387 </r>
       <r>     6.8767     6.2058    62.6146 </r>
       <r>     6.9857     5.8948    63.2567 </r>
       <r>     7.0946     6.2330    63.9356 </r>
       <r>     7.2035     6.5419    64.6482 </r>
       <r>     7.3124     6.6556    65.3732 </r>
       <r>     7.4214     6.3144    66.0610 </r>
       <r>     7.5303     6.1221    66.7278 </r>
       <r>     7.6392     6.2294    67.4064 </r>
       <r>     7.7481     5.7343    68.0310 </r>
       <r>     7.8571     4.8705    68.5615 </r>
       <r>     7.9660     4.5987    69.0624 </r>
       <r>     8.0749     4.4899    69.5515 </r>
       <r>     8.1838     4.7650    70.0705 </r>
       <r>     8.2928     5.0048    70.6156 </r>
       <r>     8.4017     4.8864    71.1479 </r>
       <r>     8.5106     5.4144    71.7377 </r>
       <r>     8.6195     5.5545    72.3427 </r>
       <r>     8.7285     6.2142    73.0196 </r>
       <r>     8.8374     6.8060    73.7609 </r>
       <r>     8.9463     6.6302    74.4831 </r>
       <r>     9.0552     7.5855    75.3093 </r>
       <r>     9.1642     9.2561    76.3176 </r>
       <r>     9.2731     9.4782    77.3500 </r>
       <r>     9.3820     8.9819    78.3283 </r>
       <r>     9.4909     8.4255    79.2461 </r>
       <r>     9.5999     8.3625    80.1570 </r>
       <r>     9.7088     8.9634    81.1333 </r>
       <r>     9.8177    10.1913    82.2434 </r>
       <r>     9.9266     9.9144    83.3233 </r>
       <r>    10.0356     9.0140    84.3052 </r>
       <r>    10.1445     9.1941    85.3066 </r>
       <r>    10.2534     9.8297    86.3773 </r>
       <r>    10.3623     9.7905    87.4438 </r>
       <r>    10.4713     9.6141    88.4910 </r>
       <r>    10.5802     8.9833    89.4695 </r>
       <r>    10.6891     7.4918    90.2855 </r>
       <r>    10.7980     6.1346    90.9537 </r>
       <r>    10.9070     5.8193    91.5876 </r>
       <r>    11.0159     5.8898    92.2291 </r>
       <r>    11.1248     6.7033    92.9593 </r>
       <r>    11.2337     6.9883    93.7205 </r>
       <r>    11.3427     6.2380    94.4000 </r>
       <r>    11.4516     5.8279    95.0348 </r>
       <r>    11.5605     4.3655    95.5103 </r>
       <r>    11.6694     2.6767    95.8018 </r>
       <r>    11.7784     1.3611    95.9501 </r>
       <r>    11.8873     0.4090    95.9947 </r>
       <r>    11.9962     0.0479    95.9999 </r>
       <r>    12.1051     0.0012    96.0000 </r>
       <r>    12.2141     0.0000    96.0000 </r>
       <r>    12.3230     0.0000    96.0000 </r>
       <r>    12.4319     0.0000    96.0000 </r>
       <r>    12.5408     0.0000    96.0000 </r>
       <r>    12.6498     0.0000    96.0000 </r>
       <r>    12.7587     0.0000    96.0000 </r>
       <r>    12.8676     0.0000    96.0000 </r>
       <r>    12.9765     0.0000    96.0000 </r>
       <r>    13.0855     0.0000    96.0000 </r>
       <r>    13.1944     0.0000    96.0000 </r>
       <r>    13.3033     0.0000    96.0000 </r>
      </set>
     </set>
    </array>
   </total>
  </dos>
 </calculation>
 <structure name="finalpos" >
  <crystal>
   <varray name="basis" >
    <v>       4.37429400       2.52550000       0.00000000 </v>
    <v>      -4.37429400       2.52550000       0.00000000 </v>
    <v>       0.00000000       0.00000000      15.00000000 </v>
   </varray>
   <i name="volume">    331.41838491 </i>
   <varray name="rec_basis" >
    <v>       0.11430416       0.19798060       0.00000000 </v>
    <v>      -0.11430416       0.19798060       0.00000000 </v>
    <v>       0.00000000       0.00000000       0.06666667 </v>
   </varray>
  </crystal>
  <varray name="positions" >
   <v>       0.66893173       0.00000000       0.10000000 </v>
   <v>       0.33106727       0.00000000       0.10000000 </v>
   <v>       0.00000000       0.33106727       0.10000000 </v>
   <v>       0.00000000       0.66893173       0.10000000 </v>
   <v>       0.33106727       0.33106727       0.10000000 </v>
   <v>       0.66893173       0.66893173       0.10000000 </v>
   <v>       0.66666600       0.33333300       0.09995611 </v>
   <v>       0.33333300       0.66666600       0.10004389 </v>
  </varray>
 </structure>
</modeling>
