    8    8  128    1
  0.4338553E+02  0.5169000E-09  0.5169000E-09  0.1500000E-08  0.5000000E-15
  1.000000000000000E-004
  CAR 
 Lattice                                 
     30     13     24
 
  0.0000000E+00  0.0000000E+00  0.0000000E+00  0.4000000E-01
      1        -19.881337   1.000000
      2        -15.978980   1.000000
      3        -15.978769   1.000000
      4        -13.637644   1.000000
      5        -13.637550   1.000000
      6        -12.571990   1.000000
      7        -11.247188   1.000000
      8         -8.685409   1.000000
      9         -8.453089   1.000000
     10         -6.301205   1.000000
     11         -6.301031   1.000000
     12         -4.476251   1.000000
     13         -4.476137   1.000000
     14         -3.788421   0.999999
     15         -3.788341   0.999999
     16         -1.962141   0.000000
     17         -0.221755   0.000000
     18         -0.221691   0.000000
     19          0.429977   0.000000
     20          0.840430   0.000000
     21          1.841925   0.000000
     22          2.255895   0.000000
     23          4.224750   0.000000
     24          4.853397   0.000000
 
  0.2000000E+00  0.1130324E-16  0.0000000E+00  0.8000000E-01
      1        -19.729898   1.000000
      2        -16.596012   1.000000
      3        -16.176352   1.000000
      4        -13.851586   1.000000
      5        -13.123871   1.000000
      6        -11.849670   1.000000
      7        -10.429345   1.000000
      8         -8.804356   1.000000
      9         -8.450114   1.000000
     10         -6.958685   1.000000
     11         -6.363902   1.000000
     12         -5.126209   1.000000
     13         -4.579095   1.000000
     14         -4.564726   1.000000
     15         -4.153427   1.000000
     16         -2.640648   0.000000
     17          0.089291   0.000000
     18          0.695340   0.000000
     19          1.137872   0.000000
     20          1.396574   0.000000
     21          2.182132   0.000000
     22          2.555432   0.000000
     23          4.518890   0.000000
     24          5.131846   0.000000
 
 -0.4227684E-17  0.2000000E+00  0.0000000E+00  0.8000000E-01
      1        -19.729899   1.000000
      2        -16.596000   1.000000
      3        -16.176362   1.000000
      4        -13.851592   1.000000
      5        -13.123874   1.000000
      6        -11.849663   1.000000
      7        -10.429347   1.000000
      8         -8.804354   1.000000
      9         -8.450115   1.000000
     10         -6.958661   1.000000
     11         -6.363926   1.000000
     12         -5.126203   1.000000
     13         -4.579102   1.000000
     14         -4.564705   1.000000
     15         -4.153449   1.000000
     16         -2.640643   0.000000
     17          0.089290   0.000000
     18          0.695326   0.000000
     19          1.137872   0.000000
     20          1.396582   0.000000
     21          2.182134   0.000000
     22          2.555432   0.000000
     23          4.518891   0.000000
     24          5.131842   0.000000
 
 -0.2000000E+00  0.2000000E+00  0.0000000E+00  0.8000000E-01
      1        -19.729893   1.000000
      2        -16.596145   1.000000
      3        -16.176224   1.000000
      4        -13.851522   1.000000
      5        -13.123916   1.000000
      6        -11.849713   1.000000
      7        -10.429313   1.000000
      8         -8.804353   1.000000
      9         -8.450112   1.000000
     10         -6.958804   1.000000
     11         -6.363791   1.000000
     12         -5.126272   1.000000
     13         -4.579018   1.000000
     14         -4.564762   1.000000
     15         -4.153396   1.000000
     16         -2.640666   0.000000
     17          0.089247   0.000000
     18          0.695409   0.000000
     19          1.137872   0.000000
     20          1.396567   0.000000
     21          2.182119   0.000000
     22          2.555431   0.000000
     23          4.518891   0.000000
     24          5.131838   0.000000
 
  0.4000000E+00  0.1094422E-16  0.0000000E+00  0.8000000E-01
      1        -19.389123   1.000000
      2        -17.456234   1.000000
      3        -16.416893   1.000000
      4        -14.141629   1.000000
      5        -12.108408   1.000000
      6        -10.364153   1.000000
      7         -9.744926   1.000000
      8         -8.910868   1.000000
      9         -8.157427   1.000000
     10         -7.818617   1.000000
     11         -6.389656   1.000000
     12         -6.326485   1.000000
     13         -6.175966   1.000000
     14         -4.850704   1.000000
     15         -4.727868   1.000000
     16         -3.099771   0.000000
     17          0.623546   0.000000
     18          1.437505   0.000000
     19          2.021630   0.000000
     20          2.903584   0.000000
     21          3.449508   0.000000
     22          3.480964   0.000000
     23          3.898613   0.000000
     24          4.427154   0.000000
 
  0.1094422E-16  0.4000000E+00  0.0000000E+00  0.8000000E-01
      1        -19.389126   1.000000
      2        -17.456220   1.000000
      3        -16.416901   1.000000
      4        -14.141637   1.000000
      5        -12.108416   1.000000
      6        -10.364149   1.000000
      7         -9.744920   1.000000
      8         -8.910876   1.000000
      9         -8.157392   1.000000
     10         -7.818621   1.000000
     11         -6.389638   1.000000
     12         -6.326478   1.000000
     13         -6.175992   1.000000
     14         -4.850721   1.000000
     15         -4.727875   1.000000
     16         -3.099763   0.000000
     17          0.623544   0.000000
     18          1.437493   0.000000
     19          2.021629   0.000000
     20          2.903581   0.000000
     21          3.449509   0.000000
     22          3.480964   0.000000
     23          3.898616   0.000000
     24          4.427159   0.000000
 
 -0.4000000E+00  0.4000000E+00  0.0000000E+00  0.8000000E-01
      1        -19.389096   1.000000
      2        -17.456372   1.000000
      3        -16.416784   1.000000
      4        -14.141577   1.000000
      5        -12.108431   1.000000
      6        -10.364206   1.000000
      7         -9.744918   1.000000
      8         -8.910759   1.000000
      9         -8.157603   1.000000
     10         -7.818599   1.000000
     11         -6.389689   1.000000
     12         -6.326547   1.000000
     13         -6.175844   1.000000
     14         -4.850708   1.000000
     15         -4.727797   1.000000
     16         -3.099801   0.000000
     17          0.623505   0.000000
     18          1.437569   0.000000
     19          2.021629   0.000000
     20          2.903600   0.000000
     21          3.449511   0.000000
     22          3.480961   0.000000
     23          3.898580   0.000000
     24          4.427174   0.000000
 
  0.2000000E+00  0.2000000E+00  0.0000000E+00  0.8000000E-01
      1        -19.473601   1.000000
      2        -17.134334   1.000000
      3        -16.641356   1.000000
      4        -13.570623   1.000000
      5        -12.909350   1.000000
      6        -10.573372   1.000000
      7         -9.620915   1.000000
      8         -9.273954   1.000000
      9         -8.006664   1.000000
     10         -7.457073   1.000000
     11         -6.688115   1.000000
     12         -5.782668   1.000000
     13         -5.631228   1.000000
     14         -5.206946   1.000000
     15         -4.905283   1.000000
     16         -2.507316   0.000000
     17         -0.299612   0.000000
     18          1.728990   0.000000
     19          2.234739   0.000000
     20          2.602735   0.000000
     21          2.912484   0.000000
     22          3.152684   0.000000
     23          4.623464   0.000000
     24          4.653445   0.000000
 
 -0.2000000E+00  0.4000000E+00  0.0000000E+00  0.8000000E-01
      1        -19.473586   1.000000
      2        -17.134502   1.000000
      3        -16.641200   1.000000
      4        -13.570603   1.000000
      5        -12.909335   1.000000
      6        -10.573437   1.000000
      7         -9.620952   1.000000
      8         -9.273880   1.000000
      9         -8.006656   1.000000
     10         -7.457173   1.000000
     11         -6.687998   1.000000
     12         -5.782758   1.000000
     13         -5.631300   1.000000
     14         -5.206850   1.000000
     15         -4.905235   1.000000
     16         -2.507341   0.000000
     17         -0.299599   0.000000
     18          1.728989   0.000000
     19          2.234714   0.000000
     20          2.602804   0.000000
     21          2.912446   0.000000
     22          3.152684   0.000000
     23          4.623486   0.000000
     24          4.653418   0.000000
 
 -0.4000000E+00  0.2000000E+00  0.0000000E+00  0.8000000E-01
      1        -19.473585   1.000000
      2        -17.134518   1.000000
      3        -16.641185   1.000000
      4        -13.570611   1.000000
      5        -12.909312   1.000000
      6        -10.573453   1.000000
      7         -9.620962   1.000000
      8         -9.273871   1.000000
      9         -8.006655   1.000000
     10         -7.457187   1.000000
     11         -6.687986   1.000000
     12         -5.782770   1.000000
     13         -5.631318   1.000000
     14         -5.206836   1.000000
     15         -4.905214   1.000000
     16         -2.507352   0.000000
     17         -0.299585   0.000000
     18          1.728989   0.000000
     19          2.234708   0.000000
     20          2.602813   0.000000
     21          2.912441   0.000000
     22          3.152684   0.000000
     23          4.623479   0.000000
     24          4.653425   0.000000
 
  0.4000000E+00  0.2000000E+00  0.0000000E+00  0.8000000E-01
      1        -19.251038   1.000000
      2        -17.489720   1.000000
      3        -16.912792   1.000000
      4        -13.494161   1.000000
      5        -12.343087   1.000000
      6        -10.615760   1.000000
      7         -9.104074   1.000000
      8         -8.562765   1.000000
      9         -7.610746   1.000000
     10         -7.474919   1.000000
     11         -7.258175   1.000000
     12         -6.459679   1.000000
     13         -6.419629   1.000000
     14         -5.577183   1.000000
     15         -5.565577   1.000000
     16         -2.216227   0.000000
     17         -0.506543   0.000000
     18          2.896668   0.000000
     19          2.907305   0.000000
     20          2.997048   0.000000
     21          3.724111   0.000000
     22          3.854712   0.000000
     23          4.337320   0.000000
     24          4.343733   0.000000
 
 -0.2000000E+00 -0.4000000E+00  0.0000000E+00  0.8000000E-01
      1        -19.251040   1.000000
      2        -17.489705   1.000000
      3        -16.912804   1.000000
      4        -13.494163   1.000000
      5        -12.343097   1.000000
      6        -10.615750   1.000000
      7         -9.104078   1.000000
      8         -8.562758   1.000000
      9         -7.610740   1.000000
     10         -7.474923   1.000000
     11         -7.258152   1.000000
     12         -6.459668   1.000000
     13         -6.419645   1.000000
     14         -5.577197   1.000000
     15         -5.565584   1.000000
     16         -2.216220   0.000000
     17         -0.506551   0.000000
     18          2.896661   0.000000
     19          2.907312   0.000000
     20          2.997044   0.000000
     21          3.724100   0.000000
     22          3.854715   0.000000
     23          4.337318   0.000000
     24          4.343742   0.000000
 
  0.4000000E+00  0.4000000E+00  0.0000000E+00  0.8000000E-01
      1        -19.251015   1.000000
      2        -17.489866   1.000000
      3        -16.912669   1.000000
      4        -13.494121   1.000000
      5        -12.343104   1.000000
      6        -10.615767   1.000000
      7         -9.104145   1.000000
      8         -8.562706   1.000000
      9         -7.610778   1.000000
     10         -7.474892   1.000000
     11         -7.258225   1.000000
     12         -6.459759   1.000000
     13         -6.419539   1.000000
     14         -5.577192   1.000000
     15         -5.565516   1.000000
     16         -2.216241   0.000000
     17         -0.506538   0.000000
     18          2.896641   0.000000
     19          2.907333   0.000000
     20          2.997066   0.000000
     21          3.724070   0.000000
     22          3.854775   0.000000
     23          4.337146   0.000000
     24          4.343922   0.000000
