 ----------------------------------------------------
    OOO  PPPP  EEEEE N   N M   M PPPP
   O   O P   P E     NN  N MM MM P   P
   O   O PPPP  EEEEE N N N M M M PPPP   -- VERSION
   O   O P     E     N  NN M   M P
    OOO  P     EEEEE N   N M   M P
 ----------------------------------------------------
 running   24 mpi-ranks, with    1 threads/rank
 distrk:  each k-point on   24 cores,    1 groups
 distr:  one band on    1 cores,   24 groups
 vasp.6.3.2 27Jun22 (build Dec 22 2022 13:13:19) complex                        
  
 POSCAR found type information on POSCAR B C 
 POSCAR found :  2 types and       8 ions
 Reading from existing POTCAR
 scaLAPACK will be used
 Reading from existing POTCAR
 LDA part: xc-table for Pade appr. of Perdew
 POSCAR found type information on POSCAR B C 
 POSCAR found :  2 types and       8 ions
 POSCAR, INCAR and KPOINTS ok, starting setup
 FFT: planning ... GRIDC
 FFT: planning ... GRID_SOFT
 FFT: planning ... GRID
 WAVECAR not read
 entering main loop
       N       E                     dE             d eps       ncg     rms          rms(c)
DAV:   1     0.185995646254E+03    0.18600E+03   -0.11481E+04   624   0.828E+02
DAV:   2    -0.572754104904E+02   -0.24327E+03   -0.24214E+03  1056   0.158E+02
DAV:   3    -0.733144103798E+02   -0.16039E+02   -0.16039E+02  1032   0.626E+01
DAV:   4    -0.734286447324E+02   -0.11423E+00   -0.11423E+00   960   0.511E+00
DAV:   5    -0.734288283318E+02   -0.18360E-03   -0.18360E-03   960   0.220E-01    0.131E+01
DAV:   6    -0.689855455434E+02    0.44433E+01   -0.58707E+00  1248   0.104E+01    0.747E+00
DAV:   7    -0.673252298589E+02    0.16603E+01   -0.39283E+00  1176   0.857E+00    0.212E+00
DAV:   8    -0.672422652608E+02    0.82965E-01   -0.16990E-01   984   0.178E+00    0.598E-01
DAV:   9    -0.672225692779E+02    0.19696E-01   -0.13706E-02  1008   0.658E-01    0.170E-01
DAV:  10    -0.672139897538E+02    0.85795E-02   -0.94269E-03   936   0.339E-01    0.896E-02
DAV:  11    -0.672115961985E+02    0.23936E-02   -0.47606E-03   768   0.253E-01    0.566E-02
DAV:  12    -0.672123015912E+02   -0.70539E-03   -0.68532E-04   624   0.116E-01    0.287E-02
DAV:  13    -0.672151320913E+02   -0.28305E-02   -0.51818E-04  1056   0.848E-02    0.215E-02
DAV:  14    -0.672168247635E+02   -0.16927E-02   -0.32669E-04   768   0.625E-02    0.138E-02
DAV:  15    -0.672174359962E+02   -0.61123E-03   -0.56262E-05   840   0.282E-02    0.407E-03
DAV:  16    -0.672177657831E+02   -0.32979E-03   -0.43375E-05   624   0.166E-02    0.207E-03
DAV:  17    -0.672178403162E+02   -0.74533E-04   -0.40363E-06   624   0.678E-03    0.103E-03
DAV:  18    -0.672178462347E+02   -0.59185E-05   -0.26547E-07   624   0.246E-03    0.225E-04
DAV:  19    -0.672178477318E+02   -0.14971E-05   -0.29369E-08   912   0.675E-04    0.117E-04
DAV:  20    -0.672178483378E+02   -0.60597E-06   -0.15973E-08   624   0.393E-04
   1 F= -.67896185E+02 E0= -.67896185E+02  d E =-.678962E+02
 curvature:   0.00 expect dE= 0.000E+00 dE for cont linesearch  0.000E+00
 trial: gam= 0.00000 g(F)=  0.247E-01 g(S)=  0.000E+00 ort = 0.000E+00 (trialstep = 0.100E+01)
 search vector abs. value=  0.247E-01
 bond charge predicted
       N       E                     dE             d eps       ncg     rms          rms(c)
DAV:   1    -0.672127905051E+02    0.50572E-02   -0.38067E+00   624   0.115E+01    0.527E-01
DAV:   2    -0.672064230208E+02    0.63675E-02   -0.62186E-02  1056   0.155E+00    0.261E-01
DAV:   3    -0.672054989814E+02    0.92404E-03   -0.10454E-02   768   0.538E-01    0.101E-01
DAV:   4    -0.672054924475E+02    0.65338E-05   -0.15189E-03   768   0.197E-01    0.460E-02
DAV:   5    -0.672055002751E+02   -0.78275E-05   -0.87486E-05   624   0.609E-02    0.739E-03
DAV:   6    -0.672055010394E+02   -0.76430E-06   -0.17252E-05   624   0.246E-02    0.469E-03
DAV:   7    -0.672055032821E+02   -0.22427E-05   -0.32694E-06   624   0.982E-03    0.812E-04
DAV:   8    -0.672055044624E+02   -0.11803E-05   -0.27838E-07   768   0.281E-03    0.561E-04
DAV:   9    -0.672055063673E+02   -0.19049E-05   -0.11135E-07   624   0.112E-03    0.319E-04
DAV:  10    -0.672055075351E+02   -0.11678E-05   -0.72149E-08   912   0.108E-03    0.311E-04
DAV:  11    -0.672055085383E+02   -0.10032E-05   -0.65927E-08   912   0.942E-04    0.790E-05
DAV:  12    -0.672055090455E+02   -0.50717E-06   -0.39350E-09  1056   0.287E-04
   2 F= -.67882759E+02 E0= -.67882759E+02  d E =0.134257E-01
 trial-energy change:    0.013426  1 .order    0.013585   -0.024658    0.051829
 step:   0.3251(harm=  0.3224)  dis= 0.00442  next Energy=   -67.900199 (dE=-0.401E-02)
 bond charge predicted
       N       E                     dE             d eps       ncg     rms          rms(c)
DAV:   1    -0.672255207737E+02   -0.20012E-01   -0.17395E+00   624   0.782E+00    0.357E-01
DAV:   2    -0.672225667601E+02    0.29540E-02   -0.28774E-02  1056   0.105E+00    0.177E-01
DAV:   3    -0.672221765946E+02    0.39017E-03   -0.46079E-03  1056   0.358E-01    0.684E-02
DAV:   4    -0.672221737247E+02    0.28699E-05   -0.59486E-04   792   0.122E-01    0.300E-02
DAV:   5    -0.672221790321E+02   -0.53074E-05   -0.45302E-05  1008   0.415E-02    0.526E-03
DAV:   6    -0.672221800483E+02   -0.10162E-05   -0.71560E-06   720   0.154E-02    0.296E-03
DAV:   7    -0.672221818988E+02   -0.18505E-05   -0.14242E-06   792   0.642E-03    0.667E-04
DAV:   8    -0.672221831325E+02   -0.12337E-05   -0.16480E-07   840   0.202E-03    0.412E-04
DAV:   9    -0.672221841524E+02   -0.10199E-05   -0.70403E-08  1008   0.855E-04    0.249E-04
DAV:  10    -0.672221846795E+02   -0.52710E-06   -0.30079E-08  1056   0.645E-04
   3 F= -.67900197E+02 E0= -.67900197E+02  d E =-.401250E-02
 curvature:  -0.16 expect dE=-0.895E-05 dE for cont linesearch -0.599E-12
 trial: gam= 0.00224 g(F)=  0.556E-04 g(S)=  0.000E+00 ort = 0.303E-06 (trialstep = 0.865E+00)
 search vector abs. value=  0.557E-04
 bond charge predicted
       N       E                     dE             d eps       ncg     rms          rms(c)
DAV:   1    -0.672221919711E+02   -0.78187E-05   -0.42826E-03   912   0.422E-01    0.144E-02
DAV:   2    -0.672221920392E+02   -0.68037E-07   -0.34830E-05   912   0.362E-02    0.846E-03
DAV:   3    -0.672221915649E+02    0.47427E-06   -0.23912E-06   624   0.965E-03
   4 F= -.67900203E+02 E0= -.67900203E+02  d E =-.532928E-05
 trial-energy change:   -0.000005  1 .order   -0.000005   -0.000048    0.000039
 step:   0.4795(harm=  0.4795)  dis= 0.00038  next Energy=   -67.900211 (dE=-0.133E-04)
 bond charge predicted
       N       E                     dE             d eps       ncg     rms          rms(c)
DAV:   1    -0.672221991010E+02   -0.70619E-05   -0.85178E-04   768   0.189E-01    0.589E-03
DAV:   2    -0.672221995459E+02   -0.44482E-06   -0.11252E-05   768   0.201E-02    0.371E-03
DAV:   3    -0.672221994529E+02    0.92960E-07   -0.61627E-07   624   0.488E-03
   5 F= -.67900211E+02 E0= -.67900211E+02  d E =-.139110E-04
 curvature:  -0.24 expect dE=-0.136E-04 dE for cont linesearch -0.904E-10
 trial: gam= 1.01630 g(F)=  0.566E-04 g(S)=  0.000E+00 ort = 0.145E-06 (trialstep = 0.383E+00)
 search vector abs. value=  0.114E-03
 bond charge predicted
       N       E                     dE             d eps       ncg     rms          rms(c)
DAV:   1    -0.672222143525E+02   -0.14807E-04   -0.14754E-03   624   0.255E-01    0.649E-03
DAV:   2    -0.672222153592E+02   -0.10067E-05   -0.13848E-05   768   0.207E-02    0.481E-03
DAV:   3    -0.672222155162E+02   -0.15706E-06   -0.45269E-07   624   0.372E-03
   6 F= -.67900228E+02 E0= -.67900228E+02  d E =-.166697E-04
 trial-energy change:   -0.000017  1 .order   -0.000017   -0.000022   -0.000012
 step:   0.8207(harm=  0.8207)  dis= 0.00080  next Energy=   -67.900235 (dE=-0.233E-04)
 bond charge predicted
       N       E                     dE             d eps       ncg     rms          rms(c)
DAV:   1    -0.672222203220E+02   -0.49628E-05   -0.19197E-03   768   0.291E-01    0.785E-03
DAV:   2    -0.672222213772E+02   -0.10552E-05   -0.15675E-05   816   0.210E-02    0.553E-03
DAV:   3    -0.672222216219E+02   -0.24471E-06   -0.52721E-07   624   0.415E-03
   7 F= -.67900235E+02 E0= -.67900235E+02  d E =-.234461E-04
 curvature:  -0.83 expect dE=-0.121E-05 dE for cont linesearch -0.222E-09
 trial: gam= 0.02674 g(F)=  0.146E-05 g(S)=  0.000E+00 ort = 0.175E-06 (trialstep = 0.471E+00)
 search vector abs. value=  0.155E-05
 bond charge predicted
       N       E                     dE             d eps       ncg     rms          rms(c)
DAV:   1    -0.672222221209E+02   -0.74372E-06   -0.26574E-05   792   0.314E-02    0.148E-03
DAV:   2    -0.672222220960E+02    0.24894E-07   -0.52374E-07   864   0.441E-03
   8 F= -.67900235E+02 E0= -.67900235E+02  d E =-.293018E-06
 trial-energy change:   -0.000000  1 .order   -0.000000   -0.000001    0.000000
 step:   0.3951(harm=  0.3951)  dis= 0.00008  next Energy=   -67.900235 (dE=-0.289E-06)
 reached required accuracy - stopping structural energy minimisation
