       N       E                     dE             d eps       ncg     rms          rms(c)
DAV:   1     0.105907541506E+03    0.10591E+03   -0.13663E+04  1824   0.448E+02
DAV:   2    -0.723833502362E+02   -0.17829E+03   -0.17714E+03  2256   0.947E+01
DAV:   3    -0.784133238556E+02   -0.60300E+01   -0.60284E+01  3360   0.227E+01
DAV:   4    -0.784184854221E+02   -0.51616E-02   -0.51615E-02  2064   0.684E-01
DAV:   5    -0.784184988838E+02   -0.13462E-04   -0.13461E-04  3264   0.413E-02    0.122E+01
DAV:   6    -0.750940951554E+02    0.33244E+01   -0.32363E+00  2880   0.426E+00    0.724E+00
DAV:   7    -0.738054764133E+02    0.12886E+01   -0.42600E+00  2880   0.477E+00    0.177E+00
DAV:   8    -0.737788966078E+02    0.26580E-01   -0.31004E-02  2976   0.578E-01    0.207E-01
DAV:   9    -0.737696318977E+02    0.92647E-02   -0.64831E-03  3024   0.153E-01    0.161E-01
DAV:  10    -0.737655109476E+02    0.41210E-02   -0.64422E-03  2784   0.134E-01    0.627E-02
DAV:  11    -0.737659409397E+02   -0.42999E-03   -0.93436E-04  2112   0.569E-02    0.406E-02
DAV:  12    -0.737674850354E+02   -0.15441E-02   -0.19646E-04  2592   0.279E-02    0.222E-02
DAV:  13    -0.737700349202E+02   -0.25499E-02   -0.68434E-04  2688   0.359E-02    0.960E-03
DAV:  14    -0.737703745987E+02   -0.33968E-03   -0.13074E-05  2928   0.692E-03    0.397E-03
DAV:  15    -0.737705967516E+02   -0.22215E-03   -0.21514E-05  2064   0.553E-03    0.155E-03
DAV:  16    -0.737706251109E+02   -0.28359E-04   -0.89808E-07  2400   0.177E-03    0.582E-04
DAV:  17    -0.737706270621E+02   -0.19512E-05   -0.10576E-07  2400   0.541E-04    0.121E-04
DAV:  18    -0.737706276459E+02   -0.58376E-06   -0.95797E-09  2112   0.183E-04
   1 F= -.74475666E+02 E0= -.74474882E+02  d E =-.744757E+02
