Lattice                                 
           1
     4.221874    2.437500    0.000000
    -4.221874    2.437500    0.000000
     0.000000    0.000000   15.000000
   B    C 
     4    11
Direct configuration=     1
   0.00415361  0.00267210  0.12034134
   0.35695335  0.00285503  0.09748893
   0.00423858  0.35550699  0.09749256
   0.65142295  0.65006557  0.09747688
   0.32808646  0.32671938  0.10030508
   0.68027775  0.00278085  0.10027562
   0.00416530  0.67883808  0.10026559
   0.11111044  0.38888856  0.33726667
   0.27777744  0.22222156  0.33726667
   0.11111044  0.88888856  0.33726667
   0.27777744  0.72222156  0.33726667
   0.61111044  0.38888856  0.33726667
   0.77777744  0.22222156  0.33726667
   0.61111044  0.88888856  0.33726667
   0.77777744  0.72222156  0.33726667
Direct configuration=     2
   0.00416553  0.00268967  0.11887470
   0.35553945  0.00279500  0.09787139
   0.00419186  0.35432569  0.09792885
   0.65272550  0.65125985  0.09789909
   0.32422106  0.32269217  0.10031566
   0.68441383  0.00279388  0.10033069
   0.00422398  0.68272348  0.10028538
   0.11103682  0.38899026  0.33728203
   0.27790915  0.22233749  0.33735779
   0.11129715  0.88902616  0.33729483
   0.27797001  0.72221918  0.33720714
   0.61107345  0.38883704  0.33720208
   0.77773939  0.22227213  0.33729124
   0.61092565  0.88883455  0.33734546
   0.77741671  0.72208190  0.33729299
Direct configuration=     3
   0.00415988  0.00268134  0.11956994
   0.35620969  0.00282346  0.09769009
   0.00421401  0.35488567  0.09772204
   0.65210805  0.65069372  0.09769895
   0.32605340  0.32460120  0.10031065
   0.68245318  0.00278770  0.10030459
   0.00419616  0.68088166  0.10027600
   0.11107172  0.38894205  0.33727475
   0.27784672  0.22228253  0.33731459
   0.11120865  0.88896093  0.33728148
   0.27787873  0.72222030  0.33723536
   0.61109099  0.38886146  0.33723270
   0.77775743  0.22224815  0.33727959
   0.61101325  0.88886015  0.33730811
   0.77758771  0.72214810  0.33728051
Direct configuration=     4
   0.00416651  0.00271630  0.11828107
   0.35672490  0.00276126  0.09804559
   0.00421166  0.35539724  0.09813124
   0.65165959  0.65011325  0.09809352
   0.32627030  0.32469245  0.10028381
   0.68232906  0.00278356  0.10031963
   0.00424055  0.68071142  0.10025788
   0.11109754  0.38887900  0.33729320
   0.27767637  0.22224680  0.33738958
   0.11097636  0.88885819  0.33731343
   0.27765412  0.72226924  0.33719550
   0.61108519  0.38892654  0.33719180
   0.77773457  0.22222541  0.33730204
   0.61115045  0.88897072  0.33737447
   0.77787241  0.72232705  0.33730657
Direct configuration=     5
   0.00418641  0.00282118  0.11441445
   0.35827053  0.00257467  0.09911208
   0.00420461  0.35693197  0.09935883
   0.65031423  0.64837186  0.09927724
   0.32692099  0.32496618  0.10020330
   0.68195668  0.00277112  0.10036477
   0.00437372  0.68020071  0.10020353
   0.11117500  0.38868987  0.33734855
   0.27716532  0.22213960  0.33761455
   0.11027949  0.88854998  0.33740928
   0.27698029  0.72241604  0.33707591
   0.61106778  0.38912178  0.33706910
   0.77766598  0.22215719  0.33736941
   0.61156203  0.88930242  0.33757355
   0.77872650  0.72286389  0.33738477
Direct configuration=     6
   0.00419380  0.00282435  0.11382865
   0.35843996  0.00255549  0.09923339
   0.00422040  0.35707056  0.09949582
   0.65018717  0.64819975  0.09940983
   0.32706479  0.32507742  0.10023796
   0.68183160  0.00275405  0.10041293
   0.00438622  0.68007262  0.10024151
   0.11108465  0.38883226  0.33735657
   0.27735103  0.22218826  0.33762960
   0.11057443  0.88877759  0.33742189
   0.27724785  0.72239230  0.33707943
   0.61101972  0.38908761  0.33707350
   0.77766808  0.22223767  0.33737706
   0.61131065  0.88916933  0.33758709
   0.77826921  0.72263920  0.33739413
Direct configuration=     7
   0.00421448  0.00283323  0.11218941
   0.35891407  0.00250180  0.09957283
   0.00426457  0.35745839  0.09987915
   0.64983159  0.64771812  0.09978085
   0.32746719  0.32538870  0.10033495
   0.68148162  0.00270628  0.10054767
   0.00442120  0.67971418  0.10034777
   0.11083185  0.38923071  0.33737901
   0.27787071  0.22232442  0.33767173
   0.11139975  0.88941450  0.33745719
   0.27799656  0.72232585  0.33708925
   0.61088523  0.38899198  0.33708580
   0.77767395  0.22246290  0.33739846
   0.61060720  0.88879691  0.33762495
   0.77698958  0.72201046  0.33742032
Direct configuration=     8
   0.00423377  0.00281314  0.11146288
   0.35896312  0.00249217  0.09966853
   0.00430459  0.35745351  0.09997898
   0.64983302  0.64769122  0.09987920
   0.32757432  0.32548812  0.10044479
   0.68138085  0.00266652  0.10066426
   0.00442921  0.67960809  0.10045991
   0.11083280  0.38922243  0.33738842
   0.27788521  0.22244896  0.33766262
   0.11138012  0.88935656  0.33746841
   0.27800722  0.72235220  0.33712590
   0.61087710  0.38894494  0.33712467
   0.77761207  0.22246755  0.33740467
   0.61059276  0.88883010  0.33761731
   0.77694339  0.72204296  0.33742879
Direct configuration=     9
   0.00429163  0.00275285  0.10928328
   0.35911026  0.00246328  0.09995563
   0.00442465  0.35743887  0.10027848
   0.64983732  0.64761053  0.10017425
   0.32789571  0.32578638  0.10077429
   0.68107855  0.00254722  0.10101402
   0.00445322  0.67928979  0.10079635
   0.11083565  0.38919756  0.33741668
   0.27792873  0.22282258  0.33763530
   0.11132123  0.88918271  0.33750206
   0.27803919  0.72243122  0.33723586
   0.61085272  0.38880383  0.33724127
   0.77742642  0.22248150  0.33742329
   0.61054945  0.88892964  0.33759438
   0.77680481  0.72214048  0.33745420
Direct configuration=    10
   0.00440737  0.00263229  0.10492408
   0.35940456  0.00240551  0.10052982
   0.00466477  0.35740960  0.10087748
   0.64984590  0.64744915  0.10076436
   0.32853849  0.32638290  0.10143331
   0.68047395  0.00230862  0.10171355
   0.00450125  0.67865320  0.10146922
   0.11084135  0.38914783  0.33747318
   0.27801575  0.22356982  0.33758065
   0.11120345  0.88883503  0.33756936
   0.27810314  0.72258928  0.33745577
   0.61080396  0.38852160  0.33747447
   0.77705514  0.22250939  0.33746053
   0.61046283  0.88912872  0.33754853
   0.77652764  0.72233550  0.33750501
Direct configuration=    11
   0.00444141  0.00259877  0.10401032
   0.35943657  0.00239633  0.10067421
   0.00470445  0.35741575  0.10101775
   0.64984205  0.64742589  0.10090564
   0.32853768  0.32636189  0.10155347
   0.68051782  0.00227349  0.10183493
   0.00452158  0.67862511  0.10159138
   0.11079625  0.38917245  0.33748517
   0.27779513  0.22322278  0.33757248
   0.11101194  0.88895482  0.33758172
   0.27785496  0.72254938  0.33750204
   0.61078514  0.38876994  0.33752035
   0.77716591  0.22247787  0.33747166
   0.61058513  0.88922388  0.33754046
   0.77685352  0.72241008  0.33751775
Direct configuration=    12
   0.00449068  0.00255026  0.10268813
   0.35948288  0.00238304  0.10088314
   0.00476187  0.35742465  0.10122072
   0.64983648  0.64739225  0.10111007
   0.32853652  0.32633150  0.10172733
   0.68058130  0.00222265  0.10201055
   0.00455100  0.67858447  0.10176814
   0.11073099  0.38920806  0.33750251
   0.27747591  0.22272063  0.33756066
   0.11073482  0.88912815  0.33759960
   0.27749585  0.72249165  0.33756901
   0.61075792  0.38912929  0.33758674
   0.77732619  0.22243227  0.33748776
   0.61076211  0.88936158  0.33752878
   0.77732505  0.72251799  0.33753618
Direct configuration=    13
   0.00449674  0.00254432  0.10274166
   0.35946825  0.00238368  0.10092010
   0.00474144  0.35744093  0.10124645
   0.64981883  0.64739061  0.10113937
   0.32839038  0.32616657  0.10168180
   0.68076571  0.00224883  0.10195519
   0.00456371  0.67871022  0.10172170
   0.11072611  0.38920368  0.33750293
   0.27744940  0.22262553  0.33757108
   0.11077340  0.88919310  0.33759754
   0.27748523  0.72252963  0.33755959
   0.61074308  0.38915346  0.33757334
   0.77736821  0.22250241  0.33749266
   0.61073213  0.88926094  0.33753711
   0.77732693  0.72252454  0.33753882
Direct configuration=    14
   0.00451491  0.00252647  0.10290224
   0.35942434  0.00238559  0.10103099
   0.00468015  0.35748976  0.10132363
   0.64976587  0.64738567  0.10122725
   0.32795199  0.32567178  0.10154523
   0.68131895  0.00232737  0.10178909
   0.00460186  0.67908747  0.10158236
   0.11071147  0.38919053  0.33750418
   0.27736990  0.22234025  0.33760232
   0.11088913  0.88938795  0.33759134
   0.27745338  0.72264359  0.33753134
   0.61069857  0.38922596  0.33753315
   0.77749425  0.22271285  0.33750736
   0.61064220  0.88895902  0.33756210
   0.77733257  0.72254420  0.33754676
Direct configuration=    15
   0.00451884  0.00250968  0.10293506
   0.35949520  0.00238293  0.10109324
   0.00465553  0.35753625  0.10136437
   0.64969048  0.64732545  0.10127469
   0.32792596  0.32561967  0.10148670
   0.68137823  0.00235955  0.10171097
   0.00461754  0.67912014  0.10152217
   0.11074030  0.38921084  0.33750745
   0.27738976  0.22245677  0.33761641
   0.11079961  0.88929614  0.33759015
   0.27743039  0.72258598  0.33751917
   0.61070795  0.38921906  0.33751738
   0.77742393  0.22258820  0.33751508
   0.61069885  0.88912707  0.33757605
   0.77737698  0.72254071  0.33755044
Direct configuration=    16
   0.00452253  0.00249391  0.10296588
   0.35956170  0.00238045  0.10115167
   0.00463242  0.35757989  0.10140261
   0.64961972  0.64726892  0.10131921
   0.32790152  0.32557076  0.10143177
   0.68143386  0.00238975  0.10163764
   0.00463226  0.67915081  0.10146568
   0.11076736  0.38922991  0.33751053
   0.27740840  0.22256613  0.33762964
   0.11071559  0.88920996  0.33758904
   0.27740880  0.72253192  0.33750774
   0.61071675  0.38921258  0.33750257
   0.77735793  0.22247121  0.33752233
   0.61075202  0.88928481  0.33758913
   0.77741867  0.72253744  0.33755389
Direct configuration=    17
   0.00452387  0.00247763  0.10296337
   0.35963780  0.00237806  0.10118854
   0.00462434  0.35759786  0.10142067
   0.64957099  0.64722119  0.10134310
   0.32799644  0.32565266  0.10140682
   0.68134466  0.00240044  0.10159425
   0.00463773  0.67907897  0.10143922
   0.11072422  0.38921183  0.33751521
   0.27740781  0.22256720  0.33763677
   0.11075085  0.88923358  0.33759021
   0.27743667  0.72255846  0.33750174
   0.61072311  0.38919086  0.33749699
   0.77738341  0.22252964  0.33752743
   0.61072442  0.88923305  0.33759951
   0.77736322  0.72254702  0.33755550
Direct configuration=    18
   0.00452464  0.00246838  0.10296195
   0.35968108  0.00237670  0.10120950
   0.00461975  0.35760808  0.10143094
   0.64954328  0.64719404  0.10135668
   0.32805042  0.32569923  0.10139264
   0.68129393  0.00240652  0.10156957
   0.00464085  0.67903811  0.10142418
   0.11069968  0.38920155  0.33751788
   0.27740748  0.22256781  0.33764083
   0.11077090  0.88924701  0.33759088
   0.27745251  0.72257355  0.33749832
   0.61072672  0.38917850  0.33749382
   0.77739790  0.22256287  0.33753033
   0.61070873  0.88920362  0.33760541
   0.77733169  0.72255246  0.33755642
Direct configuration=    19
   0.00453058  0.00245832  0.10294336
   0.35968334  0.00237719  0.10122376
   0.00462180  0.35758598  0.10143158
   0.64955673  0.64720321  0.10136151
   0.32807297  0.32571635  0.10139122
   0.68127889  0.00240452  0.10155344
   0.00464238  0.67901700  0.10142153
   0.11071632  0.38922460  0.33752198
   0.27739498  0.22253390  0.33764357
   0.11076561  0.88927226  0.33759268
   0.27743100  0.72257067  0.33749774
   0.61071277  0.38920936  0.33749452
   0.77739054  0.22255489  0.33753377
   0.61070408  0.88920625  0.33761126
   0.77734756  0.72254394  0.33755740
Direct configuration=    20
   0.00453558  0.00244985  0.10292771
   0.35968524  0.00237760  0.10123576
   0.00462353  0.35756736  0.10143213
   0.64956806  0.64721093  0.10136558
   0.32809196  0.32573077  0.10139003
   0.68126623  0.00240284  0.10153986
   0.00464367  0.67899923  0.10141931
   0.11073034  0.38924401  0.33752543
   0.27738446  0.22250534  0.33764587
   0.11076116  0.88929352  0.33759420
   0.27741288  0.72256825  0.33749726
   0.61070102  0.38923534  0.33749511
   0.77738435  0.22254817  0.33753667
   0.61070016  0.88920846  0.33761619
   0.77736093  0.72253677  0.33755823
Direct configuration=    21
   0.00454303  0.00244095  0.10290572
   0.35968012  0.00237793  0.10124683
   0.00462701  0.35754558  0.10143057
   0.64958544  0.64722289  0.10136789
   0.32809895  0.32573188  0.10139166
   0.68126917  0.00239934  0.10152705
   0.00464586  0.67898916  0.10141973
   0.11072922  0.38924404  0.33752937
   0.27738076  0.22251571  0.33764848
   0.11075227  0.88928955  0.33759603
   0.27740635  0.72257615  0.33749804
   0.61069469  0.38923542  0.33749670
   0.77737787  0.22255282  0.33754036
   0.61069686  0.88921115  0.33762125
   0.77736197  0.72254589  0.33755967
Direct configuration=    22
   0.00456539  0.00241425  0.10283976
   0.35966475  0.00237891  0.10128002
   0.00463747  0.35748023  0.10142589
   0.64963756  0.64725875  0.10137482
   0.32811993  0.32573520  0.10139653
   0.68127799  0.00238886  0.10148862
   0.00465242  0.67895893  0.10142100
   0.11072587  0.38924414  0.33754118
   0.27736965  0.22254683  0.33765631
   0.11072559  0.88927762  0.33760151
   0.27738675  0.72259985  0.33750039
   0.61067571  0.38923565  0.33750149
   0.77735841  0.22256674  0.33755143
   0.61068697  0.88921923  0.33763642
   0.77736509  0.72257326  0.33756398
Direct configuration=    23
   0.00461009  0.00236085  0.10270784
   0.35963402  0.00238088  0.10134639
   0.00465838  0.35734953  0.10141653
   0.64974182  0.64733047  0.10138868
   0.32816188  0.32574186  0.10140627
   0.68129564  0.00236788  0.10141178
   0.00466555  0.67889848  0.10142354
   0.11071916  0.38924433  0.33756481
   0.27734744  0.22260908  0.33767196
   0.11067224  0.88925376  0.33761248
   0.27734754  0.72264725  0.33750508
   0.61063776  0.38923612  0.33751105
   0.77731951  0.22259459  0.33757356
   0.61066719  0.88923538  0.33766676
   0.77737134  0.72262800  0.33757261
Direct configuration=    24
   0.00459479  0.00237912  0.10275299
   0.35964454  0.00238020  0.10132368
   0.00465122  0.35739427  0.10141973
   0.64970613  0.64730592  0.10138393
   0.32814752  0.32573958  0.10140294
   0.68128960  0.00237506  0.10143808
   0.00466106  0.67891917  0.10142267
   0.11072145  0.38924426  0.33755672
   0.27735504  0.22258777  0.33766660
   0.11069050  0.88926192  0.33760873
   0.27736096  0.72263102  0.33750347
   0.61065075  0.38923596  0.33750778
   0.77733282  0.22258506  0.33756598
   0.61067396  0.88922985  0.33765638
   0.77736920  0.72260927  0.33756966
Direct configuration=    25
   0.00460448  0.00237055  0.10272267
   0.35964892  0.00237822  0.10133316
   0.00465681  0.35738323  0.10141690
   0.64971467  0.64730547  0.10138486
   0.32815025  0.32573245  0.10140675
   0.68130109  0.00236985  0.10142634
   0.00466625  0.67891188  0.10142520
   0.11070195  0.38925152  0.33756090
   0.27735042  0.22259232  0.33767010
   0.11069345  0.88927623  0.33761096
   0.27736490  0.72262909  0.33750651
   0.61065243  0.38924018  0.33751055
   0.77733222  0.22259123  0.33757091
   0.61066630  0.88923924  0.33766103
   0.77734543  0.72260700  0.33757251
Direct configuration=    26
   0.00463353  0.00234482  0.10263169
   0.35966205  0.00237226  0.10136160
   0.00467357  0.35735011  0.10140841
   0.64974028  0.64730412  0.10138765
   0.32815844  0.32571105  0.10141818
   0.68133556  0.00235423  0.10139111
   0.00468182  0.67889003  0.10143282
   0.11064345  0.38927330  0.33757344
   0.27733653  0.22260594  0.33768058
   0.11070228  0.88931914  0.33761764
   0.27737673  0.72262330  0.33751560
   0.61065746  0.38925282  0.33751886
   0.77733041  0.22260976  0.33758570
   0.61064332  0.88926740  0.33767500
   0.77727411  0.72260019  0.33758106
Direct configuration=    27
   0.00469164  0.00229335  0.10244974
   0.35968832  0.00236035  0.10141849
   0.00470709  0.35728386  0.10139143
   0.64979150  0.64730142  0.10139322
   0.32817482  0.32566825  0.10144103
   0.68140451  0.00232298  0.10132065
   0.00471297  0.67884632  0.10144805
   0.11052645  0.38931685  0.33759852
   0.27730875  0.22263319  0.33770156
   0.11071996  0.88940496  0.33763100
   0.27740039  0.72261173  0.33753380
   0.61066754  0.38927810  0.33753548
   0.77732679  0.22264681  0.33761528
   0.61059736  0.88932372  0.33770293
   0.77713148  0.72258657  0.33759815
Direct configuration=    28
   0.00465385  0.00232682  0.10256807
   0.35967123  0.00236810  0.10138149
   0.00468529  0.35732694  0.10140247
   0.64975819  0.64730318  0.10138959
   0.32816416  0.32569608  0.10142617
   0.68135967  0.00234330  0.10136647
   0.00469271  0.67887474  0.10143814
   0.11060254  0.38928852  0.33758221
   0.27732681  0.22261547  0.33768792
   0.11070847  0.88934914  0.33762231
   0.27738500  0.72261925  0.33752197
   0.61066099  0.38926165  0.33752467
   0.77732914  0.22262271  0.33759604
   0.61062725  0.88928709  0.33768477
   0.77722424  0.72259543  0.33758703
Direct configuration=    29
   0.00466958  0.00231503  0.10250847
   0.35970390  0.00235783  0.10138987
   0.00469787  0.35733495  0.10139764
   0.64974964  0.64727218  0.10138876
   0.32817013  0.32567819  0.10143426
   0.68138056  0.00233206  0.10135352
   0.00470681  0.67886683  0.10144455
   0.11059660  0.38929941  0.33758874
   0.27731453  0.22262419  0.33769450
   0.11069481  0.88935801  0.33762702
   0.27736934  0.72263124  0.33753093
   0.61064621  0.38927360  0.33753162
   0.77731500  0.22263164  0.33760499
   0.61061611  0.88929653  0.33769044
   0.77721848  0.72260676  0.33759401
Direct configuration=    30
   0.00471677  0.00227967  0.10232969
   0.35980190  0.00232705  0.10141503
   0.00473561  0.35735899  0.10138314
   0.64972399  0.64717918  0.10138626
   0.32818801  0.32562450  0.10145853
   0.68144322  0.00229834  0.10131465
   0.00474908  0.67884310  0.10146378
   0.11057879  0.38933205  0.33760832
   0.27727766  0.22265035  0.33771426
   0.11065385  0.88938462  0.33764116
   0.27732234  0.72266719  0.33755781
   0.61060188  0.38930942  0.33755245
   0.77727257  0.22265842  0.33763185
   0.61058267  0.88932483  0.33770745
   0.77720121  0.72264074  0.33761495
Direct configuration=    31
   0.00481115  0.00220894  0.10197212
   0.35999789  0.00226547  0.10146533
   0.00481109  0.35740705  0.10135415
   0.64967269  0.64699319  0.10138127
   0.32822377  0.32551712  0.10150706
   0.68156855  0.00223091  0.10123692
   0.00483364  0.67879564  0.10150224
   0.11054317  0.38939734  0.33764749
   0.27720393  0.22270266  0.33775377
   0.11057193  0.88943783  0.33766944
   0.27722835  0.72273910  0.33761158
   0.61051321  0.38938106  0.33759413
   0.77718771  0.22271198  0.33768556
   0.61051580  0.88938143  0.33774146
   0.77716667  0.72270872  0.33765682
Direct configuration=    32
   0.00482227  0.00218390  0.10184664
   0.36002739  0.00221900  0.10145957
   0.00484425  0.35736568  0.10136699
   0.64972526  0.64697318  0.10138814
   0.32827458  0.32549987  0.10150259
   0.68157117  0.00219928  0.10123539
   0.00486790  0.67878870  0.10149846
   0.11049597  0.38940147  0.33766374
   0.27717705  0.22274170  0.33776457
   0.11053249  0.88944364  0.33768982
   0.27721234  0.72277280  0.33762836
   0.61049243  0.38938881  0.33761688
   0.77717601  0.22275716  0.33769414
   0.61048679  0.88938942  0.33775375
   0.77714366  0.72275383  0.33767029
Direct configuration=    33
   0.00485096  0.00211928  0.10152283
   0.36010353  0.00209908  0.10144470
   0.00492984  0.35725892  0.10140015
   0.64986093  0.64692152  0.10140586
   0.32840571  0.32545536  0.10149105
   0.68157792  0.00211765  0.10123143
   0.00495631  0.67877078  0.10148872
   0.11037415  0.38941213  0.33770568
   0.27710769  0.22284244  0.33779245
   0.11043071  0.88945863  0.33774242
   0.27717103  0.72285978  0.33767168
   0.61043878  0.38940881  0.33767559
   0.77714581  0.22287374  0.33771628
   0.61041193  0.88941005  0.33778544
   0.77708427  0.72287026  0.33770505
Direct configuration=    34
   0.00485816  0.00211240  0.10147699
   0.36010709  0.00208301  0.10144171
   0.00494282  0.35724509  0.10140663
   0.64988158  0.64691543  0.10140934
   0.32842252  0.32544651  0.10148725
   0.68158406  0.00210626  0.10123225
   0.00496967  0.67876265  0.10148548
   0.11036767  0.38942692  0.33771136
   0.27709664  0.22284656  0.33779708
   0.11042424  0.88947314  0.33774998
   0.27715863  0.72286385  0.33767786
   0.61042936  0.38942301  0.33768348
   0.77713213  0.22287591  0.33771955
   0.61040359  0.88942513  0.33778989
   0.77707141  0.72287256  0.33771049
Direct configuration=    35
   0.00487978  0.00209176  0.10133948
   0.36011778  0.00203483  0.10143274
   0.00498176  0.35720361  0.10142604
   0.64994353  0.64689716  0.10141977
   0.32847292  0.32541997  0.10147583
   0.68160248  0.00207208  0.10123470
   0.00500975  0.67873824  0.10147575
   0.11034825  0.38947128  0.33772840
   0.27706351  0.22285890  0.33781097
   0.11040482  0.88951666  0.33777269
   0.27712142  0.72287605  0.33769641
   0.61040109  0.38946563  0.33770716
   0.77709106  0.22288244  0.33772935
   0.61037856  0.88947038  0.33780325
   0.77703284  0.72287947  0.33772679
Direct configuration=    36
   0.00492303  0.00205048  0.10106447
   0.36013917  0.00193845  0.10141481
   0.00505965  0.35712064  0.10146487
   0.65006744  0.64686062  0.10144064
   0.32857373  0.32536688  0.10145300
   0.68163933  0.00200371  0.10123960
   0.00508992  0.67868942  0.10145630
   0.11030939  0.38956001  0.33776247
   0.27699724  0.22288357  0.33783875
   0.11036599  0.88960371  0.33781809
   0.27704699  0.72290047  0.33773349
   0.61034455  0.38955085  0.33775451
   0.77700892  0.22289550  0.33774895
   0.61032852  0.88956086  0.33782996
   0.77695569  0.72289327  0.33775941
Direct configuration=    37
   0.00500951  0.00196791  0.10051444
   0.36018194  0.00174571  0.10137895
   0.00521542  0.35695470  0.10154253
   0.65031525  0.64678753  0.10148236
   0.32877535  0.32526071  0.10140735
   0.68171302  0.00186698  0.10124940
   0.00525024  0.67859177  0.10141741
   0.11023169  0.38973746  0.33783062
   0.27686471  0.22293293  0.33789431
   0.11028833  0.88977781  0.33790890
   0.27689815  0.72294930  0.33780766
   0.61023147  0.38972131  0.33784922
   0.77684465  0.22292161  0.33778816
   0.61022842  0.88974183  0.33788338
   0.77680140  0.72292088  0.33782464
Direct configuration=    38
   0.00495302  0.00202184  0.10087371
   0.36015400  0.00187161  0.10140238
   0.00511367  0.35706309  0.10149181
   0.65015339  0.64683527  0.10145511
   0.32864365  0.32533006  0.10143717
   0.68166489  0.00195629  0.10124300
   0.00514552  0.67865555  0.10144281
   0.11028245  0.38962155  0.33778610
   0.27695128  0.22290069  0.33785802
   0.11033906  0.88966409  0.33784958
   0.27699537  0.72291740  0.33775922
   0.61030533  0.38960997  0.33778736
   0.77695195  0.22290455  0.33776255
   0.61029380  0.88962363  0.33784848
   0.77690218  0.72290285  0.33778203
Direct configuration=    39
   0.00499206  0.00201464  0.10076996
   0.36014684  0.00184767  0.10139739
   0.00514653  0.35705319  0.10151045
   0.65018482  0.64681052  0.10146643
   0.32866314  0.32529190  0.10141994
   0.68171425  0.00193187  0.10124640
   0.00517817  0.67860950  0.10142767
   0.11026784  0.38963729  0.33779654
   0.27693441  0.22292897  0.33787468
   0.11031468  0.88967950  0.33786407
   0.27696949  0.72295377  0.33777427
   0.61026520  0.38962318  0.33779950
   0.77692370  0.22293237  0.33777476
   0.61026115  0.88963352  0.33785873
   0.77688728  0.72293054  0.33779854
Direct configuration=    40
   0.00509200  0.00199622  0.10050437
   0.36012851  0.00178640  0.10138464
   0.00523063  0.35702786  0.10155816
   0.65026528  0.64674717  0.10149543
   0.32871303  0.32519422  0.10137584
   0.68184061  0.00186933  0.10125509
   0.00526176  0.67849161  0.10138890
   0.11023044  0.38967758  0.33782324
   0.27689125  0.22300138  0.33791734
   0.11025227  0.88971896  0.33790117
   0.27690323  0.72304687  0.33781279
   0.61016248  0.38965698  0.33783058
   0.77685140  0.22300358  0.33780602
   0.61017756  0.88965886  0.33788495
   0.77684912  0.72300143  0.33784080
Direct configuration=    41
   0.00510677  0.00199349  0.10046512
   0.36012580  0.00177734  0.10138275
   0.00524306  0.35702412  0.10156522
   0.65027717  0.64673781  0.10149972
   0.32872040  0.32517978  0.10136932
   0.68185928  0.00186009  0.10125637
   0.00527411  0.67847419  0.10138317
   0.11022491  0.38968353  0.33782719
   0.27688487  0.22301208  0.33792364
   0.11024305  0.88972479  0.33790665
   0.27689343  0.72306062  0.33781849
   0.61014730  0.38966198  0.33783518
   0.77684072  0.22301411  0.33781064
   0.61016521  0.88966260  0.33788882
   0.77684349  0.72301191  0.33784705
Direct configuration=    42
   0.00513518  0.00197619  0.10041063
   0.36016243  0.00177460  0.10138540
   0.00526191  0.35701789  0.10157551
   0.65027675  0.64670810  0.10150788
   0.32872513  0.32515747  0.10135068
   0.68188806  0.00184351  0.10125941
   0.00528695  0.67845443  0.10136635
   0.11018243  0.38969583  0.33783167
   0.27685364  0.22302085  0.33793919
   0.11021671  0.88974060  0.33791127
   0.27688343  0.72305896  0.33782590
   0.61015850  0.38968126  0.33783481
   0.77684086  0.22303528  0.33782360
   0.61015936  0.88968168  0.33789757
   0.77681821  0.72303180  0.33785945
Direct configuration=    43
   0.00517439  0.00195232  0.10033542
   0.36021299  0.00177081  0.10138906
   0.00528794  0.35700928  0.10158971
   0.65027618  0.64666710  0.10151915
   0.32873165  0.32512667  0.10132496
   0.68192778  0.00182062  0.10126360
   0.00530467  0.67842715  0.10134312
   0.11012381  0.38971282  0.33783786
   0.27681055  0.22303295  0.33796064
   0.11018035  0.88976243  0.33791766
   0.27686961  0.72305667  0.33783614
   0.61017396  0.38970787  0.33783431
   0.77684106  0.22306450  0.33784149
   0.61015130  0.88970802  0.33790964
   0.77678333  0.72305924  0.33787656
Direct configuration=    44
   0.00519625  0.00191335  0.10029396
   0.36028510  0.00177228  0.10139616
   0.00530219  0.35698838  0.10159408
   0.65027207  0.64663774  0.10152485
   0.32874226  0.32511654  0.10130364
   0.68194210  0.00180244  0.10126859
   0.00531084  0.67842383  0.10132372
   0.11012402  0.38973246  0.33784386
   0.27680502  0.22305507  0.33797474
   0.11017157  0.88977543  0.33792096
   0.27684910  0.72307879  0.33783918
   0.61014212  0.38972156  0.33783174
   0.77680963  0.22306551  0.33785503
   0.61013103  0.88972963  0.33792262
   0.77676626  0.72306545  0.33788620
Direct configuration=    45
   0.00521767  0.00187516  0.10025333
   0.36035577  0.00177372  0.10140312
   0.00531616  0.35696790  0.10159836
   0.65026805  0.64660897  0.10153043
   0.32875265  0.32510661  0.10128275
   0.68195613  0.00178462  0.10127349
   0.00531689  0.67842057  0.10130471
   0.11012423  0.38975172  0.33784974
   0.27679960  0.22307673  0.33798856
   0.11016296  0.88978816  0.33792420
   0.27682900  0.72310046  0.33784215
   0.61011092  0.38973497  0.33782922
   0.77677883  0.22306651  0.33786829
   0.61011118  0.88975080  0.33793533
   0.77674953  0.72307154  0.33789565
Direct configuration=    46
   0.00523247  0.00184664  0.10024131
   0.36037758  0.00177366  0.10140739
   0.00532114  0.35694833  0.10159163
   0.65027628  0.64660677  0.10152753
   0.32876254  0.32510213  0.10127347
   0.68197396  0.00177753  0.10127884
   0.00532476  0.67840721  0.10129631
   0.11011192  0.38975460  0.33785722
   0.27678596  0.22307961  0.33798977
   0.11014811  0.88980005  0.33792794
   0.27681824  0.72311625  0.33784074
   0.61009580  0.38973965  0.33783259
   0.77677757  0.22309411  0.33787279
   0.61009361  0.88974146  0.33794614
   0.77674961  0.72309044  0.33789568
Direct configuration=    47
   0.00525326  0.00180660  0.10022443
   0.36040821  0.00177356  0.10141338
   0.00532814  0.35692085  0.10158219
   0.65028785  0.64660368  0.10152345
   0.32877642  0.32509583  0.10126043
   0.68199900  0.00176758  0.10128636
   0.00533581  0.67838846  0.10128451
   0.11009464  0.38975866  0.33786772
   0.27676681  0.22308366  0.33799147
   0.11012725  0.88981674  0.33793318
   0.27680313  0.72313841  0.33783876
   0.61007456  0.38974623  0.33783732
   0.77677580  0.22313287  0.33787910
   0.61006893  0.88972834  0.33796133
   0.77674973  0.72311699  0.33789571
Direct configuration=    48
   0.00526538  0.00179046  0.10021865
   0.36041761  0.00177209  0.10141548
   0.00533253  0.35690658  0.10157571
   0.65029505  0.64660277  0.10151992
   0.32878368  0.32509091  0.10125500
   0.68201237  0.00176343  0.10129003
   0.00534355  0.67837615  0.10127958
   0.11008725  0.38976880  0.33787262
   0.27675749  0.22308941  0.33799177
   0.11012086  0.88982502  0.33793534
   0.27679419  0.72314071  0.33783891
   0.61007071  0.38975659  0.33784029
   0.77676583  0.22313394  0.33788236
   0.61006484  0.88974155  0.33796780
   0.77673821  0.72312003  0.33789588
Direct configuration=    49
   0.00530175  0.00174204  0.10020129
   0.36044582  0.00176770  0.10142179
   0.00534570  0.35686377  0.10155626
   0.65031667  0.64660003  0.10150931
   0.32880546  0.32507616  0.10123871
   0.68205248  0.00175097  0.10130107
   0.00536678  0.67833924  0.10126478
   0.11006507  0.38979922  0.33788732
   0.27672951  0.22310666  0.33799266
   0.11010171  0.88984987  0.33794182
   0.27676735  0.72314762  0.33783938
   0.61005914  0.38978768  0.33784919
   0.77673593  0.22313716  0.33789216
   0.61005256  0.88978120  0.33798721
   0.77670363  0.72312916  0.33789638
Direct configuration=    50
   0.00531509  0.00172427  0.10019492
   0.36045617  0.00176609  0.10142411
   0.00535054  0.35684806  0.10154912
   0.65032460  0.64659902  0.10150542
   0.32881344  0.32507074  0.10123273
   0.68206719  0.00174639  0.10130512
   0.00537530  0.67832569  0.10125936
   0.11005693  0.38981038  0.33789272
   0.27671925  0.22311299  0.33799299
   0.11009469  0.88985899  0.33794420
   0.27675751  0.72315015  0.33783956
   0.61005490  0.38979908  0.33785246