  16  16   0  16
  0.2005463E+02  0.4970000E-09  0.4970000E-09  0.1500000E-08  0.5000000E-15
  1.000000000000000E-004
  CAR 
 Lattice                                 
      9.82521146    -21.13790797  301     -0.29785427      1.00000000
    -21.138  0.0000E+00  0.0000E+00  0.0000E+00  0.0000E+00
    -21.035  0.0000E+00  0.0000E+00  0.0000E+00  0.0000E+00
    -20.931  0.0000E+00  0.0000E+00  0.0000E+00  0.0000E+00
    -20.828  0.0000E+00  0.0000E+00  0.0000E+00  0.0000E+00
    -20.725  0.0000E+00  0.0000E+00  0.0000E+00  0.0000E+00
    -20.622  0.0000E+00  0.0000E+00  0.0000E+00  0.0000E+00
    -20.519  0.0000E+00  0.0000E+00  0.0000E+00  0.0000E+00
    -20.415  0.0000E+00  0.0000E+00  0.0000E+00  0.0000E+00
    -20.312  0.5836E-19  0.5836E-19  0.6023E-20  0.6023E-20
    -20.209  0.3785E-14  0.3785E-14  0.3906E-15  0.3906E-15
    -20.106  0.3563E-10  0.3563E-10  0.3678E-11  0.3678E-11
    -20.003  0.4680E-07  0.4680E-07  0.4834E-08  0.4834E-08
    -19.899  0.9300E-05  0.9300E-05  0.9647E-06  0.9647E-06
    -19.796  0.3083E-03  0.3083E-03  0.3279E-04  0.3279E-04
    -19.693  0.2072E-02  0.2072E-02  0.2466E-03  0.2466E-03
    -19.590  0.4293E-02  0.4293E-02  0.6898E-03  0.6898E-03
    -19.487  0.4747E-02  0.4747E-02  0.1180E-02  0.1180E-02
    -19.383  0.5095E-02  0.5095E-02  0.1706E-02  0.1706E-02
    -19.280  0.4426E-02  0.4426E-02  0.2162E-02  0.2162E-02
    -19.177  0.5564E-02  0.5564E-02  0.2737E-02  0.2737E-02
    -19.074  0.4346E-02  0.4346E-02  0.3185E-02  0.3185E-02
    -18.970  0.4648E-02  0.4648E-02  0.3665E-02  0.3665E-02
    -18.867  0.6121E-02  0.6121E-02  0.4297E-02  0.4297E-02
    -18.764  0.3852E-02  0.3852E-02  0.4694E-02  0.4694E-02
    -18.661  0.4377E-02  0.4377E-02  0.5146E-02  0.5146E-02
    -18.558  0.6352E-02  0.6352E-02  0.5802E-02  0.5802E-02
    -18.454  0.5161E-02  0.5161E-02  0.6334E-02  0.6334E-02
    -18.351  0.3026E-02  0.3026E-02  0.6647E-02  0.6647E-02
    -18.248  0.5206E-02  0.5206E-02  0.7184E-02  0.7184E-02
    -18.145  0.6920E-02  0.6920E-02  0.7898E-02  0.7898E-02
    -18.042  0.4538E-02  0.4538E-02  0.8366E-02  0.8366E-02
    -17.938  0.3745E-02  0.3745E-02  0.8753E-02  0.8753E-02
    -17.835  0.3653E-02  0.3653E-02  0.9130E-02  0.9130E-02
    -17.732  0.7388E-02  0.7388E-02  0.9893E-02  0.9893E-02
    -17.629  0.6198E-02  0.6198E-02  0.1053E-01  0.1053E-01
    -17.526  0.3318E-02  0.3318E-02  0.1087E-01  0.1087E-01
    -17.422  0.3769E-02  0.3769E-02  0.1126E-01  0.1126E-01
    -17.319  0.4640E-02  0.4640E-02  0.1174E-01  0.1174E-01
    -17.216  0.7076E-02  0.7076E-02  0.1247E-01  0.1247E-01
    -17.113  0.6430E-02  0.6430E-02  0.1314E-01  0.1314E-01
    -17.009  0.4333E-02  0.4333E-02  0.1358E-01  0.1358E-01
    -16.906  0.2285E-02  0.2285E-02  0.1382E-01  0.1382E-01
    -16.803  0.4724E-02  0.4724E-02  0.1431E-01  0.1431E-01
    -16.700  0.7220E-02  0.7220E-02  0.1505E-01  0.1505E-01
    -16.597  0.6393E-02  0.6393E-02  0.1571E-01  0.1571E-01
    -16.493  0.5251E-02  0.5251E-02  0.1625E-01  0.1625E-01
    -16.390  0.4451E-02  0.4451E-02  0.1671E-01  0.1671E-01
    -16.287  0.2598E-02  0.2598E-02  0.1698E-01  0.1698E-01
    -16.184  0.3888E-02  0.3888E-02  0.1738E-01  0.1738E-01
    -16.081  0.9192E-02  0.9192E-02  0.1833E-01  0.1833E-01
    -15.977  0.7508E-02  0.7508E-02  0.1911E-01  0.1911E-01
    -15.874  0.8689E-02  0.8689E-02  0.2000E-01  0.2000E-01
    -15.771  0.1003E-01  0.1003E-01  0.2104E-01  0.2104E-01
    -15.668  0.1054E-01  0.1054E-01  0.2213E-01  0.2213E-01
    -15.565  0.9841E-02  0.9841E-02  0.2314E-01  0.2314E-01
    -15.461  0.1325E-01  0.1325E-01  0.2451E-01  0.2451E-01
    -15.358  0.1651E-01  0.1651E-01  0.2621E-01  0.2621E-01
    -15.255  0.1314E-01  0.1314E-01  0.2757E-01  0.2757E-01
    -15.152  0.1294E-01  0.1294E-01  0.2890E-01  0.2890E-01
    -15.048  0.1381E-01  0.1381E-01  0.3033E-01  0.3033E-01
    -14.945  0.1045E-01  0.1045E-01  0.3141E-01  0.3141E-01
    -14.842  0.9481E-02  0.9481E-02  0.3239E-01  0.3239E-01
    -14.739  0.1047E-01  0.1047E-01  0.3347E-01  0.3347E-01
    -14.636  0.1079E-01  0.1079E-01  0.3458E-01  0.3458E-01
    -14.532  0.8441E-02  0.8441E-02  0.3545E-01  0.3545E-01
    -14.429  0.9465E-02  0.9465E-02  0.3643E-01  0.3643E-01
    -14.326  0.7928E-02  0.7928E-02  0.3725E-01  0.3725E-01
    -14.223  0.9665E-02  0.9665E-02  0.3824E-01  0.3824E-01
    -14.120  0.1542E-01  0.1542E-01  0.3984E-01  0.3984E-01
    -14.016  0.1244E-01  0.1244E-01  0.4112E-01  0.4112E-01
    -13.913  0.6472E-02  0.6472E-02  0.4179E-01  0.4179E-01
    -13.810  0.5249E-02  0.5249E-02  0.4233E-01  0.4233E-01
    -13.707  0.4096E-02  0.4096E-02  0.4275E-01  0.4275E-01
    -13.604  0.4282E-02  0.4282E-02  0.4319E-01  0.4319E-01
    -13.500  0.7760E-02  0.7760E-02  0.4400E-01  0.4400E-01
    -13.397  0.8924E-02  0.8924E-02  0.4492E-01  0.4492E-01
    -13.294  0.6746E-02  0.6746E-02  0.4561E-01  0.4561E-01
    -13.191  0.6014E-02  0.6014E-02  0.4623E-01  0.4623E-01
    -13.087  0.7728E-02  0.7728E-02  0.4703E-01  0.4703E-01
    -12.984  0.8154E-02  0.8154E-02  0.4787E-01  0.4787E-01
    -12.881  0.6164E-02  0.6164E-02  0.4851E-01  0.4851E-01
    -12.778  0.8346E-02  0.8346E-02  0.4937E-01  0.4937E-01
    -12.675  0.8975E-02  0.8975E-02  0.5030E-01  0.5030E-01
    -12.571  0.1062E-01  0.1062E-01  0.5139E-01  0.5139E-01
    -12.468  0.1423E-01  0.1423E-01  0.5286E-01  0.5286E-01
    -12.365  0.1114E-01  0.1114E-01  0.5401E-01  0.5401E-01
    -12.262  0.1389E-01  0.1389E-01  0.5545E-01  0.5545E-01
    -12.159  0.1261E-01  0.1261E-01  0.5675E-01  0.5675E-01
    -12.055  0.1282E-01  0.1282E-01  0.5807E-01  0.5807E-01
    -11.952  0.2022E-01  0.2022E-01  0.6016E-01  0.6016E-01
    -11.849  0.1662E-01  0.1662E-01  0.6187E-01  0.6187E-01
    -11.746  0.1155E-01  0.1155E-01  0.6307E-01  0.6307E-01
    -11.643  0.1072E-01  0.1072E-01  0.6417E-01  0.6417E-01
    -11.539  0.9689E-02  0.9689E-02  0.6517E-01  0.6517E-01
    -11.436  0.8007E-02  0.8007E-02  0.6600E-01  0.6600E-01
    -11.333  0.4733E-02  0.4733E-02  0.6649E-01  0.6649E-01
    -11.230  0.3281E-02  0.3281E-02  0.6683E-01  0.6683E-01
    -11.126  0.5069E-02  0.5069E-02  0.6735E-01  0.6735E-01
    -11.023  0.5356E-02  0.5356E-02  0.6790E-01  0.6790E-01
    -10.920  0.5943E-02  0.5943E-02  0.6851E-01  0.6851E-01
    -10.817  0.7586E-02  0.7586E-02  0.6930E-01  0.6930E-01
    -10.714  0.1001E-01  0.1001E-01  0.7033E-01  0.7033E-01
    -10.610  0.9038E-02  0.9038E-02  0.7126E-01  0.7126E-01
    -10.507  0.1417E-01  0.1417E-01  0.7273E-01  0.7273E-01
    -10.404  0.2058E-01  0.2058E-01  0.7485E-01  0.7485E-01
    -10.301  0.1460E-01  0.1460E-01  0.7636E-01  0.7636E-01
    -10.198  0.6643E-02  0.6643E-02  0.7704E-01  0.7704E-01
    -10.094  0.4312E-02  0.4312E-02  0.7749E-01  0.7749E-01
     -9.991  0.1157E-01  0.1157E-01  0.7868E-01  0.7868E-01
     -9.888  0.1733E-01  0.1733E-01  0.8047E-01  0.8047E-01
     -9.785  0.9718E-02  0.9718E-02  0.8147E-01  0.8147E-01
     -9.682  0.5150E-02  0.5150E-02  0.8200E-01  0.8200E-01
     -9.578  0.7405E-02  0.7405E-02  0.8277E-01  0.8277E-01
     -9.475  0.1487E-01  0.1487E-01  0.8430E-01  0.8430E-01
     -9.372  0.1810E-01  0.1810E-01  0.8617E-01  0.8617E-01
     -9.269  0.1615E-01  0.1615E-01  0.8784E-01  0.8784E-01
     -9.166  0.1883E-01  0.1883E-01  0.8978E-01  0.8978E-01
     -9.062  0.1370E-01  0.1370E-01  0.9120E-01  0.9120E-01
     -8.959  0.9834E-02  0.9834E-02  0.9221E-01  0.9221E-01
     -8.856  0.1576E-01  0.1576E-01  0.9384E-01  0.9384E-01
     -8.753  0.1940E-01  0.1940E-01  0.9584E-01  0.9584E-01
     -8.649  0.1253E-01  0.1253E-01  0.9713E-01  0.9713E-01
     -8.546  0.8596E-02  0.8596E-02  0.9802E-01  0.9802E-01
     -8.443  0.1462E-01  0.1462E-01  0.9953E-01  0.9953E-01
     -8.340  0.2118E-01  0.2118E-01  0.1017E+00  0.1017E+00
     -8.237  0.1514E-01  0.1514E-01  0.1033E+00  0.1033E+00
     -8.133  0.8392E-02  0.8392E-02  0.1041E+00  0.1041E+00
     -8.030  0.1478E-01  0.1478E-01  0.1057E+00  0.1057E+00
     -7.927  0.1313E-01  0.1313E-01  0.1070E+00  0.1070E+00
     -7.824  0.1742E-01  0.1742E-01  0.1088E+00  0.1088E+00
     -7.721  0.2651E-01  0.2651E-01  0.1116E+00  0.1116E+00
     -7.617  0.1824E-01  0.1824E-01  0.1134E+00  0.1134E+00
     -7.514  0.1343E-01  0.1343E-01  0.1148E+00  0.1148E+00
     -7.411  0.1461E-01  0.1461E-01  0.1163E+00  0.1163E+00
     -7.308  0.1980E-01  0.1980E-01  0.1184E+00  0.1184E+00
     -7.205  0.1951E-01  0.1951E-01  0.1204E+00  0.1204E+00
     -7.101  0.1512E-01  0.1512E-01  0.1220E+00  0.1220E+00
     -6.998  0.1504E-01  0.1504E-01  0.1235E+00  0.1235E+00
     -6.895  0.1864E-01  0.1864E-01  0.1254E+00  0.1254E+00
     -6.792  0.2367E-01  0.2367E-01  0.1279E+00  0.1279E+00
     -6.688  0.2570E-01  0.2570E-01  0.1305E+00  0.1305E+00
     -6.585  0.2919E-01  0.2919E-01  0.1335E+00  0.1335E+00
     -6.482  0.2766E-01  0.2766E-01  0.1364E+00  0.1364E+00
     -6.379  0.2677E-01  0.2677E-01  0.1392E+00  0.1392E+00
     -6.276  0.2501E-01  0.2501E-01  0.1417E+00  0.1417E+00
     -6.172  0.2074E-01  0.2074E-01  0.1439E+00  0.1439E+00
     -6.069  0.1650E-01  0.1650E-01  0.1456E+00  0.1456E+00
     -5.966  0.1624E-01  0.1624E-01  0.1473E+00  0.1473E+00
     -5.863  0.1454E-01  0.1454E-01  0.1488E+00  0.1488E+00
     -5.760  0.1677E-01  0.1677E-01  0.1505E+00  0.1505E+00
     -5.656  0.2051E-01  0.2051E-01  0.1526E+00  0.1526E+00
     -5.553  0.1206E-01  0.1206E-01  0.1538E+00  0.1538E+00
     -5.450  0.7583E-02  0.7583E-02  0.1546E+00  0.1546E+00
     -5.347  0.1482E-01  0.1482E-01  0.1562E+00  0.1562E+00
     -5.244  0.2063E-01  0.2063E-01  0.1583E+00  0.1583E+00
     -5.140  0.1600E-01  0.1600E-01  0.1599E+00  0.1599E+00
     -5.037  0.1117E-01  0.1117E-01  0.1611E+00  0.1611E+00
     -4.934  0.1550E-01  0.1550E-01  0.1627E+00  0.1627E+00
     -4.831  0.1763E-01  0.1763E-01  0.1645E+00  0.1645E+00
     -4.727  0.1192E-01  0.1192E-01  0.1657E+00  0.1657E+00
     -4.624  0.9710E-02  0.9710E-02  0.1667E+00  0.1667E+00
     -4.521  0.1330E-01  0.1330E-01  0.1681E+00  0.1681E+00
     -4.418  0.2005E-01  0.2005E-01  0.1702E+00  0.1702E+00
     -4.315  0.2039E-01  0.2039E-01  0.1723E+00  0.1723E+00
     -4.211  0.1833E-01  0.1833E-01  0.1742E+00  0.1742E+00
     -4.108  0.1764E-01  0.1764E-01  0.1760E+00  0.1760E+00
     -4.005  0.1969E-01  0.1969E-01  0.1780E+00  0.1780E+00
     -3.902  0.2355E-01  0.2355E-01  0.1805E+00  0.1805E+00
     -3.799  0.2517E-01  0.2517E-01  0.1831E+00  0.1831E+00
     -3.695  0.2797E-01  0.2797E-01  0.1860E+00  0.1860E+00
     -3.592  0.2787E-01  0.2787E-01  0.1888E+00  0.1888E+00
     -3.489  0.2155E-01  0.2155E-01  0.1911E+00  0.1911E+00
     -3.386  0.1458E-01  0.1458E-01  0.1926E+00  0.1926E+00
     -3.283  0.1280E-01  0.1280E-01  0.1939E+00  0.1939E+00
     -3.179  0.1221E-01  0.1221E-01  0.1951E+00  0.1951E+00
     -3.076  0.1058E-01  0.1058E-01  0.1962E+00  0.1962E+00
     -2.973  0.1446E-01  0.1446E-01  0.1977E+00  0.1977E+00
     -2.870  0.1560E-01  0.1560E-01  0.1993E+00  0.1993E+00
     -2.766  0.1085E-01  0.1085E-01  0.2005E+00  0.2005E+00
     -2.663  0.8580E-02  0.8580E-02  0.2013E+00  0.2013E+00
     -2.560  0.1043E-01  0.1043E-01  0.2024E+00  0.2024E+00
     -2.457  0.1775E-01  0.1775E-01  0.2042E+00  0.2042E+00
     -2.354  0.1584E-01  0.1584E-01  0.2059E+00  0.2059E+00
     -2.250  0.7297E-02  0.7297E-02  0.2066E+00  0.2066E+00
     -2.147  0.8832E-02  0.8832E-02  0.2075E+00  0.2075E+00
     -2.044  0.9031E-02  0.9031E-02  0.2085E+00  0.2085E+00
     -1.941  0.7818E-02  0.7818E-02  0.2093E+00  0.2093E+00
     -1.838  0.7823E-02  0.7823E-02  0.2101E+00  0.2101E+00
     -1.734  0.8597E-02  0.8597E-02  0.2110E+00  0.2110E+00
     -1.631  0.8177E-02  0.8177E-02  0.2118E+00  0.2118E+00
     -1.528  0.8385E-02  0.8385E-02  0.2127E+00  0.2127E+00
     -1.425  0.9791E-02  0.9791E-02  0.2137E+00  0.2137E+00
     -1.322  0.5497E-02  0.5497E-02  0.2143E+00  0.2143E+00
     -1.218  0.5446E-02  0.5446E-02  0.2148E+00  0.2148E+00
     -1.115  0.6465E-02  0.6465E-02  0.2155E+00  0.2155E+00
     -1.012  0.7060E-02  0.7060E-02  0.2162E+00  0.2162E+00
     -0.909  0.7019E-02  0.7019E-02  0.2170E+00  0.2170E+00
     -0.805  0.4007E-02  0.4007E-02  0.2174E+00  0.2174E+00
     -0.702  0.1671E-02  0.1671E-02  0.2175E+00  0.2175E+00
     -0.599  0.1378E-02  0.1378E-02  0.2177E+00  0.2177E+00
     -0.496  0.3788E-02  0.3788E-02  0.2181E+00  0.2181E+00
     -0.393  0.3790E-02  0.3790E-02  0.2185E+00  0.2185E+00
     -0.289  0.3023E-02  0.3023E-02  0.2188E+00  0.2188E+00
     -0.186  0.2672E-02  0.2672E-02  0.2190E+00  0.2190E+00
     -0.083  0.3448E-02  0.3448E-02  0.2194E+00  0.2194E+00
      0.020  0.2985E-02  0.2985E-02  0.2197E+00  0.2197E+00
      0.123  0.3515E-02  0.3515E-02  0.2201E+00  0.2201E+00
      0.227  0.7743E-02  0.7743E-02  0.2209E+00  0.2209E+00
      0.330  0.1074E-01  0.1074E-01  0.2220E+00  0.2220E+00
      0.433  0.1143E-01  0.1143E-01  0.2232E+00  0.2232E+00
      0.536  0.9658E-02  0.9658E-02  0.2242E+00  0.2242E+00
      0.639  0.4906E-02  0.4906E-02  0.2247E+00  0.2247E+00
      0.743  0.6059E-02  0.6059E-02  0.2253E+00  0.2253E+00
      0.846  0.1152E-01  0.1152E-01  0.2265E+00  0.2265E+00
      0.949  0.7601E-02  0.7601E-02  0.2273E+00  0.2273E+00
      1.052  0.3384E-02  0.3384E-02  0.2276E+00  0.2276E+00
      1.156  0.7412E-02  0.7412E-02  0.2284E+00  0.2284E+00
      1.259  0.1572E-01  0.1572E-01  0.2300E+00  0.2300E+00
      1.362  0.1659E-01  0.1659E-01  0.2317E+00  0.2317E+00
      1.465  0.1356E-01  0.1356E-01  0.2331E+00  0.2331E+00
      1.568  0.1168E-01  0.1168E-01  0.2343E+00  0.2343E+00
      1.672  0.7759E-02  0.7759E-02  0.2351E+00  0.2351E+00
      1.775  0.9487E-02  0.9487E-02  0.2361E+00  0.2361E+00
      1.878  0.1071E-01  0.1071E-01  0.2372E+00  0.2372E+00
      1.981  0.1077E-01  0.1077E-01  0.2383E+00  0.2383E+00
      2.084  0.1347E-01  0.1347E-01  0.2397E+00  0.2397E+00
      2.188  0.8714E-02  0.8714E-02  0.2406E+00  0.2406E+00
      2.291  0.1093E-01  0.1093E-01  0.2417E+00  0.2417E+00
      2.394  0.9452E-02  0.9452E-02  0.2427E+00  0.2427E+00
      2.497  0.6129E-02  0.6129E-02  0.2433E+00  0.2433E+00
      2.600  0.1382E-01  0.1382E-01  0.2448E+00  0.2448E+00
      2.704  0.1323E-01  0.1323E-01  0.2461E+00  0.2461E+00
      2.807  0.1169E-01  0.1169E-01  0.2473E+00  0.2473E+00
      2.910  0.1153E-01  0.1153E-01  0.2485E+00  0.2485E+00
      3.013  0.8604E-02  0.8604E-02  0.2494E+00  0.2494E+00
      3.117  0.1169E-01  0.1169E-01  0.2506E+00  0.2506E+00
      3.220  0.1916E-01  0.1916E-01  0.2526E+00  0.2526E+00
      3.323  0.1978E-01  0.1978E-01  0.2546E+00  0.2546E+00
      3.426  0.1778E-01  0.1778E-01  0.2565E+00  0.2565E+00
      3.529  0.1141E-01  0.1141E-01  0.2577E+00  0.2577E+00
      3.633  0.1971E-01  0.1971E-01  0.2597E+00  0.2597E+00
      3.736  0.2179E-01  0.2179E-01  0.2619E+00  0.2619E+00
      3.839  0.2170E-01  0.2170E-01  0.2642E+00  0.2642E+00
      3.942  0.2039E-01  0.2039E-01  0.2663E+00  0.2663E+00
      4.045  0.1623E-01  0.1623E-01  0.2680E+00  0.2680E+00
      4.149  0.1707E-01  0.1707E-01  0.2697E+00  0.2697E+00
      4.252  0.2291E-01  0.2291E-01  0.2721E+00  0.2721E+00
      4.355  0.2839E-01  0.2839E-01  0.2750E+00  0.2750E+00
      4.458  0.2091E-01  0.2091E-01  0.2772E+00  0.2772E+00
      4.561  0.1681E-01  0.1681E-01  0.2789E+00  0.2789E+00
      4.665  0.2894E-01  0.2894E-01  0.2819E+00  0.2819E+00
      4.768  0.2798E-01  0.2798E-01  0.2848E+00  0.2848E+00
      4.871  0.1925E-01  0.1925E-01  0.2868E+00  0.2868E+00
      4.974  0.2252E-01  0.2252E-01  0.2891E+00  0.2891E+00
      5.078  0.3010E-01  0.3010E-01  0.2922E+00  0.2922E+00
      5.181  0.3283E-01  0.3283E-01  0.2956E+00  0.2956E+00
      5.284  0.2699E-01  0.2699E-01  0.2984E+00  0.2984E+00
      5.387  0.2481E-01  0.2481E-01  0.3009E+00  0.3009E+00
      5.490  0.2275E-01  0.2275E-01  0.3033E+00  0.3033E+00
      5.594  0.2704E-01  0.2704E-01  0.3061E+00  0.3061E+00
      5.697  0.2704E-01  0.2704E-01  0.3089E+00  0.3089E+00
      5.800  0.2375E-01  0.2375E-01  0.3113E+00  0.3113E+00
      5.903  0.2174E-01  0.2173E-01  0.3136E+00  0.3136E+00
      6.006  0.1834E-01  0.1834E-01  0.3155E+00  0.3155E+00
      6.110  0.2342E-01  0.2343E-01  0.3179E+00  0.3179E+00
      6.213  0.1953E-01  0.1953E-01  0.3199E+00  0.3199E+00
      6.316  0.1776E-01  0.1776E-01  0.3217E+00  0.3217E+00
      6.419  0.2062E-01  0.2062E-01  0.3238E+00  0.3238E+00
      6.522  0.2420E-01  0.2420E-01  0.3263E+00  0.3263E+00
      6.626  0.2333E-01  0.2333E-01  0.3288E+00  0.3288E+00
      6.729  0.2648E-01  0.2648E-01  0.3315E+00  0.3315E+00
      6.832  0.2962E-01  0.2962E-01  0.3345E+00  0.3345E+00
      6.935  0.2987E-01  0.2987E-01  0.3376E+00  0.3376E+00
      7.039  0.2804E-01  0.2804E-01  0.3405E+00  0.3405E+00
      7.142  0.2691E-01  0.2691E-01  0.3433E+00  0.3433E+00
      7.245  0.3002E-01  0.3002E-01  0.3464E+00  0.3464E+00
      7.348  0.3376E-01  0.3376E-01  0.3499E+00  0.3499E+00
      7.451  0.3710E-01  0.3710E-01  0.3537E+00  0.3537E+00
      7.555  0.4057E-01  0.4057E-01  0.3579E+00  0.3579E+00
      7.658  0.3155E-01  0.3155E-01  0.3612E+00  0.3612E+00
      7.761  0.3086E-01  0.3086E-01  0.3643E+00  0.3643E+00
      7.864  0.3519E-01  0.3519E-01  0.3680E+00  0.3680E+00
      7.967  0.2919E-01  0.2918E-01  0.3710E+00  0.3710E+00
      8.071  0.1853E-01  0.1853E-01  0.3729E+00  0.3729E+00
      8.174  0.1448E-01  0.1448E-01  0.3744E+00  0.3744E+00
      8.277  0.5003E-02  0.5002E-02  0.3749E+00  0.3749E+00
      8.380  0.5294E-03  0.5293E-03  0.3750E+00  0.3750E+00
      8.483  0.2820E-03  0.2820E-03  0.3750E+00  0.3750E+00
      8.587  0.8834E-04  0.8834E-04  0.3750E+00  0.3750E+00
      8.690  0.4415E-05  0.4416E-05  0.3750E+00  0.3750E+00
      8.793  0.3126E-07  0.3126E-07  0.3750E+00  0.3750E+00
      8.896  0.2917E-10  0.2918E-10  0.3750E+00  0.3750E+00
      9.000  0.3448E-14  0.3448E-14  0.3750E+00  0.3750E+00
      9.103  0.5836E-19  0.5836E-19  0.3750E+00  0.3750E+00
      9.206  0.0000E+00  0.0000E+00  0.3750E+00  0.3750E+00
      9.309  0.0000E+00  0.0000E+00  0.3750E+00  0.3750E+00
      9.412  0.0000E+00  0.0000E+00  0.3750E+00  0.3750E+00
      9.516  0.0000E+00  0.0000E+00  0.3750E+00  0.3750E+00
      9.619  0.0000E+00  0.0000E+00  0.3750E+00  0.3750E+00
      9.722  0.0000E+00  0.0000E+00  0.3750E+00  0.3750E+00
      9.825  0.0000E+00  0.0000E+00  0.3750E+00  0.3750E+00
