Lattice                                 
           1
     4.363902    2.519500    0.000000
    -4.363902    2.519500    0.000000
     0.000000    0.000000   15.000000
   B    C 
     2    14
Direct configuration=     1
   0.33833034  0.66916432  0.10000000
   0.67165522  0.33584146  0.10000000
   0.16373946  0.31999962  0.10000000
   0.32250218  0.16126397  0.10000000
   0.16376430  0.84376384  0.10000000
   0.84623863  0.16123684  0.10000000
   0.68749850  0.84373000  0.10000000
   0.84626736  0.68499594  0.10000000
   0.24999933  0.24999967  0.32633333
   0.41666633  0.08333267  0.32633333
   0.24999933  0.74999967  0.32633333
   0.41666633  0.58333267  0.32633333
   0.74999933  0.24999967  0.32633333
   0.91666633  0.08333267  0.32633333
   0.74999933  0.74999967  0.32633333
   0.91666633  0.58333267  0.32633333
Direct configuration=     2
   0.33844055  0.66905686  0.10014266
   0.67179318  0.33570235  0.10008349
   0.16718055  0.32683134  0.09994355
   0.32902531  0.16455687  0.09997464
   0.16701140  0.84051089  0.09995562
   0.84279803  0.16466004  0.09995962
   0.68068288  0.84031435  0.09994395
   0.84294931  0.67848458  0.09997489
   0.24986452  0.24959798  0.32640534
   0.41630231  0.08328195  0.32639589
   0.24982206  0.75018870  0.32626988
   0.41677194  0.58322348  0.32622959
   0.75003446  0.24995585  0.32620861
   0.91686746  0.08312398  0.32638143
   0.75040172  0.75014143  0.32640682
   0.91671299  0.58369467  0.32639068
Direct configuration=     3
   0.33835998  0.66913542  0.10003837
   0.67169232  0.33580405  0.10002246
   0.16466501  0.32183714  0.09998482
   0.32425670  0.16214965  0.09999318
   0.16463767  0.84288890  0.09998806
   0.84531322  0.16215757  0.09998914
   0.68566531  0.84281130  0.09998493
   0.84537490  0.68324459  0.09999325
   0.24996307  0.24989163  0.32635270
   0.41656842  0.08331902  0.32635016
   0.24995165  0.75005051  0.32631627
   0.41669474  0.58330330  0.32630543
   0.75000878  0.24998788  0.32629979
   0.91672043  0.08327654  0.32634627
   0.75010756  0.75003780  0.32635310
   0.91667888  0.58343004  0.32634876
Direct configuration=     4
   0.33835997  0.66913544  0.10003835
   0.67169230  0.33580407  0.10002244
   0.16466450  0.32183613  0.09998483
   0.32425574  0.16214917  0.09999318
   0.16463719  0.84288938  0.09998807
   0.84531373  0.16215707  0.09998914
   0.68566632  0.84281180  0.09998493
   0.84537539  0.68324555  0.09999325
   0.24996309  0.24989168  0.32635269
   0.41656848  0.08331903  0.32635015
   0.24995168  0.75005048  0.32631628
   0.41669472  0.58330331  0.32630545
   0.75000878  0.24998789  0.32629980
   0.91672040  0.08327657  0.32634626
   0.75010750  0.75003778  0.32635309
   0.91667888  0.58342998  0.32634875
Direct configuration=     5
   0.33836020  0.66914036  0.10013135
   0.67169139  0.33580529  0.10007663
   0.16461425  0.32184058  0.09994894
   0.32426142  0.16218713  0.09997328
   0.16461738  0.84289506  0.09996280
   0.84533979  0.16214903  0.09995884
   0.68565425  0.84286730  0.09994926
   0.84533244  0.68324406  0.09997367
   0.24995743  0.24983976  0.32640229
   0.41654197  0.08329403  0.32638818
   0.24993711  0.75006445  0.32627628
   0.41671651  0.58328165  0.32623783
   0.75001491  0.24997969  0.32622241
   0.91675819  0.08323804  0.32637797
   0.75015783  0.75004238  0.32640354
   0.91670360  0.58345654  0.32638338
Direct configuration=     6
   0.33836028  0.66914209  0.10016390
   0.67169107  0.33580572  0.10009559
   0.16459667  0.32184213  0.09993638
   0.32426341  0.16220041  0.09996631
   0.16461044  0.84289705  0.09995395
   0.84534891  0.16214621  0.09994824
   0.68565002  0.84288672  0.09993678
   0.84531741  0.68324354  0.09996682
   0.24995545  0.24982159  0.32641965
   0.41653270  0.08328528  0.32640149
   0.24993202  0.75006933  0.32626229
   0.41672413  0.58327406  0.32621418
   0.75001706  0.24997682  0.32619534
   0.91677141  0.08322456  0.32638906
   0.75017544  0.75004399  0.32642119
   0.91671225  0.58346583  0.32639549
Direct configuration=     7
   0.33828978  0.66919044  0.10024959
   0.67169494  0.33581509  0.10015123
   0.16476317  0.32189302  0.09990741
   0.32416340  0.16214840  0.09993872
   0.16457298  0.84295186  0.09994268
   0.84523083  0.16223902  0.09990339
   0.68563301  0.84276316  0.09990822
   0.84533247  0.68333060  0.09993970
   0.25001956  0.24989000  0.32646329
   0.41664004  0.08329775  0.32641378
   0.25001499  0.74998551  0.32623289
   0.41671601  0.58327806  0.32616982
   0.75005370  0.24994282  0.32615855
   0.91672896  0.08326496  0.32641746
   0.75010807  0.74997977  0.32646474
   0.91669675  0.58335487  0.32640518
Direct configuration=     8
   0.33833510  0.66915935  0.10019449
   0.67169245  0.33580907  0.10011546
   0.16465612  0.32186030  0.09992604
   0.32422769  0.16218183  0.09995646
   0.16459707  0.84291662  0.09994993
   0.84530674  0.16217935  0.09993223
   0.68564395  0.84284260  0.09992659
   0.84532279  0.68327463  0.09995714
   0.24997835  0.24984602  0.32643523
   0.41657103  0.08328973  0.32640588
   0.24996165  0.75003940  0.32625179
   0.41672123  0.58327549  0.32619834
   0.75003014  0.24996468  0.32618220
   0.91675625  0.08323899  0.32639920
   0.75015138  0.75002106  0.32643674
   0.91670671  0.58342621  0.32639895
Direct configuration=     9
   0.33831203  0.66918799  0.10022089
   0.67165075  0.33584576  0.10013428
   0.16461885  0.32188044  0.09991776
   0.32424158  0.16216843  0.09994308
   0.16456099  0.84293310  0.09995469
   0.84532055  0.16218865  0.09990557
   0.68561413  0.84287256  0.09991866
   0.84534566  0.68327160  0.09994408
   0.25000539  0.24986409  0.32644613
   0.41661926  0.08328358  0.32639485
   0.24999524  0.75000432  0.32624659
   0.41672956  0.58326577  0.32620027
   0.75004792  0.24994674  0.32619533
   0.91675212  0.08324251  0.32641005
   0.75013260  0.74999295  0.32644694
   0.91671204  0.58337684  0.32638751
Direct configuration=    10
   0.33832217  0.66917540  0.10020929
   0.67166908  0.33582963  0.10012601
   0.16463524  0.32187159  0.09992140
   0.32423548  0.16217432  0.09994896
   0.16457685  0.84292586  0.09995260
   0.84531448  0.16218456  0.09991729
   0.68562724  0.84285939  0.09992214
   0.84533560  0.68327293  0.09994982
   0.24999350  0.24985614  0.32644134
   0.41659806  0.08328628  0.32639970
   0.24998048  0.75001974  0.32624888
   0.41672590  0.58327005  0.32619942
   0.75004010  0.24995463  0.32618956
   0.91675393  0.08324096  0.32640528
   0.75014086  0.75000531  0.32644245
   0.91670970  0.58339854  0.32639254
Direct configuration=    11
   0.33829854  0.66919901  0.10022758
   0.67165234  0.33584961  0.10013731
   0.16461979  0.32188004  0.09991357
   0.32422061  0.16220898  0.09993987
   0.16457233  0.84293305  0.09995896
   0.84530210  0.16219841  0.09989349
   0.68562121  0.84288389  0.09991474
   0.84529369  0.68328482  0.09994112
   0.25000711  0.24983365  0.32644644
   0.41661061  0.08326577  0.32638747
   0.24999278  0.75000619  0.32624577
   0.41674558  0.58324961  0.32620962
   0.75005544  0.24993778  0.32620819
   0.91677517  0.08321887  0.32641555
   0.75016195  0.74999038  0.32644679
   0.91672942  0.58338528  0.32638021
Direct configuration=    12
   0.33829052  0.66920702  0.10023379
   0.67164665  0.33585639  0.10014115
   0.16461455  0.32188291  0.09991091
   0.32421556  0.16222075  0.09993678
   0.16457080  0.84293549  0.09996112
   0.84529790  0.16220311  0.09988541
   0.68561916  0.84289221  0.09991222
   0.84527945  0.68328886  0.09993817
   0.25001173  0.24982601  0.32644817
   0.41661487  0.08325881  0.32638332
   0.24999696  0.75000159  0.32624471
   0.41675226  0.58324268  0.32621309
   0.75006065  0.24993206  0.32621452
   0.91678238  0.08321136  0.32641903
   0.75016912  0.74998531  0.32644826
   0.91673612  0.58338078  0.32637602
Direct configuration=    13
   0.33828614  0.66921333  0.10024409
   0.67163785  0.33586474  0.10014192
   0.16460266  0.32191833  0.09990009
   0.32418643  0.16222370  0.09993567
   0.16453223  0.84296777  0.09996675
   0.84527183  0.16223420  0.09986734
   0.68558505  0.84290580  0.09990190
   0.84527763  0.68332328  0.09993749
   0.25002795  0.24979111  0.32644902
   0.41661975  0.08323608  0.32637885
   0.25001092  0.74998699  0.32624124
   0.41677222  0.58322133  0.32622566
   0.75008027  0.24991136  0.32622666
   0.91680739  0.08318465  0.32642990
   0.75020309  0.74996830  0.32644857
   0.91675725  0.58337438  0.32637151
Direct configuration=    14
   0.33828520  0.66921468  0.10024630
   0.67163597  0.33586653  0.10014209
   0.16460011  0.32192593  0.09989777
   0.32418018  0.16222433  0.09993543
   0.16452396  0.84297469  0.09996796
   0.84526624  0.16224086  0.09986346
   0.68557774  0.84290872  0.09989969
   0.84527724  0.68333066  0.09993734
   0.25003143  0.24978362  0.32644920
   0.41662080  0.08323120  0.32637789
   0.25001391  0.74998386  0.32624050
   0.41677650  0.58321675  0.32622835
   0.75008448  0.24990692  0.32622927
   0.91681275  0.08317892  0.32643223
   0.75021037  0.74996466  0.32644864
   0.91676178  0.58337301  0.32637055
Direct configuration=    15
   0.33826573  0.66923515  0.10024803
   0.67161778  0.33588661  0.10013567
   0.16457771  0.32194444  0.09988672
   0.32416049  0.16224747  0.09993963
   0.16450577  0.84299346  0.09997357
   0.84524726  0.16226198  0.09985086
   0.68556071  0.84293387  0.09988914
   0.84525369  0.68335071  0.09994197
   0.25005236  0.24976551  0.32644921
   0.41664339  0.08321118  0.32638042
   0.25003549  0.74996101  0.32623861
   0.41679545  0.58319655  0.32623735
   0.75010430  0.24988596  0.32623355
   0.91683067  0.08315980  0.32644043
   0.75022731  0.74994250  0.32644845
   0.91678055  0.58334912  0.32637306
Direct configuration=    16
   0.33820730  0.66929655  0.10025324
   0.67156321  0.33594686  0.10011643
   0.16451050  0.32199998  0.09985358
   0.32410143  0.16231690  0.09995222
   0.16445118  0.84304979  0.09999040
   0.84519033  0.16232535  0.09981303
   0.68550962  0.84300933  0.09985749
   0.84518306  0.68341086  0.09995587
   0.25011517  0.24971116  0.32644923
   0.41671117  0.08315112  0.32638802
   0.25010022  0.74989249  0.32623294
   0.41685229  0.58313594  0.32626434
   0.75016375  0.24982309  0.32624639
   0.91688443  0.08310243  0.32646502
   0.75027814  0.74987602  0.32644787
   0.91683685  0.58327744  0.32638060
Direct configuration=    17
   0.33809046  0.66941937  0.10026365
   0.67145408  0.33606735  0.10007793
   0.16437609  0.32211106  0.09978729
   0.32398330  0.16245575  0.09997740
   0.16434200  0.84316245  0.10002407
   0.84507647  0.16245210  0.09973737
   0.68540745  0.84316025  0.09979420
   0.84504180  0.68353117  0.09998366
   0.25024079  0.24960247  0.32644928
   0.41684673  0.08303099  0.32640321
   0.25022969  0.74975543  0.32622161
   0.41696597  0.58301473  0.32631833
   0.75028266  0.24969736  0.32627208
   0.91699194  0.08298769  0.32651419
   0.75037980  0.74974307  0.32644672
   0.91694945  0.58313410  0.32639566
Direct configuration=    18
   0.33814387  0.66936323  0.10025889
   0.67150397  0.33601227  0.10009553
   0.16443753  0.32206029  0.09981759
   0.32403730  0.16239228  0.09996589
   0.16439190  0.84311095  0.10000868
   0.84512852  0.16239416  0.09977195
   0.68545415  0.84309127  0.09982313
   0.84510637  0.68347618  0.09997095
   0.25018337  0.24965215  0.32644926
   0.41678477  0.08308590  0.32639627
   0.25017051  0.74981808  0.32622679
   0.41691401  0.58307014  0.32629365
   0.75022831  0.24975483  0.32626034
   0.91694279  0.08304014  0.32649171
   0.75033333  0.74980384  0.32644725
   0.91689798  0.58319962  0.32638878
Direct configuration=    19
   0.33813060  0.66937765  0.10025692
   0.67148860  0.33602773  0.10009208
   0.16442644  0.32207434  0.09981237
   0.32402577  0.16240379  0.09996749
   0.16437875  0.84312414  0.10001397
   0.84511676  0.16240747  0.09976313
   0.68544046  0.84310290  0.09981822
   0.84509595  0.68348912  0.09997283
   0.25019544  0.24963887  0.32645147
   0.41679731  0.08307229  0.32639797
   0.25018244  0.74980531  0.32622820
   0.41692717  0.58305628  0.32629564
   0.75024060  0.24974165  0.32626245
   0.91695573  0.08302649  0.32649400
   0.75034577  0.74979094  0.32644945
   0.91691089  0.58318638  0.32639046
Direct configuration=    20
   0.33809079  0.66942090  0.10025100
   0.67144252  0.33607408  0.10008175
   0.16439317  0.32211651  0.09979672
   0.32399119  0.16243831  0.09997229
   0.16433930  0.84316369  0.10002984
   0.84508150  0.16244738  0.09973667
   0.68539937  0.84313782  0.09980349
   0.84506469  0.68352795  0.09997846
   0.25023164  0.24959902  0.32645812
   0.41683493  0.08303145  0.32640309
   0.25021821  0.74976699  0.32623242
   0.41696663  0.58301469  0.32630161
   0.75027747  0.24970211  0.32626878
   0.91699453  0.08298556  0.32650086
   0.75038310  0.74975221  0.32645604
   0.91694964  0.58314668  0.32639551
Direct configuration=    21
   0.33801117  0.66950741  0.10023918
   0.67135034  0.33616679  0.10006109
   0.16432663  0.32220083  0.09976542
   0.32392202  0.16250734  0.09998189
   0.16426039  0.84324279  0.10006158
   0.84501098  0.16252720  0.09968374
   0.68531720  0.84320764  0.09977403
   0.84500216  0.68360560  0.09998973
   0.25030405  0.24951932  0.32647142
   0.41691016  0.08294977  0.32641332
   0.25028976  0.74969036  0.32624088
   0.41704556  0.58293151  0.32631354
   0.75035122  0.24962303  0.32628145
   0.91707214  0.08290369  0.32651457
   0.75045776  0.74967476  0.32646922
   0.91702712  0.58306727  0.32640560
Direct configuration=    22
   0.33785193  0.66968041  0.10021552
   0.67116600  0.33635222  0.10001977
   0.16419356  0.32236949  0.09970282
   0.32378369  0.16264542  0.10000109
   0.16410258  0.84340100  0.10012507
   0.84486993  0.16268684  0.09957789
   0.68515285  0.84334729  0.09971510
   0.84487711  0.68376092  0.10001226
   0.25044887  0.24935993  0.32649801
   0.41706064  0.08278642  0.32643379
   0.25043286  0.74953710  0.32625778
   0.41720343  0.58276516  0.32633740
   0.75049871  0.24946487  0.32630678
   0.91722736  0.08273995  0.32654199
   0.75060707  0.74951986  0.32649560
   0.91718210  0.58290845  0.32642580
Direct configuration=    23
   0.33753346  0.67002643  0.10016821
   0.67079730  0.33672306  0.09993713
   0.16392740  0.32270680  0.09957761
   0.32350702  0.16292158  0.10003948
   0.16378697  0.84371742  0.10025205
   0.84458783  0.16300612  0.09936617
   0.68482416  0.84362658  0.09959725
   0.84462701  0.68407154  0.10005733
   0.25073851  0.24904114  0.32655120
   0.41736159  0.08245972  0.32647472
   0.25071905  0.74923058  0.32629159
   0.41751915  0.58243246  0.32638511
   0.75079369  0.24914855  0.32635744
   0.91753779  0.08241248  0.32659683
   0.75090569  0.74921006  0.32654834
   0.91749205  0.58259081  0.32646618
Direct configuration=    24
   0.33751267  0.67004782  0.10016432
   0.67077852  0.33674394  0.09993234
   0.16390843  0.32272738  0.09956965
   0.32348461  0.16294400  0.10004159
   0.16376828  0.84373864  0.10026082
   0.84456584  0.16302815  0.09935182
   0.68480587  0.84364830  0.09958976
   0.84460435  0.68409396  0.10005989
   0.25075931  0.24901902  0.32655514
   0.41738130  0.08243845  0.32647762
   0.25073982  0.74920866  0.32629469
   0.41753897  0.58241130  0.32638744
   0.75081433  0.24912675  0.32636059
   0.91755778  0.08239113  0.32659966
   0.75092665  0.74918810  0.32655229
   0.91751195  0.58256973  0.32646905
Direct configuration=    25
   0.33745029  0.67011200  0.10015266
   0.67072220  0.33680655  0.09991795
   0.16385152  0.32278911  0.09954574
   0.32341738  0.16301126  0.10004792
   0.16371224  0.84380231  0.10028711
   0.84449984  0.16309425  0.09930877
   0.68475100  0.84371343  0.09956730
   0.84453639  0.68416125  0.10006757
   0.25082169  0.24895265  0.32656696
   0.41744042  0.08237464  0.32648631
   0.25080213  0.74914288  0.32630398
   0.41759840  0.58234784  0.32639442
   0.75087625  0.24906135  0.32637005
   0.91761774  0.08232708  0.32660814
   0.75098954  0.74912222  0.32656413
   0.91757165  0.58250650  0.32647766
Direct configuration=    26
   0.33732553  0.67024034  0.10012935
   0.67060955  0.33693177  0.09988919
   0.16373770  0.32291258  0.09949793
   0.32328291  0.16314579  0.10006058
   0.16360015  0.84392965  0.10033970
   0.84436785  0.16322645  0.09922266
   0.68464125  0.84384370  0.09952236
   0.84440045  0.68429582  0.10008293
   0.25094647  0.24881991  0.32659061
   0.41755867  0.08224701  0.32650370
   0.25092673  0.74901133  0.32632255
   0.41771728  0.58222092  0.32640838
   0.75100009  0.24893056  0.32638896
   0.91773766  0.08219899  0.32662510
   0.75111532  0.74899045  0.32658780
   0.91769105  0.58238004  0.32649487
Direct configuration=    27
   0.33707602  0.67049703  0.10008272
   0.67038424  0.33718222  0.09983165
   0.16351005  0.32315951  0.09940231
   0.32301398  0.16341485  0.10008589
   0.16337598  0.84418433  0.10044488
   0.84410387  0.16349086  0.09905045
   0.68442176  0.84410424  0.09943249
   0.84412858  0.68456497  0.10011366
   0.25119602  0.24855443  0.32663789
   0.41779517  0.08199177  0.32653848
   0.25117595  0.74874824  0.32635971
   0.41795502  0.58196707  0.32643631
   0.75124777  0.24866898  0.32642679
   0.91797751  0.08194280  0.32665901
   0.75136688  0.74872693  0.32663515
   0.91792985  0.58212711  0.32652929
Direct configuration=    28
   0.33657700  0.67101041  0.09998946
   0.66993363  0.33768312  0.09971659
   0.16305477  0.32365338  0.09921107
   0.32247612  0.16395297  0.10013653
   0.16292764  0.84469369  0.10065525
   0.84357591  0.16401966  0.09870602
   0.68398278  0.84462532  0.09925274
   0.84358484  0.68510325  0.10017510
   0.25169513  0.24802346  0.32673245
   0.41826817  0.08148128  0.32660803
   0.25167438  0.74822204  0.32643401
   0.41843052  0.58145938  0.32649215
   0.75174313  0.24814581  0.32650245
   0.91845720  0.08143041  0.32672684
   0.75187000  0.74819987  0.32672985
   0.91840746  0.58162127  0.32659813
Direct configuration=    29
   0.33645420  0.67114512  0.09996242
   0.66980566  0.33781846  0.09968979
   0.16288455  0.32379973  0.09915664
   0.32234238  0.16410284  0.10014962
   0.16277759  0.84484193  0.10071200
   0.84344616  0.16416762  0.09861068
   0.68383948  0.84479637  0.09920141
   0.84345089  0.68525045  0.10019123
   0.25183668  0.24787824  0.32675721
   0.41840985  0.08133515  0.32662996
   0.25181667  0.74807121  0.32645740
   0.41856683  0.58131430  0.32650782
   0.75188206  0.24799870  0.32652182
   0.91859414  0.08128470  0.32674393
   0.75200676  0.74804985  0.32675477
   0.91854476  0.58147065  0.32661998
Direct configuration=    30
   0.33623157  0.67138934  0.09991340
   0.66957365  0.33806382  0.09964121
   0.16257596  0.32406506  0.09905796
   0.32209991  0.16437456  0.10017336
   0.16250557  0.84511069  0.10081490
   0.84321094  0.16443588  0.09843783
   0.68357968  0.84510649  0.09910834
   0.84320804  0.68551731  0.10022046
   0.25209330  0.24761496  0.32680208
   0.41866672  0.08107023  0.32666971
   0.25207464  0.74779774  0.32649979
   0.41881396  0.58105126  0.32653621
   0.75213395  0.24773201  0.32655694
   0.91884240  0.08102053  0.32677493
   0.75225472  0.74777788  0.32679996
   0.91879368  0.58119759  0.32665959
Direct configuration=    31
   0.33578630  0.67187779  0.09981537
   0.66910962  0.33855455  0.09954404
   0.16195876  0.32459571  0.09886059
   0.32161498  0.16491798  0.10022084
   0.16196151  0.84564822  0.10102069
   0.84274049  0.16497238  0.09809214
   0.68306007  0.84572671  0.09892221
   0.84272233  0.68605104  0.10027892
   0.25260654  0.24708839  0.32689183
   0.41918046  0.08054039  0.32674922
   0.25259058  0.74725081  0.32658457
   0.41930822  0.58052517  0.32659301
   0.75263772  0.24719862  0.32662719
   0.91933891  0.08049218  0.32683691
   0.75275063  0.74723392  0.32689033
   0.91929154  0.58065147  0.32673881
Direct configuration=    32
   0.33607898  0.67155673  0.09987981
   0.66941463  0.33823199  0.09960791
   0.16236445  0.32424691  0.09899033
   0.32193373  0.16456078  0.10018963
   0.16231912  0.84529490  0.10088542
   0.84304972  0.16461973  0.09831937
   0.68340161  0.84531903  0.09904456
   0.84304159  0.68570021  0.10024049
   0.25226918  0.24743451  0.32683284
   0.41884278  0.08088866  0.32669696
   0.25225145  0.74761031  0.32652884
   0.41898334  0.58087097  0.32655568
   0.75230658  0.24754922  0.32658101
   0.91901255  0.08083947  0.32679617
   0.75242466  0.74759147  0.32683093
   0.91896429  0.58101044  0.32668674
Direct configuration=    33
   0.33607466  0.67156431  0.09988085
   0.66939941  0.33824297  0.09961721
   0.16236040  0.32426241  0.09898659
   0.32193956  0.16456478  0.10018909
   0.16230725  0.84530405  0.10087897
   0.84304874  0.16462330  0.09832293
   0.68338270  0.84531650  0.09904060
   0.84304491  0.68570107  0.10023995
   0.25227023  0.24743600  0.32682745
   0.41885687  0.08087947  0.32670150
   0.25225231  0.74760787  0.32653150
   0.41899532  0.58085961  0.32655937
   0.75230847  0.24754574  0.32657844
   0.91902182  0.08083105  0.32679499
   0.75242162  0.74758889  0.32682571
   0.91897441  0.58099729  0.32669152
Direct configuration=    34
   0.33606170  0.67158708  0.09988399
   0.66935375  0.33827590  0.09964511
   0.16234826  0.32430893  0.09897540
   0.32195703  0.16457679  0.10018747
   0.16227164  0.84533151  0.10085961
   0.84304579  0.16463399  0.09833361
   0.68332597  0.84530891  0.09902872
   0.84305487  0.68570363  0.10023833
   0.25227337  0.24744049  0.32681130
   0.41889914  0.08085191  0.32671512
   0.25225487  0.74760055  0.32653949
   0.41903128  0.58082553  0.32657045
   0.75231412  0.24753530  0.32657070
   0.91904964  0.08080578  0.32679147
   0.75241249  0.74758117  0.32681005
   0.91900475  0.58095785  0.32670586
Direct configuration=    35
   0.33604761  0.67159863  0.09988564
   0.66935112  0.33828209  0.09966152
   0.16235250  0.32431417  0.09897213
   0.32194577  0.16459173  0.10018510
   0.16227350  0.84534090  0.10084780
   0.84303262  0.16463750  0.09834201
   0.68332468  0.84530727  0.09902495
   0.84303825  0.68571072  0.10023585
   0.25228213  0.24743262  0.32680347
   0.41890449  0.08084666  0.32672041
   0.25226315  0.74759230  0.32654459
   0.41903596  0.58081996  0.32657441
   0.75232298  0.24752647  0.32656743
   0.91905446  0.08080015  0.32678733
   0.75242024  0.74757236  0.32680251
   0.91900921  0.58095180  0.32671153
Direct configuration=    36
   0.33600534  0.67163330  0.09989058
   0.66934322  0.33830065  0.09971074
   0.16236521  0.32432989  0.09896232
   0.32191198  0.16463654  0.10017797
   0.16227906  0.84536910  0.10081239
   0.84299313  0.16464801  0.09836724
   0.68332081  0.84530235  0.09901366
   0.84298839  0.68573200  0.10022844
   0.25230839  0.24740903  0.32677999
   0.41892054  0.08083091  0.32673625
   0.25228799  0.74756753  0.32655988
   0.41905003  0.58080324  0.32658629
   0.75234955  0.24749996  0.32655762
   0.91906895  0.08078324  0.32677492
   0.75244351  0.74754593  0.32677986
   0.91902259  0.58093365  0.32672852
Direct configuration=    37
   0.33599360  0.67164293  0.09989196
   0.66934103  0.33830581  0.09972441
   0.16236874  0.32433425  0.09895959
   0.32190259  0.16464898  0.10017599
   0.16228060  0.84537693  0.10080255
   0.84298216  0.16465094  0.09837425
   0.68331973  0.84530098  0.09901052
   0.84297455  0.68573791  0.10022638
   0.25231568  0.24740248  0.32677347
   0.41892500  0.08082654  0.32674065
   0.25229489  0.74756065  0.32656413
   0.41905393  0.58079860  0.32658959
   0.75235693  0.24749259  0.32655490
   0.91907297  0.08077855  0.32677148
   0.75244997  0.74753858  0.32677357
   0.91902630  0.58092861  0.32673324
Direct configuration=    38
   0.33598600  0.67165277  0.09989237
   0.66933676  0.33831037  0.09974980
   0.16233684  0.32434374  0.09895974
   0.32189684  0.16465868  0.10016942
   0.16226088  0.84539342  0.10078369
   0.84298074  0.16465707  0.09838980
   0.68330528  0.84532170  0.09900973
   0.84297727  0.68574845  0.10021947
   0.25232973  0.24738506  0.32676565
   0.41892858  0.08081803  0.32674424
   0.25230849  0.74754737  0.32657430
   0.41905862  0.58079237  0.32659084
   0.75237039  0.24747964  0.32655319
   0.91908150  0.08076838  0.32676090
   0.75246753  0.74752480  0.32676616
   0.91903321  0.58092348  0.32673737
Direct configuration=    39
   0.33597157  0.67167146  0.09989314
   0.66932865  0.33831904  0.09979802
   0.16227627  0.32436177  0.09896001
   0.32188591  0.16467711  0.10015693
   0.16222343  0.84542475  0.10074788
   0.84297805  0.16466873  0.09841934
   0.68327783  0.84536105  0.09900823
   0.84298244  0.68576846  0.10020634
   0.25235640  0.24735196  0.32675079
   0.41893537  0.08080188  0.32675107
   0.25233433  0.74752215  0.32659361
   0.41906754  0.58078053  0.32659322
   0.75239596  0.24745504  0.32654996
   0.91909769  0.08074907  0.32674082
   0.75250089  0.74749863  0.32675208
   0.91904634  0.58091372  0.32674522
Direct configuration=    40
   0.33596297  0.67167982  0.09989021
   0.66932311  0.33832550  0.09981615
   0.16226802  0.32437844  0.09896898
   0.32187563  0.16469367  0.10014737
   0.16221398  0.84543901  0.10073128
   0.84296078  0.16468049  0.09843676
   0.68326422  0.84536804  0.09901619
   0.84296810  0.68578003  0.10019614
   0.25236079  0.24734487  0.32675045
   0.41895220  0.08078535  0.32674784
   0.25233910  0.74751538  0.32660297
   0.41908451  0.58076422  0.32658770
   0.75240074  0.24744829  0.32655245
   0.91911500  0.08073243  0.32672787
   0.75250597  0.74749223  0.32675203
   0.91906355  0.58089756  0.32674227
Direct configuration=    41
   0.33593716  0.67170489  0.09988142
   0.66930650  0.33834488  0.09987053
   0.16224328  0.32442846  0.09899590
   0.32184481  0.16474337  0.10011866
   0.16218562  0.84548181  0.10068149
   0.84290897  0.16471577  0.09848902
   0.68322340  0.84538899  0.09904006
   0.84292506  0.68581474  0.10016555
   0.25237398  0.24732361  0.32674942
   0.41900270  0.08073577  0.32673816
   0.25235339  0.74749507  0.32663108
   0.41913541  0.58071529  0.32657113
   0.75241508  0.24742806  0.32655994
   0.91916693  0.08068250  0.32668902
   0.75252122  0.74747305  0.32675185
   0.91911518  0.58084906  0.32673345
Direct configuration=    42
   0.33592202  0.67172140  0.09987835
   0.66928995  0.33836225  0.09988042
   0.16223188  0.32443899  0.09900936
   0.32183238  0.16475905  0.10010928
   0.16217730  0.84549441  0.10066314
   0.84289763  0.16472654  0.09851158
   0.68321239  0.84540002  0.09905241
   0.84291134  0.68582626  0.10015527
   0.25239089  0.24730890  0.32674941
   0.41901216  0.08072617  0.32673460
   0.25237052  0.74747808  0.32663448
   0.41914459  0.58070444  0.32656579
   0.75243226  0.24741087  0.32656047
   0.91917408  0.08067372  0.32668011
   0.75253612  0.74745628  0.32675200
   0.91912314  0.58083795  0.32672998
Direct configuration=    43
   0.33587660  0.67177095  0.09986917
   0.66924030  0.33841436  0.09991011
   0.16219768  0.32447058  0.09904975
   0.32179508  0.16480609  0.10008112
   0.16215235  0.84553222  0.10060809
   0.84286361  0.16475885  0.09857926
   0.68317938  0.84543309  0.09908948
   0.84287017  0.68586084  0.10012443
   0.25244165  0.24726475  0.32674940
   0.41904057  0.08069737  0.32672391
   0.25242191  0.74742710  0.32664470
   0.41917213  0.58067189  0.32654976
   0.75248382  0.24735930  0.32656209
   0.91919555  0.08064739  0.32665337
   0.75258085  0.74740596  0.32675246
   0.91914701  0.58080460  0.32671958
Direct configuration=    44
   0.33578575  0.67187003  0.09985079
   0.66914102  0.33851858  0.09996949
   0.16212928  0.32453376  0.09913052
   0.32172050  0.16490017  0.10002480
   0.16210243  0.84560784  0.10049800
   0.84279558  0.16482346  0.09871461
   0.68311334  0.84549923  0.09916360
   0.84278784  0.68592999  0.10006277
   0.25254317  0.24717646  0.32674937
   0.41909737  0.08063978  0.32670255
   0.25252469  0.74732513  0.32666513
   0.41922721  0.58060679  0.32651769
   0.75258693  0.24725616  0.32656531
   0.91923849  0.08059473  0.32659990
   0.75267029  0.74730531  0.32675337
   0.91919477  0.58073792  0.32669878
Direct configuration=    45
   0.33584922  0.67180080  0.09986363
   0.66921039  0.33844576  0.09992801
   0.16217707  0.32448962  0.09907409
   0.32177261  0.16483444  0.10006415
   0.16213731  0.84555501  0.10057492
   0.84284311  0.16477832  0.09862005
   0.68315948  0.84545302  0.09911181
   0.84284536  0.68588168  0.10010585
   0.25247224  0.24723815  0.32674939
   0.41905768  0.08068002  0.32671748
   0.25245288  0.74739637  0.32665085
   0.41918873  0.58065227  0.32654010
   0.75251489  0.24732822  0.32656306
   0.91920849  0.08063152  0.32663726
   0.75260780  0.74737563  0.32675273
   0.91916141  0.58078451  0.32671331
Direct configuration=    46
   0.33583190  0.67181950  0.09986270
   0.66918897  0.33846664  0.09992844
   0.16215417  0.32450802  0.09909359
   0.32175460  0.16484372  0.10005494
   0.16211456  0.84557468  0.10054781
   0.84282777  0.16479753  0.09865592
   0.68314175  0.84547476  0.09912987
   0.84283999  0.68590333  0.10009521
   0.25248906  0.24721881  0.32674551
   0.41907499  0.08066044  0.32671605
   0.25247012  0.74737792  0.32664427
   0.41920659  0.58063355  0.32653798
   0.75253132  0.24731058  0.32655783
   0.91922694  0.08061210  0.32663592
   0.75262599  0.74735763  0.32674885
   0.91917997  0.58076613  0.32671180
Direct configuration=    47
   0.33577992  0.67187557  0.09985991
   0.66912471  0.33852926  0.09992973
   0.16208546  0.32456322  0.09915208
   0.32170059  0.16487156  0.10002732
   0.16204630  0.84563369  0.10046649
   0.84278173  0.16485514  0.09876356
   0.68308858  0.84553999  0.09918402
   0.84282387  0.68596828  0.10006331
   0.25253951  0.24716080  0.32673386
   0.41912690  0.08060170  0.32671178
   0.25252181  0.74732258  0.32662451
   0.41926017  0.58057739  0.32653162
   0.75258061  0.24725768  0.32654213