  16  16   0   0
  0.2046017E+02  0.5020000E-09  0.5020000E-09  0.1500000E-08  0.5000000E-15
  1.000000000000000E-004
  CAR 
 Lattice                                 
      9.81314618    -21.36714764  301     -0.93248815      1.00000000
    -21.367  0.0000E+00  0.0000E+00  0.0000E+00  0.0000E+00
    -21.263  0.0000E+00  0.0000E+00  0.0000E+00  0.0000E+00
    -21.159  0.0000E+00  0.0000E+00  0.0000E+00  0.0000E+00
    -21.055  0.0000E+00  0.0000E+00  0.0000E+00  0.0000E+00
    -20.951  0.0000E+00  0.0000E+00  0.0000E+00  0.0000E+00
    -20.847  0.0000E+00  0.0000E+00  0.0000E+00  0.0000E+00
    -20.744  0.0000E+00  0.0000E+00  0.0000E+00  0.0000E+00
    -20.640  0.0000E+00  0.0000E+00  0.0000E+00  0.0000E+00
    -20.536  0.2898E-19  0.2898E-19  0.3012E-20  0.3012E-20
    -20.432  0.2717E-14  0.2717E-14  0.2823E-15  0.2823E-15
    -20.328  0.2904E-10  0.2904E-10  0.3019E-11  0.3019E-11
    -20.224  0.4206E-07  0.4206E-07  0.4375E-08  0.4375E-08
    -20.120  0.8942E-05  0.8942E-05  0.9338E-06  0.9338E-06
    -20.016  0.3082E-03  0.3082E-03  0.3297E-04  0.3297E-04
    -19.912  0.2108E-02  0.2108E-02  0.2521E-03  0.2521E-03
    -19.808  0.4374E-02  0.4374E-02  0.7066E-03  0.7066E-03
    -19.704  0.4857E-02  0.4857E-02  0.1211E-02  0.1211E-02
    -19.600  0.5138E-02  0.5138E-02  0.1746E-02  0.1746E-02
    -19.496  0.4583E-02  0.4583E-02  0.2222E-02  0.2222E-02
    -19.392  0.5648E-02  0.5648E-02  0.2809E-02  0.2809E-02
    -19.288  0.4250E-02  0.4250E-02  0.3251E-02  0.3251E-02
    -19.185  0.5145E-02  0.5145E-02  0.3785E-02  0.3785E-02
    -19.081  0.5937E-02  0.5937E-02  0.4402E-02  0.4402E-02
    -18.977  0.3636E-02  0.3636E-02  0.4780E-02  0.4780E-02
    -18.873  0.5162E-02  0.5162E-02  0.5317E-02  0.5317E-02
    -18.769  0.6357E-02  0.6357E-02  0.5977E-02  0.5977E-02
    -18.665  0.4529E-02  0.4529E-02  0.6448E-02  0.6448E-02
    -18.561  0.3240E-02  0.3240E-02  0.6785E-02  0.6785E-02
    -18.457  0.6552E-02  0.6552E-02  0.7466E-02  0.7466E-02
    -18.353  0.6142E-02  0.6142E-02  0.8104E-02  0.8104E-02
    -18.249  0.4245E-02  0.4245E-02  0.8545E-02  0.8545E-02
    -18.145  0.3411E-02  0.3411E-02  0.8900E-02  0.8900E-02
    -18.041  0.6682E-02  0.6682E-02  0.9594E-02  0.9594E-02
    -17.937  0.1201E-01  0.1201E-01  0.1084E-01  0.1084E-01
    -17.833  0.1138E-01  0.1138E-01  0.1203E-01  0.1203E-01
    -17.729  0.1089E-01  0.1089E-01  0.1316E-01  0.1316E-01
    -17.626  0.1277E-01  0.1277E-01  0.1448E-01  0.1448E-01
    -17.522  0.1608E-01  0.1608E-01  0.1616E-01  0.1616E-01
    -17.418  0.2036E-01  0.2036E-01  0.1827E-01  0.1827E-01
    -17.314  0.2017E-01  0.2017E-01  0.2037E-01  0.2037E-01
    -17.210  0.1029E-01  0.1029E-01  0.2144E-01  0.2144E-01
    -17.106  0.4761E-02  0.4761E-02  0.2193E-01  0.2193E-01
    -17.002  0.7031E-02  0.7031E-02  0.2266E-01  0.2266E-01
    -16.898  0.6868E-02  0.6868E-02  0.2338E-01  0.2338E-01
    -16.794  0.5668E-02  0.5668E-02  0.2397E-01  0.2397E-01
    -16.690  0.4671E-02  0.4671E-02  0.2445E-01  0.2445E-01
    -16.586  0.3035E-02  0.3035E-02  0.2477E-01  0.2477E-01
    -16.482  0.3415E-02  0.3415E-02  0.2512E-01  0.2512E-01
    -16.378  0.8936E-02  0.8936E-02  0.2605E-01  0.2605E-01
    -16.274  0.6930E-02  0.6930E-02  0.2677E-01  0.2677E-01
    -16.170  0.4801E-02  0.4801E-02  0.2727E-01  0.2727E-01
    -16.066  0.4279E-02  0.4279E-02  0.2771E-01  0.2771E-01
    -15.963  0.4315E-02  0.4315E-02  0.2816E-01  0.2816E-01
    -15.859  0.3463E-02  0.3463E-02  0.2852E-01  0.2852E-01
    -15.755  0.7668E-02  0.7668E-02  0.2932E-01  0.2932E-01
    -15.651  0.1281E-01  0.1281E-01  0.3065E-01  0.3065E-01
    -15.547  0.1358E-01  0.1358E-01  0.3206E-01  0.3206E-01
    -15.443  0.1572E-01  0.1572E-01  0.3370E-01  0.3370E-01
    -15.339  0.1481E-01  0.1481E-01  0.3524E-01  0.3524E-01
    -15.235  0.1212E-01  0.1212E-01  0.3650E-01  0.3650E-01
    -15.131  0.1283E-01  0.1283E-01  0.3783E-01  0.3783E-01
    -15.027  0.1769E-01  0.1769E-01  0.3967E-01  0.3967E-01
    -14.923  0.1602E-01  0.1602E-01  0.4133E-01  0.4133E-01
    -14.819  0.1365E-01  0.1365E-01  0.4275E-01  0.4275E-01
    -14.715  0.1111E-01  0.1111E-01  0.4391E-01  0.4391E-01
    -14.611  0.9195E-02  0.9195E-02  0.4486E-01  0.4486E-01
    -14.507  0.1348E-01  0.1348E-01  0.4626E-01  0.4626E-01
    -14.404  0.1990E-01  0.1990E-01  0.4833E-01  0.4833E-01
    -14.300  0.1673E-01  0.1673E-01  0.5007E-01  0.5007E-01
    -14.196  0.1037E-01  0.1037E-01  0.5115E-01  0.5115E-01
    -14.092  0.8099E-02  0.8099E-02  0.5199E-01  0.5199E-01
    -13.988  0.7417E-02  0.7417E-02  0.5276E-01  0.5276E-01
    -13.884  0.8344E-02  0.8344E-02  0.5363E-01  0.5363E-01
    -13.780  0.7321E-02  0.7321E-02  0.5439E-01  0.5439E-01
    -13.676  0.4468E-02  0.4468E-02  0.5485E-01  0.5485E-01
    -13.572  0.4671E-02  0.4671E-02  0.5534E-01  0.5534E-01
    -13.468  0.4331E-02  0.4331E-02  0.5579E-01  0.5579E-01
    -13.364  0.5627E-02  0.5627E-02  0.5637E-01  0.5637E-01
    -13.260  0.5841E-02  0.5841E-02  0.5698E-01  0.5698E-01
    -13.156  0.6065E-02  0.6065E-02  0.5761E-01  0.5761E-01
    -13.052  0.7826E-02  0.7826E-02  0.5842E-01  0.5842E-01
    -12.948  0.6830E-02  0.6830E-02  0.5913E-01  0.5913E-01
    -12.845  0.8627E-02  0.8627E-02  0.6003E-01  0.6003E-01
    -12.741  0.6617E-02  0.6617E-02  0.6072E-01  0.6072E-01
    -12.637  0.6008E-02  0.6008E-02  0.6134E-01  0.6134E-01
    -12.533  0.6204E-02  0.6204E-02  0.6199E-01  0.6199E-01
    -12.429  0.3271E-02  0.3271E-02  0.6233E-01  0.6233E-01
    -12.325  0.7926E-02  0.7926E-02  0.6315E-01  0.6315E-01
    -12.221  0.7915E-02  0.7915E-02  0.6397E-01  0.6397E-01
    -12.117  0.6090E-02  0.6090E-02  0.6461E-01  0.6461E-01
    -12.013  0.1024E-01  0.1024E-01  0.6567E-01  0.6567E-01
    -11.909  0.1544E-01  0.1544E-01  0.6728E-01  0.6728E-01
    -11.805  0.1610E-01  0.1610E-01  0.6895E-01  0.6895E-01
    -11.701  0.1452E-01  0.1452E-01  0.7046E-01  0.7046E-01
    -11.597  0.1459E-01  0.1459E-01  0.7197E-01  0.7197E-01
    -11.493  0.1666E-01  0.1666E-01  0.7370E-01  0.7370E-01
    -11.389  0.1024E-01  0.1024E-01  0.7477E-01  0.7477E-01
    -11.286  0.8254E-02  0.8254E-02  0.7563E-01  0.7563E-01
    -11.182  0.1065E-01  0.1065E-01  0.7673E-01  0.7673E-01
    -11.078  0.1267E-01  0.1267E-01  0.7805E-01  0.7805E-01
    -10.974  0.8435E-02  0.8435E-02  0.7893E-01  0.7893E-01
    -10.870  0.5008E-02  0.5008E-02  0.7945E-01  0.7945E-01
    -10.766  0.1223E-01  0.1223E-01  0.8072E-01  0.8072E-01
    -10.662  0.1774E-01  0.1774E-01  0.8256E-01  0.8256E-01
    -10.558  0.1216E-01  0.1216E-01  0.8383E-01  0.8383E-01
    -10.454  0.5989E-02  0.5989E-02  0.8445E-01  0.8445E-01
    -10.350  0.8203E-02  0.8203E-02  0.8530E-01  0.8530E-01
    -10.246  0.1794E-01  0.1794E-01  0.8717E-01  0.8717E-01
    -10.142  0.1859E-01  0.1859E-01  0.8910E-01  0.8910E-01
    -10.038  0.9820E-02  0.9820E-02  0.9012E-01  0.9012E-01
     -9.934  0.8739E-02  0.8739E-02  0.9103E-01  0.9103E-01
     -9.830  0.7552E-02  0.7552E-02  0.9181E-01  0.9181E-01
     -9.727  0.1183E-01  0.1183E-01  0.9304E-01  0.9304E-01
     -9.623  0.1095E-01  0.1095E-01  0.9418E-01  0.9418E-01
     -9.519  0.1124E-01  0.1124E-01  0.9535E-01  0.9535E-01
     -9.415  0.9081E-02  0.9081E-02  0.9629E-01  0.9629E-01
     -9.311  0.8724E-02  0.8724E-02  0.9720E-01  0.9720E-01
     -9.207  0.1052E-01  0.1052E-01  0.9829E-01  0.9829E-01
     -9.103  0.4268E-02  0.4268E-02  0.9874E-01  0.9874E-01
     -8.999  0.3498E-02  0.3498E-02  0.9910E-01  0.9910E-01
     -8.895  0.1161E-01  0.1161E-01  0.1003E+00  0.1003E+00
     -8.791  0.1784E-01  0.1784E-01  0.1022E+00  0.1022E+00
     -8.687  0.1777E-01  0.1777E-01  0.1040E+00  0.1040E+00
     -8.583  0.9333E-02  0.9333E-02  0.1050E+00  0.1050E+00
     -8.479  0.8514E-02  0.8514E-02  0.1059E+00  0.1059E+00
     -8.375  0.9403E-02  0.9403E-02  0.1068E+00  0.1068E+00
     -8.271  0.1549E-01  0.1549E-01  0.1084E+00  0.1084E+00
     -8.167  0.2469E-01  0.2469E-01  0.1110E+00  0.1110E+00
     -8.064  0.2366E-01  0.2366E-01  0.1135E+00  0.1135E+00
     -7.960  0.1720E-01  0.1720E-01  0.1153E+00  0.1153E+00
     -7.856  0.1343E-01  0.1343E-01  0.1167E+00  0.1167E+00
     -7.752  0.1310E-01  0.1310E-01  0.1180E+00  0.1180E+00
     -7.648  0.2338E-01  0.2338E-01  0.1204E+00  0.1204E+00
     -7.544  0.2700E-01  0.2700E-01  0.1233E+00  0.1233E+00
     -7.440  0.2155E-01  0.2155E-01  0.1255E+00  0.1255E+00
     -7.336  0.2167E-01  0.2167E-01  0.1277E+00  0.1277E+00
     -7.232  0.2363E-01  0.2363E-01  0.1302E+00  0.1302E+00
     -7.128  0.2273E-01  0.2273E-01  0.1326E+00  0.1326E+00
     -7.024  0.2665E-01  0.2665E-01  0.1353E+00  0.1353E+00
     -6.920  0.2505E-01  0.2505E-01  0.1379E+00  0.1379E+00
     -6.816  0.1770E-01  0.1770E-01  0.1398E+00  0.1398E+00
     -6.712  0.2343E-01  0.2343E-01  0.1422E+00  0.1422E+00
     -6.608  0.2739E-01  0.2739E-01  0.1451E+00  0.1451E+00
     -6.505  0.2388E-01  0.2388E-01  0.1475E+00  0.1475E+00
     -6.401  0.2407E-01  0.2407E-01  0.1500E+00  0.1500E+00
     -6.297  0.2270E-01  0.2270E-01  0.1524E+00  0.1524E+00
     -6.193  0.2419E-01  0.2419E-01  0.1549E+00  0.1549E+00
     -6.089  0.1982E-01  0.1982E-01  0.1570E+00  0.1570E+00
     -5.985  0.1773E-01  0.1773E-01  0.1588E+00  0.1588E+00
     -5.881  0.1926E-01  0.1926E-01  0.1608E+00  0.1608E+00
     -5.777  0.2434E-01  0.2434E-01  0.1634E+00  0.1634E+00
     -5.673  0.2104E-01  0.2104E-01  0.1655E+00  0.1655E+00
     -5.569  0.2015E-01  0.2015E-01  0.1676E+00  0.1676E+00
     -5.465  0.2264E-01  0.2264E-01  0.1700E+00  0.1700E+00
     -5.361  0.2566E-01  0.2566E-01  0.1727E+00  0.1727E+00
     -5.257  0.2750E-01  0.2750E-01  0.1755E+00  0.1755E+00
     -5.153  0.1935E-01  0.1935E-01  0.1775E+00  0.1775E+00
     -5.049  0.9867E-02  0.9867E-02  0.1785E+00  0.1785E+00
     -4.946  0.1458E-01  0.1458E-01  0.1801E+00  0.1801E+00
     -4.842  0.1955E-01  0.1955E-01  0.1821E+00  0.1821E+00
     -4.738  0.1879E-01  0.1879E-01  0.1840E+00  0.1840E+00
     -4.634  0.1527E-01  0.1527E-01  0.1856E+00  0.1856E+00
     -4.530  0.1616E-01  0.1616E-01  0.1873E+00  0.1873E+00
     -4.426  0.1852E-01  0.1852E-01  0.1892E+00  0.1892E+00
     -4.322  0.2117E-01  0.2117E-01  0.1914E+00  0.1914E+00
     -4.218  0.2336E-01  0.2336E-01  0.1939E+00  0.1939E+00
     -4.114  0.3618E-01  0.3618E-01  0.1976E+00  0.1976E+00
     -4.010  0.3863E-01  0.3863E-01  0.2016E+00  0.2016E+00
     -3.906  0.3018E-01  0.3018E-01  0.2048E+00  0.2048E+00
     -3.802  0.1935E-01  0.1935E-01  0.2068E+00  0.2068E+00
     -3.698  0.1479E-01  0.1479E-01  0.2083E+00  0.2083E+00
     -3.594  0.1585E-01  0.1585E-01  0.2100E+00  0.2100E+00
     -3.490  0.1568E-01  0.1568E-01  0.2116E+00  0.2116E+00
     -3.387  0.2101E-01  0.2101E-01  0.2138E+00  0.2138E+00
     -3.283  0.1787E-01  0.1787E-01  0.2156E+00  0.2156E+00
     -3.179  0.1467E-01  0.1467E-01  0.2172E+00  0.2172E+00
     -3.075  0.1545E-01  0.1545E-01  0.2188E+00  0.2188E+00
     -2.971  0.1693E-01  0.1693E-01  0.2205E+00  0.2205E+00
     -2.867  0.2590E-01  0.2590E-01  0.2232E+00  0.2232E+00
     -2.763  0.1825E-01  0.1825E-01  0.2251E+00  0.2251E+00
     -2.659  0.1271E-01  0.1271E-01  0.2264E+00  0.2264E+00
     -2.555  0.1870E-01  0.1870E-01  0.2284E+00  0.2284E+00
     -2.451  0.2270E-01  0.2270E-01  0.2307E+00  0.2307E+00
     -2.347  0.1957E-01  0.1957E-01  0.2328E+00  0.2328E+00
     -2.243  0.1928E-01  0.1928E-01  0.2348E+00  0.2348E+00
     -2.139  0.1960E-01  0.1960E-01  0.2368E+00  0.2368E+00
     -2.035  0.1048E-01  0.1048E-01  0.2379E+00  0.2379E+00
     -1.931  0.2617E-02  0.2617E-02  0.2382E+00  0.2382E+00
     -1.827  0.5960E-02  0.5960E-02  0.2388E+00  0.2388E+00
     -1.724  0.7502E-02  0.7502E-02  0.2396E+00  0.2396E+00
     -1.620  0.4650E-02  0.4650E-02  0.2401E+00  0.2401E+00
     -1.516  0.6436E-02  0.6436E-02  0.2407E+00  0.2407E+00
     -1.412  0.6622E-02  0.6622E-02  0.2414E+00  0.2414E+00
     -1.308  0.4056E-02  0.4056E-02  0.2418E+00  0.2418E+00
     -1.204  0.1887E-02  0.1887E-02  0.2420E+00  0.2420E+00
     -1.100  0.3501E-03  0.3501E-03  0.2421E+00  0.2421E+00
     -0.996  0.2299E-03  0.2299E-03  0.2421E+00  0.2421E+00
     -0.892  0.1915E-02  0.1915E-02  0.2423E+00  0.2423E+00
     -0.788  0.3956E-02  0.3956E-02  0.2427E+00  0.2427E+00
     -0.684  0.4191E-02  0.4191E-02  0.2431E+00  0.2431E+00
     -0.580  0.8645E-02  0.8645E-02  0.2440E+00  0.2440E+00
     -0.476  0.1096E-01  0.1096E-01  0.2452E+00  0.2452E+00
     -0.372  0.8946E-02  0.8946E-02  0.2461E+00  0.2461E+00
     -0.268  0.1154E-01  0.1154E-01  0.2473E+00  0.2473E+00
     -0.165  0.1226E-01  0.1226E-01  0.2486E+00  0.2486E+00
     -0.061  0.8473E-02  0.8473E-02  0.2495E+00  0.2495E+00
      0.043  0.3644E-02  0.3644E-02  0.2498E+00  0.2498E+00
      0.147  0.1217E-02  0.1217E-02  0.2500E+00  0.2500E+00
      0.251  0.5332E-03  0.5332E-03  0.2500E+00  0.2500E+00
      0.355  0.3229E-02  0.3229E-02  0.2504E+00  0.2504E+00
      0.459  0.8910E-02  0.8910E-02  0.2513E+00  0.2513E+00
      0.563  0.9713E-02  0.9713E-02  0.2523E+00  0.2523E+00
      0.667  0.4745E-02  0.4745E-02  0.2528E+00  0.2528E+00
      0.771  0.3884E-02  0.3884E-02  0.2532E+00  0.2532E+00
      0.875  0.9983E-02  0.9983E-02  0.2542E+00  0.2542E+00
      0.979  0.1270E-01  0.1270E-01  0.2556E+00  0.2556E+00
      1.083  0.1290E-01  0.1290E-01  0.2569E+00  0.2569E+00
      1.187  0.8091E-02  0.8091E-02  0.2577E+00  0.2577E+00
      1.291  0.4057E-02  0.4057E-02  0.2582E+00  0.2582E+00
      1.394  0.5385E-02  0.5385E-02  0.2587E+00  0.2587E+00
      1.498  0.5015E-02  0.5015E-02  0.2592E+00  0.2592E+00
      1.602  0.5389E-02  0.5389E-02  0.2598E+00  0.2598E+00
      1.706  0.8129E-02  0.8129E-02  0.2606E+00  0.2606E+00
      1.810  0.1129E-01  0.1129E-01  0.2618E+00  0.2618E+00
      1.914  0.6944E-02  0.6944E-02  0.2625E+00  0.2625E+00
      2.018  0.2332E-02  0.2332E-02  0.2628E+00  0.2628E+00
      2.122  0.4084E-02  0.4084E-02  0.2632E+00  0.2632E+00
      2.226  0.1247E-01  0.1247E-01  0.2645E+00  0.2645E+00
      2.330  0.1686E-01  0.1686E-01  0.2663E+00  0.2663E+00
      2.434  0.1216E-01  0.1216E-01  0.2675E+00  0.2675E+00
      2.538  0.1082E-01  0.1082E-01  0.2686E+00  0.2686E+00
      2.642  0.1176E-01  0.1176E-01  0.2699E+00  0.2699E+00
      2.746  0.1164E-01  0.1164E-01  0.2711E+00  0.2711E+00
      2.850  0.1031E-01  0.1031E-01  0.2721E+00  0.2721E+00
      2.953  0.7761E-02  0.7758E-02  0.2730E+00  0.2730E+00
      3.057  0.1038E-01  0.1037E-01  0.2740E+00  0.2740E+00
      3.161  0.1349E-01  0.1349E-01  0.2754E+00  0.2754E+00
      3.265  0.1278E-01  0.1278E-01  0.2768E+00  0.2768E+00
      3.369  0.1357E-01  0.1358E-01  0.2782E+00  0.2782E+00
      3.473  0.9737E-02  0.9737E-02  0.2792E+00  0.2792E+00
      3.577  0.1004E-01  0.1003E-01  0.2802E+00  0.2802E+00
      3.681  0.1127E-01  0.1128E-01  0.2814E+00  0.2814E+00
      3.785  0.1104E-01  0.1104E-01  0.2825E+00  0.2825E+00
      3.889  0.1177E-01  0.1176E-01  0.2838E+00  0.2838E+00
      3.993  0.1559E-01  0.1559E-01  0.2854E+00  0.2854E+00
      4.097  0.1676E-01  0.1677E-01  0.2871E+00  0.2871E+00
      4.201  0.1185E-01  0.1185E-01  0.2884E+00  0.2884E+00
      4.305  0.1321E-01  0.1320E-01  0.2897E+00  0.2897E+00
      4.409  0.2076E-01  0.2076E-01  0.2919E+00  0.2919E+00
      4.512  0.1586E-01  0.1586E-01  0.2935E+00  0.2935E+00
      4.616  0.1081E-01  0.1082E-01  0.2947E+00  0.2947E+00
      4.720  0.1090E-01  0.1089E-01  0.2958E+00  0.2958E+00
      4.824  0.1833E-01  0.1831E-01  0.2977E+00  0.2977E+00
      4.928  0.1983E-01  0.1983E-01  0.2998E+00  0.2998E+00
      5.032  0.1769E-01  0.1770E-01  0.3016E+00  0.3016E+00
      5.136  0.1656E-01  0.1655E-01  0.3033E+00  0.3033E+00
      5.240  0.1724E-01  0.1725E-01  0.3051E+00  0.3051E+00
      5.344  0.1411E-01  0.1411E-01  0.3066E+00  0.3066E+00
      5.448  0.1842E-01  0.1841E-01  0.3085E+00  0.3085E+00
      5.552  0.2236E-01  0.2237E-01  0.3108E+00  0.3108E+00
      5.656  0.1412E-01  0.1413E-01  0.3123E+00  0.3123E+00
      5.760  0.1225E-01  0.1224E-01  0.3136E+00  0.3136E+00
      5.864  0.1594E-01  0.1594E-01  0.3152E+00  0.3152E+00
      5.968  0.1748E-01  0.1750E-01  0.3170E+00  0.3170E+00
      6.072  0.2047E-01  0.2047E-01  0.3192E+00  0.3192E+00
      6.175  0.2777E-01  0.2776E-01  0.3221E+00  0.3220E+00
      6.279  0.2983E-01  0.2983E-01  0.3252E+00  0.3251E+00
      6.383  0.2516E-01  0.2517E-01  0.3278E+00  0.3278E+00
      6.487  0.2170E-01  0.2171E-01  0.3300E+00  0.3300E+00
      6.591  0.1608E-01  0.1607E-01  0.3317E+00  0.3317E+00
      6.695  0.1819E-01  0.1816E-01  0.3336E+00  0.3336E+00
      6.799  0.3315E-01  0.3315E-01  0.3370E+00  0.3370E+00
      6.903  0.3248E-01  0.3250E-01  0.3404E+00  0.3404E+00
      7.007  0.2834E-01  0.2833E-01  0.3434E+00  0.3433E+00
      7.111  0.2996E-01  0.2996E-01  0.3465E+00  0.3465E+00
      7.215  0.3533E-01  0.3532E-01  0.3501E+00  0.3501E+00
      7.319  0.3226E-01  0.3224E-01  0.3535E+00  0.3535E+00
      7.423  0.2725E-01  0.2727E-01  0.3563E+00  0.3563E+00
      7.527  0.3682E-01  0.3681E-01  0.3601E+00  0.3601E+00
      7.631  0.3461E-01  0.3463E-01  0.3637E+00  0.3637E+00
      7.734  0.3043E-01  0.3041E-01  0.3669E+00  0.3669E+00
      7.838  0.2920E-01  0.2920E-01  0.3699E+00  0.3699E+00
      7.942  0.2207E-01  0.2209E-01  0.3722E+00  0.3722E+00
      8.046  0.1316E-01  0.1318E-01  0.3736E+00  0.3736E+00
      8.150  0.7260E-02  0.7270E-02  0.3744E+00  0.3744E+00
      8.254  0.1779E-02  0.1788E-02  0.3745E+00  0.3745E+00
      8.358  0.1756E-02  0.1753E-02  0.3747E+00  0.3747E+00
      8.462  0.2038E-02  0.2039E-02  0.3749E+00  0.3749E+00
      8.566  0.5460E-03  0.5493E-03  0.3750E+00  0.3750E+00
      8.670  0.2511E-04  0.2541E-04  0.3750E+00  0.3750E+00
      8.774  0.1641E-06  0.1671E-06  0.3750E+00  0.3750E+00
      8.878  0.1382E-09  0.1417E-09  0.3750E+00  0.3750E+00
      8.982  0.1433E-13  0.1478E-13  0.3750E+00  0.3750E+00
      9.086  0.0000E+00  0.0000E+00  0.3750E+00  0.3750E+00
      9.190  0.0000E+00  0.0000E+00  0.3750E+00  0.3750E+00
      9.293  0.0000E+00  0.0000E+00  0.3750E+00  0.3750E+00
      9.397  0.0000E+00  0.0000E+00  0.3750E+00  0.3750E+00
      9.501  0.0000E+00  0.0000E+00  0.3750E+00  0.3750E+00
      9.605  0.0000E+00  0.0000E+00  0.3750E+00  0.3750E+00
      9.709  0.0000E+00  0.0000E+00  0.3750E+00  0.3750E+00
      9.813  0.0000E+00  0.0000E+00  0.3750E+00  0.3750E+00
