   16   16    1    1
  0.2012733E+02  0.4979000E-09  0.4979000E-09  0.1500000E-08  0.5000000E-15
  1.000000000000000E-004
  CAR 
 BS                                      
     56    384     48
 
  0.0000000E+00  0.0000000E+00  0.0000000E+00  0.2604167E-02
      1        -19.768226   1.000000
      2        -15.896860   1.000000
      3        -14.656094   1.000000
      4        -14.651413   1.000000
      5        -14.651403   1.000000
      6        -13.528306   1.000000
      7        -13.528287   1.000000
      8        -13.525757   1.000000
      9        -11.706435   1.000000
     10        -11.521127   1.000000
     11        -11.521108   1.000000
     12         -9.320427   1.000000
     13         -9.320405   1.000000
     14         -8.083746   1.000000
     15         -7.323269   1.000000
     16         -6.805895   1.000000
     17         -6.805861   1.000000
     18         -6.805362   1.000000
     19         -6.547967   1.000000
     20         -3.516980   1.000000
     21         -3.516882   1.000000
     22         -2.855032   1.000000
     23         -2.821331   1.000000
     24         -2.821330   1.000000
     25         -1.529715   1.000000
     26         -1.529710   1.000000
     27         -0.368365   0.821178
     28         -0.368348   0.821114
     29         -0.236005   0.170553
     30          0.949705   0.000000
     31          0.949726   0.000000
     32          1.127730   0.000000
     33          1.127761   0.000000
     34          1.130579   0.000000
     35          1.763074   0.000000
     36          1.763076   0.000000
     37          2.990753   0.000000
     38          3.597859   0.000000
     39          4.495808   0.000000
     40          4.807466   0.000000
     41          6.614811   0.000000
     42          6.617676   0.000000
     43          6.617690   0.000000
     44          7.069597   0.000000
     45          7.662466   0.000000
     46          7.663787   0.000000
     47          7.677774   0.000000
     48          8.406631   0.000000
 
  0.2622047E-02  0.2622047E-02  0.0000000E+00  0.2604167E-02
      1        -19.768107   1.000000
      2        -15.896764   1.000000
      3        -14.657180   1.000000
      4        -14.652936   1.000000
      5        -14.651739   1.000000
      6        -13.527814   1.000000
      7        -13.526598   1.000000
      8        -13.524416   1.000000
      9        -11.710983   1.000000
     10        -11.521229   1.000000
     11        -11.516627   1.000000
     12         -9.320645   1.000000
     13         -9.320149   1.000000
     14         -8.083591   1.000000
     15         -7.322770   1.000000
     16         -6.806353   1.000000
     17         -6.805901   1.000000
     18         -6.805491   1.000000
     19         -6.547821   1.000000
     20         -3.517485   1.000000
     21         -3.517144   1.000000
     22         -2.855370   1.000000
     23         -2.821875   1.000000
     24         -2.821423   1.000000
     25         -1.531254   1.000000
     26         -1.531046   1.000000
     27         -0.375258   0.845506
     28         -0.367825   0.819177
     29         -0.228890   0.146261
     30          0.949068   0.000000
     31          0.949655   0.000000
     32          1.128092   0.000000
     33          1.128314   0.000000
     34          1.131485   0.000000
     35          1.764271   0.000000
     36          1.764653   0.000000
     37          2.990945   0.000000
     38          3.598056   0.000000
     39          4.496258   0.000000
     40          4.807655   0.000000
     41          6.615204   0.000000
     42          6.617938   0.000000
     43          6.618266   0.000000
     44          7.069731   0.000000
     45          7.662197   0.000000
     46          7.662756   0.000000
     47          7.678116   0.000000
     48          8.406553   0.000000
 
  0.5244094E-02  0.5244094E-02  0.0000000E+00  0.2604167E-02
      1        -19.767750   1.000000
      2        -15.896476   1.000000
      3        -14.661160   1.000000
      4        -14.657486   1.000000
      5        -14.652000   1.000000
      6        -13.527211   1.000000
      7        -13.521505   1.000000
      8        -13.519607   1.000000
      9        -11.723513   1.000000
     10        -11.521534   1.000000
     11        -11.504305   1.000000
     12         -9.321302   1.000000
     13         -9.319385   1.000000
     14         -8.083143   1.000000
     15         -7.321281   1.000000
     16         -6.807968   1.000000
     17         -6.806058   1.000000
     18         -6.805699   1.000000
     19         -6.547385   1.000000
     20         -3.519022   1.000000
     21         -3.517937   1.000000
     22         -2.856458   1.000000
     23         -2.823576   1.000000
     24         -2.821653   1.000000
     25         -1.535873   1.000000
     26         -1.535025   1.000000
     27         -0.392848   0.897263
     28         -0.366227   0.813168
     29         -0.210718   0.095165
     30          0.947193   0.000000
     31          0.949456   0.000000
     32          1.128779   0.000000
     33          1.130235   0.000000
     34          1.134278   0.000000
     35          1.767841   0.000000
     36          1.769365   0.000000
     37          2.991521   0.000000
     38          3.598644   0.000000
     39          4.497601   0.000000
     40          4.808219   0.000000
     41          6.616161   0.000000
     42          6.618598   0.000000
     43          6.620211   0.000000
     44          7.070108   0.000000
     45          7.661795   0.000000
     46          7.664334   0.000000
     47          7.679121   0.000000
     48          8.402792   0.000000
 
  0.7866142E-02  0.7866142E-02  0.0000000E+00  0.2604167E-02
      1        -19.767156   1.000000
      2        -15.895995   1.000000
      3        -14.668383   1.000000
      4        -14.664973   1.000000
      5        -14.651754   1.000000
      6        -13.526613   1.000000
      7        -13.513106   1.000000
      8        -13.511278   1.000000
      9        -11.741726   1.000000
     10        -11.522045   1.000000
     11        -11.486428   1.000000
     12         -9.322386   1.000000
     13         -9.318111   1.000000
     14         -8.082391   1.000000
     15         -7.318801   1.000000
     16         -6.810683   1.000000
     17         -6.806318   1.000000
     18         -6.805972   1.000000
     19         -6.546656   1.000000
     20         -3.521546   1.000000
     21         -3.519247   1.000000
     22         -2.858423   1.000000
     23         -2.826417   1.000000
     24         -2.821955   1.000000
     25         -1.543519   1.000000
     26         -1.541603   1.000000
     27         -0.416223   0.944832
     28         -0.363640   0.803183
     29         -0.186416   0.049137
     30          0.944166   0.000000
     31          0.949182   0.000000
     32          1.129682   0.000000
     33          1.133678   0.000000
     34          1.138896   0.000000
     35          1.773746   0.000000
     36          1.777159   0.000000
     37          2.992483   0.000000
     38          3.599623   0.000000
     39          4.499833   0.000000
     40          4.809161   0.000000
     41          6.617532   0.000000
     42          6.619763   0.000000
     43          6.623687   0.000000
     44          7.070741   0.000000
     45          7.661368   0.000000
     46          7.667011   0.000000
     47          7.680695   0.000000
     48          8.398065   0.000000
 
  0.1048819E-01  0.1048819E-01  0.0000000E+00  0.2604167E-02
      1        -19.766316   1.000000
      2        -15.895322   1.000000
      3        -14.678574   1.000000
      4        -14.675273   1.000000
      5        -14.651149   1.000000
      6        -13.525876   1.000000
      7        -13.501526   1.000000
      8        -13.499699   1.000000
      9        -11.763583   1.000000
     10        -11.522754   1.000000
     11        -11.465037   1.000000
     12         -9.323895   1.000000
     13         -9.316325   1.000000
     14         -8.081305   1.000000
     15         -7.315336   1.000000
     16         -6.814494   1.000000
     17         -6.806652   1.000000
     18         -6.806312   1.000000
     19         -6.545630   1.000000
     20         -3.525078   1.000000
     21         -3.521078   1.000000
     22         -2.861395   1.000000
     23         -2.830379   1.000000
     24         -2.822141   1.000000
     25         -1.554118   1.000000
     26         -1.550705   1.000000
     27         -0.442520   0.975499
     28         -0.360162   0.789260
     29         -0.158908   0.020561
     30          0.940131   0.000000
     31          0.948923   0.000000
     32          1.130845   0.000000
     33          1.138668   0.000000
     34          1.145200   0.000000
     35          1.781919   0.000000
     36          1.787954   0.000000
     37          2.993831   0.000000
     38          3.601002   0.000000
     39          4.502961   0.000000
     40          4.810482   0.000000
     41          6.619278   0.000000
     42          6.621393   0.000000
     43          6.628722   0.000000
     44          7.071675   0.000000
     45          7.660962   0.000000
     46          7.670704   0.000000
     47          7.682742   0.000000
     48          8.391146   0.000000
 
  0.1311024E-01  0.1311024E-01  0.0000000E+00  0.2604167E-02
      1        -19.765237   1.000000
      2        -15.894455   1.000000
      3        -14.691472   1.000000
      4        -14.688220   1.000000
      5        -14.650276   1.000000
      6        -13.524961   1.000000
      7        -13.486925   1.000000
      8        -13.485072   1.000000
      9        -11.787736   1.000000
     10        -11.523666   1.000000
     11        -11.441485   1.000000
     12         -9.325817   1.000000
     13         -9.314027   1.000000
     14         -8.079911   1.000000
     15         -7.310897   1.000000
     16         -6.819394   1.000000
     17         -6.807082   1.000000
     18         -6.806744   1.000000
     19         -6.544310   1.000000
     20         -3.529613   1.000000
     21         -3.523433   1.000000
     22         -2.865470   1.000000
     23         -2.835393   1.000000
     24         -2.822045   1.000000
     25         -1.567571   1.000000
     26         -1.562231   1.000000
     27         -0.470418   0.990939
     28         -0.355929   0.771559
     29         -0.129592   0.007007
     30          0.935267   0.000000
     31          0.948789   0.000000
     32          1.132294   0.000000
     33          1.145223   0.000000
     34          1.153133   0.000000
     35          1.792275   0.000000
     36          1.801658   0.000000
     37          2.995567   0.000000
     38          3.602774   0.000000
     39          4.506979   0.000000
     40          4.812184   0.000000
     41          6.621462   0.000000
     42          6.623515   0.000000
     43          6.635275   0.000000
     44          7.072874   0.000000
     45          7.660387   0.000000
     46          7.675522   0.000000
     47          7.685157   0.000000
     48          8.381857   0.000000
 
  0.1573228E-01  0.1573228E-01  0.0000000E+00  0.2604167E-02
      1        -19.763927   1.000000
      2        -15.893397   1.000000
      3        -14.706860   1.000000
      4        -14.703629   1.000000
      5        -14.649170   1.000000
      6        -13.523856   1.000000
      7        -13.469502   1.000000
      8        -13.467610   1.000000
      9        -11.813366   1.000000
     10        -11.524784   1.000000
     11        -11.416593   1.000000
     12         -9.328144   1.000000
     13         -9.311219   1.000000
     14         -8.078256   1.000000
     15         -7.305497   1.000000
     16         -6.825377   1.000000
     17         -6.807606   1.000000
     18         -6.807269   1.000000
     19         -6.542706   1.000000
     20         -3.535152   1.000000
     21         -3.526310   1.000000
     22         -2.870847   1.000000
     23         -2.841576   1.000000
     24         -2.821581   1.000000
     25         -1.583758   1.000000
     26         -1.576063   1.000000
     27         -0.499335   0.997215
     28         -0.351109   0.750427
     29         -0.099165   0.001943
     30          0.929761   0.000000
     31          0.948911   0.000000
     32          1.134028   0.000000
     33          1.153236   0.000000
     34          1.162541   0.000000
     35          1.804702   0.000000
     36          1.818101   0.000000
     37          2.997692   0.000000
     38          3.604925   0.000000
     39          4.511867   0.000000
     40          4.814266   0.000000
     41          6.624059   0.000000
     42          6.626075   0.000000
     43          6.643317   0.000000
     44          7.074270   0.000000
     45          7.659963   0.000000
     46          7.680868   0.000000
     47          7.687875   0.000000
     48          8.372061   0.000000
 
  0.1835433E-01  0.1835433E-01  0.0000000E+00  0.2604167E-02
      1        -19.762368   1.000000
      2        -15.892147   1.000000
      3        -14.724515   1.000000
      4        -14.721290   1.000000
      5        -14.647843   1.000000
      6        -13.522556   1.000000
      7        -13.449456   1.000000
      8        -13.447521   1.000000
      9        -11.839978   1.000000
     10        -11.526108   1.000000
     11        -11.390859   1.000000
     12         -9.330861   1.000000
     13         -9.307901   1.000000
     14         -8.076247   1.000000
     15         -7.299148   1.000000
     16         -6.832437   1.000000
     17         -6.808224   1.000000
     18         -6.807888   1.000000
     19         -6.540800   1.000000
     20         -3.541854   1.000000
     21         -3.529717   1.000000
     22         -2.877517   1.000000
     23         -2.848846   1.000000
     24         -2.820679   1.000000
     25         -1.602542   1.000000
     26         -1.592064   1.000000
     27         -0.528994   0.999292
     28         -0.345891   0.726426
     29         -0.068011   0.000438
     30          0.923819   0.000000
     31          0.949428   0.000000
     32          1.136055   0.000000
     33          1.162712   0.000000
     34          1.173414   0.000000
     35          1.819090   0.000000
     36          1.837154   0.000000
     37          3.000209   0.000000
     38          3.607478   0.000000
     39          4.517634   0.000000
     40          4.816734   0.000000
     41          6.627108   0.000000
     42          6.629101   0.000000
     43          6.652826   0.000000
     44          7.075997   0.000000
     45          7.659308   0.000000
     46          7.687524   0.000000
     47          7.690814   0.000000
     48          8.360792   0.000000
 
  0.2097638E-01  0.2097638E-01  0.0000000E+00  0.2604167E-02
      1        -19.760568   1.000000
      2        -15.890704   1.000000
      3        -14.744217   1.000000
      4        -14.740991   1.000000
      5        -14.646301   1.000000
      6        -13.521060   1.000000
      7        -13.426994   1.000000
      8        -13.425013   1.000000
      9        -11.867268   1.000000
     10        -11.527637   1.000000
     11        -11.364579   1.000000
     12         -9.333949   1.000000
     13         -9.304069   1.000000
     14         -8.073933   1.000000
     15         -7.291866   1.000000
     16         -6.840570   1.000000
     17         -6.808935   1.000000
     18         -6.808599   1.000000
     19         -6.538601   1.000000
     20         -3.549383   1.000000
     21         -3.533636   1.000000
     22         -2.885417   1.000000
     23         -2.857129   1.000000
     24         -2.819325   1.000000
     25         -1.623773   1.000000
     26         -1.610091   1.000000
     27         -0.559265   0.999852
     28         -0.340477   0.700373
     29         -0.036373   0.000080
     30          0.917650   0.000000
     31          0.950487   0.000000
     32          1.138385   0.000000
     33          1.173692   0.000000
     34          1.185801   0.000000
     35          1.835331   0.000000
     36          1.858687   0.000000
     37          3.003122   0.000000
     38          3.610420   0.000000
     39          4.524272   0.000000
     40          4.819591   0.000000
     41          6.630643   0.000000
     42          6.632625   0.000000
     43          6.663798   0.000000
     44          7.077988   0.000000
     45          7.659431   0.000000
     46          7.694119   0.000000
     47          7.695762   0.000000
     48          8.346508   0.000000
 
  0.2359843E-01  0.2359843E-01  0.0000000E+00  0.2604167E-02
      1        -19.758529   1.000000
      2        -15.889069   1.000000
      3        -14.765761   1.000000
      4        -14.762529   1.000000
      5        -14.644547   1.000000
      6        -13.519367   1.000000
      7        -13.402334   1.000000
      8        -13.400308   1.000000
      9        -11.895042   1.000000
     10        -11.529375   1.000000
     11        -11.337955   1.000000
     12         -9.337391   1.000000
     13         -9.299726   1.000000
     14         -8.071315   1.000000
     15         -7.283670   1.000000
     16         -6.849768   1.000000
     17         -6.809742   1.000000
     18         -6.809406   1.000000
     19         -6.536109   1.000000
     20         -3.557899   1.000000
     21         -3.538075   1.000000
     22         -2.894620   1.000000
     23         -2.866526   1.000000
     24         -2.817543   1.000000
     25         -1.647298   1.000000
     26         -1.629996   1.000000
     27         -0.590114   0.999975
     28         -0.335087   0.673370
     29         -0.004437   0.000012
     30          0.911445   0.000000
     31          0.952234   0.000000
     32          1.141015   0.000000
     33          1.185999   0.000000
     34          1.199480   0.000000
     35          1.853284   0.000000
     36          1.882484   0.000000
     37          3.006434   0.000000
     38          3.613750   0.000000
     39          4.531759   0.000000
     40          4.822839   0.000000
     41          6.634608   0.000000
     42          6.636578   0.000000
     43          6.676221   0.000000
     44          7.080241   0.000000
     45          7.659379   0.000000
     46          7.697654   0.000000
     47          7.704170   0.000000
     48          8.331366   0.000000
 
  0.2622047E-01  0.2622047E-01  0.0000000E+00  0.2604167E-02
      1        -19.756250   1.000000
      2        -15.887243   1.000000
      3        -14.788940   1.000000
      4        -14.785701   1.000000
      5        -14.642584   1.000000
      6        -13.517477   1.000000
      7        -13.375671   1.000000
      8        -13.373602   1.000000
      9        -11.923170   1.000000
     10        -11.531327   1.000000
     11        -11.311119   1.000000
     12         -9.341166   1.000000
     13         -9.294874   1.000000
     14         -8.068394   1.000000
     15         -7.274581   1.000000
     16         -6.860026   1.000000
     17         -6.810642   1.000000
     18         -6.810306   1.000000
     19         -6.533325   1.000000
     20         -3.567476   1.000000
     21         -3.543125   1.000000
     22         -2.905024   1.000000
     23         -2.876954   1.000000
     24         -2.815353   1.000000
     25         -1.672956   1.000000
     26         -1.651628   1.000000
     27         -0.621518   0.999997
     28         -0.329937   0.646692
     29          0.027649   0.000001
     30          0.905393   0.000000
     31          0.954813   0.000000
     32          1.143966   0.000000
     33          1.199671   0.000000
     34          1.214505   0.000000
     35          1.872843   0.000000
     36          1.908408   0.000000
     37          3.010149   0.000000
     38          3.617465   0.000000
     39          4.540089   0.000000
     40          4.826483   0.000000
     41          6.639036   0.000000
     42          6.640999   0.000000
     43          6.690084   0.000000
     44          7.082751   0.000000
     45          7.659526   0.000000
     46          7.701358   0.000000
     47          7.714281   0.000000
     48          8.311995   0.000000
 
  0.2884252E-01  0.2884252E-01  0.0000000E+00  0.2604167E-02
      1        -19.753733   1.000000
      2        -15.885223   1.000000
      3        -14.813567   1.000000
      4        -14.810319   1.000000
      5        -14.640411   1.000000
      6        -13.515389   1.000000
      7        -13.347192   1.000000
      8        -13.345082   1.000000
      9        -11.951551   1.000000
     10        -11.533482   1.000000
     11        -11.284161   1.000000
     12         -9.345251   1.000000
     13         -9.289505   1.000000
     14         -8.065174   1.000000
     15         -7.264620   1.000000
     16         -6.871335   1.000000
     17         -6.811633   1.000000
     18         -6.811296   1.000000
     19         -6.530248   1.000000
     20         -3.577780   1.000000
     21         -3.548598   1.000000
     22         -2.916580   1.000000
     23         -2.888390   1.000000
     24         -2.812778   1.000000
     25         -1.700594   1.000000
     26         -1.674840   1.000000
     27         -0.653478   1.000000
     28         -0.325242   0.621727
     29          0.059756   0.000000
     30          0.899668   0.000000
     31          0.958363   0.000000
     32          1.147259   0.000000
     33          1.214719   0.000000
     34          1.230878   0.000000
     35          1.893900   0.000000
     36          1.936306   0.000000
     37          3.014273   0.000000
     38          3.621564   0.000000
     39          4.549250   0.000000
     40          4.830529   0.000000
     41          6.643926   0.000000
     42          6.645889   0.000000
     43          6.705375   0.000000
     44          7.085517   0.000000
     45          7.659790   0.000000
     46          7.705283   0.000000
     47          7.725300   0.000000
     48          8.292402   0.000000
 
  0.3146457E-01  0.3146457E-01  0.0000000E+00  0.2604167E-02
      1        -19.750976   1.000000
      2        -15.883013   1.000000
      3        -14.839468   1.000000
      4        -14.836211   1.000000
      5        -14.638022   1.000000
      6        -13.513098   1.000000
      7        -13.317071   1.000000
      8        -13.314923   1.000000
      9        -11.980135   1.000000
     10        -11.535853   1.000000
     11        -11.257150   1.000000
     12         -9.349626   1.000000
     13         -9.283625   1.000000
     14         -8.061660   1.000000
     15         -7.253811   1.000000
     16         -6.883686   1.000000
     17         -6.812718   1.000000
     18         -6.812381   1.000000
     19         -6.526880   1.000000
     20         -3.589269   1.000000
     21         -3.554608   1.000000
     22         -2.929238   1.000000
     23         -2.900810   1.000000
     24         -2.809707   1.000000
     25         -1.730043   1.000000
     26         -1.699490   1.000000
     27         -0.686004   1.000000
     28         -0.321215   0.599893
     29          0.091760   0.000000
     30          0.894428   0.000000
     31          0.963022   0.000000
     32          1.150986   0.000000
     33          1.231028   0.000000
     34          1.248500   0.000000
     35          1.916360   0.000000
     36          1.966007   0.000000
     37          3.018811   0.000000
     38          3.626043   0.000000
     39          4.559226   0.000000
     40          4.834983   0.000000
     41          6.649268   0.000000
     42          6.651229   0.000000
     43          6.722132   0.000000
     44          7.088527   0.000000
     45          7.660441   0.000000
     46          7.709469   0.000000
     47          7.738124   0.000000
     48          8.273056   0.000000
 
  0.3408661E-01  0.3408661E-01  0.0000000E+00  0.2604167E-02
      1        -19.747978   1.000000
      2        -15.880612   1.000000
      3        -14.866487   1.000000
      4        -14.863219   1.000000
      5        -14.635432   1.000000
      6        -13.510616   1.000000
      7        -13.285466   1.000000
      8        -13.283282   1.000000
      9        -12.008869   1.000000
     10        -11.538439   1.000000
     11        -11.230134   1.000000
     12         -9.354266   1.000000
     13         -9.277231   1.000000
     14         -8.057841   1.000000
     15         -7.242181   1.000000
     16         -6.897073   1.000000
     17         -6.813894   1.000000
     18         -6.813557   1.000000
     19         -6.523218   1.000000
     20         -3.601668   1.000000
     21         -3.561118   1.000000
     22         -2.942958   1.000000
     23         -2.914188   1.000000
     24         -2.806425   1.000000
     25         -1.761159   1.000000
     26         -1.725440   1.000000
     27         -0.719101   1.000000
     28         -0.318054   0.582528
     29          0.123532   0.000000
     30          0.889803   0.000000
     31          0.968905   0.000000
     32          1.155035   0.000000
     33          1.248606   0.000000
     34          1.267373   0.000000
     35          1.940106   0.000000
     36          1.997369   0.000000
     37          3.023769   0.000000
     38          3.630905   0.000000
     39          4.569997   0.000000
     40          4.839852   0.000000
     41          6.655077   0.000000
     42          6.657038   0.000000
     43          6.740263   0.000000
     44          7.091803   0.000000
     45          7.661001   0.000000
     46          7.713599   0.000000
     47          7.749986   0.000000
     48          8.248742   0.000000
 
  0.3670866E-01  0.3670866E-01  0.0000000E+00  0.2604167E-02
      1        -19.744740   1.000000
      2        -15.878018   1.000000
      3        -14.894480   1.000000
      4        -14.891203   1.000000
      5        -14.632635   1.000000
      6        -13.507937   1.000000
      7        -13.252515   1.000000
      8        -13.250300   1.000000
      9        -12.037715   1.000000
     10        -11.541235   1.000000
     11        -11.203148   1.000000
     12         -9.359143   1.000000
     13         -9.270321   1.000000
     14         -8.053725   1.000000
     15         -7.229753   1.000000
     16         -6.911484   1.000000
     17         -6.815156   1.000000
     18         -6.814818   1.000000
     19         -6.519264   1.000000
     20         -3.614927   1.000000
     21         -3.568045   1.000000
     22         -2.957684   1.000000
     23         -2.928487   1.000000
     24         -2.802813   1.000000
     25         -1.793798   1.000000
     26         -1.752563   1.000000
     27         -0.752773   1.000000
     28         -0.315938   0.570811
     29          0.154959   0.000000
     30          0.885910   0.000000
     31          0.976136   0.000000
     32          1.159512   0.000000
     33          1.267434   0.000000
     34          1.287485   0.000000
     35          1.965067   0.000000
     36          2.030254   0.000000
     37          3.029158   0.000000
     38          3.636145   0.000000
     39          4.581546   0.000000
     40          4.845146   0.000000
     41          6.661350   0.000000
     42          6.663312   0.000000
     43          6.759785   0.000000
     44          7.095327   0.000000
     45          7.662090   0.000000
     46          7.718043   0.000000
     47          7.762936   0.000000
     48          8.224068   0.000000
 
  0.3933071E-01  0.3933071E-01  0.0000000E+00  0.2604167E-02
      1        -19.741260   1.000000
      2        -15.875235   1.000000
      3        -14.923321   1.000000
      4        -14.920034   1.000000
      5        -14.629629   1.000000
      6        -13.505062   1.000000
      7        -13.218352   1.000000
      8        -13.216108   1.000000
      9        -12.066646   1.000000
     10        -11.544255   1.000000
     11        -11.176228   1.000000
     12         -9.364232   1.000000
     13         -9.262902   1.000000
     14         -8.049313   1.000000
     15         -7.216558   1.000000
     16         -6.926910   1.000000
     17         -6.816514   1.000000
     18         -6.816176   1.000000
     19         -6.515018   1.000000
     20         -3.629216   1.000000
     21         -3.575581   1.000000
     22         -2.973394   1.000000
     23         -2.943697   1.000000
     24         -2.798881   1.000000
     25         -1.827820   1.000000
     26         -1.780738   1.000000
     27         -0.787020   1.000000
     28         -0.315031   0.565765
     29          0.185925   0.000000
     30          0.882832   0.000000
     31          0.984821   0.000000
     32          1.164457   0.000000
     33          1.287450   0.000000
     34          1.308763   0.000000
     35          1.991167   0.000000
     36          2.064522   0.000000
     37          3.034984   0.000000
     38          3.641763   0.000000
     39          4.593850   0.000000
     40          4.850873   0.000000
     41          6.668075   0.000000
     42          6.670039   0.000000
     43          6.780701   0.000000
     44          7.099099   0.000000
     45          7.663335   0.000000
     46          7.722585   0.000000
     47          7.778040   0.000000
     48          8.197897   0.000000
 
  0.4195276E-01  0.4195276E-01  0.0000000E+00  0.2604167E-02
      1        -19.737543   1.000000
      2        -15.872261   1.000000
      3        -14.952897   1.000000
      4        -14.949601   1.000000
      5        -14.626414   1.000000
      6        -13.501988   1.000000
      7        -13.183088   1.000000
      8        -13.180817   1.000000