   16   16    1    1
  0.2012733E+02  0.4979000E-09  0.4979000E-09  0.1500000E-08  0.5000000E-15
  1.000000000000000E-004
  CAR 
 SC                                      
     56    441     48
 
  0.0000000E+00  0.0000000E+00  0.0000000E+00  0.5948840E-03
      1        -19.766741   1.000000
      2        -15.898379   1.000000
      3        -14.654542   1.000000
      4        -14.649943   1.000000
      5        -14.649931   1.000000
      6        -13.526797   1.000000
      7        -13.526773   1.000000
      8        -13.524288   1.000000
      9        -11.707986   1.000000
     10        -11.522660   1.000000
     11        -11.522655   1.000000
     12         -9.321942   1.000000
     13         -9.321934   1.000000
     14         -8.082734   1.000000
     15         -7.324741   1.000000
     16         -6.804356   1.000000
     17         -6.804336   1.000000
     18         -6.803864   1.000000
     19         -6.549011   1.000000
     20         -3.515446   1.000000
     21         -3.515361   1.000000
     22         -2.853653   1.000000
     23         -2.819992   1.000000
     24         -2.819972   1.000000
     25         -1.531250   1.000000
     26         -1.531248   1.000000
     27         -0.369666   0.931650
     28         -0.369660   0.931640
     29         -0.237334   0.350763
     30          0.948387   0.000000
     31          0.948390   0.000000
     32          1.128401   0.000000
     33          1.128424   0.000000
     34          1.131903   0.000000
     35          1.762166   0.000000
     36          1.762169   0.000000
     37          2.991756   0.000000
     38          3.597580   0.000000
     39          4.494723   0.000000
     40          4.813600   0.000000
     41          6.616283   0.000000
     42          6.619151   0.000000
     43          6.619160   0.000000
     44          7.072224   0.000000
     45          7.663650   0.000000
     46          7.663761   0.000000
     47          7.678770   0.000000
     48          8.404212   0.000000
 
  0.2439024E-01  0.1328187E-17  0.0000000E+00  0.2379536E-02
      1        -19.763297   1.000000
      2        -15.895605   1.000000
      3        -14.708202   1.000000
      4        -14.665351   1.000000
      5        -14.662455   1.000000
      6        -13.508586   1.000000
      7        -13.507017   1.000000
      8        -13.464138   1.000000
      9        -11.798645   1.000000
     10        -11.525565   1.000000
     11        -11.433950   1.000000
     12         -9.328129   1.000000
     13         -9.314593   1.000000
     14         -8.078336   1.000000
     15         -7.310481   1.000000
     16         -6.815330   1.000000
     17         -6.815012   1.000000
     18         -6.800745   1.000000
     19         -6.544797   1.000000
     20         -3.530002   1.000000
     21         -3.522944   1.000000
     22         -2.866843   1.000000
     23         -2.832967   1.000000
     24         -2.822965   1.000000
     25         -1.574595   1.000000
     26         -1.568829   1.000000
     27         -0.482317   0.998970
     28         -0.355538   0.901195
     29         -0.119743   0.020366
     30          0.931794   0.000000
     31          0.947654   0.000000
     32          1.137519   0.000000
     33          1.142271   0.000000
     34          1.160282   0.000000
     35          1.796019   0.000000
     36          1.806176   0.000000
     37          2.997310   0.000000
     38          3.603245   0.000000
     39          4.507619   0.000000
     40          4.819021   0.000000
     41          6.619967   0.000000
     42          6.633724   0.000000
     43          6.635499   0.000000
     44          7.075969   0.000000
     45          7.661283   0.000000
     46          7.678646   0.000000
     47          7.687140   0.000000
     48          8.377195   0.000000
 
 -0.2439024E-01  0.2439024E-01  0.0000000E+00  0.1189768E-02
      1        -19.763297   1.000000
      2        -15.895605   1.000000
      3        -14.708217   1.000000
      4        -14.665343   1.000000
      5        -14.662447   1.000000
      6        -13.508603   1.000000
      7        -13.507036   1.000000
      8        -13.464103   1.000000
      9        -11.798647   1.000000
     10        -11.525561   1.000000
     11        -11.433953   1.000000
     12         -9.328122   1.000000
     13         -9.314600   1.000000
     14         -8.078336   1.000000
     15         -7.310481   1.000000
     16         -6.815316   1.000000
     17         -6.814998   1.000000
     18         -6.800774   1.000000
     19         -6.544797   1.000000
     20         -3.529938   1.000000
     21         -3.523008   1.000000
     22         -2.866856   1.000000
     23         -2.832969   1.000000
     24         -2.822950   1.000000
     25         -1.574596   1.000000
     26         -1.568828   1.000000
     27         -0.482320   0.998970
     28         -0.355534   0.901186
     29         -0.119744   0.020366
     30          0.931796   0.000000
     31          0.947651   0.000000
     32          1.137501   0.000000
     33          1.142254   0.000000
     34          1.160317   0.000000
     35          1.796017   0.000000
     36          1.806177   0.000000
     37          2.997310   0.000000
     38          3.603245   0.000000
     39          4.507619   0.000000
     40          4.819021   0.000000
     41          6.619954   0.000000
     42          6.633731   0.000000
     43          6.635506   0.000000
     44          7.075969   0.000000
     45          7.661215   0.000000
     46          7.678729   0.000000
     47          7.687126   0.000000
     48          8.377195   0.000000
 
  0.4878049E-01  0.2656375E-17  0.0000000E+00  0.2379536E-02
      1        -19.752919   1.000000
      2        -15.887284   1.000000
      3        -14.851162   1.000000
      4        -14.700478   1.000000
      5        -14.697662   1.000000
      6        -13.456333   1.000000
      7        -13.454895   1.000000
      8        -13.305670   1.000000
      9        -11.945805   1.000000
     10        -11.534123   1.000000
     11        -11.292952   1.000000
     12         -9.345393   1.000000
     13         -9.292739   1.000000
     14         -8.065009   1.000000
     15         -7.268759   1.000000
     16         -6.847956   1.000000
     17         -6.847632   1.000000
     18         -6.790550   1.000000
     19         -6.532115   1.000000
     20         -3.573585   1.000000
     21         -3.545502   1.000000
     22         -2.927452   1.000000
     23         -2.849103   1.000000
     24         -2.831727   1.000000
     25         -1.692454   1.000000
     26         -1.672676   1.000000
     27         -0.646131   1.000000
     28         -0.327492   0.813740
     29          0.049663   0.000004
     30          0.898429   0.000000
     31          0.957943   0.000000
     32          1.162216   0.000000
     33          1.179766   0.000000
     34          1.243896   0.000000
     35          1.891298   0.000000
     36          1.923998   0.000000
     37          3.014155   0.000000
     38          3.620201   0.000000
     39          4.545802   0.000000
     40          4.835477   0.000000
     41          6.625705   0.000000
     42          6.682628   0.000000
     43          6.684492   0.000000
     44          7.087430   0.000000
     45          7.660639   0.000000
     46          7.705197   0.000000
     47          7.723520   0.000000
     48          8.295821   0.000000
 
 -0.4878049E-01  0.4878049E-01  0.0000000E+00  0.1189768E-02
      1        -19.752919   1.000000
      2        -15.887284   1.000000
      3        -14.851173   1.000000
      4        -14.700471   1.000000
      5        -14.697654   1.000000
      6        -13.456350   1.000000
      7        -13.454912   1.000000
      8        -13.305640   1.000000
      9        -11.945807   1.000000
     10        -11.534119   1.000000
     11        -11.292953   1.000000
     12         -9.345387   1.000000
     13         -9.292746   1.000000
     14         -8.065009   1.000000
     15         -7.268759   1.000000
     16         -6.847941   1.000000
     17         -6.847618   1.000000
     18         -6.790579   1.000000
     19         -6.532115   1.000000
     20         -3.573522   1.000000
     21         -3.545566   1.000000
     22         -2.927477   1.000000
     23         -2.849091   1.000000
     24         -2.831712   1.000000
     25         -1.692455   1.000000
     26         -1.672675   1.000000
     27         -0.646134   1.000000
     28         -0.327488   0.813728
     29          0.049664   0.000004
     30          0.898431   0.000000
     31          0.957941   0.000000
     32          1.162195   0.000000
     33          1.179748   0.000000
     34          1.243934   0.000000
     35          1.891297   0.000000
     36          1.923998   0.000000
     37          3.014155   0.000000
     38          3.620201   0.000000
     39          4.545803   0.000000
     40          4.835477   0.000000
     41          6.625692   0.000000
     42          6.682635   0.000000
     43          6.684499   0.000000
     44          7.087430   0.000000
     45          7.660579   0.000000
     46          7.705176   0.000000
     47          7.723602   0.000000
     48          8.295822   0.000000
 
  0.7317073E-01  0.7724574E-17  0.0000000E+00  0.2379536E-02
      1        -19.735627   1.000000
      2        -15.873437   1.000000
      3        -15.038734   1.000000
      4        -14.752677   1.000000
      5        -14.750048   1.000000
      6        -13.375611   1.000000
      7        -13.374362   1.000000
      8        -13.092371   1.000000
      9        -12.100800   1.000000
     10        -11.547897   1.000000
     11        -11.149309   1.000000
     12         -9.370101   1.000000
     13         -9.256879   1.000000
     14         -8.043033   1.000000
     15         -7.202513   1.000000
     16         -6.901684   1.000000
     17         -6.901359   1.000000
     18         -6.773512   1.000000
     19         -6.511000   1.000000
     20         -3.645271   1.000000
     21         -3.582417   1.000000
     22         -3.033798   1.000000
     23         -2.864144   1.000000
     24         -2.846185   1.000000
     25         -1.860782   1.000000
     26         -1.823403   1.000000
     27         -0.826335   1.000000
     28         -0.312350   0.750996
     29          0.211579   0.000000
     30          0.880433   0.000000
     31          0.997921   0.000000
     32          1.203242   0.000000
     33          1.238013   0.000000
     34          1.375278   0.000000
     35          2.034295   0.000000
     36          2.089256   0.000000
     37          3.042873   0.000000
     38          3.648194   0.000000
     39          4.607555   0.000000
     40          4.863642   0.000000
     41          6.635068   0.000000
     42          6.763542   0.000000
     43          6.765408   0.000000
     44          7.106224   0.000000
     45          7.663952   0.000000
     46          7.727774   0.000000
     47          7.797672   0.000000
     48          8.161006   0.000000
 
 -0.7317073E-01  0.7317073E-01  0.0000000E+00  0.1189768E-02
      1        -19.735627   1.000000
      2        -15.873437   1.000000
      3        -15.038741   1.000000
      4        -14.752671   1.000000
      5        -14.750041   1.000000
      6        -13.375627   1.000000
      7        -13.374379   1.000000
      8        -13.092344   1.000000
      9        -12.100803   1.000000
     10        -11.547893   1.000000
     11        -11.149310   1.000000
     12         -9.370095   1.000000
     13         -9.256885   1.000000
     14         -8.043033   1.000000
     15         -7.202513   1.000000
     16         -6.901669   1.000000
     17         -6.901345   1.000000
     18         -6.773541   1.000000
     19         -6.510999   1.000000
     20         -3.645209   1.000000
     21         -3.582479   1.000000
     22         -3.033823   1.000000
     23         -2.864130   1.000000
     24         -2.846170   1.000000
     25         -1.860782   1.000000
     26         -1.823403   1.000000
     27         -0.826338   1.000000
     28         -0.312347   0.750984
     29          0.211581   0.000000
     30          0.880433   0.000000
     31          0.997918   0.000000
     32          1.203221   0.000000
     33          1.237995   0.000000
     34          1.375315   0.000000
     35          2.034295   0.000000
     36          2.089256   0.000000
     37          3.042873   0.000000
     38          3.648194   0.000000
     39          4.607555   0.000000
     40          4.863643   0.000000
     41          6.635054   0.000000
     42          6.763549   0.000000
     43          6.765415   0.000000
     44          7.106224   0.000000
     45          7.663894   0.000000
     46          7.727753   0.000000
     47          7.797754   0.000000
     48          8.161008   0.000000
 
  0.9756098E-01  0.5312750E-17  0.0000000E+00  0.2379536E-02
      1        -19.711414   1.000000
      2        -15.854108   1.000000
      3        -15.245900   1.000000
      4        -14.815957   1.000000
      5        -14.813527   1.000000
      6        -13.272589   1.000000
      7        -13.271532   1.000000
      8        -12.849252   1.000000
      9        -12.257616   1.000000
     10        -11.566230   1.000000
     11        -11.010864   1.000000
     12         -9.396897   1.000000
     13         -9.207802   1.000000
     14         -8.012625   1.000000
     15         -7.115970   1.000000
     16         -6.975634   1.000000
     17         -6.975322   1.000000
     18         -6.749686   1.000000
     19         -6.481476   1.000000
     20         -3.744226   1.000000
     21         -3.633282   1.000000
     22         -3.173453   1.000000
     23         -2.882653   1.000000
     24         -2.866036   1.000000
     25         -2.059288   1.000000
     26         -2.002322   1.000000
     27         -1.023190   1.000000
     28         -0.326093   0.808390
     29          0.329803   0.000000
     30          0.914442   0.000000
     31          1.070386   0.000000
     32          1.262167   0.000000
     33          1.322322   0.000000
     34          1.547395   0.000000
     35          2.211962   0.000000
     36          2.280762   0.000000
     37          3.084615   0.000000
     38          3.686961   0.000000
     39          4.689465   0.000000
     40          4.905176   0.000000
     41          6.648167   0.000000
     42          6.875372   0.000000
     43          6.877256   0.000000
     44          7.131619   0.000000
     45          7.670992   0.000000
     46          7.745689   0.000000
     47          7.900879   0.000000
     48          7.985603   0.000000
 
 -0.9756098E-01  0.9756098E-01  0.0000000E+00  0.1189768E-02
      1        -19.711413   1.000000
      2        -15.854108   1.000000
      3        -15.245904   1.000000
      4        -14.815952   1.000000
      5        -14.813521   1.000000
      6        -13.272604   1.000000
      7        -13.271548   1.000000
      8        -12.849228   1.000000
      9        -12.257619   1.000000
     10        -11.566226   1.000000
     11        -11.010864   1.000000
     12         -9.396892   1.000000
     13         -9.207809   1.000000
     14         -8.012625   1.000000
     15         -7.115970   1.000000
     16         -6.975619   1.000000
     17         -6.975308   1.000000
     18         -6.749715   1.000000
     19         -6.481476   1.000000
     20         -3.744165   1.000000
     21         -3.633343   1.000000
     22         -3.173476   1.000000
     23         -2.882640   1.000000
     24         -2.866022   1.000000
     25         -2.059288   1.000000
     26         -2.002322   1.000000
     27         -1.023193   1.000000
     28         -0.326091   0.808382
     29          0.329807   0.000000
     30          0.914438   0.000000
     31          1.070380   0.000000
     32          1.262147   0.000000
     33          1.322307   0.000000
     34          1.547430   0.000000
     35          2.211962   0.000000
     36          2.280761   0.000000
     37          3.084615   0.000000
     38          3.686962   0.000000
     39          4.689465   0.000000
     40          4.905176   0.000000
     41          6.648153   0.000000
     42          6.875379   0.000000
     43          6.877264   0.000000
     44          7.131618   0.000000
     45          7.670938   0.000000
     46          7.745667   0.000000
     47          7.900960   0.000000
     48          7.985606   0.000000
 
  0.1219512E+00 -0.4877005E-17  0.0000000E+00  0.2379536E-02
      1        -19.680296   1.000000
      2        -15.829377   1.000000
      3        -15.460741   1.000000
      4        -14.885301   1.000000
      5        -14.883055   1.000000
      6        -13.152439   1.000000
      7        -13.151554   1.000000
      8        -12.588446   1.000000
      9        -12.414349   1.000000
     10        -11.588298   1.000000
     11        -10.882170   1.000000
     12         -9.419263   1.000000
     13         -9.146511   1.000000
     14         -7.973970   1.000000
     15         -7.068771   1.000000
     16         -7.068301   1.000000
     17         -7.013814   1.000000
     18         -6.719140   1.000000
     19         -6.443609   1.000000
     20         -3.869159   1.000000
     21         -3.697139   1.000000
     22         -3.338044   1.000000
     23         -2.905038   1.000000
     24         -2.891122   1.000000
     25         -2.274496   1.000000
     26         -2.195761   1.000000
     27         -1.234481   1.000000
     28         -0.368687   0.929807
     29          0.376484   0.000000
     30          1.020275   0.000000
     31          1.160936   0.000000
     32          1.344225   0.000000
     33          1.442489   0.000000
     34          1.752878   0.000000
     35          2.414669   0.000000
     36          2.483612   0.000000
     37          3.141457   0.000000
     38          3.736322   0.000000
     39          4.785105   0.000000
     40          4.963929   0.000000
     41          6.664680   0.000000
     42          7.016581   0.000000
     43          7.018711   0.000000
     44          7.161285   0.000000
     45          7.649294   0.000000
     46          7.701207   0.000000
     47          7.866143   0.000000
     48          8.031607   0.000000
 
 -0.1219512E+00  0.1219512E+00  0.0000000E+00  0.1189768E-02
      1        -19.680296   1.000000
      2        -15.829377   1.000000
      3        -15.460743   1.000000
      4        -14.885297   1.000000
      5        -14.883050   1.000000
      6        -13.152453   1.000000
      7        -13.151569   1.000000
      8        -12.588423   1.000000
      9        -12.414352   1.000000
     10        -11.588294   1.000000
     11        -10.882169   1.000000
     12         -9.419259   1.000000
     13         -9.146518   1.000000
     14         -7.973970   1.000000
     15         -7.068757   1.000000
     16         -7.068287   1.000000
     17         -7.013814   1.000000
     18         -6.719169   1.000000
     19         -6.443609   1.000000
     20         -3.869100   1.000000
     21         -3.697200   1.000000
     22         -3.338064   1.000000
     23         -2.905025   1.000000
     24         -2.891107   1.000000
     25         -2.274496   1.000000
     26         -2.195761   1.000000
     27         -1.234485   1.000000
     28         -0.368685   0.929804
     29          0.376491   0.000000
     30          1.020267   0.000000
     31          1.160925   0.000000
     32          1.344207   0.000000
     33          1.442478   0.000000
     34          1.752912   0.000000
     35          2.414670   0.000000
     36          2.483610   0.000000
     37          3.141457   0.000000
     38          3.736322   0.000000
     39          4.785105   0.000000
     40          4.963929   0.000000
     41          6.664666   0.000000
     42          7.016589   0.000000
     43          7.018719   0.000000
     44          7.161285   0.000000
     45          7.649287   0.000000
     46          7.701149   0.000000
     47          7.866139   0.000000
     48          8.031686   0.000000
 
  0.1463415E+00 -0.7288829E-17  0.0000000E+00  0.2379536E-02
      1        -19.642282   1.000000
      2        -15.799582   1.000000
      3        -15.677210   1.000000
      4        -14.957039   1.000000
      5        -14.954955   1.000000
      6        -13.019014   1.000000
      7        -13.018281   1.000000
      8        -12.570913   1.000000
      9        -12.315006   1.000000
     10        -11.613226   1.000000
     11        -10.767955   1.000000
     12         -9.429957   1.000000
     13         -9.074138   1.000000
     14         -7.927188   1.000000
     15         -7.179226   1.000000
     16         -7.178828   1.000000
     17         -6.901544   1.000000
     18         -6.681915   1.000000
     19         -6.397475   1.000000
     20         -4.018602   1.000000
     21         -3.772780   1.000000
     22         -3.520467   1.000000
     23         -2.931068   1.000000
     24         -2.922225   1.000000
     25         -2.496792   1.000000
     26         -2.394254   1.000000
     27         -1.456319   1.000000
     28         -0.431893   0.991063
     29          0.367691   0.000000
     30          1.164309   0.000000
     31          1.253945   0.000000
     32          1.462256   0.000000
     33          1.602885   0.000000
     34          1.985254   0.000000
     35          2.635758   0.000000
     36          2.685957   0.000000
     37          3.217044   0.000000
     38          3.796297   0.000000
     39          4.883760   0.000000
     40          5.047132   0.000000
     41          6.684703   0.000000
     42          7.170579   0.000000
     43          7.188130   0.000000
     44          7.195841   0.000000
     45          7.442060   0.000000
     46          7.698271   0.000000
     47          7.879932   0.000000
     48          8.257047   0.000000
 
 -0.1463415E+00  0.1463415E+00  0.0000000E+00  0.1189768E-02
      1        -19.642282   1.000000
      2        -15.799582   1.000000
      3        -15.677212   1.000000
      4        -14.957036   1.000000
      5        -14.954951   1.000000
      6        -13.019028   1.000000
      7        -13.018295   1.000000
      8        -12.570917   1.000000
      9        -12.314983   1.000000
     10        -11.613222   1.000000
     11        -10.767953   1.000000
     12         -9.429954   1.000000
     13         -9.074144   1.000000
     14         -7.927188   1.000000
     15         -7.179211   1.000000
     16         -7.178813   1.000000
     17         -6.901544   1.000000
     18         -6.681945   1.000000
     19         -6.397474   1.000000
     20         -4.018544   1.000000
     21         -3.772840   1.000000
     22         -3.520485   1.000000
     23         -2.931055   1.000000
     24         -2.922212   1.000000
     25         -2.496791   1.000000
     26         -2.394255   1.000000
     27         -1.456323   1.000000
     28         -0.431892   0.991063
     29          0.367699   0.000000
     30          1.164295   0.000000
     31          1.253930   0.000000
     32          1.462243   0.000000
     33          1.602878   0.000000
     34          1.985286   0.000000
     35          2.635760   0.000000
     36          2.685954   0.000000
     37          3.217044   0.000000
     38          3.796298   0.000000
     39          4.883759   0.000000
     40          5.047133   0.000000
     41          6.684689   0.000000
     42          7.170582   0.000000
     43          7.188139   0.000000
     44          7.195846   0.000000
     45          7.442065   0.000000
     46          7.698208   0.000000
     47          7.879925   0.000000
     48          8.257076   0.000000
 
  0.1707317E+00 -0.2357844E-16  0.0000000E+00  0.2379536E-02
      1        -19.597371   1.000000
      2        -15.894120   1.000000
      3        -15.762983   1.000000
      4        -15.028629   1.000000
      5        -15.026688   1.000000
      6        -12.875084   1.000000
      7        -12.874540   1.000000
      8        -12.725417   1.000000
      9        -12.033260   1.000000
     10        -11.640106   1.000000
     11        -10.673282   1.000000
     12         -9.421659   1.000000
     13         -8.991907   1.000000
     14         -7.872308   1.000000
     15         -7.305578   1.000000
     16         -7.305175   1.000000
     17         -6.784011   1.000000
     18         -6.638084   1.000000
     19         -6.343174   1.000000
     20         -4.190546   1.000000
     21         -3.858907   1.000000
     22         -3.715085   1.000000
     23         -2.964796   1.000000
     24         -2.960605   1.000000
     25         -2.714743   1.000000
     26         -2.590781   1.000000
     27         -1.684656   1.000000
     28         -0.506855   0.999696
     29          0.332328   0.000000
     30          1.298680   0.000000
     31          1.344984   0.000000
     32          1.630772   0.000000
     33          1.797131   0.000000
     34          2.238879   0.000000
     35          2.870458   0.000000
     36          2.876548   0.000000
     37          3.317012   0.000000
     38          3.867220   0.000000
     39          4.976026   0.000000
     40          5.159633   0.000000
     41          6.707918   0.000000
     42          7.065400   0.000000
     43          7.315696   0.000000
     44          7.383600   0.000000
     45          7.384855   0.000000
     46          7.706575   0.000000
     47          7.909902   0.000000
     48          8.085885   0.000000
 
 -0.1707317E+00  0.1707317E+00  0.0000000E+00  0.1189768E-02
      1        -19.597371   1.000000
      2        -15.894121   1.000000
      3        -15.762983   1.000000
      4        -15.028627   1.000000
      5        -15.026684   1.000000
      6        -12.875097   1.000000
      7        -12.874554   1.000000
      8        -12.725421   1.000000
      9        -12.033238   1.000000
     10        -11.640102   1.000000
     11        -10.673278   1.000000
     12         -9.421657   1.000000
     13         -8.991914   1.000000
     14         -7.872308   1.000000
     15         -7.305563   1.000000
     16         -7.305160   1.000000
     17         -6.784011   1.000000
     18         -6.638114   1.000000
     19         -6.343173   1.000000
     20         -4.190490   1.000000
     21         -3.858965   1.000000
     22         -3.715101   1.000000
     23         -2.964784   1.000000
     24         -2.960592   1.000000
     25         -2.714741   1.000000
     26         -2.590782   1.000000
     27         -1.684659   1.000000
     28         -0.506853   0.999696
     29          0.332337   0.000000
     30          1.298661   0.000000
     31          1.344966   0.000000
     32          1.630764   0.000000
     33          1.797127   0.000000
     34          2.238910   0.000000
     35          2.870460   0.000000
     36          2.876546   0.000000
     37          3.317011   0.000000
     38          3.867220   0.000000
     39          4.976025   0.000000
     40          5.159635   0.000000
     41          6.707904   0.000000
     42          7.065405   0.000000
     43          7.315697   0.000000
     44          7.383609   0.000000
     45          7.384863   0.000000
     46          7.706515   0.000000
     47          7.909897   0.000000
     48          8.085887   0.000000
 
  0.1951220E+00  0.1672536E-16  0.0000000E+00  0.2379536E-02
      1        -19.545583   1.000000
      2        -16.106753   1.000000
      3        -15.722697   1.000000
      4        -15.098319   1.000000
      5        -15.096505   1.000000
      6        -12.878422   1.000000
      7        -12.722702   1.000000
      8        -12.721976   1.000000
      9        -11.744401   1.000000
     10        -11.668100   1.000000
     11        -10.602433   1.000000
     12         -9.388326   1.000000
     13         -8.901113   1.000000
     14         -7.809390   1.000000
     15         -7.445939   1.000000
     16         -7.445523   1.000000
     17         -6.666524   1.000000
     18         -6.587706   1.000000
     19         -6.280893   1.000000
     20         -4.383458   1.000000
     21         -3.954662   1.000000
     22         -3.917358   1.000000
     23         -3.053885   1.000000
     24         -2.994583   1.000000
     25         -2.888863   1.000000
     26         -2.778682   1.000000
     27         -1.915846   1.000000
     28         -0.586878   0.999997
     29          0.286120   0.000000
     30          1.411406   0.000000
     31          1.435357   0.000000
     32          1.841828   0.000000
     33          2.015334   0.000000
     34          2.509592   0.000000
     35          3.046116   0.000000
     36          3.115070   0.000000
     37          3.446557   0.000000
     38          3.949799   0.000000
     39          5.063558   0.000000
     40          5.293827   0.000000
     41          6.734168   0.000000
     42          6.791028   0.000000
     43          7.341569   0.000000
     44          7.602811   0.000000
     45          7.603800   0.000000
     46          7.712330   0.000000
     47          7.825523   0.000000
     48          8.026647   0.000000
 
 -0.1951220E+00  0.1951220E+00  0.0000000E+00  0.1189768E-02
      1        -19.545583   1.000000
      2        -16.106753   1.000000
      3        -15.722696   1.000000
      4        -15.098317   1.000000
      5        -15.096502   1.000000
      6        -12.878427   1.000000
      7        -12.722715   1.000000
      8        -12.721990   1.000000