<?xml version="1.0" encoding="ISO-8859-1"?>
<modeling>
 <generator>
  <i name="program" type="string">vasp </i>
  <i name="version" type="string">6.3.2  </i>
  <i name="subversion" type="string">27Jun22 (build Dec 22 2022 13:13:19) complex                          parallel </i>
  <i name="platform" type="string">LinuxIFC </i>
  <i name="date" type="string">2023 11 01 </i>
  <i name="time" type="string">20:07:13 </i>
 </generator>
 <incar>
  <i type="string" name="SYSTEM">SC</i>
  <i type="int" name="ISTART">     0</i>
  <i type="string" name="PREC">Accurate</i>
  <i type="string" name="ALGO">Normal</i>
  <i type="int" name="ICHARG">     2</i>
  <i type="int" name="NELM">    64</i>
  <i type="int" name="IBRION">    -1</i>
  <i name="EDIFF">      0.00000100</i>
  <i name="EDIFFG">     -0.00100000</i>
  <i name="SYMPREC">      0.00000100</i>
  <i name="ENCUT">    450.00000000</i>
  <i type="int" name="ISMEAR">     0</i>
  <i name="SIGMA">      0.10000000</i>
  <i type="logical" name="LWAVE"> T  </i>
  <i type="logical" name="LCHARG"> T  </i>
  <i type="string" name="GGA">PE</i>
  <i type="int" name="IVDW">    12</i>
 </incar>
 <primitive_cell>
  <structure name="primitive_cell" >
   <crystal>
    <varray name="basis" >
     <v>       4.31194049       2.48950000       0.00000000 </v>
     <v>      -4.31194049       2.48950000       0.00000000 </v>
     <v>       0.00000000       0.00000000      15.00000000 </v>
    </varray>
    <i name="volume">    322.03727516 </i>
    <varray name="rec_basis" >
     <v>       0.11595707       0.20084354       0.00000000 </v>
     <v>      -0.11595707       0.20084354       0.00000000 </v>
     <v>       0.00000000       0.00000000       0.06666667 </v>
    </varray>
   </crystal>
   <varray name="positions" >
    <v>       0.66852949       0.00003174       0.10149087 </v>
    <v>       0.33150126       0.00003174       0.10149087 </v>
    <v>       0.99996826       0.33146951       0.10149087 </v>
    <v>       0.99996826       0.66849774       0.10149087 </v>
    <v>       0.33150126       0.33146951       0.10149087 </v>
    <v>       0.66852949       0.66849774       0.10149087 </v>
    <v>       0.66666600       0.33333300       0.08845522 </v>
    <v>       0.33333300       0.66666600       0.11442406 </v>
    <v>       0.16665358       0.33330815       0.33456864 </v>
    <v>       0.33333052       0.16666476       0.33446624 </v>
    <v>       0.16665358       0.83334542       0.33456864 </v>
    <v>       0.33333300       0.66666600       0.33462602 </v>
    <v>       0.66666600       0.33333300       0.33444483 </v>
    <v>       0.83333424       0.16666476       0.33446624 </v>
    <v>       0.66669085       0.83334542       0.33456864 </v>
    <v>       0.83333424       0.66666848       0.33446624 </v>
   </varray>
  </structure>
  <varray name="primitive_index" >
   <v type="int" >        1 </v>
   <v type="int" >        2 </v>
   <v type="int" >        3 </v>
   <v type="int" >        4 </v>
   <v type="int" >        5 </v>
   <v type="int" >        6 </v>
   <v type="int" >        7 </v>
   <v type="int" >        8 </v>
   <v type="int" >        9 </v>
   <v type="int" >       10 </v>
   <v type="int" >       11 </v>
   <v type="int" >       12 </v>
   <v type="int" >       13 </v>
   <v type="int" >       14 </v>
   <v type="int" >       15 </v>
   <v type="int" >       16 </v>
  </varray>
 </primitive_cell>
 <kpoints>
  <generation param="Gamma">
   <v type="int" name="divisions">      41       41        1 </v>
   <v name="usershift">      0.00000000       0.00000000       0.00000000 </v>
   <v name="genvec1">      0.02439024      -0.00000000       0.00000000 </v>
   <v name="genvec2">     -0.00000000       0.02439024       0.00000000 </v>
   <v name="genvec3">      0.00000000       0.00000000       1.00000000 </v>
   <v name="shift">      0.00000000       0.00000000       0.00000000 </v>
  </generation>
  <varray name="kpointlist" >
   <v>       0.00000000       0.00000000       0.00000000 </v>
   <v>       0.02439024       0.00000000       0.00000000 </v>
   <v>      -0.02439024       0.02439024       0.00000000 </v>
   <v>       0.04878049       0.00000000       0.00000000 </v>
   <v>      -0.04878049       0.04878049       0.00000000 </v>
   <v>       0.07317073       0.00000000       0.00000000 </v>
   <v>      -0.07317073       0.07317073       0.00000000 </v>
   <v>       0.09756098       0.00000000       0.00000000 </v>
   <v>      -0.09756098       0.09756098       0.00000000 </v>
   <v>       0.12195122      -0.00000000       0.00000000 </v>
   <v>      -0.12195122       0.12195122       0.00000000 </v>
   <v>       0.14634146      -0.00000000       0.00000000 </v>
   <v>      -0.14634146       0.14634146       0.00000000 </v>
   <v>       0.17073171      -0.00000000       0.00000000 </v>
   <v>      -0.17073171       0.17073171       0.00000000 </v>
   <v>       0.19512195       0.00000000       0.00000000 </v>
   <v>      -0.19512195       0.19512195       0.00000000 </v>
   <v>       0.21951220       0.00000000       0.00000000 </v>
   <v>      -0.21951220       0.21951220       0.00000000 </v>
   <v>       0.24390244       0.00000000       0.00000000 </v>
   <v>      -0.24390244       0.24390244       0.00000000 </v>
   <v>       0.26829268       0.00000000       0.00000000 </v>
   <v>      -0.26829268       0.26829268       0.00000000 </v>
   <v>       0.29268293       0.00000000       0.00000000 </v>
   <v>      -0.29268293       0.29268293       0.00000000 </v>
   <v>       0.31707317      -0.00000000       0.00000000 </v>
   <v>      -0.31707317       0.31707317       0.00000000 </v>
   <v>       0.34146341      -0.00000000       0.00000000 </v>
   <v>      -0.34146341       0.34146341       0.00000000 </v>
   <v>       0.36585366       0.00000000       0.00000000 </v>
   <v>      -0.36585366       0.36585366       0.00000000 </v>
   <v>       0.39024390       0.00000000       0.00000000 </v>
   <v>      -0.39024390       0.39024390       0.00000000 </v>
   <v>       0.41463415       0.00000000       0.00000000 </v>
   <v>      -0.41463415       0.41463415       0.00000000 </v>
   <v>       0.43902439       0.00000000       0.00000000 </v>
   <v>      -0.43902439       0.43902439       0.00000000 </v>
   <v>       0.46341463       0.00000000       0.00000000 </v>
   <v>      -0.46341463       0.46341463       0.00000000 </v>
   <v>       0.48780488       0.00000000       0.00000000 </v>
   <v>      -0.48780488       0.48780488       0.00000000 </v>
   <v>       0.02439024       0.02439024       0.00000000 </v>
   <v>      -0.02439024       0.04878049       0.00000000 </v>
   <v>       0.04878049       0.02439024       0.00000000 </v>
   <v>      -0.02439024       0.07317073       0.00000000 </v>
   <v>      -0.07317073       0.04878049       0.00000000 </v>
   <v>       0.07317073       0.02439024       0.00000000 </v>
   <v>      -0.02439024       0.09756098       0.00000000 </v>
   <v>      -0.09756098       0.07317073       0.00000000 </v>
   <v>       0.09756098       0.02439024       0.00000000 </v>
   <v>      -0.02439024       0.12195122       0.00000000 </v>
   <v>      -0.12195122       0.09756098       0.00000000 </v>
   <v>       0.12195122       0.02439024       0.00000000 </v>
   <v>      -0.02439024       0.14634146       0.00000000 </v>
   <v>      -0.14634146       0.12195122       0.00000000 </v>
   <v>       0.14634146       0.02439024       0.00000000 </v>
   <v>      -0.02439024       0.17073171       0.00000000 </v>
   <v>      -0.17073171       0.14634146       0.00000000 </v>
   <v>       0.17073171       0.02439024       0.00000000 </v>
   <v>      -0.02439024       0.19512195       0.00000000 </v>
   <v>      -0.19512195       0.17073171       0.00000000 </v>
   <v>       0.19512195       0.02439024       0.00000000 </v>
   <v>      -0.02439024       0.21951220       0.00000000 </v>
   <v>      -0.21951220       0.19512195       0.00000000 </v>
   <v>       0.21951220       0.02439024       0.00000000 </v>
   <v>      -0.02439024       0.24390244       0.00000000 </v>
   <v>      -0.24390244       0.21951220       0.00000000 </v>
   <v>       0.24390244       0.02439024       0.00000000 </v>
   <v>      -0.02439024       0.26829268       0.00000000 </v>
   <v>      -0.26829268       0.24390244       0.00000000 </v>
   <v>       0.26829268       0.02439024       0.00000000 </v>
   <v>      -0.02439024       0.29268293       0.00000000 </v>
   <v>      -0.29268293       0.26829268       0.00000000 </v>
   <v>       0.29268293       0.02439024       0.00000000 </v>
   <v>      -0.02439024       0.31707317       0.00000000 </v>
   <v>      -0.31707317       0.29268293       0.00000000 </v>
   <v>       0.31707317       0.02439024       0.00000000 </v>
   <v>      -0.02439024       0.34146341       0.00000000 </v>
   <v>      -0.34146341       0.31707317       0.00000000 </v>
   <v>       0.34146341       0.02439024       0.00000000 </v>
   <v>      -0.02439024       0.36585366       0.00000000 </v>
   <v>      -0.36585366       0.34146341       0.00000000 </v>
   <v>       0.36585366       0.02439024       0.00000000 </v>
   <v>      -0.02439024       0.39024390       0.00000000 </v>
   <v>      -0.39024390       0.36585366       0.00000000 </v>
   <v>       0.39024390       0.02439024       0.00000000 </v>
   <v>      -0.02439024       0.41463415       0.00000000 </v>
   <v>      -0.41463415       0.39024390       0.00000000 </v>
   <v>       0.41463415       0.02439024       0.00000000 </v>
   <v>      -0.02439024       0.43902439       0.00000000 </v>
   <v>      -0.43902439       0.41463415       0.00000000 </v>
   <v>       0.43902439       0.02439024       0.00000000 </v>
   <v>      -0.02439024       0.46341463       0.00000000 </v>
   <v>      -0.46341463       0.43902439       0.00000000 </v>
   <v>       0.46341463       0.02439024       0.00000000 </v>
   <v>      -0.02439024       0.48780488       0.00000000 </v>
   <v>      -0.48780488       0.46341463       0.00000000 </v>
   <v>       0.48780488       0.02439024       0.00000000 </v>
   <v>       0.48780488       0.48780488       0.00000000 </v>
   <v>       0.04878049       0.04878049       0.00000000 </v>
   <v>      -0.04878049       0.09756098       0.00000000 </v>
   <v>       0.07317073       0.04878049       0.00000000 </v>
   <v>      -0.04878049       0.12195122       0.00000000 </v>
   <v>      -0.12195122       0.07317073       0.00000000 </v>
   <v>       0.09756098       0.04878049       0.00000000 </v>
   <v>      -0.04878049       0.14634146       0.00000000 </v>
   <v>      -0.14634146       0.09756098       0.00000000 </v>
   <v>       0.12195122       0.04878049       0.00000000 </v>
   <v>      -0.04878049       0.17073171       0.00000000 </v>
   <v>      -0.17073171       0.12195122       0.00000000 </v>
   <v>       0.14634146       0.04878049       0.00000000 </v>
   <v>      -0.04878049       0.19512195       0.00000000 </v>
   <v>      -0.19512195       0.14634146       0.00000000 </v>
   <v>       0.17073171       0.04878049       0.00000000 </v>
   <v>      -0.04878049       0.21951220       0.00000000 </v>
   <v>      -0.21951220       0.17073171       0.00000000 </v>
   <v>       0.19512195       0.04878049       0.00000000 </v>
   <v>      -0.04878049       0.24390244       0.00000000 </v>
   <v>      -0.24390244       0.19512195       0.00000000 </v>
   <v>       0.21951220       0.04878049       0.00000000 </v>
   <v>      -0.04878049       0.26829268       0.00000000 </v>
   <v>      -0.26829268       0.21951220       0.00000000 </v>
   <v>       0.24390244       0.04878049       0.00000000 </v>
   <v>      -0.04878049       0.29268293       0.00000000 </v>
   <v>      -0.29268293       0.24390244       0.00000000 </v>
   <v>       0.26829268       0.04878049       0.00000000 </v>
   <v>      -0.04878049       0.31707317       0.00000000 </v>
   <v>      -0.31707317       0.26829268       0.00000000 </v>
   <v>       0.29268293       0.04878049       0.00000000 </v>
   <v>      -0.04878049       0.34146341       0.00000000 </v>
   <v>      -0.34146341       0.29268293       0.00000000 </v>
   <v>       0.31707317       0.04878049       0.00000000 </v>
   <v>      -0.04878049       0.36585366       0.00000000 </v>
   <v>      -0.36585366       0.31707317       0.00000000 </v>
   <v>       0.34146341       0.04878049       0.00000000 </v>
   <v>      -0.04878049       0.39024390       0.00000000 </v>
   <v>      -0.39024390       0.34146341       0.00000000 </v>
   <v>       0.36585366       0.04878049       0.00000000 </v>
   <v>      -0.04878049       0.41463415       0.00000000 </v>
   <v>      -0.41463415       0.36585366       0.00000000 </v>
   <v>       0.39024390       0.04878049       0.00000000 </v>
   <v>      -0.04878049       0.43902439       0.00000000 </v>
   <v>      -0.43902439       0.39024390       0.00000000 </v>
   <v>       0.41463415       0.04878049       0.00000000 </v>
   <v>      -0.04878049       0.46341463       0.00000000 </v>
   <v>      -0.46341463       0.41463415       0.00000000 </v>
   <v>       0.43902439       0.04878049       0.00000000 </v>
   <v>      -0.04878049       0.48780488       0.00000000 </v>
   <v>      -0.48780488       0.43902439       0.00000000 </v>
   <v>       0.46341463       0.04878049       0.00000000 </v>
   <v>      -0.04878049      -0.48780488       0.00000000 </v>
   <v>       0.48780488       0.46341463       0.00000000 </v>
   <v>       0.07317073       0.07317073       0.00000000 </v>
   <v>      -0.07317073       0.14634146       0.00000000 </v>
   <v>       0.09756098       0.07317073       0.00000000 </v>
   <v>      -0.07317073       0.17073171       0.00000000 </v>
   <v>      -0.17073171       0.09756098       0.00000000 </v>
   <v>       0.12195122       0.07317073       0.00000000 </v>
   <v>      -0.07317073       0.19512195       0.00000000 </v>
   <v>      -0.19512195       0.12195122       0.00000000 </v>
   <v>       0.14634146       0.07317073       0.00000000 </v>
   <v>      -0.07317073       0.21951220       0.00000000 </v>
   <v>      -0.21951220       0.14634146       0.00000000 </v>
   <v>       0.17073171       0.07317073       0.00000000 </v>
   <v>      -0.07317073       0.24390244       0.00000000 </v>
   <v>      -0.24390244       0.17073171       0.00000000 </v>
   <v>       0.19512195       0.07317073       0.00000000 </v>
   <v>      -0.07317073       0.26829268       0.00000000 </v>
   <v>      -0.26829268       0.19512195       0.00000000 </v>
   <v>       0.21951220       0.07317073       0.00000000 </v>
   <v>      -0.07317073       0.29268293       0.00000000 </v>
   <v>      -0.29268293       0.21951220       0.00000000 </v>
   <v>       0.24390244       0.07317073       0.00000000 </v>
   <v>      -0.07317073       0.31707317       0.00000000 </v>
   <v>      -0.31707317       0.24390244       0.00000000 </v>
   <v>       0.26829268       0.07317073       0.00000000 </v>
   <v>      -0.07317073       0.34146341       0.00000000 </v>
   <v>      -0.34146341       0.26829268       0.00000000 </v>
   <v>       0.29268293       0.07317073       0.00000000 </v>
   <v>      -0.07317073       0.36585366       0.00000000 </v>
   <v>      -0.36585366       0.29268293       0.00000000 </v>
   <v>       0.31707317       0.07317073       0.00000000 </v>
   <v>      -0.07317073       0.39024390       0.00000000 </v>
   <v>      -0.39024390       0.31707317       0.00000000 </v>
   <v>       0.34146341       0.07317073       0.00000000 </v>
   <v>      -0.07317073       0.41463415       0.00000000 </v>
   <v>      -0.41463415       0.34146341       0.00000000 </v>
   <v>       0.36585366       0.07317073       0.00000000 </v>
   <v>      -0.07317073       0.43902439       0.00000000 </v>
   <v>      -0.43902439       0.36585366       0.00000000 </v>
   <v>       0.39024390       0.07317073       0.00000000 </v>
   <v>      -0.07317073       0.46341463       0.00000000 </v>
   <v>      -0.46341463       0.39024390       0.00000000 </v>
   <v>       0.41463415       0.07317073       0.00000000 </v>
   <v>      -0.07317073       0.48780488       0.00000000 </v>
   <v>      -0.48780488       0.41463415       0.00000000 </v>
   <v>       0.43902439       0.07317073       0.00000000 </v>
   <v>      -0.07317073      -0.48780488       0.00000000 </v>
   <v>       0.48780488       0.43902439       0.00000000 </v>
   <v>       0.46341463       0.07317073       0.00000000 </v>
   <v>       0.46341463       0.46341463       0.00000000 </v>
   <v>       0.09756098       0.09756098       0.00000000 </v>
   <v>      -0.09756098       0.19512195       0.00000000 </v>
   <v>       0.12195122       0.09756098       0.00000000 </v>
   <v>      -0.09756098       0.21951220       0.00000000 </v>
   <v>      -0.21951220       0.12195122       0.00000000 </v>
   <v>       0.14634146       0.09756098       0.00000000 </v>
   <v>      -0.09756098       0.24390244       0.00000000 </v>
   <v>      -0.24390244       0.14634146       0.00000000 </v>
   <v>       0.17073171       0.09756098       0.00000000 </v>
   <v>      -0.09756098       0.26829268       0.00000000 </v>
   <v>      -0.26829268       0.17073171       0.00000000 </v>
   <v>       0.19512195       0.09756098       0.00000000 </v>
   <v>      -0.09756098       0.29268293       0.00000000 </v>
   <v>      -0.29268293       0.19512195       0.00000000 </v>
   <v>       0.21951220       0.09756098       0.00000000 </v>
   <v>      -0.09756098       0.31707317       0.00000000 </v>
   <v>      -0.31707317       0.21951220       0.00000000 </v>
   <v>       0.24390244       0.09756098       0.00000000 </v>
   <v>      -0.09756098       0.34146341       0.00000000 </v>
   <v>      -0.34146341       0.24390244       0.00000000 </v>
   <v>       0.26829268       0.09756098       0.00000000 </v>
   <v>      -0.09756098       0.36585366       0.00000000 </v>
   <v>      -0.36585366       0.26829268       0.00000000 </v>
   <v>       0.29268293       0.09756098       0.00000000 </v>
   <v>      -0.09756098       0.39024390       0.00000000 </v>
   <v>      -0.39024390       0.29268293       0.00000000 </v>
   <v>       0.31707317       0.09756098       0.00000000 </v>
   <v>      -0.09756098       0.41463415       0.00000000 </v>
   <v>      -0.41463415       0.31707317       0.00000000 </v>
   <v>       0.34146341       0.09756098       0.00000000 </v>
   <v>      -0.09756098       0.43902439       0.00000000 </v>
   <v>      -0.43902439       0.34146341       0.00000000 </v>
   <v>       0.36585366       0.09756098       0.00000000 </v>
   <v>      -0.09756098       0.46341463       0.00000000 </v>
   <v>      -0.46341463       0.36585366       0.00000000 </v>
   <v>       0.39024390       0.09756098       0.00000000 </v>
   <v>      -0.09756098       0.48780488       0.00000000 </v>
   <v>      -0.48780488       0.39024390       0.00000000 </v>
   <v>       0.41463415       0.09756098       0.00000000 </v>
   <v>      -0.09756098      -0.48780488       0.00000000 </v>
   <v>       0.48780488       0.41463415       0.00000000 </v>
   <v>       0.43902439       0.09756098       0.00000000 </v>
   <v>      -0.09756098      -0.46341463       0.00000000 </v>
   <v>       0.46341463       0.43902439       0.00000000 </v>
   <v>       0.12195122       0.12195122       0.00000000 </v>
   <v>      -0.12195122       0.24390244       0.00000000 </v>
   <v>       0.14634146       0.12195122       0.00000000 </v>
   <v>      -0.12195122       0.26829268       0.00000000 </v>
   <v>      -0.26829268       0.14634146       0.00000000 </v>
   <v>       0.17073171       0.12195122       0.00000000 </v>
   <v>      -0.12195122       0.29268293       0.00000000 </v>
   <v>      -0.29268293       0.17073171       0.00000000 </v>
   <v>       0.19512195       0.12195122       0.00000000 </v>
   <v>      -0.12195122       0.31707317       0.00000000 </v>
   <v>      -0.31707317       0.19512195       0.00000000 </v>
   <v>       0.21951220       0.12195122       0.00000000 </v>
   <v>      -0.12195122       0.34146341       0.00000000 </v>
   <v>      -0.34146341       0.21951220       0.00000000 </v>
   <v>       0.24390244       0.12195122       0.00000000 </v>
   <v>      -0.12195122       0.36585366       0.00000000 </v>
   <v>      -0.36585366       0.24390244       0.00000000 </v>
   <v>       0.26829268       0.12195122       0.00000000 </v>
   <v>      -0.12195122       0.39024390       0.00000000 </v>
   <v>      -0.39024390       0.26829268       0.00000000 </v>
   <v>       0.29268293       0.12195122       0.00000000 </v>
   <v>      -0.12195122       0.41463415       0.00000000 </v>
   <v>      -0.41463415       0.29268293       0.00000000 </v>
   <v>       0.31707317       0.12195122       0.00000000 </v>
   <v>      -0.12195122       0.43902439       0.00000000 </v>
   <v>      -0.43902439       0.31707317       0.00000000 </v>
   <v>       0.34146341       0.12195122       0.00000000 </v>
   <v>      -0.12195122       0.46341463       0.00000000 </v>
   <v>      -0.46341463       0.34146341       0.00000000 </v>
   <v>       0.36585366       0.12195122       0.00000000 </v>
   <v>      -0.12195122       0.48780488       0.00000000 </v>
   <v>      -0.48780488       0.36585366       0.00000000 </v>
   <v>       0.39024390       0.12195122       0.00000000 </v>
   <v>      -0.12195122      -0.48780488       0.00000000 </v>
   <v>       0.48780488       0.39024390       0.00000000 </v>
   <v>       0.41463415       0.12195122       0.00000000 </v>
   <v>      -0.12195122      -0.46341463       0.00000000 </v>
   <v>       0.46341463       0.41463415       0.00000000 </v>
   <v>       0.43902439       0.12195122       0.00000000 </v>
   <v>       0.43902439       0.43902439       0.00000000 </v>
   <v>       0.14634146       0.14634146       0.00000000 </v>
   <v>      -0.14634146       0.29268293       0.00000000 </v>
   <v>       0.17073171       0.14634146       0.00000000 </v>
   <v>      -0.14634146       0.31707317       0.00000000 </v>
   <v>      -0.31707317       0.17073171       0.00000000 </v>
   <v>       0.19512195       0.14634146       0.00000000 </v>
   <v>      -0.14634146       0.34146341       0.00000000 </v>
   <v>      -0.34146341       0.19512195       0.00000000 </v>
   <v>       0.21951220       0.14634146       0.00000000 </v>
   <v>      -0.14634146       0.36585366       0.00000000 </v>
   <v>      -0.36585366       0.21951220       0.00000000 </v>
   <v>       0.24390244       0.14634146       0.00000000 </v>
   <v>      -0.14634146       0.39024390       0.00000000 </v>
   <v>      -0.39024390       0.24390244       0.00000000 </v>
   <v>       0.26829268       0.14634146       0.00000000 </v>
   <v>      -0.14634146       0.41463415       0.00000000 </v>
   <v>      -0.41463415       0.26829268       0.00000000 </v>
   <v>       0.29268293       0.14634146       0.00000000 </v>
   <v>      -0.14634146       0.43902439       0.00000000 </v>
   <v>      -0.43902439       0.29268293       0.00000000 </v>
   <v>       0.31707317       0.14634146       0.00000000 </v>
   <v>      -0.14634146       0.46341463       0.00000000 </v>
   <v>      -0.46341463       0.31707317       0.00000000 </v>
   <v>       0.34146341       0.14634146       0.00000000 </v>
   <v>      -0.14634146       0.48780488       0.00000000 </v>
   <v>      -0.48780488       0.34146341       0.00000000 </v>
   <v>       0.36585366       0.14634146       0.00000000 </v>
   <v>      -0.14634146      -0.48780488       0.00000000 </v>
   <v>       0.48780488       0.36585366       0.00000000 </v>
   <v>       0.39024390       0.14634146       0.00000000 </v>
   <v>      -0.14634146      -0.46341463       0.00000000 </v>
   <v>       0.46341463       0.39024390       0.00000000 </v>
   <v>       0.41463415       0.14634146       0.00000000 </v>
   <v>      -0.14634146      -0.43902439       0.00000000 </v>
   <v>       0.43902439       0.41463415       0.00000000 </v>
   <v>       0.17073171       0.17073171       0.00000000 </v>
   <v>      -0.17073171       0.34146341       0.00000000 </v>
   <v>       0.19512195       0.17073171       0.00000000 </v>
   <v>      -0.17073171       0.36585366       0.00000000 </v>
   <v>      -0.36585366       0.19512195       0.00000000 </v>
   <v>       0.21951220       0.17073171       0.00000000 </v>
   <v>      -0.17073171       0.39024390       0.00000000 </v>
   <v>      -0.39024390       0.21951220       0.00000000 </v>
   <v>       0.24390244       0.17073171       0.00000000 </v>
   <v>      -0.17073171       0.41463415       0.00000000 </v>
   <v>      -0.41463415       0.24390244       0.00000000 </v>
   <v>       0.26829268       0.17073171       0.00000000 </v>
   <v>      -0.17073171       0.43902439       0.00000000 </v>
   <v>      -0.43902439       0.26829268       0.00000000 </v>
   <v>       0.29268293       0.17073171       0.00000000 </v>
   <v>      -0.17073171       0.46341463       0.00000000 </v>
   <v>      -0.46341463       0.29268293       0.00000000 </v>
   <v>       0.31707317       0.17073171       0.00000000 </v>
   <v>      -0.17073171       0.48780488       0.00000000 </v>
   <v>      -0.48780488       0.31707317       0.00000000 </v>
   <v>       0.34146341       0.17073171       0.00000000 </v>
   <v>      -0.17073171      -0.48780488       0.00000000 </v>
   <v>       0.48780488       0.34146341       0.00000000 </v>
   <v>       0.36585366       0.17073171       0.00000000 </v>
   <v>      -0.17073171      -0.46341463       0.00000000 </v>
   <v>       0.46341463       0.36585366       0.00000000 </v>
   <v>       0.39024390       0.17073171       0.00000000 </v>
   <v>      -0.17073171      -0.43902439       0.00000000 </v>
   <v>       0.43902439       0.39024390       0.00000000 </v>
   <v>       0.41463415       0.17073171       0.00000000 </v>
   <v>       0.41463415       0.41463415       0.00000000 </v>
   <v>       0.19512195       0.19512195       0.00000000 </v>
   <v>      -0.19512195       0.39024390       0.00000000 </v>
   <v>       0.21951220       0.19512195       0.00000000 </v>
   <v>      -0.19512195       0.41463415       0.00000000 </v>
   <v>      -0.41463415       0.21951220       0.00000000 </v>
   <v>       0.24390244       0.19512195       0.00000000 </v>
   <v>      -0.19512195       0.43902439       0.00000000 </v>
   <v>      -0.43902439       0.24390244       0.00000000 </v>
   <v>       0.26829268       0.19512195       0.00000000 </v>
   <v>      -0.19512195       0.46341463       0.00000000 </v>
   <v>      -0.46341463       0.26829268       0.00000000 </v>
   <v>       0.29268293       0.19512195       0.00000000 </v>
   <v>      -0.19512195       0.48780488       0.00000000 </v>
   <v>      -0.48780488       0.29268293       0.00000000 </v>
   <v>       0.31707317       0.19512195       0.00000000 </v>
   <v>      -0.19512195      -0.48780488       0.00000000 </v>
   <v>       0.48780488       0.31707317       0.00000000 </v>
   <v>       0.34146341       0.19512195       0.00000000 </v>
   <v>      -0.19512195      -0.46341463       0.00000000 </v>
   <v>       0.46341463       0.34146341       0.00000000 </v>
   <v>       0.36585366       0.19512195       0.00000000 </v>
   <v>      -0.19512195      -0.43902439       0.00000000 </v>
   <v>       0.43902439       0.36585366       0.00000000 </v>
   <v>       0.39024390       0.19512195       0.00000000 </v>
   <v>      -0.19512195      -0.41463415       0.00000000 </v>
   <v>       0.41463415       0.39024390       0.00000000 </v>
   <v>       0.21951220       0.21951220       0.00000000 </v>
   <v>      -0.21951220       0.43902439       0.00000000 </v>
   <v>       0.24390244       0.21951220       0.00000000 </v>
   <v>      -0.21951220       0.46341463       0.00000000 </v>
   <v>      -0.46341463       0.24390244       0.00000000 </v>
   <v>       0.26829268       0.21951220       0.00000000 </v>
   <v>      -0.21951220       0.48780488       0.00000000 </v>
   <v>      -0.48780488       0.26829268       0.00000000 </v>
   <v>       0.29268293       0.21951220       0.00000000 </v>
   <v>      -0.21951220      -0.48780488       0.00000000 </v>
   <v>       0.48780488       0.29268293       0.00000000 </v>
   <v>       0.31707317       0.21951220       0.00000000 </v>
   <v>      -0.21951220      -0.46341463       0.00000000 </v>
   <v>       0.46341463       0.31707317       0.00000000 </v>
   <v>       0.34146341       0.21951220       0.00000000 </v>
   <v>      -0.21951220      -0.43902439       0.00000000 </v>
   <v>       0.43902439       0.34146341       0.00000000 </v>
   <v>       0.36585366       0.21951220       0.00000000 </v>
   <v>      -0.21951220      -0.41463415       0.00000000 </v>
   <v>       0.41463415       0.36585366       0.00000000 </v>
   <v>       0.39024390       0.21951220       0.00000000 </v>
   <v>       0.39024390       0.39024390       0.00000000 </v>
   <v>       0.24390244       0.24390244       0.00000000 </v>
   <v>      -0.24390244       0.48780488       0.00000000 </v>
   <v>       0.26829268       0.24390244       0.00000000 </v>
   <v>      -0.24390244      -0.48780488       0.00000000 </v>
   <v>       0.48780488       0.26829268       0.00000000 </v>
   <v>       0.29268293       0.24390244       0.00000000 </v>
   <v>      -0.24390244      -0.46341463       0.00000000 </v>
   <v>       0.46341463       0.29268293       0.00000000 </v>
   <v>       0.31707317       0.24390244       0.00000000 </v>
   <v>      -0.24390244      -0.43902439       0.00000000 </v>
   <v>       0.43902439       0.31707317       0.00000000 </v>
   <v>       0.34146341       0.24390244       0.00000000 </v>
   <v>      -0.24390244      -0.41463415       0.00000000 </v>
   <v>       0.41463415       0.34146341       0.00000000 </v>
   <v>       0.36585366       0.24390244       0.00000000 </v>
   <v>      -0.24390244      -0.39024390       0.00000000 </v>
   <v>       0.39024390       0.36585366       0.00000000 </v>
   <v>       0.26829268       0.26829268       0.00000000 </v>
   <v>      -0.26829268      -0.46341463       0.00000000 </v>
   <v>       0.29268293       0.26829268       0.00000000 </v>
   <v>      -0.26829268      -0.43902439       0.00000000 </v>
   <v>       0.43902439       0.29268293       0.00000000 </v>
   <v>       0.31707317       0.26829268       0.00000000 </v>
   <v>      -0.26829268      -0.41463415       0.00000000 </v>
   <v>       0.41463415       0.31707317       0.00000000 </v>
   <v>       0.34146341       0.26829268       0.00000000 </v>
   <v>      -0.26829268      -0.39024390       0.00000000 </v>
   <v>       0.39024390       0.34146341       0.00000000 </v>
   <v>       0.36585366       0.26829268       0.00000000 </v>
   <v>       0.36585366       0.36585366       0.00000000 </v>
   <v>       0.29268293       0.29268293       0.00000000 </v>
   <v>      -0.29268293      -0.41463415       0.00000000 </v>
   <v>       0.31707317       0.29268293       0.00000000 </v>
   <v>      -0.29268293      -0.39024390       0.00000000 </v>
   <v>       0.39024390       0.31707317       0.00000000 </v>
   <v>       0.34146341       0.29268293       0.00000000 </v>
   <v>      -0.29268293      -0.36585366       0.00000000 </v>
   <v>       0.36585366       0.34146341       0.00000000 </v>
   <v>       0.31707317       0.31707317       0.00000000 </v>
   <v>      -0.31707317      -0.36585366       0.00000000 </v>
   <v>       0.34146341       0.31707317       0.00000000 </v>
   <v>       0.34146341       0.34146341       0.00000000 </v>
  </varray>
  <varray name="weights" >
   <v>       0.00059488 </v>
   <v>       0.00237954 </v>
   <v>       0.00118977 </v>
   <v>       0.00237954 </v>
   <v>       0.00118977 </v>
   <v>       0.00237954 </v>
   <v>       0.00118977 </v>
   <v>       0.00237954 </v>
   <v>       0.00118977 </v>
   <v>       0.00237954 </v>
   <v>       0.00118977 </v>
   <v>       0.00237954 </v>
   <v>       0.00118977 </v>
   <v>       0.00237954 </v>
   <v>       0.00118977 </v>
   <v>       0.00237954 </v>
   <v>       0.00118977 </v>
   <v>       0.00237954 </v>
   <v>       0.00118977 </v>
   <v>       0.00237954 </v>
   <v>       0.00118977 </v>
   <v>       0.00237954 </v>
   <v>       0.00118977 </v>
   <v>       0.00237954 </v>
   <v>       0.00118977 </v>
   <v>       0.00237954 </v>
   <v>       0.00118977 </v>
   <v>       0.00237954 </v>
   <v>       0.00118977 </v>
   <v>       0.00237954 </v>
   <v>       0.00118977 </v>
   <v>       0.00237954 </v>
   <v>       0.00118977 </v>
   <v>       0.00237954 </v>
   <v>       0.00118977 </v>
   <v>       0.00237954 </v>
   <v>       0.00118977 </v>
   <v>       0.00237954 </v>
   <v>       0.00118977 </v>
   <v>       0.00237954 </v>
   <v>       0.00118977 </v>
   <v>       0.00118977 </v>
   <v>       0.00237954 </v>
   <v>       0.00237954 </v>
   <v>       0.00237954 </v>
   <v>       0.00237954 </v>
   <v>       0.00237954 </v>
   <v>       0.00237954 </v>
   <v>       0.00237954 </v>
   <v>       0.00237954 </v>
   <v>       0.00237954 </v>
   <v>       0.00237954 </v>
   <v>       0.00237954 </v>
   <v>       0.00237954 </v>
   <v>       0.00237954 </v>
   <v>       0.00237954 </v>
   <v>       0.00237954 </v>
   <v>       0.00237954 </v>
   <v>       0.00237954 </v>
   <v>       0.00237954 </v>
   <v>       0.00237954 </v>
   <v>       0.00237954 </v>
   <v>       0.00237954 </v>
   <v>       0.00237954 </v>
   <v>       0.00237954 </v>
   <v>       0.00237954 </v>
   <v>       0.00237954 </v>
   <v>       0.00237954 </v>
   <v>       0.00237954 </v>
   <v>       0.00237954 </v>
   <v>       0.00237954 </v>
   <v>       0.00237954 </v>
   <v>       0.00237954 </v>
   <v>       0.00237954 </v>
   <v>       0.00237954 </v>
   <v>       0.00237954 </v>
   <v>       0.00237954 </v>
   <v>       0.00237954 </v>
   <v>       0.00237954 </v>
   <v>       0.00237954 </v>
   <v>       0.00237954 </v>
   <v>       0.00237954 </v>
   <v>       0.00237954 </v>
   <v>       0.00237954 </v>
   <v>       0.00237954 </v>
   <v>       0.00237954 </v>
   <v>       0.00237954 </v>
   <v>       0.00237954 </v>
   <v>       0.00237954 </v>
   <v>       0.00237954 </v>
   <v>       0.00237954 </v>
   <v>       0.00237954 </v>
   <v>       0.00237954 </v>
   <v>       0.00237954 </v>
   <v>       0.00237954 </v>
   <v>       0.00237954 </v>
   <v>       0.00237954 </v>
   <v>       0.00237954 </v>
   <v>       0.00118977 </v>
   <v>       0.00118977 </v>
   <v>       0.00237954 </v>
   <v>       0.00237954 </v>
   <v>       0.00237954 </v>
   <v>       0.00237954 </v>
   <v>       0.00237954 </v>
   <v>       0.00237954 </v>
   <v>       0.00237954 </v>
   <v>       0.00237954 </v>
   <v>       0.00237954 </v>
   <v>       0.00237954 </v>
   <v>       0.00237954 </v>
   <v>       0.00237954 </v>
   <v>       0.00237954 </v>
   <v>       0.00237954 </v>
   <v>       0.00237954 </v>
   <v>       0.00237954 </v>
   <v>       0.00237954 </v>
   <v>       0.00237954 </v>
   <v>       0.00237954 </v>
   <v>       0.00237954 </v>
   <v>       0.00237954 </v>
   <v>       0.00237954 </v>
   <v>       0.00237954 </v>
   <v>       0.00237954 </v>
   <v>       0.00237954 </v>
   <v>       0.00237954 </v>
   <v>       0.00237954 </v>
   <v>       0.00237954 </v>
   <v>       0.00237954 </v>
   <v>       0.00237954 </v>
   <v>       0.00237954 </v>
   <v>       0.00237954 </v>
   <v>       0.00237954 </v>
   <v>       0.00237954 </v>
   <v>       0.00237954 </v>
   <v>       0.00237954 </v>
   <v>       0.00237954 </v>
   <v>       0.00237954 </v>
   <v>       0.00237954 </v>
   <v>       0.00237954 </v>
   <v>       0.00237954 </v>
   <v>       0.00237954 </v>
   <v>       0.00237954 </v>
   <v>       0.00237954 </v>
   <v>       0.00237954 </v>
   <v>       0.00237954 </v>
   <v>       0.00237954 </v>
   <v>       0.00237954 </v>
   <v>       0.00237954 </v>
   <v>       0.00237954 </v>
   <v>       0.00237954 </v>
   <v>       0.00237954 </v>
   <v>       0.00118977 </v>
   <v>       0.00237954 </v>
   <v>       0.00237954 </v>
   <v>       0.00237954 </v>
   <v>       0.00237954 </v>
   <v>       0.00237954 </v>
   <v>       0.00237954 </v>
   <v>       0.00237954 </v>
   <v>       0.00237954 </v>
   <v>       0.00237954 </v>
   <v>       0.00237954 </v>
   <v>       0.00237954 </v>
   <v>       0.00237954 </v>
   <v>       0.00237954 </v>
   <v>       0.00237954 </v>
   <v>       0.00237954 </v>
   <v>       0.00237954 </v>
   <v>       0.00237954 </v>
   <v>       0.00237954 </v>
   <v>       0.00237954 </v>
   <v>       0.00237954 </v>
   <v>       0.00237954 </v>
   <v>       0.00237954 </v>
   <v>       0.00237954 </v>
   <v>       0.00237954 </v>
   <v>       0.00237954 </v>
   <v>       0.00237954 </v>
   <v>       0.00237954 </v>
   <v>       0.00237954 </v>
   <v>       0.00237954 </v>
   <v>       0.00237954 </v>
   <v>       0.00237954 </v>
   <v>       0.00237954 </v>
   <v>       0.00237954 </v>
   <v>       0.00237954 </v>
   <v>       0.00237954 </v>
   <v>       0.00237954 </v>
   <v>       0.00237954 </v>
   <v>       0.00237954 </v>
   <v>       0.00237954 </v>
   <v>       0.00237954 </v>
   <v>       0.00237954 </v>
   <v>       0.00237954 </v>
   <v>       0.00237954 </v>
   <v>       0.00237954 </v>
   <v>       0.00237954 </v>
   <v>       0.00237954 </v>
   <v>       0.00237954 </v>
   <v>       0.00118977 </v>
   <v>       0.00118977 </v>
   <v>       0.00237954 </v>
   <v>       0.00237954 </v>
   <v>       0.00237954 </v>
   <v>       0.00237954 </v>
   <v>       0.00237954 </v>
   <v>       0.00237954 </v>
   <v>       0.00237954 </v>
   <v>       0.00237954 </v>
   <v>       0.00237954 </v>
   <v>       0.00237954 </v>
   <v>       0.00237954 </v>
   <v>       0.00237954 </v>
   <v>       0.00237954 </v>
   <v>       0.00237954 </v>
   <v>       0.00237954 </v>
   <v>       0.00237954 </v>
   <v>       0.00237954 </v>
   <v>       0.00237954 </v>
   <v>       0.00237954 </v>
   <v>       0.00237954 </v>
   <v>       0.00237954 </v>
   <v>       0.00237954 </v>
   <v>       0.00237954 </v>
   <v>       0.00237954 </v>
   <v>       0.00237954 </v>
   <v>       0.00237954 </v>
   <v>       0.00237954 </v>
   <v>       0.00237954 </v>
   <v>       0.00237954 </v>
   <v>       0.00237954 </v>
   <v>       0.00237954 </v>
   <v>       0.00237954 </v>
   <v>       0.00237954 </v>
   <v>       0.00237954 </v>
   <v>       0.00237954 </v>
   <v>       0.00237954 </v>
   <v>       0.00237954 </v>
   <v>       0.00237954 </v>
   <v>       0.00237954 </v>
   <v>       0.00237954 </v>
   <v>       0.00237954 </v>
   <v>       0.00237954 </v>
   <v>       0.00237954 </v>
   <v>       0.00118977 </v>
   <v>       0.00237954 </v>
   <v>       0.00237954 </v>
   <v>       0.00237954 </v>
   <v>       0.00237954 </v>
   <v>       0.00237954 </v>
   <v>       0.00237954 </v>
   <v>       0.00237954 </v>
   <v>       0.00237954 </v>
   <v>       0.00237954 </v>
   <v>       0.00237954 </v>
   <v>       0.00237954 </v>
   <v>       0.00237954 </v>
   <v>       0.00237954 </v>
   <v>       0.00237954 </v>
   <v>       0.00237954 </v>
   <v>       0.00237954 </v>
   <v>       0.00237954 </v>
   <v>       0.00237954 </v>
   <v>       0.00237954 </v>
   <v>       0.00237954 </v>
   <v>       0.00237954 </v>
   <v>       0.00237954 </v>
   <v>       0.00237954 </v>
   <v>       0.00237954 </v>
   <v>       0.00237954 </v>
   <v>       0.00237954 </v>
   <v>       0.00237954 </v>
   <v>       0.00237954 </v>
   <v>       0.00237954 </v>
   <v>       0.00237954 </v>
   <v>       0.00237954 </v>
   <v>       0.00237954 </v>
   <v>       0.00237954 </v>
   <v>       0.00237954 </v>
   <v>       0.00237954 </v>
   <v>       0.00237954 </v>
   <v>       0.00237954 </v>
   <v>       0.00237954 </v>
   <v>       0.00118977 </v>
   <v>       0.00118977 </v>
   <v>       0.00237954 </v>
   <v>       0.00237954 </v>
   <v>       0.00237954 </v>
   <v>       0.00237954 </v>
   <v>       0.00237954 </v>
   <v>       0.00237954 </v>
   <v>       0.00237954 </v>
   <v>       0.00237954 </v>
   <v>       0.00237954 </v>
   <v>       0.00237954 </v>
   <v>       0.00237954 </v>
   <v>       0.00237954 </v>
   <v>       0.00237954 </v>
   <v>       0.00237954 </v>
   <v>       0.00237954 </v>
   <v>       0.00237954 </v>
   <v>       0.00237954 </v>
   <v>       0.00237954 </v>
   <v>       0.00237954 </v>
   <v>       0.00237954 </v>
   <v>       0.00237954 </v>
   <v>       0.00237954 </v>
   <v>       0.00237954 </v>
   <v>       0.00237954 </v>
   <v>       0.00237954 </v>
   <v>       0.00237954 </v>
   <v>       0.00237954 </v>
   <v>       0.00237954 </v>
   <v>       0.00237954 </v>
   <v>       0.00237954 </v>
   <v>       0.00237954 </v>
   <v>       0.00237954 </v>
   <v>       0.00237954 </v>
   <v>       0.00237954 </v>
   <v>       0.00118977 </v>
   <v>       0.00237954 </v>
   <v>       0.00237954 </v>
   <v>       0.00237954 </v>
   <v>       0.00237954 </v>
   <v>       0.00237954 </v>
   <v>       0.00237954 </v>
   <v>       0.00237954 </v>
   <v>       0.00237954 </v>
   <v>       0.00237954 </v>
   <v>       0.00237954 </v>
   <v>       0.00237954 </v>
   <v>       0.00237954 </v>
   <v>       0.00237954 </v>
   <v>       0.00237954 </v>
   <v>       0.00237954 </v>
   <v>       0.00237954 </v>
   <v>       0.00237954 </v>
   <v>       0.00237954 </v>
   <v>       0.00237954 </v>
   <v>       0.00237954 </v>
   <v>       0.00237954 </v>
   <v>       0.00237954 </v>
   <v>       0.00237954 </v>
   <v>       0.00237954 </v>
   <v>       0.00237954 </v>
   <v>       0.00237954 </v>
   <v>       0.00237954 </v>
   <v>       0.00237954 </v>
   <v>       0.00237954 </v>
   <v>       0.00118977 </v>
   <v>       0.00118977 </v>
   <v>       0.00237954 </v>
   <v>       0.00237954 </v>
   <v>       0.00237954 </v>
   <v>       0.00237954 </v>
   <v>       0.00237954 </v>
   <v>       0.00237954 </v>
   <v>       0.00237954 </v>
   <v>       0.00237954 </v>
   <v>       0.00237954 </v>
   <v>       0.00237954 </v>
   <v>       0.00237954 </v>
   <v>       0.00237954 </v>
   <v>       0.00237954 </v>
   <v>       0.00237954 </v>
   <v>       0.00237954 </v>
   <v>       0.00237954 </v>
   <v>       0.00237954 </v>
   <v>       0.00237954 </v>
   <v>       0.00237954 </v>
   <v>       0.00237954 </v>
   <v>       0.00237954 </v>
   <v>       0.00237954 </v>
   <v>       0.00237954 </v>
   <v>       0.00237954 </v>
   <v>       0.00237954 </v>
   <v>       0.00118977 </v>
   <v>       0.00237954 </v>
   <v>       0.00237954 </v>
   <v>       0.00237954 </v>
   <v>       0.00237954 </v>
   <v>       0.00237954 </v>
   <v>       0.00237954 </v>
   <v>       0.00237954 </v>
   <v>       0.00237954 </v>
   <v>       0.00237954 </v>
   <v>       0.00237954 </v>
   <v>       0.00237954 </v>
   <v>       0.00237954 </v>
   <v>       0.00237954 </v>
   <v>       0.00237954 </v>
   <v>       0.00237954 </v>
   <v>       0.00237954 </v>
   <v>       0.00237954 </v>
   <v>       0.00237954 </v>
   <v>       0.00237954 </v>
   <v>       0.00237954 </v>
   <v>       0.00118977 </v>
   <v>       0.00118977 </v>
   <v>       0.00237954 </v>
   <v>       0.00237954 </v>
   <v>       0.00237954 </v>
   <v>       0.00237954 </v>
   <v>       0.00237954 </v>
   <v>       0.00237954 </v>
   <v>       0.00237954 </v>
   <v>       0.00237954 </v>
   <v>       0.00237954 </v>
   <v>       0.00237954 </v>
   <v>       0.00237954 </v>
   <v>       0.00237954 </v>
   <v>       0.00237954 </v>
   <v>       0.00237954 </v>
   <v>       0.00237954 </v>
   <v>       0.00237954 </v>
   <v>       0.00118977 </v>
   <v>       0.00237954 </v>
   <v>       0.00237954 </v>
   <v>       0.00237954 </v>
   <v>       0.00237954 </v>
   <v>       0.00237954 </v>
   <v>       0.00237954 </v>
   <v>       0.00237954 </v>
   <v>       0.00237954 </v>
   <v>       0.00237954 </v>
   <v>       0.00237954 </v>
   <v>       0.00237954 </v>
   <v>       0.00118977 </v>
   <v>       0.00118977 </v>
   <v>       0.00237954 </v>
   <v>       0.00237954 </v>
   <v>       0.00237954 </v>
   <v>       0.00237954 </v>
   <v>       0.00237954 </v>
   <v>       0.00237954 </v>
   <v>       0.00237954 </v>
   <v>       0.00118977 </v>
   <v>       0.00237954 </v>
   <v>       0.00237954 </v>
   <v>       0.00118977 </v>
  </varray>
 </kpoints>
 <parameters>
  <separator name="general" >
   <i type="string" name="SYSTEM">SC</i>
   <i type="logical" name="LCOMPAT"> F  </i>
  </separator>
  <separator name="electronic" >
   <i type="string" name="PREC">accura</i>
   <i name="ENMAX">    450.00000000</i>
   <i name="ENAUG">    644.87300000</i>
   <i name="EDIFF">      0.00000100</i>
   <i type="int" name="IALGO">    38</i>
   <i type="int" name="IWAVPR">    10</i>
   <i type="int" name="NBANDS">    48</i>
   <i type="int" name="NBANDSLOW">    -1</i>
   <i type="int" name="NBANDSHIGH">    -1</i>
   <i name="NELECT">     56.00000000</i>
   <i type="int" name="TURBO">     0</i>
   <i type="int" name="IRESTART">     0</i>
   <i type="int" name="NREBOOT">     0</i>
   <i type="int" name="NMIN">     0</i>
   <i name="EREF">      0.00000000</i>
   <separator name="electronic smearing" >
    <i type="int" name="ISMEAR">     0</i>
    <i name="SIGMA">      0.10000000</i>
    <i name="KSPACING">      0.50000000</i>
    <i type="logical" name="KGAMMA"> T  </i>
    <i type="logical" name="KBLOWUP"> T  </i>
   </separator>
   <separator name="electronic projectors" >
    <i type="logical" name="LREAL"> F  </i>
    <v name="ROPT">      0.00000000      0.00000000</v>
    <i type="int" name="LMAXPAW">  -100</i>
    <i type="int" name="LMAXMIX">     2</i>
    <i type="logical" name="NLSPLINE"> F  </i>
   </separator>
   <separator name="electronic startup" >
    <i type="int" name="ISTART">     0</i>
    <i type="int" name="ICHARG">     2</i>
    <i type="int" name="INIWAV">     1</i>
   </separator>
   <separator name="electronic spin" >
    <i type="int" name="ISPIN">     1</i>
    <i type="logical" name="LNONCOLLINEAR"> F  </i>
    <v name="MAGMOM">      1.00000000      1.00000000      1.00000000      1.00000000      1.00000000      1.00000000      1.00000000      1.00000000      1.00000000      1.00000000      1.00000000      1.00000000      1.00000000      1.00000000      1.00000000      1.00000000</v>
    <i name="NUPDOWN">     -1.00000000</i>
    <i type="logical" name="LSORBIT"> F  </i>
    <v name="SAXIS">      0.00000000      0.00000000      1.00000000</v>
    <i type="logical" name="LSPIRAL"> F  </i>
    <v name="QSPIRAL">      0.00000000      0.00000000      0.00000000</v>
    <i type="logical" name="LZEROZ"> F  </i>
   </separator>
   <separator name="electronic exchange-correlation" >
    <i type="logical" name="LASPH"> F  </i>
    <i type="logical" name="LMETAGGA"> F  </i>
   </separator>
   <separator name="electronic convergence" >
    <i type="int" name="NELM">    64</i>
    <i type="int" name="NELMDL">    -5</i>
    <i type="int" name="NELMIN">     2</i>
    <i name="ENINI">    450.00000000</i>
    <separator name="electronic convergence detail" >
     <i type="logical" name="LDIAG"> T  </i>
     <i type="logical" name="LSUBROT"> F  </i>
     <i name="WEIMIN">      0.00000000</i>
     <i name="EBREAK">      0.00000001</i>
     <i name="DEPER">      0.30000000</i>
     <i type="int" name="NRMM">     4</i>
     <i name="TIME">      0.40000000</i>
    </separator>
   </separator>
   <separator name="electronic mixer" >
    <i name="AMIX">      0.40000000</i>
    <i name="BMIX">      1.00000000</i>
    <i name="AMIN">      0.10000000</i>
    <i name="AMIX_MAG">      1.60000000</i>
    <i name="BMIX_MAG">      1.00000000</i>
    <separator name="electronic mixer details" >
     <i type="int" name="IMIX">     4</i>
     <i type="logical" name="MIXFIRST"> F  </i>
     <i type="int" name="MAXMIX">   -45</i>
     <i name="WC">    100.00000000</i>
     <i type="int" name="INIMIX">     1</i>
     <i type="int" name="MIXPRE">     1</i>
     <i type="int" name="MREMOVE">     5</i>
    </separator>
   </separator>
   <separator name="electronic dipolcorrection" >
    <i type="logical" name="LDIPOL"> F  </i>
    <i type="logical" name="LMONO"> F  </i>
    <i type="int" name="IDIPOL">     0</i>
    <i name="EPSILON">      1.00000000</i>
    <v name="DIPOL">   -100.00000000   -100.00000000   -100.00000000</v>
    <i name="EFIELD">      0.00000000</i>
   </separator>
  </separator>
  <separator name="grids" >
   <i type="int" name="NGX">    36</i>
   <i type="int" name="NGY">    36</i>
   <i type="int" name="NGZ">   108</i>
   <i type="int" name="NGXF">    72</i>
   <i type="int" name="NGYF">    72</i>
   <i type="int" name="NGZF">   216</i>
   <i type="logical" name="ADDGRID"> F  </i>
  </separator>
  <separator name="ionic" >
   <i type="int" name="NSW">     0</i>
   <i type="int" name="IBRION">    -1</i>
   <i type="int" name="MDALGO">     0</i>
   <i type="int" name="ISIF">     2</i>
   <i name="PSTRESS">      0.00000000</i>
   <i name="EDIFFG">     -0.00100000</i>
   <i type="int" name="NFREE">     0</i>
   <i name="POTIM">      0.50000000</i>
   <i name="SMASS">     -3.00000000</i>
   <i name="SCALEE">      1.00000000</i>
  </separator>
  <separator name="ionic md" >
   <i name="TEBEG">      0.00010000</i>
   <i name="TEEND">      0.00010000</i>
   <i type="int" name="NBLOCK">     1</i>
   <i type="int" name="KBLOCK">     1</i>
   <i type="int" name="NPACO">   256</i>
   <i name="APACO">     10.00000000</i>
  </separator>
  <separator name="symmetry" >
   <i type="int" name="ISYM">     2</i>
   <i name="SYMPREC">      0.00000100</i>
  </separator>
  <separator name="dos" >
   <i type="int" name="LORBIT">     0</i>
   <v name="RWIGS">     -1.00000000     -1.00000000</v>
   <i type="int" name="NEDOS">   301</i>
   <i name="EMIN">     10.00000000</i>
   <i name="EMAX">    -10.00000000</i>
   <i name="EFERMI">      0.00000000</i>
  </separator>
  <separator name="writing" >
   <i type="int" name="NWRITE">     2</i>
   <i type="logical" name="LWAVE"> T  </i>
   <i type="logical" name="LDOWNSAMPLE"> F  </i>
   <i type="logical" name="LCHARG"> T  </i>
   <i type="logical" name="LPARD"> F  </i>
   <i type="logical" name="LVTOT"> F  </i>
   <i type="logical" name="LVHAR"> F  </i>
   <i type="logical" name="LELF"> F  </i>
   <i type="logical" name="LOPTICS"> F  </i>
   <v name="STM">      0.00000000      0.00000000      0.00000000      0.00000000      0.00000000      0.00000000      0.00000000</v>
  </separator>
  <separator name="performance" >
   <i type="int" name="NPAR">    48</i>
   <i type="int" name="NSIM">     4</i>
   <i type="int" name="NBLK">    -1</i>
   <i type="logical" name="LPLANE"> T  </i>
   <i type="logical" name="LSCALAPACK"> T  </i>
   <i type="logical" name="LSCAAWARE"> F  </i>
   <i type="logical" name="LSCALU"> F  </i>
   <i type="logical" name="LASYNC"> F  </i>
   <i type="logical" name="LORBITALREAL"> F  </i>
  </separator>
  <separator name="miscellaneous" >
   <i type="int" name="IDIOT">     3</i>
   <i type="int" name="PHON_NSTRUCT">    -1</i>
   <i type="logical" name="LMUSIC"> F  </i>
   <v name="POMASS">     10.81100000     12.01100000</v>
   <v name="DARWINR">      0.00000000      0.00000000</v>
   <v name="DARWINV">      1.00000000      1.00000000</v>
   <i type="logical" name="LCORR"> T  </i>
  </separator>
  <i type="logical" name="GGA_COMPAT"> T  </i>
  <i type="logical" name="LBERRY"> F  </i>
  <i type="int" name="ICORELEVEL">     0</i>
  <i type="logical" name="LDAU"> F  </i>
  <i type="int" name="I_CONSTRAINED_M">     0</i>
  <separator name="electronic exchange-correlation" >
   <i type="string" name="GGA">PE</i>
   <i type="int" name="VOSKOWN">     0</i>
   <i type="logical" name="LHFCALC"> F  </i>
   <i type="string" name="PRECFOCK"></i>
   <i type="logical" name="LSYMGRAD"> F  </i>
   <i type="logical" name="LHFONE"> F  </i>
   <i type="logical" name="LRHFCALC"> F  </i>
   <i type="logical" name="LTHOMAS"> F  </i>
   <i type="logical" name="LMODELHF"> F  </i>
   <i type="logical" name="LFOCKACE"> F  </i>
   <i name="ENCUT4O">     -1.00000000</i>
   <i type="int" name="EXXOEP">     0</i>
   <i type="int" name="FOURORBIT">     0</i>
   <i name="AEXX">      0.00000000</i>
   <i name="HFALPHA">      0.00000000</i>
   <i name="MCALPHA">      0.00000000</i>
   <i name="ALDAX">      1.00000000</i>
   <i name="AGGAX">      1.00000000</i>
   <i name="ALDAC">      1.00000000</i>
   <i name="AGGAC">      1.00000000</i>
   <i type="int" name="NKREDX">     1</i>
   <i type="int" name="NKREDY">     1</i>
   <i type="int" name="NKREDZ">     1</i>
   <i type="logical" name="SHIFTRED"> F  </i>
   <i type="logical" name="ODDONLY"> F  </i>
   <i type="logical" name="EVENONLY"> F  </i>
   <i type="int" name="LMAXFOCK">     0</i>
   <i type="int" name="NMAXFOCKAE">     0</i>
   <i type="logical" name="LFOCKAEDFT"> F  </i>
   <i name="HFSCREEN">      0.00000000</i>
   <i name="HFSCREENC">      0.00000000</i>
   <i type="int" name="NBANDSGWLOW">     0</i>
  </separator>
  <separator name="vdW DFT" >
   <i type="logical" name="LUSE_VDW"> F  </i>
   <i name="Zab_VDW">     -0.84910000</i>
   <i name="PARAM1">      0.12340000</i>
   <i name="PARAM2">      1.00000000</i>
   <i name="PARAM3">      0.00000000</i>
  </separator>
  <separator name="model GW" >
   <i type="int" name="MODEL_GW">     0</i>
   <i name="MODEL_EPS0">     12.07639782</i>
   <i name="MODEL_ALPHA">      1.00000000</i>
  </separator>
  <separator name="linear response parameters" >
   <i type="logical" name="LEPSILON"> F  </i>
   <i type="logical" name="LRPA"> F  </i>
   <i type="logical" name="LNABLA"> F  </i>
   <i type="logical" name="LVEL"> F  </i>
   <i name="CSHIFT">      0.10000000</i>
   <i name="OMEGAMAX">     -1.00000000</i>
   <i name="DEG_THRESHOLD">      0.00200000</i>
   <i name="RTIME">     -0.10000000</i>
   <i name="WPLASMAI">      0.00000000</i>
   <v name="DFIELD">      0.00000000      0.00000000      0.00000000</v>
   <v name="WPLASMA">      0.00000000      0.00000000      0.00000000      0.00000000      0.00000000      0.00000000      0.00000000      0.00000000      0.00000000</v>
  </separator>
  <separator name="orbital magnetization" >
   <i type="logical" name="NUCIND"> F  </i>
   <v name="MAGPOS">      0.00000000      0.00000000      0.00000000</v>
   <i type="logical" name="LNICSALL"> T  </i>
   <i type="logical" name="ORBITALMAG"> F  </i>
   <i type="logical" name="LMAGBLOCH"> F  </i>
   <i type="logical" name="LCHIMAG"> F  </i>
   <i type="logical" name="LGAUGE"> T  </i>
   <i type="int" name="MAGATOM">     0</i>
   <v name="MAGDIPOL">      0.00000000      0.00000000      0.00000000</v>
   <v name="AVECCONST">      0.00000000      0.00000000      0.00000000</v>
  </separator>
  <separator name="response functions" >
   <i type="logical" name="LFINITE_TEMPERATURE"> F  </i>
   <i type="logical" name="LADDER"> F  </i>
   <i type="logical" name="LRPAFORCE"> F  </i>
   <i type="logical" name="LFXC"> F  </i>
   <i type="logical" name="LHARTREE"> T  </i>
   <i type="int" name="IBSE">     0</i>
   <v type="int" name="KPOINT">    -1     0     0     0</v>
   <i type="logical" name="LTCTC"> F  </i>
   <i type="logical" name="LTCTE"> F  </i>
   <i type="logical" name="LTETE"> F  </i>
   <i type="logical" name="LTRIPLET"> F  </i>
   <i type="logical" name="LFXCEPS"> F  </i>
   <i type="logical" name="LFXHEG"> F  </i>
   <i type="int" name="NATURALO">     2</i>
   <i type="logical" name="LHOLEGF"> F  </i>
   <i type="logical" name="L2ORDER"> F  </i>
   <i type="logical" name="LDMP1"> F  </i>
   <i type="logical" name="LMP2LT"> F  </i>
   <i type="logical" name="LSMP2LT"> F  </i>
   <i type="logical" name="LGWLF"> F  </i>
   <i name="ENCUTGW">     -2.00000000</i>
   <i name="ENCUTGWSOFT">     -2.00000000</i>
   <i name="ENCUTLF">     -1.00000000</i>
   <i type="logical" name="LESF_SPLINES"> F  </i>
   <i type="int" name="LMAXMP2">    -1</i>
   <i name="SCISSOR">      0.00000000</i>
   <i type="int" name="NOMEGA">     0</i>
   <i type="int" name="NOMEGAR">     0</i>
   <i type="int" name="NBANDSGW">    -1</i>
   <i type="int" name="NBANDSO">    -1</i>
   <i type="int" name="NBANDSV">    -1</i>
   <i type="int" name="NELMGW">     1</i>
   <i type="int" name="NELMHF">     1</i>
   <i type="int" name="DIM">     3</i>
   <i type="int" name="IESPILON">     4</i>
   <i type="int" name="ANTIRES">     0</i>
   <i name="OMEGAMAX">    -30.00000000</i>
   <i name="OMEGAMIN">    -30.00000000</i>
   <i name="OMEGATL">   -200.00000000</i>
   <i type="int" name="OMEGAGRID">     0</i>
   <i name="CSHIFT">     -0.10000000</i>
   <i type="logical" name="LSELFENERGY"> F  </i>
   <i type="logical" name="LSPECTRAL"> F  </i>
   <i type="logical" name="LSPECTRALGW"> F  </i>
   <i type="logical" name="LSINGLES"> F  </i>
   <i type="logical" name="LFERMIGW"> F  </i>
   <i type="logical" name="ODDONLYGW"> F  </i>
   <i type="logical" name="EVENONLYGW"> F  </i>
   <i type="int" name="NKREDLFX">     1</i>
   <i type="int" name="NKREDLFY">     1</i>
   <i type="int" name="NKREDLFZ">     1</i>
   <i type="int" name="MAXMEM">  2800</i>
   <i type="int" name="TELESCOPE">     0</i>
   <i type="int" name="NTAUPAR">    -1</i>
   <i type="int" name="NOMEGAPAR">    -1</i>
   <i name="DAMP_NEWTON">      0.80000001</i>
   <i name="LAMBDA">      1.00000000</i>
  </separator>
  <separator name="External order field" >
   <i name="OFIELD_KAPPA">      0.00000000</i>
   <v name="OFIELD_K">      0.00000000      0.00000000      0.00000000</v>
   <i name="OFIELD_Q6_NEAR">      0.00000000</i>
   <i name="OFIELD_Q6_FAR">      0.00000000</i>
   <i name="OFIELD_A">      0.00000000</i>
  </separator>
  <separator name="optional k-points parameters" >
   <i type="int" name="KPOINTS_OPT_MODE">     1</i>
   <i type="logical" name="LKPOINTS_OPT"> F  </i>
  </separator>
  <separator name="solvation model" >
   <i type="logical" name="LSOL"> F  </i>
  </separator>
 </parameters>
 <atominfo>
  <atoms>      16 </atoms>
  <types>       2 </types>
  <array name="atoms" >
   <dimension dim="1">ion</dimension>
   <field type="string">element</field>
   <field type="int">atomtype</field>
   <set>
    <rc><c>B </c><c>   1</c></rc>
    <rc><c>B </c><c>   1</c></rc>
    <rc><c>B </c><c>   1</c></rc>
    <rc><c>B </c><c>   1</c></rc>
    <rc><c>B </c><c>   1</c></rc>
    <rc><c>B </c><c>   1</c></rc>
    <rc><c>B </c><c>   1</c></rc>
    <rc><c>B </c><c>   1</c></rc>
    <rc><c>C </c><c>   2</c></rc>
    <rc><c>C </c><c>   2</c></rc>
    <rc><c>C </c><c>   2</c></rc>
    <rc><c>C </c><c>   2</c></rc>
    <rc><c>C </c><c>   2</c></rc>
    <rc><c>C </c><c>   2</c></rc>
    <rc><c>C </c><c>   2</c></rc>
    <rc><c>C </c><c>   2</c></rc>
   </set>
  </array>
  <array name="atomtypes" >
   <dimension dim="1">type</dimension>
   <field type="int">atomspertype</field>
   <field type="string">element</field>
   <field>mass</field>
   <field>valence</field>
   <field type="string">pseudopotential</field>
   <set>
    <rc><c>   8</c><c>B </c><c>     10.81100000</c><c>      3.00000000</c><c>  PAW_PBE B 06Sep2000                   </c></rc>
    <rc><c>   8</c><c>C </c><c>     12.01100000</c><c>      4.00000000</c><c>  PAW_PBE C 08Apr2002                   </c></rc>
   </set>
  </array>
 </atominfo>
 <structure name="initialpos" >
  <crystal>
   <varray name="basis" >
    <v>       4.31194049       2.48950000       0.00000000 </v>
    <v>      -4.31194049       2.48950000       0.00000000 </v>
    <v>       0.00000000       0.00000000      15.00000000 </v>
   </varray>
   <i name="volume">    322.03727516 </i>
   <varray name="rec_basis" >
    <v>       0.11595707       0.20084354       0.00000000 </v>
    <v>      -0.11595707       0.20084354       0.00000000 </v>
    <v>       0.00000000       0.00000000       0.06666667 </v>
   </varray>
  </crystal>
  <varray name="positions" >
   <v>       0.66852949       0.00003174       0.10149087 </v>
   <v>       0.33150126       0.00003174       0.10149087 </v>
   <v>       0.99996826       0.33146951       0.10149087 </v>
   <v>       0.99996826       0.66849774       0.10149087 </v>
   <v>       0.33150126       0.33146951       0.10149087 </v>
   <v>       0.66852949       0.66849774       0.10149087 </v>
   <v>       0.66666600       0.33333300       0.08845522 </v>
   <v>       0.33333300       0.66666600       0.11442406 </v>
   <v>       0.16665358       0.33330815       0.33456864 </v>
   <v>       0.33333052       0.16666476       0.33446624 </v>
   <v>       0.16665358       0.83334542       0.33456864 </v>
   <v>       0.33333300       0.66666600       0.33462602 </v>
   <v>       0.66666600       0.33333300       0.33444483 </v>
   <v>       0.83333424       0.16666476       0.33446624 </v>
   <v>       0.66669085       0.83334542       0.33456864 </v>
   <v>       0.83333424       0.66666848       0.33446624 </v>
  </varray>
 </structure>
 <calculation>
  <scstep>
   <time name="dav">   16.72   16.85</time>
   <time name="total">   16.75   16.88</time>
   <energy>
    <i name="alphaZ">     60.47074313 </i>
    <i name="ewald">   4495.95153103 </i>
    <i name="hartreedc">  -5910.63168057 </i>
    <i name="XCdc">    161.30414655 </i>
    <i name="pawpsdc">   1216.17529508 </i>
    <i name="pawaedc">  -1213.88798198 </i>
    <i name="eentropy">     -0.01875266 </i>
    <i name="bandstr">   -371.11744060 </i>
    <i name="atom">   1746.50554237 </i>
    <i name="e_fr_energy">    184.75140234 </i>
    <i name="e_wo_entrp">    184.77015501 </i>
    <i name="e_0_energy">    184.76077868 </i>
   </energy>
  </scstep>
  <scstep>
   <time name="dav">   25.93   26.13</time>
   <time name="total">   25.94   26.13</time>
   <energy>
    <i name="e_fr_energy">   -123.97403768 </i>
    <i name="e_wo_entrp">   -123.97044884 </i>
    <i name="e_0_energy">   -123.97224326 </i>
   </energy>
  </scstep>
  <scstep>
   <time name="dav">   31.77   31.97</time>
   <time name="total">   31.77   31.97</time>
   <energy>
    <i name="e_fr_energy">   -133.76202175 </i>
    <i name="e_wo_entrp">   -133.75897176 </i>
    <i name="e_0_energy">   -133.76049675 </i>
   </energy>
  </scstep>
  <scstep>
   <time name="dav">   26.30   26.47</time>
   <time name="total">   26.30   26.48</time>
   <energy>
    <i name="e_fr_energy">   -133.78770215 </i>
    <i name="e_wo_entrp">   -133.78465971 </i>
    <i name="e_0_energy">   -133.78618093 </i>
   </energy>
  </scstep>
  <scstep>
   <time name="dav">   29.09   29.28</time>
   <time name="total">   29.83   30.06</time>
   <energy>
    <i name="e_fr_energy">   -133.78774330 </i>
    <i name="e_wo_entrp">   -133.78470090 </i>
    <i name="e_0_energy">   -133.78622210 </i>
   </energy>
  </scstep>
  <scstep>
   <time name="dav">   29.43   29.60</time>
   <time name="total">   30.18   30.37</time>
   <energy>
    <i name="e_fr_energy">   -126.86637128 </i>
    <i name="e_wo_entrp">   -126.86465098 </i>
    <i name="e_0_energy">   -126.86551113 </i>
   </energy>
  </scstep>
  <scstep>
   <time name="dav">   35.79   36.01</time>
   <time name="total">   36.56   36.80</time>
   <energy>
    <i name="e_fr_energy">   -124.15070518 </i>
    <i name="e_wo_entrp">   -124.14942990 </i>
    <i name="e_0_energy">   -124.15006754 </i>
   </energy>
  </scstep>
  <scstep>
   <time name="dav">   29.71   29.90</time>
   <time name="total">   30.46   30.67</time>
   <energy>
    <i name="e_fr_energy">   -124.08536848 </i>
    <i name="e_wo_entrp">   -124.08329684 </i>
    <i name="e_0_energy">   -124.08433266 </i>
   </energy>
  </scstep>
  <scstep>
   <time name="dav">   32.03   32.22</time>
   <time name="total">   32.78   32.99</time>
   <energy>
    <i name="e_fr_energy">   -124.06840370 </i>
    <i name="e_wo_entrp">   -124.06592713 </i>
    <i name="e_0_energy">   -124.06716542 </i>
   </energy>
  </scstep>
  <scstep>
   <time name="dav">   32.21   32.40</time>
   <time name="total">   32.95   33.15</time>
   <energy>
    <i name="e_fr_energy">   -124.05600197 </i>
    <i name="e_wo_entrp">   -124.05345074 </i>
    <i name="e_0_energy">   -124.05472635 </i>
   </energy>
  </scstep>
  <scstep>
   <time name="dav">   29.04   29.23</time>
   <time name="total">   29.78   29.97</time>
   <energy>
    <i name="e_fr_energy">   -124.05170039 </i>
    <i name="e_wo_entrp">   -124.04896716 </i>
    <i name="e_0_energy">   -124.05033378 </i>
   </energy>
  </scstep>
  <scstep>
   <time name="dav">   20.82   20.95</time>
   <time name="total">   21.56   21.69</time>
   <energy>
    <i name="e_fr_energy">   -124.05252530 </i>
    <i name="e_wo_entrp">   -124.04992816 </i>
    <i name="e_0_energy">   -124.05122673 </i>
   </energy>
  </scstep>
  <scstep>
   <time name="dav">   27.20   27.37</time>
   <time name="total">   27.94   28.12</time>
   <energy>
    <i name="e_fr_energy">   -124.05472092 </i>
    <i name="e_wo_entrp">   -124.05210826 </i>
    <i name="e_0_energy">   -124.05341459 </i>
   </energy>
  </scstep>
  <scstep>
   <time name="dav">   28.52   28.69</time>
   <time name="total">   29.27   29.45</time>
   <energy>
    <i name="e_fr_energy">   -124.05731156 </i>
    <i name="e_wo_entrp">   -124.05470382 </i>
    <i name="e_0_energy">   -124.05600769 </i>
   </energy>
  </scstep>
  <scstep>
   <time name="dav">   26.45   26.61</time>
   <time name="total">   27.19   27.35</time>
   <energy>
    <i name="e_fr_energy">   -124.05817918 </i>
    <i name="e_wo_entrp">   -124.05557686 </i>
    <i name="e_0_energy">   -124.05687802 </i>
   </energy>
  </scstep>
  <scstep>
   <time name="dav">   29.70   29.88</time>
   <time name="total">   30.44   30.62</time>
   <energy>
    <i name="e_fr_energy">   -124.05832116 </i>
    <i name="e_wo_entrp">   -124.05571271 </i>
    <i name="e_0_energy">   -124.05701693 </i>
   </energy>
  </scstep>
  <scstep>
   <time name="dav">   26.76   26.91</time>
   <time name="total">   27.49   27.66</time>
   <energy>
    <i name="e_fr_energy">   -124.05836737 </i>
    <i name="e_wo_entrp">   -124.05575637 </i>
    <i name="e_0_energy">   -124.05706187 </i>
   </energy>
  </scstep>
  <scstep>
   <time name="dav">   28.15   28.32</time>
   <time name="total">   28.89   29.06</time>
   <energy>
    <i name="e_fr_energy">   -124.05837123 </i>
    <i name="e_wo_entrp">   -124.05575939 </i>
    <i name="e_0_energy">   -124.05706531 </i>
   </energy>
  </scstep>
  <scstep>
   <time name="dav">   27.78   27.94</time>
   <time name="total">   28.52   28.69</time>
   <energy>
    <i name="e_fr_energy">   -124.05837232 </i>
    <i name="e_wo_entrp">   -124.05576064 </i>
    <i name="e_0_energy">   -124.05706648 </i>
   </energy>
  </scstep>
  <scstep>
   <time name="dav">   25.05   25.20</time>
   <time name="total">   25.06   25.22</time>
   <energy>
    <i name="alphaZ">     60.47074313 </i>
    <i name="ewald">   4495.95153103 </i>
    <i name="hartreedc">  -6105.98005979 </i>
    <i name="XCdc">    168.42619203 </i>
    <i name="pawpsdc">   5765.87856974 </i>
    <i name="pawaedc">  -5765.24213239 </i>
    <i name="eentropy">     -0.00261159 </i>
    <i name="bandstr">   -490.06614730 </i>
    <i name="atom">   1746.50554237 </i>
    <i name="e_fr_energy">   -124.05837279 </i>
    <i name="e_wo_entrp">   -124.05576119 </i>
    <i name="e_0_energy">   -124.05706699 </i>
   </energy>
  </scstep>
  <structure>
   <crystal>
    <varray name="basis" >
     <v>       4.31194049       2.48950000       0.00000000 </v>
     <v>      -4.31194049       2.48950000       0.00000000 </v>
     <v>       0.00000000       0.00000000      15.00000000 </v>
    </varray>
    <i name="volume">    322.03727516 </i>
    <varray name="rec_basis" >
     <v>       0.11595707       0.20084354       0.00000000 </v>
     <v>      -0.11595707       0.20084354       0.00000000 </v>
     <v>       0.00000000       0.00000000       0.06666667 </v>
    </varray>
   </crystal>
   <varray name="positions" >
    <v>       0.66852949       0.00003174       0.10149087 </v>
    <v>       0.33150126       0.00003174       0.10149087 </v>
    <v>       0.99996826       0.33146951       0.10149087 </v>
    <v>       0.99996826       0.66849774       0.10149087 </v>
    <v>       0.33150126       0.33146951       0.10149087 </v>
    <v>       0.66852949       0.66849774       0.10149087 </v>
    <v>       0.66666600       0.33333300       0.08845522 </v>
    <v>       0.33333300       0.66666600       0.11442406 </v>
    <v>       0.16665358       0.33330815       0.33456864 </v>
    <v>       0.33333052       0.16666476       0.33446624 </v>
    <v>       0.16665358       0.83334542       0.33456864 </v>
    <v>       0.33333300       0.66666600       0.33462602 </v>
    <v>       0.66666600       0.33333300       0.33444483 </v>
    <v>       0.83333424       0.16666476       0.33446624 </v>
    <v>       0.66669085       0.83334542       0.33456864 </v>
    <v>       0.83333424       0.66666848       0.33446624 </v>
   </varray>
  </structure>
  <varray name="forces" >
   <v>      -0.00108092      -0.00091603       0.00012173 </v>
   <v>       0.00134530       0.00046142       0.00012393 </v>
   <v>      -0.00108092       0.00091603       0.00012173 </v>
   <v>       0.00134530      -0.00046142       0.00012393 </v>
   <v>      -0.00026324       0.00137795       0.00012249 </v>
   <v>      -0.00026324      -0.00137795       0.00012249 </v>
   <v>       0.00004892      -0.00000000      -0.00725350 </v>
   <v>      -0.00005079       0.00000000      -0.00317052 </v>
   <v>       0.00043322      -0.00049867       0.00100858 </v>
   <v>       0.00039028       0.00092786       0.00110078 </v>
   <v>      -0.00043036       0.00000000       0.00100852 </v>
   <v>      -0.00014549       0.00000000       0.00185073 </v>
   <v>       0.00014534       0.00000000       0.00150900 </v>
   <v>      -0.00121690      -0.00000000       0.00110074 </v>
   <v>       0.00043322       0.00049867       0.00100858 </v>
   <v>       0.00039028      -0.00092786       0.00110078 </v>
  </varray>
  <varray name="stress" >
   <v>      -1.65911742       0.00000000      -0.00009659 </v>
   <v>       0.00000000      -1.65830800       0.00000000 </v>
   <v>      -0.00009661       0.00000000      -1.40173438 </v>
  </varray>
  <energy>
   <i name="e_fr_energy">   -125.92763502 </i>
   <i name="e_wo_entrp">   -125.92502343 </i>
   <i name="e_0_energy">   -125.92632922 </i>
  </energy>
  <time name="totalsc">  598.25  603.93</time>
  <eigenvalues>
   <array>
    <dimension dim="1">band</dimension>
    <dimension dim="2">kpoint</dimension>
    <dimension dim="3">spin</dimension>
    <field>eigene</field>
    <field>occ</field>
    <set>
     <set comment="spin 1">
      <set comment="kpoint 1">
       <r>  -19.7667    1.0000 </r>
       <r>  -15.8984    1.0000 </r>
       <r>  -14.6545    1.0000 </r>
       <r>  -14.6499    1.0000 </r>
       <r>  -14.6499    1.0000 </r>
       <r>  -13.5268    1.0000 </r>
       <r>  -13.5268    1.0000 </r>
       <r>  -13.5243    1.0000 </r>
       <r>  -11.7080    1.0000 </r>
       <r>  -11.5227    1.0000 </r>
       <r>  -11.5227    1.0000 </r>
       <r>   -9.3219    1.0000 </r>
       <r>   -9.3219    1.0000 </r>
       <r>   -8.0827    1.0000 </r>
       <r>   -7.3247    1.0000 </r>
       <r>   -6.8044    1.0000 </r>
       <r>   -6.8043    1.0000 </r>
       <r>   -6.8039    1.0000 </r>
       <r>   -6.5490    1.0000 </r>
       <r>   -3.5154    1.0000 </r>
       <r>   -3.5154    1.0000 </r>
       <r>   -2.8537    1.0000 </r>
       <r>   -2.8200    1.0000 </r>
       <r>   -2.8200    1.0000 </r>
       <r>   -1.5313    1.0000 </r>
       <r>   -1.5312    1.0000 </r>
       <r>   -0.3697    0.9317 </r>
       <r>   -0.3697    0.9316 </r>
       <r>   -0.2373    0.3508 </r>
       <r>    0.9484    0.0000 </r>
       <r>    0.9484    0.0000 </r>
       <r>    1.1284    0.0000 </r>
       <r>    1.1284    0.0000 </r>
       <r>    1.1319    0.0000 </r>
       <r>    1.7622    0.0000 </r>
       <r>    1.7622    0.0000 </r>
       <r>    2.9918    0.0000 </r>
       <r>    3.5976    0.0000 </r>
       <r>    4.4947    0.0000 </r>
       <r>    4.8136    0.0000 </r>
       <r>    6.6163    0.0000 </r>
       <r>    6.6192    0.0000 </r>
       <r>    6.6192    0.0000 </r>
       <r>    7.0722    0.0000 </r>
       <r>    7.6637    0.0000 </r>
       <r>    7.6638    0.0000 </r>
       <r>    7.6788    0.0000 </r>
       <r>    8.4042    0.0000 </r>
      </set>
      <set comment="kpoint 2">
       <r>  -19.7633    1.0000 </r>
       <r>  -15.8956    1.0000 </r>
       <r>  -14.7082    1.0000 </r>
       <r>  -14.6654    1.0000 </r>
       <r>  -14.6625    1.0000 </r>
       <r>  -13.5086    1.0000 </r>
       <r>  -13.5070    1.0000 </r>
       <r>  -13.4641    1.0000 </r>
       <r>  -11.7986    1.0000 </r>
       <r>  -11.5256    1.0000 </r>
       <r>  -11.4340    1.0000 </r>
       <r>   -9.3281    1.0000 </r>
       <r>   -9.3146    1.0000 </r>
       <r>   -8.0783    1.0000 </r>
       <r>   -7.3105    1.0000 </r>
       <r>   -6.8153    1.0000 </r>
       <r>   -6.8150    1.0000 </r>
       <r>   -6.8007    1.0000 </r>
       <r>   -6.5448    1.0000 </r>
       <r>   -3.5300    1.0000 </r>
       <r>   -3.5229    1.0000 </r>
       <r>   -2.8668    1.0000 </r>
       <r>   -2.8330    1.0000 </r>
       <r>   -2.8230    1.0000 </r>
       <r>   -1.5746    1.0000 </r>
       <r>   -1.5688    1.0000 </r>
       <r>   -0.4823    0.9990 </r>
       <r>   -0.3555    0.9012 </r>
       <r>   -0.1197    0.0204 </r>
       <r>    0.9318    0.0000 </r>
       <r>    0.9477    0.0000 </r>
       <r>    1.1375    0.0000 </r>
       <r>    1.1423    0.0000 </r>
       <r>    1.1603    0.0000 </r>
       <r>    1.7960    0.0000 </r>
       <r>    1.8062    0.0000 </r>
       <r>    2.9973    0.0000 </r>
       <r>    3.6032    0.0000 </r>
       <r>    4.5076    0.0000 </r>
       <r>    4.8190    0.0000 </r>
       <r>    6.6200    0.0000 </r>
       <r>    6.6337    0.0000 </r>
       <r>    6.6355    0.0000 </r>
       <r>    7.0760    0.0000 </r>
       <r>    7.6613    0.0000 </r>
       <r>    7.6786    0.0000 </r>
       <r>    7.6871    0.0000 </r>
       <r>    8.3772    0.0000 </r>
      </set>
      <set comment="kpoint 3">
       <r>  -19.7633    1.0000 </r>
       <r>  -15.8956    1.0000 </r>
       <r>  -14.7082    1.0000 </r>
       <r>  -14.6653    1.0000 </r>
       <r>  -14.6624    1.0000 </r>
       <r>  -13.5086    1.0000 </r>
       <r>  -13.5070    1.0000 </r>
       <r>  -13.4641    1.0000 </r>
       <r>  -11.7986    1.0000 </r>
       <r>  -11.5256    1.0000 </r>
       <r>  -11.4340    1.0000 </r>
       <r>   -9.3281    1.0000 </r>
       <r>   -9.3146    1.0000 </r>
       <r>   -8.0783    1.0000 </r>
       <r>   -7.3105    1.0000 </r>
       <r>   -6.8153    1.0000 </r>
       <r>   -6.8150    1.0000 </r>
       <r>   -6.8008    1.0000 </r>
       <r>   -6.5448    1.0000 </r>
       <r>   -3.5299    1.0000 </r>
       <r>   -3.5230    1.0000 </r>
       <r>   -2.8669    1.0000 </r>
       <r>   -2.8330    1.0000 </r>
       <r>   -2.8230    1.0000 </r>
       <r>   -1.5746    1.0000 </r>
       <r>   -1.5688    1.0000 </r>
       <r>   -0.4823    0.9990 </r>
       <r>   -0.3555    0.9012 </r>
       <r>   -0.1197    0.0204 </r>
       <r>    0.9318    0.0000 </r>
       <r>    0.9477    0.0000 </r>
       <r>    1.1375    0.0000 </r>
       <r>    1.1423    0.0000 </r>
       <r>    1.1603    0.0000 </r>
       <r>    1.7960    0.0000 </r>
       <r>    1.8062    0.0000 </r>
       <r>    2.9973    0.0000 </r>
       <r>    3.6032    0.0000 </r>
       <r>    4.5076    0.0000 </r>
       <r>    4.8190    0.0000 </r>
       <r>    6.6200    0.0000 </r>
       <r>    6.6337    0.0000 </r>
       <r>    6.6355    0.0000 </r>
       <r>    7.0760    0.0000 </r>
       <r>    7.6612    0.0000 </r>
       <r>    7.6787    0.0000 </r>
       <r>    7.6871    0.0000 </r>
       <r>    8.3772    0.0000 </r>
      </set>
      <set comment="kpoint 4">
       <r>  -19.7529    1.0000 </r>
       <r>  -15.8873    1.0000 </r>
       <r>  -14.8512    1.0000 </r>
       <r>  -14.7005    1.0000 </r>
       <r>  -14.6977    1.0000 </r>
       <r>  -13.4563    1.0000 </r>
       <r>  -13.4549    1.0000 </r>
       <r>  -13.3057    1.0000 </r>
       <r>  -11.9458    1.0000 </r>
       <r>  -11.5341    1.0000 </r>
       <r>  -11.2930    1.0000 </r>
       <r>   -9.3454    1.0000 </r>
       <r>   -9.2927    1.0000 </r>
       <r>   -8.0650    1.0000 </r>
       <r>   -7.2688    1.0000 </r>
       <r>   -6.8480    1.0000 </r>
       <r>   -6.8476    1.0000 </r>
       <r>   -6.7905    1.0000 </r>
       <r>   -6.5321    1.0000 </r>
       <r>   -3.5736    1.0000 </r>
       <r>   -3.5455    1.0000 </r>
       <r>   -2.9275    1.0000 </r>
       <r>   -2.8491    1.0000 </r>
       <r>   -2.8317    1.0000 </r>
       <r>   -1.6925    1.0000 </r>
       <r>   -1.6727    1.0000 </r>
       <r>   -0.6461    1.0000 </r>
       <r>   -0.3275    0.8137 </r>
       <r>    0.0497    0.0000 </r>
       <r>    0.8984    0.0000 </r>
       <r>    0.9579    0.0000 </r>
       <r>    1.1622    0.0000 </r>
       <r>    1.1798    0.0000 </r>
       <r>    1.2439    0.0000 </r>
       <r>    1.8913    0.0000 </r>
       <r>    1.9240    0.0000 </r>
       <r>    3.0142    0.0000 </r>
       <r>    3.6202    0.0000 </r>
       <r>    4.5458    0.0000 </r>
       <r>    4.8355    0.0000 </r>
       <r>    6.6257    0.0000 </r>
       <r>    6.6826    0.0000 </r>
       <r>    6.6845    0.0000 </r>
       <r>    7.0874    0.0000 </r>
       <r>    7.6606    0.0000 </r>
       <r>    7.7052    0.0000 </r>
       <r>    7.7235    0.0000 </r>
       <r>    8.2958    0.0000 </r>
      </set>
      <set comment="kpoint 5">
       <r>  -19.7529    1.0000 </r>
       <r>  -15.8873    1.0000 </r>
       <r>  -14.8512    1.0000 </r>
       <r>  -14.7005    1.0000 </r>
       <r>  -14.6977    1.0000 </r>
       <r>  -13.4563    1.0000 </r>
       <r>  -13.4549    1.0000 </r>
       <r>  -13.3056    1.0000 </r>
       <r>  -11.9458    1.0000 </r>
       <r>  -11.5341    1.0000 </r>
       <r>  -11.2930    1.0000 </r>
       <r>   -9.3454    1.0000 </r>
       <r>   -9.2927    1.0000 </r>
       <r>   -8.0650    1.0000 </r>
       <r>   -7.2688    1.0000 </r>
       <r>   -6.8479    1.0000 </r>
       <r>   -6.8476    1.0000 </r>
       <r>   -6.7906    1.0000 </r>
       <r>   -6.5321    1.0000 </r>
       <r>   -3.5735    1.0000 </r>
       <r>   -3.5456    1.0000 </r>
       <r>   -2.9275    1.0000 </r>
       <r>   -2.8491    1.0000 </r>
       <r>   -2.8317    1.0000 </r>
       <r>   -1.6925    1.0000 </r>
       <r>   -1.6727    1.0000 </r>
       <r>   -0.6461    1.0000 </r>
       <r>   -0.3275    0.8137 </r>
       <r>    0.0497    0.0000 </r>
       <r>    0.8984    0.0000 </r>
       <r>    0.9579    0.0000 </r>
       <r>    1.1622    0.0000 </r>
       <r>    1.1797    0.0000 </r>
       <r>    1.2439    0.0000 </r>
       <r>    1.8913    0.0000 </r>
       <r>    1.9240    0.0000 </r>
       <r>    3.0142    0.0000 </r>
       <r>    3.6202    0.0000 </r>
       <r>    4.5458    0.0000 </r>
       <r>    4.8355    0.0000 </r>
       <r>    6.6257    0.0000 </r>
       <r>    6.6826    0.0000 </r>
       <r>    6.6845    0.0000 </r>
       <r>    7.0874    0.0000 </r>
       <r>    7.6606    0.0000 </r>
       <r>    7.7052    0.0000 </r>
       <r>    7.7236    0.0000 </r>
       <r>    8.2958    0.0000 </r>
      </set>
      <set comment="kpoint 6">
       <r>  -19.7356    1.0000 </r>
       <r>  -15.8734    1.0000 </r>
       <r>  -15.0387    1.0000 </r>
       <r>  -14.7527    1.0000 </r>
       <r>  -14.7500    1.0000 </r>
[...]
       <r>   -8.1296    1.0000 </r>
       <r>   -7.5846    1.0000 </r>
       <r>   -7.4342    1.0000 </r>
       <r>   -6.9259    1.0000 </r>
       <r>   -6.7348    1.0000 </r>
       <r>   -6.7343    1.0000 </r>
       <r>   -5.9294    1.0000 </r>
       <r>   -5.8296    1.0000 </r>
       <r>   -5.6725    1.0000 </r>
       <r>   -4.6280    1.0000 </r>
       <r>   -4.4804    1.0000 </r>
       <r>   -3.9078    1.0000 </r>
       <r>   -3.8592    1.0000 </r>
       <r>   -2.6399    1.0000 </r>
       <r>   -0.6301    1.0000 </r>
       <r>   -0.4058    0.9772 </r>
       <r>    2.7195    0.0000 </r>
       <r>    2.9474    0.0000 </r>
       <r>    3.7267    0.0000 </r>
       <r>    3.8013    0.0000 </r>
       <r>    4.3395    0.0000 </r>
       <r>    4.5668    0.0000 </r>
       <r>    5.2547    0.0000 </r>
       <r>    5.3434    0.0000 </r>
       <r>    5.5470    0.0000 </r>
       <r>    5.6711    0.0000 </r>
       <r>    5.7964    0.0000 </r>
       <r>    5.8052    0.0000 </r>
       <r>    6.0804    0.0000 </r>
       <r>    6.1654    0.0000 </r>
       <r>    6.3760    0.0000 </r>
       <r>    6.9007    0.0000 </r>
       <r>    7.0253    0.0000 </r>
       <r>    7.4349    0.0000 </r>
       <r>    7.9019    0.0000 </r>
      </set>
      <set comment="kpoint 441">
       <r>  -17.8988    1.0000 </r>
       <r>  -17.8949    1.0000 </r>
       <r>  -17.7588    1.0000 </r>
       <r>  -14.6650    1.0000 </r>
       <r>  -14.5852    1.0000 </r>
       <r>  -13.0704    1.0000 </r>
       <r>  -12.9021    1.0000 </r>
       <r>  -12.5480    1.0000 </r>
       <r>  -10.8088    1.0000 </r>
       <r>   -9.0382    1.0000 </r>
       <r>   -8.9219    1.0000 </r>
       <r>   -8.3435    1.0000 </r>
       <r>   -8.1311    1.0000 </r>
       <r>   -8.1295    1.0000 </r>
       <r>   -7.5846    1.0000 </r>
       <r>   -7.4342    1.0000 </r>
       <r>   -6.9258    1.0000 </r>
       <r>   -6.7349    1.0000 </r>
       <r>   -6.7343    1.0000 </r>
       <r>   -5.9294    1.0000 </r>
       <r>   -5.8296    1.0000 </r>
       <r>   -5.6725    1.0000 </r>
       <r>   -4.6280    1.0000 </r>
       <r>   -4.4804    1.0000 </r>
       <r>   -3.9078    1.0000 </r>
       <r>   -3.8592    1.0000 </r>
       <r>   -2.6399    1.0000 </r>
       <r>   -0.6301    1.0000 </r>
       <r>   -0.4059    0.9773 </r>
       <r>    2.7195    0.0000 </r>
       <r>    2.9474    0.0000 </r>
       <r>    3.7267    0.0000 </r>
       <r>    3.8013    0.0000 </r>
       <r>    4.3395    0.0000 </r>
       <r>    4.5668    0.0000 </r>
       <r>    5.2547    0.0000 </r>
       <r>    5.3434    0.0000 </r>
       <r>    5.5470    0.0000 </r>
       <r>    5.6711    0.0000 </r>
       <r>    5.7964    0.0000 </r>
       <r>    5.8052    0.0000 </r>
       <r>    6.0804    0.0000 </r>
       <r>    6.1654    0.0000 </r>
       <r>    6.3760    0.0000 </r>
       <r>    6.9006    0.0000 </r>
       <r>    7.0254    0.0000 </r>
       <r>    7.4349    0.0000 </r>
       <r>    7.9019    0.0000 </r>
      </set>
     </set>
    </set>
   </array>
  </eigenvalues>
  <separator name="orbital magnetization" >
   <v name="MAGDIPOLOUT">      0.00000000      0.00000000      0.00000000</v>
  </separator>
  <dos>
   <i name="efermi">     -0.26443461 </i>
   <total>
    <array>
     <dimension dim="1">gridpoints</dimension>
     <dimension dim="2">spin</dimension>
     <field>energy</field>
     <field>total</field>
     <field>integrated</field>
     <set>
      <set comment="spin 1">
       <r>   -21.1753     0.0000     0.0000 </r>
       <r>   -21.0720     0.0000     0.0000 </r>
       <r>   -20.9687     0.0000     0.0000 </r>
       <r>   -20.8654     0.0000     0.0000 </r>
       <r>   -20.7621     0.0000     0.0000 </r>
       <r>   -20.6588     0.0000     0.0000 </r>
       <r>   -20.5555     0.0000     0.0000 </r>
       <r>   -20.4522     0.0000     0.0000 </r>
       <r>   -20.3489     0.0000     0.0000 </r>
       <r>   -20.2456     0.0000     0.0000 </r>
       <r>   -20.1424     0.0000     0.0000 </r>
       <r>   -20.0391     0.0000     0.0000 </r>
       <r>   -19.9358     0.0024     0.0002 </r>
       <r>   -19.8325     0.0789     0.0084 </r>
       <r>   -19.7292     0.5337     0.0635 </r>
       <r>   -19.6259     1.0953     0.1767 </r>
       <r>   -19.5226     1.2428     0.3050 </r>
       <r>   -19.4193     1.2516     0.4343 </r>
       <r>   -19.3160     1.2532     0.5638 </r>
       <r>   -19.2127     1.2547     0.6934 </r>
       <r>   -19.1094     1.2563     0.8231 </r>
       <r>   -19.0061     1.2580     0.9531 </r>
       <r>   -18.9028     1.2597     1.0832 </r>
       <r>   -18.7995     1.2614     1.2135 </r>
       <r>   -18.6962     1.2632     1.3440 </r>
       <r>   -18.5930     1.2651     1.4746 </r>
       <r>   -18.4897     1.2670     1.6055 </r>
       <r>   -18.3864     1.2689     1.7366 </r>
       <r>   -18.2831     1.2706     1.8678 </r>
       <r>   -18.1798     1.2726     1.9993 </r>
       <r>   -18.0765     1.2750     2.1310 </r>
       <r>   -17.9732     1.2777     2.2630 </r>
       <r>   -17.8699     1.2796     2.3951 </r>
       <r>   -17.7666     1.2809     2.5274 </r>
       <r>   -17.6633     1.2843     2.6601 </r>
       <r>   -17.5600     1.2883     2.7932 </r>
       <r>   -17.4567     1.2881     2.9262 </r>
       <r>   -17.3534     1.2911     3.0596 </r>
       <r>   -17.2501     1.2982     3.1937 </r>
       <r>   -17.1468     1.2957     3.3275 </r>
       <r>   -17.0435     1.3002     3.4618 </r>
       <r>   -16.9403     1.3090     3.5970 </r>
       <r>   -16.8370     1.3023     3.7315 </r>
       <r>   -16.7337     1.3154     3.8674 </r>
       <r>   -16.6304     1.3161     4.0034 </r>
       <r>   -16.5271     1.3146     4.1391 </r>
       <r>   -16.4238     1.3331     4.2768 </r>
       <r>   -16.3205     1.3191     4.4131 </r>
       <r>   -16.2172     1.3436     4.5519 </r>
       <r>   -16.1139     1.3345     4.6897 </r>
       <r>   -16.0106     1.3742     4.8317 </r>
       <r>   -15.9073     1.6947     5.0067 </r>
       <r>   -15.8040     2.4709     5.2620 </r>
       <r>   -15.7007     2.9197     5.5635 </r>
       <r>   -15.5974     2.9846     5.8718 </r>
       <r>   -15.4941     3.0735     6.1893 </r>
       <r>   -15.3909     3.1113     6.5107 </r>
       <r>   -15.2876     3.2576     6.8472 </r>
       <r>   -15.1843     3.4170     7.2001 </r>
       <r>   -15.0810     3.8490     7.5977 </r>
       <r>   -14.9777     3.8463     7.9950 </r>
       <r>   -14.8744     3.1244     8.3177 </r>
       <r>   -14.7711     2.4909     8.5750 </r>
       <r>   -14.6678     2.3165     8.8143 </r>
       <r>   -14.5645     2.0988     9.0311 </r>
       <r>   -14.4612     1.9944     9.2371 </r>
       <r>   -14.3579     2.2138     9.4658 </r>
       <r>   -14.2546     2.9312     9.7686 </r>
       <r>   -14.1513     3.0486    10.0835 </r>
       <r>   -14.0480     2.5160    10.3434 </r>
       <r>   -13.9447     2.0896    10.5592 </r>
       <r>   -13.8415     1.8207    10.7473 </r>
       <r>   -13.7382     1.6317    10.9158 </r>
       <r>   -13.6349     1.4488    11.0655 </r>
       <r>   -13.5316     1.5188    11.2223 </r>
       <r>   -13.4283     1.8592    11.4144 </r>
       <r>   -13.3250     2.0347    11.6245 </r>
       <r>   -13.2217     1.9918    11.8303 </r>
       <r>   -13.1184     1.9406    12.0307 </r>
       <r>   -13.0151     1.9013    12.2271 </r>
       <r>   -12.9118     1.9348    12.4270 </r>
       <r>   -12.8085     2.1334    12.6473 </r>
       <r>   -12.7052     2.3948    12.8947 </r>
       <r>   -12.6019     2.4085    13.1435 </r>
       <r>   -12.4986     2.7020    13.4226 </r>
       <r>   -12.3953     3.1379    13.7467 </r>
       <r>   -12.2920     3.2476    14.0822 </r>
       <r>   -12.1888     3.3068    14.4238 </r>
       <r>   -12.0855     3.4454    14.7797 </r>
       <r>   -11.9822     3.7888    15.1710 </r>
       <r>   -11.8789     4.3174    15.6170 </r>
       <r>   -11.7756     4.0854    16.0390 </r>
       <r>   -11.6723     3.3530    16.3853 </r>
       <r>   -11.5690     2.7879    16.6733 </r>
       <r>   -11.4657     1.9819    16.8780 </r>
       <r>   -11.3624     1.3721    17.0197 </r>
       <r>   -11.2591     1.2754    17.1515 </r>
       <r>   -11.1558     1.2840    17.2841 </r>
       <r>   -11.0525     1.3144    17.4199 </r>
       <r>   -10.9492     1.3507    17.5594 </r>
       <r>   -10.8459     1.4483    17.7090 </r>
       <r>   -10.7426     1.7871    17.8936 </r>
       <r>   -10.6394     2.6205    18.1643 </r>
       <r>   -10.5361     3.8760    18.5646 </r>
       <r>   -10.4328     4.0773    18.9858 </r>
       <r>   -10.3295     3.4506    19.3422 </r>
       <r>   -10.2262     3.0325    19.6555 </r>
       <r>   -10.1229     2.8075    19.9455 </r>
       <r>   -10.0196     2.6499    20.2192 </r>
       <r>    -9.9163     2.5140    20.4789 </r>
       <r>    -9.8130     2.3960    20.7263 </r>
       <r>    -9.7097     2.3204    20.9660 </r>
       <r>    -9.6064     2.2586    21.1993 </r>
       <r>    -9.5031     2.8593    21.4947 </r>
       <r>    -9.3998     4.3633    21.9454 </r>
       <r>    -9.2965     4.4423    22.4042 </r>
       <r>    -9.1932     3.8892    22.8060 </r>
       <r>    -9.0899     3.6461    23.1826 </r>
       <r>    -8.9867     3.6643    23.5611 </r>
       <r>    -8.8834     3.8040    23.9540 </r>
       <r>    -8.7801     3.9447    24.3615 </r>
       <r>    -8.6768     3.7629    24.7501 </r>
       <r>    -8.5735     3.7468    25.1372 </r>
       <r>    -8.4702     3.6320    25.5123 </r>
       <r>    -8.3669     3.6529    25.8896 </r>
       <r>    -8.2636     3.5881    26.2603 </r>
       <r>    -8.1603     3.6291    26.6351 </r>
       <r>    -8.0570     3.7051    27.0178 </r>
       <r>    -7.9537     4.1274    27.4442 </r>
       <r>    -7.8504     4.5824    27.9175 </r>
       <r>    -7.7471     4.9122    28.4249 </r>
       <r>    -7.6438     4.8817    28.9292 </r>
       <r>    -7.5405     4.8522    29.4304 </r>
       <r>    -7.4373     4.7095    29.9168 </r>
       <r>    -7.3340     4.1354    30.3440 </r>
       <r>    -7.2307     4.1305    30.7706 </r>
       <r>    -7.1274     4.3644    31.2214 </r>
       <r>    -7.0241     4.7172    31.7087 </r>
       <r>    -6.9208     5.1847    32.2442 </r>
       <r>    -6.8175     5.7747    32.8407 </r>
       <r>    -6.7142     5.9258    33.4528 </r>
       <r>    -6.6109     5.7980    34.0517 </r>
       <r>    -6.5076     6.2112    34.6933 </r>
       <r>    -6.4043     7.2903    35.4464 </r>
       <r>    -6.3010     7.6315    36.2346 </r>
       <r>    -6.1977     5.8074    36.8345 </r>
       <r>    -6.0944     4.3882    37.2878 </r>
       <r>    -5.9911     4.0766    37.7089 </r>
       <r>    -5.8879     4.0555    38.1278 </r>
       <r>    -5.7846     4.0554    38.5467 </r>
       <r>    -5.6813     4.1676    38.9772 </r>
       <r>    -5.5780     3.9787    39.3881 </r>
       <r>    -5.4747     3.2682    39.7257 </r>
       <r>    -5.3714     3.1679    40.0529 </r>
       <r>    -5.2681     3.7874    40.4442 </r>
       <r>    -5.1648     4.2744    40.8857 </r>
       <r>    -5.0615     4.0927    41.3084 </r>
       <r>    -4.9582     3.6182    41.6822 </r>
       <r>    -4.8549     3.6914    42.0635 </r>
       <r>    -4.7516     3.6913    42.4447 </r>
       <r>    -4.6483     3.5588    42.8123 </r>
       <r>    -4.5450     3.4814    43.1719 </r>
       <r>    -4.4417     3.5417    43.5378 </r>
       <r>    -4.3384     4.0014    43.9511 </r>
       <r>    -4.2352     4.7978    44.4467 </r>
       <r>    -4.1319     5.2848    44.9926 </r>
       <r>    -4.0286     5.5252    45.5633 </r>
       <r>    -3.9253     5.4461    46.1258 </r>
       <r>    -3.8220     5.5176    46.6958 </r>
       <r>    -3.7187     6.4452    47.3615 </r>
       <r>    -3.6154     7.4047    48.1264 </r>
       <r>    -3.5121     6.6442    48.8127 </r>
       <r>    -3.4088     4.2916    49.2560 </r>
       <r>    -3.3055     3.4476    49.6121 </r>
       <r>    -3.2022     3.1910    49.9417 </r>
       <r>    -3.0989     3.1662    50.2687 </r>
       <r>    -2.9956     3.1401    50.5931 </r>
       <r>    -2.8923     3.3685    50.9410 </r>
       <r>    -2.7890     3.4948    51.3020 </r>
       <r>    -2.6858     3.2070    51.6333 </r>
       <r>    -2.5825     2.9241    51.9353 </r>
       <r>    -2.4792     2.9566    52.2407 </r>
       <r>    -2.3759     2.8050    52.5305 </r>
       <r>    -2.2726     2.6593    52.8051 </r>
       <r>    -2.1693     2.5868    53.0723 </r>
       <r>    -2.0660     2.4356    53.3239 </r>
       <r>    -1.9627     2.1781    53.5489 </r>
       <r>    -1.8594     2.0174    53.7573 </r>
       <r>    -1.7561     2.1581    53.9802 </r>
       <r>    -1.6528     2.0504    54.1920 </r>
       <r>    -1.5495     1.9473    54.3932 </r>
       <r>    -1.4462     1.7965    54.5787 </r>
       <r>    -1.3429     1.7460    54.7591 </r>
       <r>    -1.2396     1.8332    54.9484 </r>
       <r>    -1.1364     1.9180    55.1466 </r>
       <r>    -1.0331     1.6513    55.3171 </r>
       <r>    -0.9298     1.3209    55.4536 </r>
       <r>    -0.8265     1.0963    55.5668 </r>
       <r>    -0.7232     0.9346    55.6633 </r>
       <r>    -0.6199     0.7909    55.7450 </r>
       <r>    -0.5166     0.6882    55.8161 </r>
       <r>    -0.4133     0.7036    55.8888 </r>
       <r>    -0.3100     0.8024    55.9717 </r>
       <r>    -0.2067     0.5159    56.0250 </r>
       <r>    -0.1034     0.5224    56.0789 </r>
       <r>    -0.0001     1.0465    56.1870 </r>
       <r>     0.1032     1.3862    56.3302 </r>
       <r>     0.2065     1.6007    56.4956 </r>
       <r>     0.3098     1.9155    56.6934 </r>
       <r>     0.4131     2.2002    56.9207 </r>
       <r>     0.5163     2.1827    57.1461 </r>
       <r>     0.6196     2.0594    57.3589 </r>
       <r>     0.7229     2.0942    57.5752 </r>
       <r>     0.8262     2.4901    57.8324 </r>
       <r>     0.9295     2.6581    58.1070 </r>
       <r>     1.0328     3.0079    58.4177 </r>
       <r>     1.1361     3.3656    58.7653 </r>
       <r>     1.2394     3.3342    59.1097 </r>
       <r>     1.3427     3.2186    59.4422 </r>
       <r>     1.4460     2.7507    59.7263 </r>
       <r>     1.5493     2.7795    60.0134 </r>
       <r>     1.6526     2.4615    60.2677 </r>
       <r>     1.7559     2.5441    60.5304 </r>
       <r>     1.8592     2.5606    60.7949 </r>
       <r>     1.9625     2.5546    61.0588 </r>
       <r>     2.0657     2.6334    61.3308 </r>
       <r>     2.1690     2.5434    61.5935 </r>
       <r>     2.2723     2.6210    61.8643 </r>
       <r>     2.3756     2.5904    62.1318 </r>
       <r>     2.4789     2.6336    62.4039 </r>
       <r>     2.5822     2.6371    62.6763 </r>
       <r>     2.6855     2.7132    62.9565 </r>
       <r>     2.7888     2.7005    63.2355 </r>
       <r>     2.8921     2.9045    63.5355 </r>
       <r>     2.9954     3.2018    63.8662 </r>
       <r>     3.0987     3.9104    64.2701 </r>
       <r>     3.2020     3.9910    64.6824 </r>
       <r>     3.3053     4.1202    65.1080 </r>
       <r>     3.4086     4.0942    65.5309 </r>
       <r>     3.5119     4.3966    65.9850 </r>
       <r>     3.6152     4.8307    66.4840 </r>
       <r>     3.7184     5.3483    67.0364 </r>
       <r>     3.8217     4.9556    67.5483 </r>
       <r>     3.9250     4.8797    68.0524 </r>
       <r>     4.0283     5.2201    68.5916 </r>
       <r>     4.1316     5.5483    69.1647 </r>
       <r>     4.2349     5.5221    69.7351 </r>
       <r>     4.3382     5.6604    70.3197 </r>
       <r>     4.4415     5.3373    70.8710 </r>
       <r>     4.5448     5.5912    71.4486 </r>
       <r>     4.6481     6.2453    72.0937 </r>
       <r>     4.7514     5.7296    72.6855 </r>
       <r>     4.8547     5.3462    73.2377 </r>
       <r>     4.9580     6.8806    73.9485 </r>
       <r>     5.0613     7.7660    74.7506 </r>
       <r>     5.1646     7.2275    75.4972 </r>
       <r>     5.2678     6.7017    76.1894 </r>
       <r>     5.3711     6.7998    76.8918 </r>
       <r>     5.4744     6.3943    77.5523 </r>
       <r>     5.5777     6.6933    78.2437 </r>
       <r>     5.6810     7.0266    78.9695 </r>
       <r>     5.7843     6.2122    79.6111 </r>
       <r>     5.8876     5.4105    80.1700 </r>
       <r>     5.9909     5.1109    80.6979 </r>
       <r>     6.0942     5.5138    81.2675 </r>
       <r>     6.1975     5.9837    81.8856 </r>
       <r>     6.3008     5.8493    82.4897 </r>
       <r>     6.4041     5.2912    83.0363 </r>
       <r>     6.5074     5.1531    83.5686 </r>
       <r>     6.6107     6.1313    84.2019 </r>
       <r>     6.7140     7.5607    84.9829 </r>
       <r>     6.8172     7.6677    85.7749 </r>
       <r>     6.9205     7.5451    86.5542 </r>
       <r>     7.0238     7.4723    87.3261 </r>
       <r>     7.1271     8.0837    88.1611 </r>
       <r>     7.2304     8.5854    89.0479 </r>
       <r>     7.3337     8.0919    89.8837 </r>
       <r>     7.4370     8.4525    90.7568 </r>
       <r>     7.5403     8.4252    91.6271 </r>
       <r>     7.6436     9.1687    92.5741 </r>
       <r>     7.7469     9.8440    93.5910 </r>
       <r>     7.8502     9.0031    94.5209 </r>
       <r>     7.9535     6.9700    95.2409 </r>
       <r>     8.0568     4.1288    95.6674 </r>
       <r>     8.1601     2.1476    95.8892 </r>
       <r>     8.2634     0.7700    95.9687 </r>
       <r>     8.3667     0.2188    95.9913 </r>
       <r>     8.4699     0.0734    95.9989 </r>
       <r>     8.5732     0.0102    96.0000 </r>
       <r>     8.6765     0.0003    96.0000 </r>
       <r>     8.7798     0.0000    96.0000 </r>
       <r>     8.8831     0.0000    96.0000 </r>
       <r>     8.9864     0.0000    96.0000 </r>
       <r>     9.0897     0.0000    96.0000 </r>
       <r>     9.1930     0.0000    96.0000 </r>
       <r>     9.2963     0.0000    96.0000 </r>
       <r>     9.3996     0.0000    96.0000 </r>
       <r>     9.5029     0.0000    96.0000 </r>
       <r>     9.6062     0.0000    96.0000 </r>
       <r>     9.7095     0.0000    96.0000 </r>
       <r>     9.8128     0.0000    96.0000 </r>
      </set>
     </set>
    </array>
   </total>
  </dos>
 </calculation>
 <structure name="finalpos" >
  <crystal>
   <varray name="basis" >
    <v>       4.31194049       2.48950000       0.00000000 </v>
    <v>      -4.31194049       2.48950000       0.00000000 </v>
    <v>       0.00000000       0.00000000      15.00000000 </v>
   </varray>
   <i name="volume">    322.03727516 </i>
   <varray name="rec_basis" >
    <v>       0.11595707       0.20084354       0.00000000 </v>
    <v>      -0.11595707       0.20084354       0.00000000 </v>
    <v>       0.00000000       0.00000000       0.06666667 </v>
   </varray>
  </crystal>
  <varray name="positions" >
   <v>       0.66852949       0.00003174       0.10149087 </v>
   <v>       0.33150126       0.00003174       0.10149087 </v>
   <v>       0.99996826       0.33146951       0.10149087 </v>
   <v>       0.99996826       0.66849774       0.10149087 </v>
   <v>       0.33150126       0.33146951       0.10149087 </v>
   <v>       0.66852949       0.66849774       0.10149087 </v>
   <v>       0.66666600       0.33333300       0.08845522 </v>
   <v>       0.33333300       0.66666600       0.11442406 </v>
   <v>       0.16665358       0.33330815       0.33456864 </v>
   <v>       0.33333052       0.16666476       0.33446624 </v>
   <v>       0.16665358       0.83334542       0.33456864 </v>
   <v>       0.33333300       0.66666600       0.33462602 </v>
   <v>       0.66666600       0.33333300       0.33444483 </v>
   <v>       0.83333424       0.16666476       0.33446624 </v>
   <v>       0.66669085       0.83334542       0.33456864 </v>
   <v>       0.83333424       0.66666848       0.33446624 </v>
  </varray>
 </structure>
</modeling>
