Lattice                                 
           1
     4.310208    2.488500    0.000000
    -4.310208    2.488500    0.000000
     0.000000    0.000000   15.000000
   B    C 
     8     8
Direct configuration=     1
   0.66888689  0.00000000  0.10000000
   0.33111211  0.00000000  0.10000000
   0.00000000  0.33111211  0.10000000
   0.00000000  0.66888689  0.10000000
   0.33111211  0.33111211  0.10000000
   0.66888689  0.66888689  0.10000000
   0.66666600  0.33333300  0.09922189
   0.33333300  0.66666600  0.10077811
   0.27777711  0.22222189  0.46960000
   0.44444411  0.05555489  0.46960000
   0.27777711  0.72222189  0.46960000
   0.44444411  0.55555489  0.46960000
   0.77777711  0.22222189  0.46960000
   0.94444411  0.05555489  0.46960000
   0.77777711  0.72222189  0.46960000
   0.94444411  0.55555489  0.46960000
Direct configuration=     2
   0.67063371 -0.00000010  0.10002619
   0.32936540 -0.00000012  0.10002625
   0.00000010  0.32936529  0.10002619
   0.00000012  0.67063360  0.10002625
   0.32936507  0.32936506  0.10002628
   0.67063394  0.67063393  0.10002628
   0.66666614  0.33333286  0.09924373
   0.33333259  0.66666641  0.10081463
   0.27777226  0.22221745  0.46957333
   0.44444185  0.05555715  0.46957272
   0.27777719  0.72222181  0.46957222
   0.44444491  0.55555409  0.46957294
   0.77778053  0.22221847  0.46957315
   0.94444465  0.05555435  0.46957379
   0.77778155  0.72222674  0.46957333
   0.94444185  0.55555715  0.46957272
Direct configuration=     3
   0.66978084 -0.00000005  0.10001341
   0.33021822 -0.00000006  0.10001343
   0.00000005  0.33021816  0.10001341
   0.00000006  0.66978078  0.10001343
   0.33021805  0.33021804  0.10001345
   0.66978096  0.66978095  0.10001345
   0.66666607  0.33333293  0.09923306
   0.33333279  0.66666621  0.10079680
   0.27777463  0.22221962  0.46958635
   0.44444296  0.05555605  0.46958604
   0.27777715  0.72222185  0.46958578
   0.44444452  0.55555448  0.46958615
   0.77777886  0.22222014  0.46958626
   0.94444439  0.05555461  0.46958659
   0.77777938  0.72222437  0.46958635
   0.94444295  0.55555604  0.46958604
Direct configuration=     4
   0.66978608 -0.00000005  0.10001348
   0.33021298 -0.00000006  0.10001351
   0.00000005  0.33021292  0.10001348
   0.00000006  0.66978602  0.10001351
   0.33021281  0.33021280  0.10001353
   0.66978620  0.66978619  0.10001353
   0.66666607  0.33333293  0.09923313
   0.33333279  0.66666621  0.10079691
   0.27777462  0.22221960  0.46958627
   0.44444295  0.05555605  0.46958596
   0.27777715  0.72222185  0.46958570
   0.44444452  0.55555448  0.46958607
   0.77777887  0.22222013  0.46958618
   0.94444439  0.05555461  0.46958651
   0.77777940  0.72222438  0.46958627
   0.94444295  0.55555605  0.46958596
Direct configuration=     5
   0.66978394 -0.00000005  0.10001345
   0.33021512 -0.00000006  0.10001348
   0.00000005  0.33021506  0.10001345
   0.00000006  0.66978388  0.10001348
   0.33021495  0.33021494  0.10001349
   0.66978406  0.66978405  0.10001349
   0.66666607  0.33333293  0.09923310
   0.33333279  0.66666621  0.10079687
   0.27777462  0.22221961  0.46958631
   0.44444295  0.05555605  0.46958599
   0.27777715  0.72222185  0.46958573
   0.44444452  0.55555448  0.46958610
   0.77777887  0.22222013  0.46958621
   0.94444439  0.05555461  0.46958654
   0.77777939  0.72222438  0.46958631
   0.94444295  0.55555605  0.46958599
Direct configuration=     6
   0.66978239 -0.00000005  0.10001343
   0.33021667 -0.00000006  0.10001346
   0.00000005  0.33021661  0.10001343
   0.00000006  0.66978233  0.10001346
   0.33021650  0.33021649  0.10001347
   0.66978251  0.66978250  0.10001347
   0.66666607  0.33333293  0.09923308
   0.33333279  0.66666621  0.10079683
   0.27777463  0.22221961  0.46958633
   0.44444295  0.05555605  0.46958601
   0.27777715  0.72222185  0.46958576
   0.44444452  0.55555448  0.46958613
   0.77777886  0.22222014  0.46958624
   0.94444439  0.05555461  0.46958656
   0.77777939  0.72222437  0.46958633
   0.94444295  0.55555605  0.46958601
Direct configuration=     7
   0.66978161 -0.00000005  0.10001342
   0.33021745 -0.00000006  0.10001345
   0.00000005  0.33021739  0.10001342
   0.00000006  0.66978155  0.10001345
   0.33021728  0.33021727  0.10001346
   0.66978173  0.66978172  0.10001346
   0.66666607  0.33333293  0.09923307
   0.33333279  0.66666621  0.10079682
   0.27777463  0.22221962  0.46958634
   0.44444295  0.05555605  0.46958602
   0.27777715  0.72222185  0.46958577
   0.44444452  0.55555448  0.46958614
   0.77777886  0.22222014  0.46958625
   0.94444439  0.05555461  0.46958658
   0.77777938  0.72222437  0.46958634
   0.94444295  0.55555605  0.46958602
Direct configuration=     8
   0.66978168 -0.00000007  0.10003731
   0.33021749 -0.00000002  0.10003738
   0.00000007  0.33021732  0.10003731
   0.00000002  0.66978151  0.10003738
   0.33021736  0.33021734  0.10003742
   0.66978166  0.66978164  0.10003742
   0.66666605  0.33333295  0.09925580
   0.33333278  0.66666622  0.10082637
   0.27777784  0.22222331  0.46956208
   0.44444499  0.05555395  0.46956132
   0.27777670  0.72222230  0.46956075
   0.44444426  0.55555474  0.46956159
   0.77777588  0.22222312  0.46956186
   0.94444436  0.05555464  0.46956262
   0.77777569  0.72222116  0.46956208
   0.94444505  0.55555401  0.46956132
Direct configuration=     9
   0.66978189 -0.00000013  0.10010897
   0.33021761  0.00000009  0.10010919
   0.00000013  0.33021711  0.10010897
  -0.00000009  0.66978139  0.10010919
   0.33021762  0.33021755  0.10010930
   0.66978145  0.66978138  0.10010930
   0.66666600  0.33333300  0.09932398
   0.33333273  0.66666627  0.10091504
   0.27778749  0.22223440  0.46948929
   0.44445110  0.05554765  0.46948722
   0.27777533  0.72222367  0.46948567
   0.44444347  0.55555553  0.46948795
   0.77776692  0.22223208  0.46948870
   0.94444429  0.05555471  0.46949073
   0.77776460  0.72221151  0.46948929
   0.94445135  0.55554790  0.46948722
Direct configuration=    10
   0.66978231 -0.00000025  0.10025230
   0.33021786  0.00000031  0.10025280
   0.00000025  0.33021669  0.10025230
  -0.00000031  0.66978114  0.10025280
   0.33021812  0.33021798  0.10025306
   0.66978102  0.66978088  0.10025306
   0.66666589  0.33333311  0.09946033
   0.33333264  0.66666636  0.10109238
   0.27780678  0.22225658  0.46934372
   0.44446332  0.05553506  0.46933902
   0.27777259  0.72222641  0.46933551
   0.44444189  0.55555711  0.46934066
   0.77774901  0.22224999  0.46934237
   0.94444415  0.05555485  0.46934696
   0.77774242  0.72219222  0.46934372
   0.94446394  0.55553568  0.46933902
Direct configuration=    11
   0.66978314 -0.00000048  0.10053896
   0.33021835  0.00000075  0.10054003
   0.00000048  0.33021586  0.10053896
  -0.00000075  0.66978065  0.10054003
   0.33021914  0.33021884  0.10054058
   0.66978016  0.66977986  0.10054058
   0.66666568  0.33333332  0.09973303
   0.33333246  0.66666654  0.10144706
   0.27784536  0.22230093  0.46905256
   0.44448776  0.05550987  0.46904260
   0.27776712  0.72223188  0.46903521
   0.44443874  0.55556026  0.46904608
   0.77771319  0.22228581  0.46904971
   0.94444387  0.05555513  0.46905943
   0.77769807  0.72215364  0.46905256
   0.94448913  0.55551124  0.46904260
Direct configuration=    12
   0.66978481 -0.00000095  0.10111228
   0.33021935  0.00000163  0.10111448
   0.00000095  0.33021419  0.10111228
  -0.00000163  0.66977965  0.10111448
   0.33022116  0.33022056  0.10111562
   0.66977844  0.66977784  0.10111562
   0.66666526  0.33333374  0.10027845
   0.33333209  0.66666691  0.10215641
   0.27792252  0.22238964  0.46847026
   0.44453664  0.05545949  0.46844978
   0.27775617  0.72224283  0.46843459
   0.44443243  0.55556657  0.46845693
   0.77764154  0.22235746  0.46846440
   0.94444329  0.05555571  0.46848436
   0.77760936  0.72207648  0.46847026
   0.94453951  0.55546236  0.46844978
Direct configuration=    13
   0.66978814 -0.00000189  0.10225892
   0.33022133  0.00000339  0.10226339
   0.00000189  0.33021086  0.10225892
  -0.00000339  0.66977767  0.10226339
   0.33022522  0.33022399  0.10226570
   0.66977501  0.66977378  0.10226570
   0.66666440  0.33333460  0.10136927
   0.33333136  0.66666764  0.10357512
   0.27807684  0.22256705  0.46730566
   0.44463439  0.05535874  0.46726414
   0.27773427  0.72226473  0.46723337
   0.44441982  0.55557918  0.46727863
   0.77749825  0.22250075  0.46729378
   0.94444215  0.05555685  0.46733422
   0.77743195  0.72192216  0.46730566
   0.94464026  0.55536461  0.46726414
Direct configuration=    14
   0.66979481 -0.00000376  0.10455220
   0.33022529  0.00000692  0.10456121
   0.00000376  0.33020419  0.10455220
  -0.00000692  0.66977371  0.10456121
   0.33023333  0.33023086  0.10456586
   0.66976814  0.66976567  0.10456586
   0.66666270  0.33333630  0.10355092
   0.33332991  0.66666909  0.10641253
   0.27838549  0.22292188  0.46497645
   0.44482990  0.05515724  0.46489285
   0.27769047  0.72230853  0.46483091
   0.44439460  0.55560440  0.46492203
   0.77721166  0.22278734  0.46495254
   0.94443987  0.05555913  0.46503394
   0.77707712  0.72161351  0.46497645
   0.94484176  0.55516910  0.46489285
Direct configuration=    15
   0.66980814 -0.00000751  0.10913876
   0.33023322  0.00001398  0.10915685
   0.00000751  0.33019086  0.10913876
  -0.00001398  0.66976578  0.10915685
   0.33024956  0.33024459  0.10916618
   0.66975441  0.66974944  0.10916618
   0.66665929  0.33333971  0.10791421
   0.33332699  0.66667201  0.11208735
   0.27900278  0.22363154  0.46031803
   0.44522092  0.05475423  0.46015027
   0.27760288  0.72239612  0.46002600
   0.44434415  0.55565485  0.46020883
   0.77663848  0.22336052  0.46027006
   0.94443531  0.05556369  0.46043338
   0.77636746  0.72099622  0.46031803
   0.94524477  0.55477808  0.46015027
Direct configuration=    16
   0.66980814 -0.00000752  0.10913988
   0.33023322  0.00001398  0.10915797
   0.00000752  0.33019086  0.10913988
  -0.00001398  0.66976578  0.10915797
   0.33024956  0.33024459  0.10916730
   0.66975441  0.66974944  0.10916730
   0.66665929  0.33333971  0.10791527
   0.33332699  0.66667201  0.11208874
   0.27900282  0.22363157  0.46031689
   0.44522093  0.05475422  0.46014911
   0.27760288  0.72239612  0.46002483
   0.44434413  0.55565487  0.46020768
   0.77663846  0.22336054  0.46026892
   0.94443530  0.05556370  0.46043225
   0.77636743  0.72099618  0.46031689
   0.94524478  0.55477807  0.46014911
Direct configuration=    17
   0.66980815 -0.00000752  0.10914323
   0.33023323  0.00001398  0.10916134
   0.00000752  0.33019085  0.10914323
  -0.00001398  0.66976577  0.10916134
   0.33024957  0.33024461  0.10917067
   0.66975439  0.66974943  0.10917067
   0.66665929  0.33333971  0.10791846
   0.33332699  0.66667201  0.11209288
   0.27900296  0.22363167  0.46031348
   0.44522097  0.05475417  0.46014565
   0.27760290  0.72239610  0.46002132
   0.44434409  0.55565491  0.46020423
   0.77663838  0.22336062  0.46026549
   0.94443526  0.05556374  0.46042888
   0.77636733  0.72099604  0.46031348
   0.94524483  0.55477803  0.46014565
Direct configuration=    18
   0.66980815 -0.00000754  0.10914995
   0.33023324  0.00001398  0.10916806
   0.00000754  0.33019085  0.10914995
  -0.00001398  0.66976576  0.10916806
   0.33024959  0.33024463  0.10917740
   0.66975437  0.66974941  0.10917740
   0.66665929  0.33333971  0.10792484
   0.33332698  0.66667202  0.11210118
   0.27900324  0.22363187  0.46030666
   0.44522105  0.05475408  0.46013871
   0.27760293  0.72239607  0.46001431
   0.44434401  0.55565499  0.46019734
   0.77663823  0.22336077  0.46025864
   0.94443520  0.05556380  0.46042213
   0.77636713  0.72099576  0.46030666
   0.94524492  0.55477795  0.46013871
Direct configuration=    19
   0.66980815 -0.00000757  0.10916338
   0.33023326  0.00001397  0.10918152
   0.00000757  0.33019085  0.10916338
  -0.00001397  0.66976574  0.10918152
   0.33024963  0.33024468  0.10919087
   0.66975432  0.66974937  0.10919087
   0.66665928  0.33333972  0.10793759
   0.33332697  0.66667203  0.11211777
   0.27900379  0.22363226  0.46029302
   0.44522120  0.05475391  0.46012485
   0.27760298  0.72239602  0.46000028
   0.44434385  0.55565515  0.46018355
   0.77663793  0.22336107  0.46024493
   0.94443508  0.05556392  0.46040864
   0.77636674  0.72099521  0.46029302
   0.94524509  0.55477780  0.46012485
Direct configuration=    20
   0.66980816 -0.00000762  0.10919023
   0.33023331  0.00001396  0.10920843
   0.00000762  0.33019084  0.10919023
  -0.00001396  0.66976569  0.10920843
   0.33024971  0.33024478  0.10921780
   0.66975422  0.66974929  0.10921780
   0.66665928  0.33333972  0.10796309
   0.33332696  0.66667204  0.11215095
   0.27900490  0.22363305  0.46026573
   0.44522150  0.05475356  0.46009712
   0.27760309  0.72239591  0.45997222
   0.44434353  0.55565547  0.46015597
   0.77663734  0.22336166  0.46021752
   0.94443484  0.05556416  0.46038166
   0.77636595  0.72099410  0.46026573
   0.94524544  0.55477750  0.46009712
Direct configuration=    21
   0.66980818 -0.00000774  0.10924394
   0.33023339  0.00001393  0.10926224
   0.00000774  0.33019082  0.10924394
  -0.00001393  0.66976561  0.10926224
   0.33024987  0.33024497  0.10927167
   0.66975403  0.66974913  0.10927167
   0.66665927  0.33333973  0.10801408
   0.33332692  0.66667208  0.11221730
   0.27900711  0.22363463  0.46021116
   0.44522211  0.05475287  0.46004165
   0.27760331  0.72239569  0.45991610
   0.44434288  0.55565612  0.46010081
   0.77663614  0.22336286  0.46016269
   0.94443435  0.05556465  0.46032769
   0.77636437  0.72099189  0.46021116
   0.94524613  0.55477689  0.46004165
Direct configuration=    22
   0.66980823 -0.00000796  0.10935136
   0.33023356  0.00001387  0.10936987
   0.00000796  0.33019077  0.10935136
  -0.00001387  0.66976544  0.10936987
   0.33025018  0.33024536  0.10937941
   0.66975364  0.66974882  0.10937941
   0.66665926  0.33333974  0.10811608
   0.33332685  0.66667215  0.11235002
   0.27901154  0.22363778  0.46010201
   0.44522332  0.05475148  0.45993073
   0.27760376  0.72239524  0.45980387
   0.44434159  0.55565741  0.45999049
   0.77663375  0.22336525  0.46005304
   0.94443337  0.05556563  0.46021975
   0.77636122  0.72098746  0.46010201
   0.94524752  0.55477568  0.45993073
Direct configuration=    23
   0.66980831 -0.00000841  0.10956621
   0.33023391  0.00001375  0.10958513
   0.00000841  0.33019069  0.10956621
  -0.00001375  0.66976509  0.10958513
   0.33025080  0.33024614  0.10959488
   0.66975286  0.66974820  0.10959488
   0.66665923  0.33333977  0.10832007
   0.33332670  0.66667230  0.11261545
   0.27902040  0.22364408  0.45988371
   0.44522574  0.05474869  0.45970887
   0.27760465  0.72239435  0.45957941
   0.44433902  0.55565998  0.45976986
   0.77662897  0.22337003  0.45983373
   0.94443142  0.05556758  0.46000388
   0.77635492  0.72097860  0.45988371
   0.94525031  0.55477326  0.45970887
Direct configuration=    24
   0.66980848 -0.00000932  0.10999589
   0.33023460  0.00001352  0.11001565
   0.00000932  0.33019052  0.10999589
  -0.00001352  0.66976440  0.11001565
   0.33025205  0.33024771  0.11002583
   0.66975129  0.66974695  0.11002583
   0.66665916  0.33333984  0.10872805
   0.33332641  0.66667259  0.11314631
   0.27903811  0.22365669  0.45944712
   0.44523059  0.05474313  0.45926517
   0.27760643  0.72239257  0.45913049
   0.44433386  0.55566514  0.45932859
   0.77661942  0.22337958  0.45939511
   0.94442751  0.05557149  0.45957214
   0.77634231  0.72096089  0.45944712
   0.94525587  0.55476841  0.45926517
Direct configuration=    25
   0.66980881 -0.00001113  0.11085526
   0.33023598  0.00001305  0.11087670
   0.00001113  0.33019019  0.11085526
  -0.00001305  0.66976302  0.11087670
   0.33025454  0.33025083  0.11088772
   0.66974817  0.66974446  0.11088772
   0.66665904  0.33333996  0.10954401
   0.33332582  0.66667318  0.11420803
   0.27907354  0.22368191  0.45857393
   0.44524030  0.05473199  0.45837776
   0.27760998  0.72238902  0.45823264
   0.44432355  0.55567545  0.45844606
   0.77660030  0.22339870  0.45851787
   0.94441969  0.05557931  0.45870865
   0.77631709  0.72092546  0.45857393
   0.94526701  0.55475870  0.45837776
Direct configuration=    26
   0.66980948 -0.00001475  0.11257400
   0.33023874  0.00001211  0.11259879
   0.00001475  0.33018952  0.11257400
  -0.00001211  0.66976026  0.11259879
   0.33025952  0.33025709  0.11261151
   0.66974191  0.66973948  0.11261151
   0.66665878  0.33334022  0.11117594
   0.33332466  0.66667434  0.11633146
   0.27914439  0.22373235  0.45682756
   0.44525970  0.05470973  0.45660294
   0.27761709  0.72238191  0.45643694
   0.44430293  0.55569607  0.45668099
   0.77656207  0.22343693  0.45676341
   0.94440405  0.05559495  0.45698168
   0.77626665  0.72085461  0.45682756
   0.94528927  0.55473930  0.45660294
Direct configuration=    27
   0.66981081 -0.00002198  0.11601149
   0.33024426  0.00001023  0.11604296
   0.00002198  0.33018819  0.11601149
  -0.00001023  0.66975474  0.11604296
   0.33026949  0.33026959  0.11605909
   0.66972941  0.66972951  0.11605909
   0.66665828  0.33334072  0.11443979
   0.33332232  0.66667668  0.12057834
   0.27928610  0.22383322  0.45333481
   0.44529850  0.05466520  0.45305330
   0.27763131  0.72236769  0.45284555
   0.44426168  0.55573732  0.45315085
   0.77648561  0.22351339  0.45325447
   0.94437278  0.05562622  0.45352773
   0.77616578  0.72071290  0.45333481
   0.94533380  0.55470050  0.45305330
Direct configuration=    28
   0.66981347 -0.00003645  0.12288646
   0.33025530  0.00000647  0.12293131
   0.00003645  0.33018553  0.12288646
  -0.00000647  0.66974370  0.12293131
   0.33028943  0.33029460  0.12295424
   0.66970440  0.66970957  0.12295424
   0.66665727  0.33334173  0.12096748
   0.33331764  0.66668136  0.12907208
   0.27956951  0.22403496  0.44634931
   0.44537611  0.05457614  0.44595401
   0.27765975  0.72233925  0.44566277
   0.44417920  0.55581980  0.44609057
   0.77633269  0.22366631  0.44623659
   0.94431024  0.05568876  0.44661983
   0.77596404  0.72042949  0.44634931
   0.94542286  0.55462289  0.44595401
Direct configuration=    29
   0.66981880 -0.00006539  0.13663639
   0.33027738 -0.00000105  0.13670801
   0.00006539  0.33018020  0.13663639
   0.00000105  0.66972162  0.13670801
   0.33032931  0.33034462  0.13674455
   0.66965438  0.66966969  0.13674455
   0.66665526  0.33334374  0.13402288
   0.33330829  0.66669071  0.14605958
   0.28013634  0.22443844  0.43237832
   0.44553132  0.05439802  0.43175545
   0.27771663  0.72228237  0.43129720
   0.44401422  0.55598478  0.43197002
   0.77602685  0.22397215  0.43220084
   0.94418515  0.05581385  0.43280403
   0.77556056  0.71986266  0.43237832
   0.94560098  0.55446768  0.43175545
Direct configuration=    30
   0.66982947 -0.00012328  0.16413627
   0.33032154 -0.00001608  0.16426141
   0.00012328  0.33016953  0.16413627
   0.00001608  0.66967746  0.16426141
   0.33040907  0.33044467  0.16432517
   0.66955433  0.66958993  0.16432517
   0.66665122  0.33334778  0.16013367
   0.33328959  0.66670941  0.18003457
   0.28126999  0.22524542  0.40443634
   0.44584174  0.05404179  0.40335831
   0.27783040  0.72216860  0.40256606
   0.44368426  0.55631474  0.40372892
   0.77541516  0.22458384  0.40412934
   0.94393497  0.05606403  0.40517244
   0.77475358  0.71872901  0.40443634
   0.94595721  0.55415726  0.40335831
Direct configuration=    31
   0.66982780 -0.00011423  0.15983997
   0.33031464 -0.00001373  0.15995675
   0.00011423  0.33017120  0.15983997
   0.00001373  0.66968436  0.15995675
   0.33039661  0.33042904  0.16001626
   0.66956996  0.66960239  0.16001626
   0.66665185  0.33334715  0.15605439
   0.33329251  0.66670649  0.17472666
   0.28109288  0.22511934  0.40880171
   0.44579324  0.05409745  0.40779479
   0.27781262  0.72218638  0.40705472
   0.44373581  0.55626319  0.40814102
   0.77551072  0.22448828  0.40851495
   0.94397406  0.05602494  0.40948932
   0.77487966  0.71890612  0.40880171
   0.94590155  0.55420576  0.40779479
Direct configuration=    32
   0.66982902 -0.00012086  0.16298958
   0.33031970 -0.00001545  0.16311249
   0.00012086  0.33016998  0.16298958
   0.00001545  0.66967930  0.16311249
   0.33040574  0.33044050  0.16317512
   0.66955850  0.66959326  0.16317512
   0.66665139  0.33334761  0.15904491
   0.33329037  0.66670863  0.17861788
   0.28122271  0.22521177  0.40560146
   0.44582880  0.05405664  0.40454241
   0.27782565  0.72217335  0.40376409
   0.44369802  0.55630098  0.40490652
   0.77544067  0.22455833  0.40529987
   0.94394540  0.05605360  0.40632462
   0.77478723  0.71877629  0.40560146
   0.94594236  0.55417020  0.40454241
Direct configuration=    33
   0.66972852 -0.00020822  0.16751367
   0.33034823 -0.00009094  0.16764449
   0.00020822  0.33027048  0.16751367
   0.00009094  0.66965077  0.16764449
   0.33042939  0.33053145  0.16771051
   0.66946755  0.66956961  0.16771051
   0.66664965  0.33334935  0.16331528
   0.33328411  0.66671489  0.18416992
   0.28090126  0.22486056  0.40100181
   0.44563193  0.05426339  0.39989172
   0.27785580  0.72214320  0.39907260
   0.44373813  0.55626087  0.40027423
   0.77572365  0.22427535  0.40068635
   0.94395045  0.05604855  0.40175721
   0.77513844  0.71909774  0.40100181
   0.94573561  0.55436707  0.39989172
Direct configuration=    34
   0.66974731 -0.00019188  0.16666760
   0.33034289 -0.00007682  0.16679694
   0.00019188  0.33025169  0.16666760
   0.00007682  0.66965611  0.16679694
   0.33042497  0.33051444  0.16686232
   0.66948456  0.66957403  0.16686232
   0.66664997  0.33334903  0.16251666
   0.33328528  0.66671372  0.18313161
   0.28096138  0.22492624  0.40186201
   0.44566875  0.05422473  0.40076147
   0.27785016  0.72214884  0.39994997
   0.44373063  0.55626837  0.40114053
   0.77567073  0.22432827  0.40154914
   0.94394951  0.05604949  0.40261138
   0.77507276  0.71903762  0.40186201
   0.94577427  0.55433025  0.40076147
Direct configuration=    35
   0.66964911 -0.00026595  0.16633246
   0.33036732 -0.00014184  0.16645995
   0.00026595  0.33034989  0.16633246
   0.00014184  0.66963168  0.16645995
   0.33043581  0.33058205  0.16652363
   0.66941695  0.66956319  0.16652363
   0.66664691  0.33335209  0.16217401
   0.33328102  0.66671798  0.18268205
   0.28053333  0.22453448  0.40220013
   0.44547513  0.05443996  0.40112808
   0.27785092  0.72214808  0.40033312
   0.44381894  0.55618006  0.40149913
   0.77597930  0.22401970  0.40189583
   0.94399580  0.05600320  0.40292740
   0.77546452  0.71946567  0.40220013
   0.94555904  0.55452387  0.40112808
Direct configuration=    36
   0.66935451 -0.00048813  0.16532701
   0.33044060 -0.00033689  0.16544897
   0.00048813  0.33064449  0.16532701
   0.00033689  0.66955840  0.16544897
   0.33046835  0.33078487  0.16550754
   0.66921413  0.66953065  0.16550754
   0.66663770  0.33336130  0.16114605
   0.33326825  0.66673075  0.18133335
   0.27924917  0.22335921  0.40321448
   0.44489427  0.05508566  0.40222791
   0.27785321  0.72214579  0.40148254
   0.44408388  0.55591512  0.40257491
   0.77690499  0.22309401  0.40293588
   0.94413467  0.05586433  0.40387544
   0.77663979  0.72074983  0.40321448
   0.94491334  0.55510473  0.40222791
Direct configuration=    37
   0.66876530 -0.00093251  0.16331613
   0.33058716 -0.00072700  0.16342701
   0.00093251  0.33123370  0.16331613
   0.00072700  0.66941184  0.16342701
   0.33053343  0.33119051  0.16347537
   0.66880849  0.66946557  0.16347537
   0.66661929  0.33337971  0.15909015
   0.33324270  0.66675630  0.17863596
   0.27668087  0.22100868  0.40524318
   0.44373255  0.05637706  0.40442756
   0.27785778  0.72214122  0.40378139
   0.44461377  0.55538523  0.40472647
   0.77875639  0.22124261  0.40501599
   0.94441240  0.05558660  0.40577153
   0.77899032  0.72331813  0.40524318
   0.94362194  0.55626645  0.40442756
Direct configuration=    38
   0.66905857 -0.00071133  0.16431701
   0.33051421 -0.00053283  0.16443340
   0.00071133  0.33094043  0.16431701
   0.00053283  0.66948479  0.16443340
   0.33050104  0.33098861  0.16448684
   0.66901039  0.66949796  0.16448684
   0.66662846  0.33337054  0.16011343
   0.33325541  0.66674359  0.17997853
   0.27795919  0.22217861  0.40423344
   0.44431077  0.05573430  0.40333273
   0.27785551  0.72214349  0.40263719
   0.44435003  0.55564897  0.40365557
   0.77783490  0.22216410  0.40398066
   0.94427417  0.05572483  0.40482779
   0.77782039  0.72203981  0.40423344
   0.94426470  0.55568823  0.40333273
Direct configuration=    39
   0.66897993 -0.00074083  0.16431151
   0.33055997 -0.00056313  0.16442588
   0.00074083  0.33101907  0.16431151
   0.00056313  0.66943903  0.16442588
   0.33053197  0.33103806  0.16447640
   0.66896094  0.66946703  0.16447640
   0.66662601  0.33337299  0.16005486
   0.33325410  0.66674490  0.17990379
   0.27785229  0.22219114  0.40423442
   0.44435273  0.05570011  0.40337822
   0.27780435  0.72219465  0.40271242
   0.44440503  0.55559397  0.40368825
   0.77780827  0.22219073  0.40399314
   0.94433557  0.05566343  0.40479468
   0.77780786  0.72214671  0.40423442
   0.94429889  0.55564627  0.40337822
Direct configuration=    40
   0.66874403 -0.00082932  0.16429501
   0.33069725 -0.00065404  0.16440334
   0.00082932  0.33125497  0.16429501
   0.00065404  0.66930175  0.16440334
   0.33062477  0.33118639  0.16444508
   0.66881261  0.66937423  0.16444508
   0.66661868  0.33338032  0.15987914
   0.33325014  0.66674886  0.17967956
   0.27753160  0.22222874  0.40423736
   0.44447862  0.05559755  0.40351471
   0.27765089  0.72234811  0.40293812
   0.44457005  0.55542895  0.40378628
   0.77772840  0.22227060  0.40403055
   0.94451978  0.05547922  0.40469534
   0.77777026  0.72246740  0.40423736
   0.94440145  0.55552038  0.40351471
Direct configuration=    41
   0.66864060 -0.00086813  0.16428777
   0.33075743 -0.00069390  0.16439346
   0.00086813  0.33135840  0.16428777
   0.00069390  0.66924157  0.16439346
   0.33066545  0.33125143  0.16443135
   0.66874757  0.66933355  0.16443135
   0.66661547  0.33338353  0.15980210
   0.33324841  0.66675059  0.17958125
   0.27739099  0.22224523  0.40423865
   0.44453382  0.05555258  0.40357455
   0.27758361  0.72241539  0.40303708
   0.44464241  0.55535659  0.40382926
   0.77769338  0.22230562  0.40404696
   0.94460054  0.05539846  0.40465178
   0.77775377  0.72260801  0.40423865
   0.94444642  0.55546518  0.40357455
Direct configuration=    42
   0.66856455 -0.00087494  0.16430010
   0.33082402 -0.00070548  0.16440151
   0.00087494  0.33143445  0.16430010
   0.00070548  0.66917498  0.16440151
   0.33070963  0.33129017  0.16443266
   0.66870883  0.66928937  0.16443266
   0.66661007  0.33338893  0.15969482
   0.33325034  0.66674866  0.17945333
   0.27743937  0.22224462  0.40421934
   0.44451988  0.05556561  0.40364420
   0.27760708  0.72239192  0.40316689
   0.44460827  0.55539073  0.40387264
   0.77769961  0.22229939  0.40405137
   0.94457205  0.05542695  0.40456535
   0.77775438  0.72255963  0.40421934
   0.94443339  0.55547912  0.40364420
Direct configuration=    43
   0.66833640 -0.00089538  0.16433708
   0.33102378 -0.00074021  0.16442565
   0.00089538  0.33166260  0.16433708
   0.00074021  0.66897522  0.16442565
   0.33084217  0.33140641  0.16443657
   0.66859259  0.66915683  0.16443657
   0.66659389  0.33340511  0.15937297
   0.33325614  0.66674286  0.17906955
   0.27758449  0.22224279  0.40416140
   0.44447807  0.05560469  0.40385316
   0.27767750  0.72232150  0.40355632
   0.44450586  0.55549314  0.40400277
   0.77771831  0.22228069  0.40406462
   0.94448659  0.05551241  0.40430605
   0.77775621  0.72241451  0.40416140
   0.94439431  0.55552093  0.40385316
Direct configuration=    44
   0.66788010 -0.00093627  0.16441103
   0.33142330 -0.00080968  0.16447394
   0.00093627  0.33211890  0.16441103
   0.00080968  0.66857570  0.16447394
   0.33110724  0.33163889  0.16444440
   0.66836011  0.66889176  0.16444440
   0.66656152  0.33343748  0.15872928
   0.33326774  0.66673126  0.17830199
   0.27787474  0.22223914  0.40404551
   0.44439445  0.05568286  0.40427109
   0.27781834  0.72218066  0.40433516
   0.44430105  0.55569795  0.40426303
   0.77775571  0.22224329  0.40409113
   0.94431565  0.05568335  0.40378746
   0.77775986  0.72212426  0.40404551
   0.94431614  0.55560455  0.40427109
Direct configuration=    45
   0.66799464 -0.00092600  0.16439247
   0.33132301 -0.00079224  0.16446182
   0.00092600  0.33200436  0.16439247
   0.00079224  0.66867599  0.16446182
   0.33104070  0.33158054  0.16444244
   0.66841846  0.66895830  0.16444244
   0.66656964  0.33342936  0.15889086
   0.33326483  0.66673417  0.17849466
   0.27780188  0.22224006  0.40407460
   0.44441544  0.05566324  0.40416618
   0.27778299  0.72221601  0.40413966
   0.44435247  0.55564653  0.40419770
   0.77774632  0.22225268  0.40408447
   0.94435856  0.05564044  0.40391763
   0.77775894  0.72219712  0.40407460
   0.94433576  0.55558356  0.40416618
Direct configuration=    46
   0.66832656 -0.00073844  0.16444461
   0.33120328 -0.00062428  0.16450508
   0.00073844  0.33167244  0.16444461
   0.00062428  0.66879572  0.16450508
   0.33094343  0.33132998  0.16446777
   0.66866902  0.66905557  0.16446777
   0.66656342  0.33343558  0.15865686
   0.33329101  0.66670799  0.17826265
   0.27780974  0.22228951  0.40404503
   0.44441842  0.05564914  0.40425182
   0.27774070  0.72225830  0.40431059
   0.44439893  0.55560007  0.40424971
   0.77772210  0.22227690  0.40408808
   0.94437322  0.05562578  0.40380349
   0.77770949  0.72218926  0.40404503
   0.94434986  0.55558058  0.40425182
Direct configuration=    47
   0.66897807 -0.00037029  0.16454695
   0.33096828 -0.00029459  0.16458999
   0.00037029  0.33102093  0.16454695
   0.00029459  0.66903072  0.16458999
   0.33075249  0.33083819  0.16451750
   0.66916081  0.66924651  0.16451750
   0.66655122  0.33344778  0.15819756
   0.33334238  0.66665662  0.17780725
   0.27782515  0.22238658  0.40398699
   0.44442428  0.05562146  0.40441993
   0.27765771  0.72234129  0.40464610
   0.44449012  0.55550888  0.40435179
   0.77767454  0.22232446  0.40409516