 ----------------------------------------------------
    OOO  PPPP  EEEEE N   N M   M PPPP
   O   O P   P E     NN  N MM MM P   P
   O   O PPPP  EEEEE N N N M M M PPPP   -- VERSION
   O   O P     E     N  NN M   M P
    OOO  P     EEEEE N   N M   M P
 ----------------------------------------------------
 running   48 mpi-ranks, with    1 threads/rank
 distrk:  each k-point on   48 cores,    1 groups
 distr:  one band on    1 cores,   48 groups
 vasp.6.3.2 27Jun22 (build Dec 22 2022 13:13:19) complex                        
  
 POSCAR found type information on POSCAR B C 
 POSCAR found :  2 types and      16 ions
 Reading from existing POTCAR
 -----------------------------------------------------------------------------
|                                                                             |
|           W    W    AA    RRRRR   N    N  II  N    N   GGGG   !!!           |
|           W    W   A  A   R    R  NN   N  II  NN   N  G    G  !!!           |
|           W    W  A    A  R    R  N N  N  II  N N  N  G       !!!           |
|           W WW W  AAAAAA  RRRRR   N  N N  II  N  N N  G  GGG   !            |
|           WW  WW  A    A  R   R   N   NN  II  N   NN  G    G                |
|           W    W  A    A  R    R  N    N  II  N    N   GGGG   !!!           |
|                                                                             |
|     You use a magnetic or noncollinear calculation, but did not specify     |
|     the initial magnetic moment with the MAGMOM tag. Note that a            |
|     default of 1 will be used for all atoms. This ferromagnetic setup       |
|     may break the symmetry of the crystal, in particular it may rule        |
|     out finding an antiferromagnetic solution. Thence, we recommend         |
|     setting the initial magnetic moment manually or verifying carefully     |
|     that this magnetic setup is desired.                                    |
|                                                                             |
 -----------------------------------------------------------------------------

 scaLAPACK will be used
 Reading from existing POTCAR
 LDA part: xc-table for Pade appr. of Perdew
 POSCAR found type information on POSCAR B C 
 POSCAR found :  2 types and      16 ions
 POSCAR, INCAR and KPOINTS ok, starting setup
 FFT: planning ... GRIDC
 FFT: planning ... GRID_SOFT
 FFT: planning ... GRID
 WAVECAR not read
 entering main loop
       N       E                     dE             d eps       ncg     rms          rms(c)
DAV:   1     0.260377858519E+03    0.26038E+03   -0.28614E+04 14208   0.964E+02
DAV:   2    -0.129823830045E+03   -0.39020E+03   -0.38970E+03 21840   0.180E+02
DAV:   3    -0.145627494868E+03   -0.15804E+02   -0.15784E+02 25872   0.501E+01
DAV:   4    -0.145673016038E+03   -0.45521E-01   -0.45509E-01 21888   0.247E+00
DAV:   5    -0.145673093969E+03   -0.77931E-04   -0.77932E-04 24000   0.106E-01    0.249E+01
DAV:   6    -0.107174107640E+03    0.38499E+02   -0.68117E+01 23472   0.266E+01    0.145E+01
DAV:   7    -0.114405508708E+03   -0.72314E+01   -0.10050E+01 23376   0.110E+01    0.854E+00
DAV:   8    -0.123613890482E+03   -0.92084E+01   -0.82253E+00 24816   0.905E+00    0.457E+00
DAV:   9    -0.131407969155E+03   -0.77941E+01   -0.42702E+00 17280   0.711E+00    0.301E+00
DAV:  10    -0.138570249046E+03   -0.71623E+01   -0.98566E+00 21312   0.783E+00    0.172E+00
DAV:  11    -0.140044155876E+03   -0.14739E+01   -0.17685E+00 21264   0.357E+00    0.116E+00
DAV:  12    -0.140294357452E+03   -0.25020E+00   -0.29631E-01 20352   0.155E+00    0.470E-01
DAV:  13    -0.140346809448E+03   -0.52452E-01   -0.44749E-02 16704   0.825E-01    0.198E-01
DAV:  14    -0.140371618754E+03   -0.24809E-01   -0.79320E-03 18816   0.323E-01    0.951E-02
DAV:  15    -0.140380591263E+03   -0.89725E-02   -0.53139E-03 18240   0.181E-01    0.471E-02
DAV:  16    -0.140382008674E+03   -0.14174E-02   -0.52822E-04 14736   0.924E-02    0.267E-02
DAV:  17    -0.140383742135E+03   -0.17335E-02   -0.23940E-04 16080   0.630E-02    0.174E-02
DAV:  18    -0.140384784338E+03   -0.10422E-02   -0.11629E-04 15360   0.467E-02    0.123E-02
DAV:  19    -0.140385291906E+03   -0.50757E-03   -0.71174E-05 18960   0.380E-02    0.780E-03
DAV:  20    -0.140385448193E+03   -0.15629E-03   -0.24176E-05 15840   0.238E-02    0.448E-03
DAV:  21    -0.140385492654E+03   -0.44462E-04   -0.10330E-05 18240   0.146E-02    0.267E-03
DAV:  22    -0.140385497779E+03   -0.51243E-05   -0.34122E-06 24192   0.833E-03    0.190E-03
DAV:  23    -0.140385504638E+03   -0.68598E-05   -0.14655E-06 20112   0.477E-03    0.883E-04
DAV:  24    -0.140385508348E+03   -0.37100E-05   -0.41700E-07 21504   0.240E-03    0.501E-04
DAV:  25    -0.140385510042E+03   -0.16937E-05   -0.10091E-07 20928   0.112E-03    0.261E-04
DAV:  26    -0.140385511052E+03   -0.10102E-05   -0.72852E-08 18432   0.869E-04    0.128E-04
DAV:  27    -0.140385511374E+03   -0.32171E-06   -0.21034E-08 17568   0.497E-04
   1 F= -.14227089E+03 E0= -.14226982E+03  d E =-.142271E+03  mag=     0.0000
 curvature:   0.00 expect dE= 0.000E+00 dE for cont linesearch  0.000E+00
 trial: gam= 0.00000 g(F)=  0.896E-01 g(S)=  0.000E+00 ort = 0.000E+00 (trialstep = 0.100E+01)
 search vector abs. value=  0.896E-01
 bond charge predicted
       N       E                     dE             d eps       ncg     rms          rms(c)
DAV:   1    -0.140345931521E+03    0.39580E-01   -0.14356E+01 14208   0.128E+01    0.108E+00
DAV:   2    -0.140311672097E+03    0.34259E-01   -0.24965E-01 24816   0.176E+00    0.522E-01
DAV:   3    -0.140308252079E+03    0.34200E-02   -0.34195E-02 23040   0.580E-01    0.224E-01
DAV:   4    -0.140308193978E+03    0.58101E-04   -0.37941E-03 18096   0.189E-01    0.888E-02
DAV:   5    -0.140308194968E+03   -0.98986E-06   -0.26147E-04 20832   0.610E-02    0.235E-02
DAV:   6    -0.140308200581E+03   -0.56131E-05   -0.26661E-05 22032   0.186E-02    0.125E-02
DAV:   7    -0.140308210263E+03   -0.96822E-05   -0.15865E-05 20928   0.129E-02    0.284E-03
DAV:   8    -0.140308219423E+03   -0.91595E-05   -0.16260E-06 22272   0.415E-03    0.158E-03
DAV:   9    -0.140308233982E+03   -0.14559E-04   -0.15185E-06 18720   0.257E-03    0.966E-04
DAV:  10    -0.140308239649E+03   -0.56671E-05   -0.36431E-07 20064   0.120E-03    0.699E-04
DAV:  11    -0.140308245825E+03   -0.61757E-05   -0.64182E-07 18144   0.141E-03    0.353E-04
DAV:  12    -0.140308247835E+03   -0.20106E-05   -0.17742E-07 17328   0.676E-04    0.241E-04
DAV:  13    -0.140308248302E+03   -0.46710E-06   -0.26112E-08 20400   0.307E-04
   2 F= -.14219791E+03 E0= -.14219648E+03  d E =0.729751E-01  mag=    -0.0000
 trial-energy change:    0.072975  1 .order    0.071848   -0.089560    0.233255
 step:   0.2733(harm=  0.2774)  dis= 0.00708  next Energy=  -142.283103 (dE=-0.122E-01)
 bond charge predicted
       N       E                     dE             d eps       ncg     rms          rms(c)
DAV:   1    -0.140415653282E+03   -0.10741E+00   -0.75407E+00 14208   0.926E+00    0.783E-01
DAV:   2    -0.140398340347E+03    0.17313E-01   -0.12877E-01 23808   0.129E+00    0.379E-01
DAV:   3    -0.140396347335E+03    0.19930E-02   -0.20971E-02 23136   0.441E-01    0.153E-01
DAV:   4    -0.140396266615E+03    0.80720E-04   -0.23281E-03 18336   0.149E-01    0.683E-02
DAV:   5    -0.140396259132E+03    0.74827E-05   -0.19102E-04 17520   0.524E-02    0.122E-02
DAV:   6    -0.140396256725E+03    0.24074E-05   -0.38078E-05 22464   0.215E-02    0.619E-03
DAV:   7    -0.140396260762E+03   -0.40367E-05   -0.34860E-06 22560   0.661E-03    0.136E-03
DAV:   8    -0.140396266504E+03   -0.57423E-05   -0.47787E-07 21024   0.215E-03    0.852E-04
DAV:   9    -0.140396272318E+03   -0.58139E-05   -0.32119E-07 19584   0.123E-03    0.746E-04
DAV:  10    -0.140396276381E+03   -0.40637E-05   -0.17726E-07 17184   0.830E-04    0.523E-04
DAV:  11    -0.140396280591E+03   -0.42094E-05   -0.32656E-07 14736   0.922E-04    0.243E-04
DAV:  12    -0.140396281103E+03   -0.51218E-06   -0.12631E-08 23520   0.228E-04
   3 F= -.14228309E+03 E0= -.14228191E+03  d E =-.122023E-01  mag=    -0.0000
 curvature:  -0.14 expect dE=-0.361E-04 dE for cont linesearch -0.263E-08
 trial: gam= 0.00337 g(F)=  0.260E-03 g(S)=  0.000E+00 ort =-0.412E-04 (trialstep = 0.855E+00)
 search vector abs. value=  0.261E-03
 bond charge predicted
       N       E                     dE             d eps       ncg     rms          rms(c)
DAV:   1    -0.140396448259E+03   -0.16767E-03   -0.16156E-02 14208   0.552E-01    0.243E-02
DAV:   2    -0.140396451083E+03   -0.28236E-05   -0.12024E-04 25440   0.483E-02    0.160E-02
DAV:   3    -0.140396454282E+03   -0.31992E-05   -0.16081E-05 14208   0.160E-02    0.335E-03
DAV:   4    -0.140396454208E+03    0.74504E-07   -0.28013E-06 24096   0.673E-03
   4 F= -.14228323E+03 E0= -.14228205E+03  d E =-.140374E-03  mag=     0.0000
 trial-energy change:   -0.000140  1 .order   -0.000140   -0.000222   -0.000057
 step:   1.1492(harm=  1.1492)  dis= 0.00190  next Energy=  -142.283241 (dE=-0.149E-03)
 bond charge predicted
       N       E                     dE             d eps       ncg     rms          rms(c)
DAV:   1    -0.140396474912E+03   -0.20630E-04   -0.19251E-03 14400   0.190E-01    0.858E-03
DAV:   2    -0.140396475014E+03   -0.10155E-06   -0.14675E-05 23136   0.170E-02    0.570E-03
DAV:   3    -0.140396475830E+03   -0.81629E-06   -0.19775E-06 14784   0.569E-03
   5 F= -.14228324E+03 E0= -.14228207E+03  d E =-.150750E-03  mag=    -0.0000
 curvature:  -0.58 expect dE=-0.853E-04 dE for cont linesearch -0.175E-08
 trial: gam= 0.57164 g(F)=  0.148E-03 g(S)=  0.000E+00 ort =-0.891E-06 (trialstep = 0.914E+00)
 search vector abs. value=  0.232E-03
 bond charge predicted
       N       E                     dE             d eps       ncg     rms          rms(c)
DAV:   1    -0.140396467562E+03    0.74523E-05   -0.19259E-02 14592   0.621E-01    0.311E-02
DAV:   2    -0.140396468839E+03   -0.12771E-05   -0.25617E-04 15168   0.728E-02    0.196E-02
DAV:   3    -0.140396468161E+03    0.67732E-06   -0.39676E-05 17376   0.265E-02    0.717E-03
DAV:   4    -0.140396468174E+03   -0.12866E-07   -0.82508E-06 22800   0.109E-02
   6 F= -.14228319E+03 E0= -.14228202E+03  d E =0.521690E-04  mag=     0.0000
 trial-energy change:    0.000052  1 .order    0.000051   -0.000135    0.000237
 step:   0.3315(harm=  0.3315)  dis= 0.00045  next Energy=  -142.283267 (dE=-0.244E-04)
 bond charge predicted
       N       E                     dE             d eps       ncg     rms          rms(c)
DAV:   1    -0.140396517306E+03   -0.49144E-04   -0.78897E-03 17280   0.397E-01    0.204E-02
DAV:   2    -0.140396516060E+03    0.12457E-05   -0.10363E-04 14784   0.463E-02    0.125E-02
DAV:   3    -0.140396515668E+03    0.39187E-06   -0.15839E-05 15552   0.168E-02    0.448E-03
DAV:   4    -0.140396515844E+03   -0.17602E-06   -0.32653E-06 21072   0.682E-03
   7 F= -.14228327E+03 E0= -.14228209E+03  d E =-.239314E-04  mag=    -0.0000
 curvature:  -0.26 expect dE=-0.854E-05 dE for cont linesearch -0.962E-09
 trial: gam= 0.23246 g(F)=  0.327E-04 g(S)=  0.000E+00 ort =-0.925E-06 (trialstep = 0.797E+00)
 search vector abs. value=  0.448E-04
 bond charge predicted
       N       E                     dE             d eps       ncg     rms          rms(c)
DAV:   1    -0.140396551914E+03   -0.36246E-04   -0.27655E-03 15456   0.234E-01    0.117E-02
DAV:   2    -0.140396551881E+03    0.32946E-07   -0.37802E-05 15552   0.272E-02    0.743E-03
DAV:   3    -0.140396552109E+03   -0.22739E-06   -0.44097E-06 18816   0.872E-03
   8 F= -.14228327E+03 E0= -.14228210E+03  d E =-.372863E-05  mag=     0.0000
 trial-energy change:   -0.000004  1 .order   -0.000003   -0.000026    0.000020
 step:   0.4513(harm=  0.4513)  dis= 0.00021  next Energy=  -142.283274 (dE=-0.734E-05)
 bond charge predicted
       N       E                     dE             d eps       ncg     rms          rms(c)
DAV:   1    -0.140396541941E+03    0.99401E-05   -0.51213E-04 15456   0.101E-01    0.429E-03
DAV:   2    -0.140396542061E+03   -0.11932E-06   -0.69449E-06 14208   0.115E-02
   9 F= -.14228327E+03 E0= -.14228210E+03  d E =-.780015E-05  mag=    -0.0000
 curvature:  -0.31 expect dE=-0.819E-05 dE for cont linesearch -0.726E-09
 trial: gam= 0.79132 g(F)=  0.263E-04 g(S)=  0.000E+00 ort = 0.323E-06 (trialstep = 0.595E+00)
 search vector abs. value=  0.549E-04
 bond charge predicted
       N       E                     dE             d eps       ncg     rms          rms(c)
DAV:   1    -0.140396589162E+03   -0.47221E-04   -0.18768E-03 14208   0.193E-01    0.818E-03
