Lattice                                 
           1
     4.372562    2.524500    0.000000
    -4.372562    2.524500    0.000000
     0.000000    0.000000   15.000000
   B    C 
     2    14
Direct configuration=     1
   0.33833034  0.66916432  0.10000000
   0.67165522  0.33584146  0.10000000
   0.16373946  0.31999962  0.10000000
   0.32250218  0.16126397  0.10000000
   0.16376430  0.84376384  0.10000000
   0.84623863  0.16123684  0.10000000
   0.68749850  0.84373000  0.10000000
   0.84626736  0.68499594  0.10000000
   0.24999933  0.24999967  0.32633333
   0.41666633  0.08333267  0.32633333
   0.24999933  0.74999967  0.32633333
   0.41666633  0.58333267  0.32633333
   0.74999933  0.24999967  0.32633333
   0.91666633  0.08333267  0.32633333
   0.74999933  0.74999967  0.32633333
   0.91666633  0.58333267  0.32633333
Direct configuration=     2
   0.33844115  0.66905595  0.10014371
   0.67179365  0.33570169  0.10008401
   0.16689669  0.32626277  0.09994219
   0.32845493  0.16427213  0.09997327
   0.16672618  0.84079636  0.09995415
   0.84308258  0.16437618  0.09995876
   0.68125165  0.84059859  0.09994255
   0.84323411  0.67905447  0.09997351
   0.24986331  0.24959574  0.32640642
   0.41630151  0.08328224  0.32639712
   0.24982231  0.75018850  0.32627024
   0.41677139  0.58322397  0.32622985
   0.75003415  0.24995616  0.32620859
   0.91686866  0.08312273  0.32638250
   0.75040387  0.75014256  0.32640791
   0.91671252  0.58369529  0.32639189
Direct configuration=     3
   0.33836062  0.66913471  0.10003927
   0.67169305  0.33580326  0.10002296
   0.16460224  0.32171116  0.09998420
   0.32412890  0.16208601  0.09999269
   0.16457370  0.84295291  0.09998747
   0.84537617  0.16209473  0.09998873
   0.68579142  0.84287428  0.09998430
   0.84543845  0.68337231  0.09999276
   0.24996216  0.24988928  0.32635330
   0.41656664  0.08331889  0.32635077
   0.24995096  0.75005127  0.32631609
   0.41669504  0.58330296  0.32630505
   0.75000885  0.24998778  0.32629924
   0.91672162  0.08327530  0.32634677
   0.75010988  0.75003871  0.32635371
   0.91667895  0.58343176  0.32634933
Direct configuration=     4
   0.33836100  0.66913953  0.10013323
   0.67169239  0.33580403  0.10007787
   0.16455120  0.32171490  0.09994729
   0.32413402  0.16212393  0.09997155
   0.16455319  0.84295925  0.09996105
   0.84540250  0.16208676  0.09995749
   0.68577993  0.84293050  0.09994759
   0.84539579  0.68337162  0.09997194
   0.24995666  0.24983624  0.32640376
   0.41653890  0.08329344  0.32638942
   0.24993593  0.75006568  0.32627642
   0.41671695  0.58328111  0.32623783
   0.75001511  0.24997941  0.32622229
   0.91675974  0.08323632  0.32637935
   0.75016131  0.75004315  0.32640501
   0.91670403  0.58345948  0.32638457
Direct configuration=     5
   0.33836113  0.66914119  0.10016561
   0.67169217  0.33580430  0.10009680
   0.16453360  0.32171618  0.09993457
   0.32413579  0.16213700  0.09996426
   0.16454613  0.84296143  0.09995195
   0.84541158  0.16208401  0.09994673
   0.68577597  0.84294988  0.09993494
   0.84538108  0.68337138  0.09996476
   0.24995477  0.24981795  0.32642115
   0.41652934  0.08328466  0.32640275
   0.24993075  0.75007065  0.32626274
   0.41672450  0.58327357  0.32621466
   0.75001727  0.24997652  0.32619576
   0.91677288  0.08322288  0.32639058
   0.75017904  0.75004468  0.32642270
   0.91671267  0.58346904  0.32639671
Direct configuration=     6
   0.33829062  0.66918978  0.10024880
   0.67169504  0.33581542  0.10015076
   0.16469754  0.32176435  0.09990541
   0.32403447  0.16208459  0.09993572
   0.16450908  0.84301649  0.09993983
   0.84529635  0.16217320  0.09990175
   0.68576197  0.84282907  0.09990615
   0.84539632  0.68345921  0.09993667
   0.25001725  0.24988688  0.32646461
   0.41663769  0.08329702  0.32641503
   0.25001306  0.74998726  0.32623504
   0.41671684  0.58327719  0.32617304
   0.75005286  0.24994334  0.32616188
   0.91673129  0.08326257  0.32641949
   0.75011090  0.74998182  0.32646603
   0.91669738  0.58335714  0.32640646
Direct configuration=     7
   0.33833555  0.66915882  0.10019580
   0.67169321  0.33580833  0.10011638
   0.16459309  0.32173366  0.09992399
   0.32409902  0.16211798  0.09995390
   0.16453268  0.84298141  0.09994755
   0.84536976  0.16211637  0.09993041
   0.68577089  0.84290604  0.09992449
   0.84538661  0.68340325  0.09995457
   0.24997744  0.24984296  0.32643692
   0.41656865  0.08328915  0.32640721
   0.24996062  0.75004039  0.32625269
   0.41672172  0.58327488  0.32619956
   0.75003019  0.24996448  0.32618346
   0.91675779  0.08323729  0.32640107
   0.75015431  0.75002187  0.32643842
   0.91670713  0.58342843  0.32640025
Direct configuration=     8
   0.33831280  0.66918745  0.10022103
   0.67165168  0.33584493  0.10013405
   0.16455533  0.32175422  0.09991517
   0.32411312  0.16210545  0.09993979
   0.16449646  0.84299757  0.09995134
   0.84538393  0.16212579  0.09990347
   0.68574044  0.84293615  0.09991600
   0.84540902  0.68340033  0.09994075
   0.25000436  0.24986092  0.32644840
   0.41661723  0.08328309  0.32639686
   0.24999454  0.75000492  0.32624819
   0.41673008  0.58326506  0.32620258
   0.75004807  0.24994636  0.32619758
   0.91675374  0.08324066  0.32641279
   0.75013556  0.74999381  0.32644918
   0.91671229  0.58337863  0.32638950
Direct configuration=     9
   0.33832267  0.66917503  0.10021008
   0.67166970  0.33582905  0.10012639
   0.16457171  0.32174530  0.09991900
   0.32410701  0.16211089  0.09994591
   0.16451218  0.84299056  0.09994969
   0.84537778  0.16212170  0.09991516
   0.68575365  0.84292309  0.09991968
   0.84539930  0.68340160  0.09994675
   0.24999268  0.24985313  0.32644342
   0.41659616  0.08328571  0.32640135
   0.24997983  0.75002031  0.32625014
   0.41672645  0.58326932  0.32620127
   0.75004031  0.24995422  0.32619146
   0.91675550  0.08323920  0.32640771
   0.75014369  0.75000599  0.32644452
   0.91671005  0.58340023  0.32639416
Direct configuration=    10
   0.33829904  0.66919869  0.10022694
   0.67165311  0.33584897  0.10013621
   0.16455598  0.32175436  0.09991056
   0.32409237  0.16214614  0.09993609
   0.16450784  0.84299781  0.09995499
   0.84536505  0.16213586  0.09989114
   0.68574716  0.84294805  0.09991164
   0.84535676  0.68341328  0.09993730
   0.25000651  0.24983032  0.32644921
   0.41660872  0.08326503  0.32639001
   0.24999231  0.75000652  0.32624781
   0.41674621  0.58324869  0.32621258
   0.75005591  0.24993705  0.32621101
   0.91677681  0.08321693  0.32641894
   0.75016505  0.74999077  0.32644954
   0.91672984  0.58338686  0.32638272
Direct configuration=    11
   0.33829039  0.66920736  0.10023311
   0.67164703  0.33585627  0.10013980
   0.16455021  0.32175768  0.09990747
   0.32408700  0.16215906  0.09993249
   0.16450625  0.84300047  0.09995692
   0.84536039  0.16214104  0.09988234
   0.68574479  0.84295719  0.09990870
   0.84534118  0.68341755  0.09993384
   0.25001157  0.24982196  0.32645134
   0.41661333  0.08325746  0.32638586
   0.24999688  0.75000147  0.32624695
   0.41675345  0.58324114  0.32621672
   0.75006162  0.24993076  0.32621817
   0.91678461  0.08320877  0.32642306
   0.75017287  0.74998520  0.32645138
   0.91673709  0.58338196  0.32637853
Direct configuration=    12
   0.33828545  0.66921426  0.10024156
   0.67163777  0.33586512  0.10013905
   0.16453866  0.32179164  0.09989636
   0.32405852  0.16216188  0.09993044
   0.16446848  0.84303220  0.09996111
   0.84533523  0.16217128  0.09986451
   0.68571210  0.84297043  0.09989805
   0.84533963  0.68345129  0.09993219
   0.25002755  0.24978818  0.32645319
   0.41661846  0.08323500  0.32638258
   0.25001047  0.74998713  0.32624455
   0.41677309  0.58322010  0.32622978
   0.75008068  0.24991053  0.32623082
   0.91680901  0.08318264  0.32643456
   0.75020562  0.74996835  0.32645271
   0.91675794  0.58337530  0.32637522
Direct configuration=    13
   0.33828385  0.66921651  0.10024431
   0.67163476  0.33586800  0.10013881
   0.16453490  0.32180270  0.09989274
   0.32404924  0.16216280  0.09992977
   0.16445618  0.84304254  0.09996247
   0.84532703  0.16218113  0.09985871
   0.68570146  0.84297475  0.09989458
   0.84533913  0.68346227  0.09993165
   0.25003275  0.24977718  0.32645379
   0.41662013  0.08322768  0.32638151
   0.25001489  0.74998245  0.32624377
   0.41677948  0.58321325  0.32623404
   0.75008689  0.24990394  0.32623494
   0.91681696  0.08317413  0.32643831
   0.75021629  0.74996286  0.32645314
   0.91676473  0.58337313  0.32637414
Direct configuration=    14
   0.33826510  0.66923621  0.10024460
   0.67161728  0.33588737  0.10013152
   0.16451387  0.32182039  0.09988169
   0.32403027  0.16218467  0.09993257
   0.16443868  0.84306072  0.09996650
   0.84530893  0.16220129  0.09984629
   0.68568533  0.84299855  0.09988397
   0.84531693  0.68348166  0.09993483
   0.25005268  0.24975977  0.32645498
   0.41664161  0.08320848  0.32638492
   0.25003545  0.74996061  0.32624302
   0.41679754  0.58319392  0.32624326
   0.75010577  0.24988390  0.32623988
   0.91683407  0.08315580  0.32644697
   0.75023251  0.74994168  0.32645415
   0.91678265  0.58335033  0.32637752
Direct configuration=    15
   0.33820886  0.66929531  0.10024550
   0.67156487  0.33594550  0.10010965
   0.16445078  0.32187345  0.09984852
   0.32397334  0.16225029  0.09994098
   0.16438616  0.84311525  0.09997856
   0.84525461  0.16226177  0.09980903
   0.68563695  0.84306994  0.09985215
   0.84525032  0.68353983  0.09994439
   0.25011249  0.24970752  0.32645856
   0.41670606  0.08315088  0.32639514
   0.25009712  0.74989508  0.32624076
   0.41685172  0.58313592  0.32627092
   0.75016241  0.24982376  0.32625470
   0.91688539  0.08310078  0.32647295
   0.75028117  0.74987815  0.32645718
   0.91683642  0.58328192  0.32638767
Direct configuration=    16
   0.33809639  0.66941350  0.10024728
   0.67146003  0.33606174  0.10006591
   0.16432460  0.32197956  0.09978220
   0.32385948  0.16238152  0.09995779
   0.16428113  0.84322433  0.10000270
   0.84514597  0.16238274  0.09973452
   0.68554019  0.84321274  0.09978852
   0.84511712  0.68365616  0.09996351
   0.25023209  0.24960303  0.32646572
   0.41683495  0.08303567  0.32641559
   0.25022048  0.74976401  0.32623626
   0.41696008  0.58301992  0.32632624
   0.75027569  0.24970348  0.32628432
   0.91698803  0.08299076  0.32652492
   0.75037849  0.74975108  0.32646324
   0.91694395  0.58314509  0.32640797
Direct configuration=    17
   0.33808635  0.66942447  0.10024568
   0.67144870  0.33607331  0.10006268
   0.16431545  0.32199065  0.09977764
   0.32385029  0.16239090  0.09995846
   0.16427079  0.84323464  0.10000577
   0.84513665  0.16239340  0.09972760
   0.68552943  0.84322245  0.09978419
   0.84510851  0.68366645  0.09996438
   0.25024168  0.24959253  0.32646767
   0.41684478  0.08302503  0.32641732
   0.25023000  0.74975380  0.32623747
   0.41697028  0.58300911  0.32632877
   0.75028539  0.24969305  0.32628660
   0.91699809  0.08298009  0.32652761
   0.75038830  0.74974080  0.32646516
   0.91695397  0.58313465  0.32640967
Direct configuration=    18
   0.33805623  0.66945739  0.10024091
   0.67141468  0.33610801  0.10005298
   0.16428801  0.32202393  0.09976398
   0.32382272  0.16241902  0.09996050
   0.16423978  0.84326557  0.10001498
   0.84510869  0.16242538  0.09970684
   0.68549716  0.84325157  0.09977119
   0.84508268  0.68369729  0.09996701
   0.25027046  0.24956104  0.32647354
   0.41687426  0.08299313  0.32642249
   0.25025855  0.74972318  0.32624109
   0.41700089  0.58297666  0.32633635
   0.75031452  0.24966178  0.32629343
   0.91702825  0.08294807  0.32653567
   0.75041774  0.74970997  0.32647093
   0.91698404  0.58310333  0.32641479
Direct configuration=    19
   0.33799599  0.66952321  0.10023135
   0.67134665  0.33617743  0.10003359
   0.16423313  0.32209050  0.09973664
   0.32376757  0.16247527  0.09996457
   0.16417777  0.84332743  0.10003341
   0.84505277  0.16248935  0.09966532
   0.68543261  0.84330980  0.09974519
   0.84503103  0.68375898  0.09997226
   0.25032801  0.24949807  0.32648526
   0.41693323  0.08292933  0.32643283
   0.25031566  0.74966193  0.32624835
   0.41706211  0.58291175  0.32635152
   0.75037276  0.24959924  0.32630708
   0.91708859  0.08288404  0.32655180
   0.75047661  0.74964831  0.32648246
   0.91704417  0.58304068  0.32642503
Direct configuration=    20
   0.33787552  0.66965487  0.10021224
   0.67121060  0.33631627  0.09999481
   0.16412338  0.32222363  0.09968198
   0.32365728  0.16258777  0.09997270
   0.16405373  0.84345114  0.10007026
   0.84494093  0.16261729  0.09958229
   0.68530351  0.84342628  0.09969318
   0.84492772  0.68388236  0.09998276
   0.25044312  0.24937212  0.32650872
   0.41705116  0.08280172  0.32645352
   0.25042988  0.74953942  0.32626286
   0.41718454  0.58278194  0.32638186
   0.75048926  0.24947414  0.32633439
   0.91720925  0.08275597  0.32658406
   0.75059436  0.74952500  0.32650553
   0.91716443  0.58291540  0.32644550
