  15  15   0   4
  0.2042152E+02  0.4856000E-09  0.4856000E-09  0.1500000E-08  0.5000000E-15
  1.000000000000000E-004
  CAR 
 Lattice                                 
     10.30059388    -21.66932031  301     -0.34851631      1.00000000
    -21.669  0.0000E+00  0.0000E+00  0.0000E+00  0.0000E+00
    -21.563  0.0000E+00  0.0000E+00  0.0000E+00  0.0000E+00
    -21.456  0.0000E+00  0.0000E+00  0.0000E+00  0.0000E+00
    -21.350  0.0000E+00  0.0000E+00  0.0000E+00  0.0000E+00
    -21.243  0.0000E+00  0.0000E+00  0.0000E+00  0.0000E+00
    -21.136  0.0000E+00  0.0000E+00  0.0000E+00  0.0000E+00
    -21.030  0.0000E+00  0.0000E+00  0.0000E+00  0.0000E+00
    -20.923  0.0000E+00  0.0000E+00  0.0000E+00  0.0000E+00
    -20.817  0.0000E+00  0.0000E+00  0.0000E+00  0.0000E+00
    -20.710  0.7643E-15  0.7643E-15  0.8144E-16  0.8144E-16
    -20.604  0.1268E-10  0.1268E-10  0.1352E-11  0.1352E-11
    -20.497  0.2551E-07  0.2551E-07  0.2720E-08  0.2720E-08
    -20.391  0.6836E-05  0.6836E-05  0.7312E-06  0.7312E-06
    -20.284  0.2725E-03  0.2725E-03  0.2977E-04  0.2977E-04
    -20.177  0.1979E-02  0.1979E-02  0.2407E-03  0.2407E-03
    -20.071  0.4160E-02  0.4160E-02  0.6840E-03  0.6840E-03
    -19.964  0.4535E-02  0.4535E-02  0.1167E-02  0.1167E-02
    -19.858  0.4946E-02  0.4946E-02  0.1694E-02  0.1694E-02
    -19.751  0.4173E-02  0.4173E-02  0.2139E-02  0.2139E-02
    -19.645  0.5397E-02  0.5397E-02  0.2714E-02  0.2714E-02
    -19.538  0.4215E-02  0.4215E-02  0.3163E-02  0.3163E-02
    -19.431  0.4291E-02  0.4291E-02  0.3621E-02  0.3621E-02
    -19.325  0.6015E-02  0.6015E-02  0.4262E-02  0.4262E-02
    -19.218  0.3797E-02  0.3797E-02  0.4666E-02  0.4666E-02
    -19.112  0.3931E-02  0.3931E-02  0.5085E-02  0.5085E-02
    -19.005  0.6136E-02  0.6136E-02  0.5739E-02  0.5739E-02
    -18.899  0.5188E-02  0.5188E-02  0.6292E-02  0.6292E-02
    -18.792  0.2944E-02  0.2944E-02  0.6605E-02  0.6605E-02
    -18.685  0.4473E-02  0.4473E-02  0.7082E-02  0.7082E-02
    -18.579  0.6909E-02  0.6909E-02  0.7818E-02  0.7818E-02
    -18.472  0.4534E-02  0.4534E-02  0.8302E-02  0.8302E-02
    -18.366  0.3782E-02  0.3782E-02  0.8705E-02  0.8705E-02
    -18.259  0.3031E-02  0.3031E-02  0.9028E-02  0.9028E-02
    -18.153  0.6738E-02  0.6738E-02  0.9746E-02  0.9746E-02
    -18.046  0.6537E-02  0.6537E-02  0.1044E-01  0.1044E-01
    -17.939  0.3473E-02  0.3473E-02  0.1081E-01  0.1081E-01
    -17.833  0.3347E-02  0.3347E-02  0.1117E-01  0.1117E-01
    -17.726  0.4141E-02  0.4141E-02  0.1161E-01  0.1161E-01
    -17.620  0.6332E-02  0.6332E-02  0.1229E-01  0.1229E-01
    -17.513  0.6713E-02  0.6713E-02  0.1300E-01  0.1300E-01
    -17.407  0.5530E-02  0.5530E-02  0.1359E-01  0.1359E-01
    -17.300  0.6509E-02  0.6509E-02  0.1428E-01  0.1428E-01
    -17.194  0.1043E-01  0.1043E-01  0.1539E-01  0.1539E-01
    -17.087  0.1474E-01  0.1474E-01  0.1696E-01  0.1696E-01
    -16.980  0.1565E-01  0.1565E-01  0.1863E-01  0.1863E-01
    -16.874  0.1721E-01  0.1721E-01  0.2047E-01  0.2047E-01
    -16.767  0.2092E-01  0.2092E-01  0.2270E-01  0.2270E-01
    -16.661  0.1598E-01  0.1598E-01  0.2440E-01  0.2440E-01
    -16.554  0.5020E-02  0.5020E-02  0.2493E-01  0.2493E-01
    -16.448  0.7604E-02  0.7604E-02  0.2574E-01  0.2574E-01
    -16.341  0.7916E-02  0.7916E-02  0.2659E-01  0.2659E-01
    -16.234  0.4526E-02  0.4526E-02  0.2707E-01  0.2707E-01
    -16.128  0.4117E-02  0.4117E-02  0.2751E-01  0.2751E-01
    -16.021  0.3930E-02  0.3930E-02  0.2793E-01  0.2793E-01
    -15.915  0.3714E-02  0.3714E-02  0.2832E-01  0.2832E-01
    -15.808  0.3902E-02  0.3902E-02  0.2874E-01  0.2874E-01
    -15.702  0.8375E-02  0.8375E-02  0.2963E-01  0.2963E-01
    -15.595  0.7763E-02  0.7763E-02  0.3046E-01  0.3046E-01
    -15.488  0.3844E-02  0.3844E-02  0.3087E-01  0.3087E-01
    -15.382  0.3860E-02  0.3860E-02  0.3128E-01  0.3128E-01
    -15.275  0.3452E-02  0.3452E-02  0.3165E-01  0.3165E-01
    -15.169  0.4749E-02  0.4749E-02  0.3215E-01  0.3215E-01
    -15.062  0.6377E-02  0.6377E-02  0.3283E-01  0.3283E-01
    -14.956  0.1110E-01  0.1110E-01  0.3402E-01  0.3402E-01
    -14.849  0.1692E-01  0.1692E-01  0.3582E-01  0.3582E-01
    -14.743  0.1836E-01  0.1836E-01  0.3778E-01  0.3778E-01
    -14.636  0.1723E-01  0.1723E-01  0.3961E-01  0.3961E-01
    -14.529  0.1049E-01  0.1049E-01  0.4073E-01  0.4073E-01
    -14.423  0.8046E-02  0.8046E-02  0.4159E-01  0.4159E-01
    -14.316  0.1573E-01  0.1573E-01  0.4326E-01  0.4326E-01
    -14.210  0.1485E-01  0.1485E-01  0.4485E-01  0.4485E-01
    -14.103  0.1074E-01  0.1074E-01  0.4599E-01  0.4599E-01
    -13.997  0.1075E-01  0.1075E-01  0.4714E-01  0.4714E-01
    -13.890  0.1284E-01  0.1284E-01  0.4850E-01  0.4850E-01
    -13.783  0.2005E-01  0.2005E-01  0.5064E-01  0.5064E-01
    -13.677  0.1987E-01  0.1987E-01  0.5276E-01  0.5276E-01
    -13.570  0.1781E-01  0.1781E-01  0.5466E-01  0.5466E-01
    -13.464  0.1048E-01  0.1048E-01  0.5577E-01  0.5577E-01
    -13.357  0.6594E-02  0.6594E-02  0.5648E-01  0.5648E-01
    -13.251  0.3310E-02  0.3310E-02  0.5683E-01  0.5683E-01
    -13.144  0.4255E-02  0.4255E-02  0.5728E-01  0.5728E-01
    -13.037  0.7076E-02  0.7076E-02  0.5804E-01  0.5804E-01
    -12.931  0.6697E-02  0.6697E-02  0.5875E-01  0.5875E-01
    -12.824  0.4880E-02  0.4880E-02  0.5927E-01  0.5927E-01
    -12.718  0.7086E-02  0.7086E-02  0.6003E-01  0.6003E-01
    -12.611  0.6935E-02  0.6935E-02  0.6076E-01  0.6076E-01
    -12.505  0.5528E-02  0.5528E-02  0.6135E-01  0.6135E-01
    -12.398  0.5303E-02  0.5303E-02  0.6192E-01  0.6192E-01
    -12.291  0.3262E-02  0.3262E-02  0.6227E-01  0.6227E-01
    -12.185  0.6856E-02  0.6856E-02  0.6300E-01  0.6300E-01
    -12.078  0.7784E-02  0.7784E-02  0.6383E-01  0.6383E-01
    -11.972  0.3067E-02  0.3067E-02  0.6415E-01  0.6415E-01
    -11.865  0.3440E-02  0.3440E-02  0.6452E-01  0.6452E-01
    -11.759  0.3473E-02  0.3473E-02  0.6489E-01  0.6489E-01
    -11.652  0.6419E-02  0.6419E-02  0.6557E-01  0.6557E-01
    -11.546  0.6472E-02  0.6472E-02  0.6626E-01  0.6626E-01
    -11.439  0.3442E-02  0.3442E-02  0.6663E-01  0.6663E-01
    -11.332  0.2028E-02  0.2028E-02  0.6685E-01  0.6685E-01
    -11.226  0.4891E-02  0.4891E-02  0.6737E-01  0.6737E-01
    -11.119  0.5804E-02  0.5804E-02  0.6799E-01  0.6799E-01
    -11.013  0.5031E-02  0.5031E-02  0.6852E-01  0.6852E-01
    -10.906  0.7808E-02  0.7808E-02  0.6935E-01  0.6935E-01
    -10.800  0.5796E-02  0.5796E-02  0.6997E-01  0.6997E-01
    -10.693  0.2513E-02  0.2513E-02  0.7024E-01  0.7024E-01
    -10.586  0.8226E-02  0.8226E-02  0.7112E-01  0.7112E-01
    -10.480  0.1302E-01  0.1302E-01  0.7250E-01  0.7250E-01
    -10.373  0.1531E-01  0.1531E-01  0.7413E-01  0.7413E-01
    -10.267  0.1436E-01  0.1436E-01  0.7566E-01  0.7566E-01
    -10.160  0.1467E-01  0.1467E-01  0.7723E-01  0.7723E-01
    -10.054  0.1854E-01  0.1854E-01  0.7920E-01  0.7920E-01
     -9.947  0.1866E-01  0.1866E-01  0.8119E-01  0.8119E-01
     -9.840  0.9405E-02  0.9405E-02  0.8219E-01  0.8219E-01
     -9.734  0.6856E-02  0.6856E-02  0.8292E-01  0.8292E-01
     -9.627  0.1450E-01  0.1450E-01  0.8447E-01  0.8447E-01
     -9.521  0.1579E-01  0.1579E-01  0.8615E-01  0.8615E-01
     -9.414  0.1641E-01  0.1641E-01  0.8790E-01  0.8790E-01
     -9.308  0.1510E-01  0.1510E-01  0.8951E-01  0.8951E-01
     -9.201  0.1401E-01  0.1401E-01  0.9100E-01  0.9100E-01
     -9.094  0.1057E-01  0.1057E-01  0.9213E-01  0.9213E-01
     -8.988  0.8298E-02  0.8298E-02  0.9301E-01  0.9301E-01
     -8.881  0.1563E-01  0.1563E-01  0.9468E-01  0.9468E-01
     -8.775  0.2009E-01  0.2009E-01  0.9682E-01  0.9682E-01
     -8.668  0.1497E-01  0.1497E-01  0.9842E-01  0.9842E-01
     -8.562  0.7588E-02  0.7588E-02  0.9922E-01  0.9922E-01
     -8.455  0.1156E-01  0.1156E-01  0.1005E+00  0.1005E+00
     -8.349  0.2084E-01  0.2084E-01  0.1027E+00  0.1027E+00
     -8.242  0.1761E-01  0.1761E-01  0.1046E+00  0.1046E+00
     -8.135  0.1187E-01  0.1187E-01  0.1058E+00  0.1058E+00
     -8.029  0.1682E-01  0.1682E-01  0.1076E+00  0.1076E+00
     -7.922  0.2550E-01  0.2550E-01  0.1103E+00  0.1103E+00
     -7.816  0.2474E-01  0.2474E-01  0.1130E+00  0.1130E+00
     -7.709  0.1899E-01  0.1899E-01  0.1150E+00  0.1150E+00
     -7.603  0.9864E-02  0.9864E-02  0.1160E+00  0.1160E+00
     -7.496  0.8937E-02  0.8937E-02  0.1170E+00  0.1170E+00
     -7.389  0.1888E-01  0.1888E-01  0.1190E+00  0.1190E+00
     -7.283  0.1799E-01  0.1799E-01  0.1209E+00  0.1209E+00
     -7.176  0.1165E-01  0.1165E-01  0.1222E+00  0.1222E+00
     -7.070  0.1086E-01  0.1086E-01  0.1233E+00  0.1233E+00
     -6.963  0.1702E-01  0.1702E-01  0.1251E+00  0.1251E+00
     -6.857  0.1854E-01  0.1854E-01  0.1271E+00  0.1271E+00
     -6.750  0.2066E-01  0.2066E-01  0.1293E+00  0.1293E+00
     -6.643  0.2011E-01  0.2011E-01  0.1315E+00  0.1315E+00
     -6.537  0.1765E-01  0.1765E-01  0.1333E+00  0.1333E+00
     -6.430  0.2039E-01  0.2039E-01  0.1355E+00  0.1355E+00
     -6.324  0.1731E-01  0.1731E-01  0.1374E+00  0.1374E+00
     -6.217  0.1943E-01  0.1943E-01  0.1394E+00  0.1394E+00
     -6.111  0.2620E-01  0.2620E-01  0.1422E+00  0.1422E+00
     -6.004  0.2219E-01  0.2219E-01  0.1446E+00  0.1446E+00
     -5.897  0.3186E-01  0.3186E-01  0.1480E+00  0.1480E+00
     -5.791  0.2896E-01  0.2896E-01  0.1511E+00  0.1511E+00
     -5.684  0.1590E-01  0.1590E-01  0.1528E+00  0.1528E+00
     -5.578  0.1810E-01  0.1810E-01  0.1547E+00  0.1547E+00
     -5.471  0.3345E-01  0.3345E-01  0.1583E+00  0.1583E+00
     -5.365  0.3677E-01  0.3677E-01  0.1622E+00  0.1622E+00
     -5.258  0.2269E-01  0.2269E-01  0.1646E+00  0.1646E+00
     -5.152  0.1614E-01  0.1614E-01  0.1663E+00  0.1663E+00
     -5.045  0.1078E-01  0.1078E-01  0.1675E+00  0.1675E+00
     -4.938  0.1145E-01  0.1145E-01  0.1687E+00  0.1687E+00
     -4.832  0.1409E-01  0.1409E-01  0.1702E+00  0.1702E+00
     -4.725  0.1026E-01  0.1026E-01  0.1713E+00  0.1713E+00
     -4.619  0.7678E-02  0.7678E-02  0.1721E+00  0.1721E+00
     -4.512  0.9785E-02  0.9785E-02  0.1731E+00  0.1731E+00
     -4.406  0.1776E-01  0.1776E-01  0.1750E+00  0.1750E+00
     -4.299  0.2166E-01  0.2166E-01  0.1773E+00  0.1773E+00
     -4.192  0.1858E-01  0.1858E-01  0.1793E+00  0.1793E+00
     -4.086  0.1891E-01  0.1891E-01  0.1813E+00  0.1813E+00
     -3.979  0.2230E-01  0.2230E-01  0.1837E+00  0.1837E+00
     -3.873  0.2309E-01  0.2309E-01  0.1862E+00  0.1862E+00
     -3.766  0.1810E-01  0.1810E-01  0.1881E+00  0.1881E+00
     -3.660  0.1834E-01  0.1834E-01  0.1900E+00  0.1900E+00
     -3.553  0.2051E-01  0.2051E-01  0.1922E+00  0.1922E+00
     -3.446  0.1564E-01  0.1564E-01  0.1939E+00  0.1939E+00
     -3.340  0.1383E-01  0.1383E-01  0.1954E+00  0.1954E+00
     -3.233  0.1294E-01  0.1294E-01  0.1968E+00  0.1968E+00
     -3.127  0.1712E-01  0.1712E-01  0.1986E+00  0.1986E+00
     -3.020  0.1835E-01  0.1835E-01  0.2005E+00  0.2005E+00
     -2.914  0.1184E-01  0.1184E-01  0.2018E+00  0.2018E+00
     -2.807  0.1173E-01  0.1173E-01  0.2030E+00  0.2030E+00
     -2.701  0.7487E-02  0.7487E-02  0.2038E+00  0.2038E+00
     -2.594  0.1025E-01  0.1025E-01  0.2049E+00  0.2049E+00
     -2.487  0.1989E-01  0.1989E-01  0.2071E+00  0.2071E+00
     -2.381  0.1399E-01  0.1399E-01  0.2085E+00  0.2085E+00
     -2.274  0.4004E-02  0.4004E-02  0.2090E+00  0.2090E+00
     -2.168  0.4736E-02  0.4736E-02  0.2095E+00  0.2095E+00
     -2.061  0.1030E-01  0.1030E-01  0.2106E+00  0.2106E+00
     -1.955  0.1045E-01  0.1045E-01  0.2117E+00  0.2117E+00
     -1.848  0.1130E-01  0.1130E-01  0.2129E+00  0.2129E+00
     -1.741  0.1165E-01  0.1165E-01  0.2141E+00  0.2141E+00
     -1.635  0.9378E-02  0.9378E-02  0.2151E+00  0.2151E+00
     -1.528  0.7071E-02  0.7071E-02  0.2159E+00  0.2159E+00
     -1.422  0.4598E-02  0.4598E-02  0.2164E+00  0.2164E+00
     -1.315  0.3927E-02  0.3927E-02  0.2168E+00  0.2168E+00
     -1.209  0.3996E-02  0.3996E-02  0.2172E+00  0.2172E+00
     -1.102  0.4161E-02  0.4161E-02  0.2177E+00  0.2177E+00
     -0.995  0.5867E-02  0.5867E-02  0.2183E+00  0.2183E+00
     -0.889  0.2684E-02  0.2684E-02  0.2186E+00  0.2186E+00
     -0.782  0.5730E-03  0.5730E-03  0.2186E+00  0.2186E+00
     -0.676  0.6157E-04  0.6156E-04  0.2186E+00  0.2186E+00
     -0.569  0.3052E-05  0.3052E-05  0.2186E+00  0.2186E+00
     -0.463  0.1083E-03  0.1083E-03  0.2187E+00  0.2187E+00
     -0.356  0.8221E-03  0.8221E-03  0.2187E+00  0.2187E+00
     -0.249  0.9379E-03  0.9380E-03  0.2188E+00  0.2188E+00
     -0.143  0.1623E-03  0.1623E-03  0.2189E+00  0.2189E+00
     -0.036  0.3853E-05  0.3853E-05  0.2189E+00  0.2189E+00
      0.070  0.5863E-06  0.5863E-06  0.2189E+00  0.2189E+00
      0.177  0.7869E-04  0.7869E-04  0.2189E+00  0.2189E+00
      0.283  0.1361E-02  0.1361E-02  0.2190E+00  0.2190E+00
      0.390  0.3353E-02  0.3353E-02  0.2194E+00  0.2194E+00
      0.496  0.1379E-02  0.1379E-02  0.2195E+00  0.2195E+00
      0.603  0.1345E-02  0.1345E-02  0.2197E+00  0.2197E+00
      0.710  0.3338E-02  0.3338E-02  0.2200E+00  0.2200E+00
      0.816  0.5282E-02  0.5282E-02  0.2206E+00  0.2206E+00
      0.923  0.1070E-01  0.1070E-01  0.2217E+00  0.2217E+00
      1.029  0.2637E-01  0.2637E-01  0.2245E+00  0.2245E+00
      1.136  0.1928E-01  0.1928E-01  0.2266E+00  0.2266E+00
      1.242  0.4647E-02  0.4647E-02  0.2271E+00  0.2271E+00
      1.349  0.4452E-02  0.4452E-02  0.2276E+00  0.2276E+00
      1.456  0.8835E-02  0.8835E-02  0.2285E+00  0.2285E+00
      1.562  0.1299E-01  0.1299E-01  0.2299E+00  0.2299E+00
      1.669  0.1972E-01  0.1972E-01  0.2320E+00  0.2320E+00
      1.775  0.1471E-01  0.1471E-01  0.2335E+00  0.2335E+00
      1.882  0.6063E-02  0.6063E-02  0.2342E+00  0.2342E+00
      1.988  0.7089E-02  0.7089E-02  0.2349E+00  0.2349E+00
      2.095  0.9880E-02  0.9880E-02  0.2360E+00  0.2360E+00
      2.202  0.7284E-02  0.7284E-02  0.2368E+00  0.2368E+00
      2.308  0.8358E-02  0.8358E-02  0.2377E+00  0.2377E+00
      2.415  0.7354E-02  0.7354E-02  0.2385E+00  0.2385E+00
      2.521  0.1125E-01  0.1125E-01  0.2397E+00  0.2397E+00
      2.628  0.1063E-01  0.1063E-01  0.2408E+00  0.2408E+00
      2.734  0.6129E-02  0.6129E-02  0.2414E+00  0.2414E+00
      2.841  0.4420E-02  0.4420E-02  0.2419E+00  0.2419E+00
      2.948  0.9398E-02  0.9399E-02  0.2429E+00  0.2429E+00
      3.054  0.1175E-01  0.1175E-01  0.2442E+00  0.2442E+00
      3.161  0.9845E-02  0.9844E-02  0.2452E+00  0.2452E+00
      3.267  0.9798E-02  0.9798E-02  0.2463E+00  0.2463E+00
      3.374  0.1039E-01  0.1039E-01  0.2474E+00  0.2474E+00
      3.480  0.1190E-01  0.1190E-01  0.2486E+00  0.2486E+00
      3.587  0.1735E-01  0.1735E-01  0.2505E+00  0.2505E+00
      3.693  0.2355E-01  0.2355E-01  0.2530E+00  0.2530E+00
      3.800  0.2497E-01  0.2497E-01  0.2557E+00  0.2557E+00
      3.907  0.2305E-01  0.2305E-01  0.2581E+00  0.2581E+00
      4.013  0.2350E-01  0.2350E-01  0.2606E+00  0.2606E+00
      4.120  0.2528E-01  0.2528E-01  0.2633E+00  0.2633E+00
      4.226  0.2490E-01  0.2490E-01  0.2660E+00  0.2660E+00
      4.333  0.2375E-01  0.2375E-01  0.2685E+00  0.2685E+00
      4.439  0.2210E-01  0.2210E-01  0.2708E+00  0.2708E+00
      4.546  0.2148E-01  0.2148E-01  0.2731E+00  0.2731E+00
      4.653  0.2195E-01  0.2195E-01  0.2755E+00  0.2755E+00
      4.759  0.2750E-01  0.2750E-01  0.2784E+00  0.2784E+00
      4.866  0.2367E-01  0.2367E-01  0.2809E+00  0.2809E+00
      4.972  0.2125E-01  0.2125E-01  0.2832E+00  0.2832E+00
      5.079  0.2584E-01  0.2585E-01  0.2859E+00  0.2859E+00
      5.185  0.2746E-01  0.2746E-01  0.2889E+00  0.2889E+00
      5.292  0.2461E-01  0.2461E-01  0.2915E+00  0.2915E+00
      5.399  0.2044E-01  0.2043E-01  0.2937E+00  0.2937E+00
      5.505  0.2017E-01  0.2017E-01  0.2958E+00  0.2958E+00
      5.612  0.2610E-01  0.2610E-01  0.2986E+00  0.2986E+00
      5.718  0.2437E-01  0.2437E-01  0.3012E+00  0.3012E+00
      5.825  0.2365E-01  0.2364E-01  0.3037E+00  0.3037E+00
      5.931  0.1934E-01  0.1934E-01  0.3058E+00  0.3058E+00
      6.038  0.1955E-01  0.1955E-01  0.3079E+00  0.3079E+00
      6.145  0.1551E-01  0.1552E-01  0.3095E+00  0.3095E+00
      6.251  0.2018E-01  0.2019E-01  0.3117E+00  0.3117E+00
      6.358  0.2252E-01  0.2252E-01  0.3141E+00  0.3141E+00
      6.464  0.2343E-01  0.2343E-01  0.3166E+00  0.3166E+00
      6.571  0.2560E-01  0.2559E-01  0.3193E+00  0.3193E+00
      6.677  0.2905E-01  0.2905E-01  0.3224E+00  0.3224E+00
      6.784  0.3162E-01  0.3163E-01  0.3258E+00  0.3258E+00
      6.890  0.2446E-01  0.2446E-01  0.3284E+00  0.3284E+00
      6.997  0.2605E-01  0.2605E-01  0.3311E+00  0.3311E+00
      7.104  0.2699E-01  0.2699E-01  0.3340E+00  0.3340E+00
      7.210  0.2146E-01  0.2145E-01  0.3363E+00  0.3363E+00
      7.317  0.1933E-01  0.1933E-01  0.3384E+00  0.3384E+00
      7.423  0.2028E-01  0.2029E-01  0.3405E+00  0.3405E+00
      7.530  0.2477E-01  0.2477E-01  0.3432E+00  0.3432E+00
      7.636  0.2571E-01  0.2571E-01  0.3459E+00  0.3459E+00
      7.743  0.3332E-01  0.3332E-01  0.3495E+00  0.3495E+00
      7.850  0.3125E-01  0.3125E-01  0.3528E+00  0.3528E+00
      7.956  0.2407E-01  0.2408E-01  0.3554E+00  0.3554E+00
      8.063  0.3338E-01  0.3338E-01  0.3589E+00  0.3589E+00
      8.169  0.3544E-01  0.3544E-01  0.3627E+00  0.3627E+00
      8.276  0.3584E-01  0.3584E-01  0.3665E+00  0.3665E+00
      8.382  0.3652E-01  0.3652E-01  0.3704E+00  0.3704E+00
      8.489  0.2226E-01  0.2226E-01  0.3728E+00  0.3728E+00
      8.596  0.1073E-01  0.1073E-01  0.3739E+00  0.3739E+00
      8.702  0.4327E-02  0.4326E-02  0.3744E+00  0.3744E+00
      8.809  0.3031E-02  0.3031E-02  0.3747E+00  0.3747E+00
      8.915  0.2309E-02  0.2309E-02  0.3749E+00  0.3749E+00
      9.022  0.5259E-03  0.5258E-03  0.3750E+00  0.3750E+00
      9.128  0.2091E-04  0.2091E-04  0.3750E+00  0.3750E+00
      9.235  0.1081E-06  0.1081E-06  0.3750E+00  0.3750E+00
      9.341  0.6465E-10  0.6462E-10  0.3750E+00  0.3750E+00
      9.448  0.4260E-14  0.4258E-14  0.3750E+00  0.3750E+00
      9.555  0.0000E+00  0.0000E+00  0.3750E+00  0.3750E+00
      9.661  0.0000E+00  0.0000E+00  0.3750E+00  0.3750E+00
      9.768  0.0000E+00  0.0000E+00  0.3750E+00  0.3750E+00
      9.874  0.0000E+00  0.0000E+00  0.3750E+00  0.3750E+00
      9.981  0.0000E+00  0.0000E+00  0.3750E+00  0.3750E+00
     10.087  0.0000E+00  0.0000E+00  0.3750E+00  0.3750E+00
     10.194  0.0000E+00  0.0000E+00  0.3750E+00  0.3750E+00
     10.301  0.0000E+00  0.0000E+00  0.3750E+00  0.3750E+00
