Lattice                                 
           1
     4.205419    2.428000    0.000000
    -4.205419    2.428000    0.000000
     0.000000    0.000000   15.000000
   B    C 
     4    11
Direct configuration=     1
   0.00415361  0.00267210  0.12034134
   0.35695335  0.00285503  0.09748893
   0.00423858  0.35550699  0.09749256
   0.65142295  0.65006557  0.09747688
   0.32808646  0.32671938  0.10030508
   0.68027775  0.00278085  0.10027562
   0.00416530  0.67883808  0.10026559
   0.99999933  0.49999967  0.33373333
   0.16666633  0.33333267  0.33373333
   0.99999933  0.99999967  0.33373333
   0.16666633  0.83333267  0.33373333
   0.49999933  0.49999967  0.33373333
   0.66666633  0.33333267  0.33373333
   0.49999933  0.99999967  0.33373333
   0.66666633  0.83333267  0.33373333
Direct configuration=     2
   0.00417980  0.00275039  0.11916527
   0.35578016  0.00303629  0.09784968
   0.00395770  0.35410710  0.09785173
   0.65281616  0.65119666  0.09784114
   0.32451759  0.32280400  0.10029735
   0.68415466  0.00310849  0.10027605
   0.00388215  0.68242885  0.10026882
   0.00012677  0.49997375  0.33374283
   0.16686904  0.33394136  0.33380319
   0.99999932  0.99999377  0.33363403
   0.16706498  0.83312864  0.33380608
   0.50004139  0.50016559  0.33374571
   0.66666632  0.33333788  0.33368558
   0.49984857  0.99987125  0.33374235
   0.66605605  0.83292330  0.33380285
Direct configuration=     3
   0.00416601  0.00270917  0.11978447
   0.35639785  0.00294086  0.09765975
   0.00410558  0.35484415  0.09766263
   0.65208264  0.65060114  0.09764936
   0.32639661  0.32486545  0.10030142
   0.68211346  0.00293599  0.10027582
   0.00403123  0.68053830  0.10026712
   0.00005967  0.49998739  0.33373783
   0.16676232  0.33362088  0.33376641
   0.99999933  0.99999688  0.33368631
   0.16685509  0.83323606  0.33376778
   0.50001925  0.50007823  0.33373919
   0.66666633  0.33333514  0.33371072
   0.49992795  0.99993886  0.33373760
   0.66637736  0.83313883  0.33376625
Direct configuration=     4
   0.00417964  0.00276394  0.11882585
   0.35684588  0.00306036  0.09797687
   0.00390551  0.35514723  0.09797821
   0.65179381  0.65012352  0.09796982
   0.32651925  0.32476903  0.10026316
   0.68218963  0.00313093  0.10024538
   0.00384945  0.68043351  0.10023880
  -0.00007809  0.50001205  0.33375849
   0.16662070  0.33314939  0.33381100
   0.99999994  0.00000275  0.33363278
   0.16653772  0.83338504  0.33381449
   0.49998333  0.49990771  0.33376195
   0.66666941  0.33333225  0.33366757
   0.50008781  0.00007837  0.33375783
   0.66685667  0.83347127  0.33381048
Direct configuration=     5
   0.00420016  0.00284644  0.11738186
   0.35752075  0.00324036  0.09845456
   0.00360415  0.35560377  0.09845357
   0.65135875  0.64940407  0.09845253
   0.32670399  0.32462378  0.10020552
   0.68230437  0.00342456  0.10019952
   0.00357564  0.68027565  0.10019613
  -0.00028560  0.50004920  0.33378961
   0.16640739  0.33243918  0.33387816
   0.00000087  0.00001160  0.33355214
   0.16605966  0.83360944  0.33388485
   0.49992924  0.49965085  0.33379622
   0.66667405  0.33332790  0.33360257
   0.50032860  0.00028850  0.33378831
   0.66757866  0.83397203  0.33387711
Direct configuration=     6
   0.00420245  0.00285639  0.11712878
   0.35763025  0.00326037  0.09852767
   0.00356901  0.35568941  0.09852633
   0.65127768  0.64928883  0.09852637
   0.32677193  0.32465784  0.10020581
   0.68226666  0.00345252  0.10020168
   0.00354704  0.68021152  0.10019876
  -0.00025209  0.50004525  0.33379552
   0.16642607  0.33252185  0.33388639
   0.00000220  0.00001105  0.33354545
   0.16612089  0.83358961  0.33389347
   0.49993691  0.49968965  0.33380251
   0.66667351  0.33332874  0.33359453
   0.50029331  0.00025617  0.33379412
   0.66749482  0.83390812  0.33388526
Direct configuration=     7
   0.00420933  0.00288623  0.11636956
   0.35795877  0.00332039  0.09874700
   0.00346361  0.35594631  0.09874464
   0.65103449  0.64894312  0.09874788
   0.32697577  0.32476002  0.10020668
   0.68215355  0.00353639  0.10020819
   0.00346126  0.68001913  0.10020665
  -0.00015153  0.50003341  0.33381325
   0.16648210  0.33276988  0.33391109
   0.00000620  0.00000939  0.33352537
   0.16630456  0.83353014  0.33391932
   0.49995992  0.49980606  0.33382136
   0.66667187  0.33333125  0.33357041
   0.50018746  0.00015918  0.33381155
   0.66724332  0.83371642  0.33390973
Direct configuration=     8
   0.00422307  0.00294592  0.11485110
   0.35861581  0.00344043  0.09918565
   0.00325281  0.35646013  0.09918124
   0.65054811  0.64825168  0.09919091
   0.32738344  0.32496438  0.10020842
   0.68192733  0.00370414  0.10022119
   0.00328969  0.67963435  0.10022241
   0.00004958  0.50000972  0.33384873
   0.16659415  0.33326594  0.33396048
   0.00001418  0.00000608  0.33348522
   0.16667191  0.83341119  0.33397102
   0.50000596  0.50003889  0.33385905
   0.66666860  0.33333629  0.33352218
   0.49997574 -0.00003481  0.33384642
   0.66674030  0.83333302  0.33395865
Direct configuration=     9
   0.00425056  0.00306530  0.11181418
   0.35992988  0.00368051  0.10006296
   0.00283121  0.35748775  0.10005446
   0.64957534  0.64686882  0.10007695
   0.32819877  0.32537309  0.10021190
   0.68147488  0.00403963  0.10024720
   0.00294656  0.67886480  0.10025395
   0.00045180  0.49996235  0.33391967
   0.16681825  0.33425805  0.33405927
   0.00003016 -0.00000054  0.33340490
   0.16740661  0.83317329  0.33407442
   0.50009802  0.50050453  0.33393445
   0.66666206  0.33334635  0.33342570
   0.49955231 -0.00042279  0.33391615
   0.66573426  0.83256620  0.33405650
Direct configuration=    10
   0.00423370  0.00299208  0.11367686
   0.35912390  0.00353326  0.09952486
   0.00308980  0.35685746  0.09951887
   0.65017198  0.64771699  0.09953350
   0.32769869  0.32512241  0.10020977
   0.68175239  0.00383386  0.10023125
   0.00315702  0.67933680  0.10023461
   0.00020510  0.49999140  0.33387616
   0.16668080  0.33364954  0.33399868
   0.00002036  0.00000352  0.33345416
   0.16695598  0.83331920  0.33401100
   0.50004155  0.50021893  0.33388820
   0.66666607  0.33334018  0.33348487
   0.49981202 -0.00018483  0.33387338
   0.66635131  0.83303653  0.33399648
Direct configuration=    11
   0.00423115  0.00298389  0.11311262
   0.35912403  0.00350458  0.09961176
   0.00312808  0.35689530  0.09960566
   0.65014126  0.64771655  0.09962075
   0.32772059  0.32522024  0.10028648
   0.68165724  0.00375196  0.10031032
   0.00321871  0.67931628  0.10031402
   0.00013724  0.50000300  0.33388762
   0.16673194  0.33364740  0.33399525
   0.00001263  0.00000287  0.33348775
   0.16691805  0.83327811  0.33400720
   0.50002257  0.50014352  0.33389918
   0.66667308  0.33334115  0.33349630
   0.49988023 -0.00012331  0.33388472
   0.66636387  0.83308580  0.33399303
Direct configuration=    12
   0.00422353  0.00295931  0.11141989
   0.35912444  0.00341854  0.09987247
   0.00324292  0.35700882  0.09986600
   0.65004909  0.64771520  0.09988248
   0.32778629  0.32551375  0.10051663
   0.68137180  0.00350628  0.10054752
   0.00340376  0.67925471  0.10055225
  -0.00006634  0.50003778  0.33392200
   0.16688537  0.33364096  0.33398494
  -0.00001057  0.00000090  0.33358852
   0.16680425  0.83315485  0.33399580
   0.49996562  0.49991729  0.33393212
   0.66669411  0.33334408  0.33353060
   0.50008485  0.00006126  0.33391874
   0.66640154  0.83323362  0.33398268
Direct configuration=    13
   0.00420827  0.00291016  0.10803444
   0.35912526  0.00324645  0.10039388
   0.00347261  0.35723586  0.10038670
   0.64986476  0.64771251  0.10040596
   0.32791768  0.32610076  0.10097693
   0.68080093  0.00301490  0.10102193
   0.00377388  0.67913157  0.10102872
  -0.00047350  0.50010733  0.33399077
   0.16719222  0.33362810  0.33396434
  -0.00005696 -0.00000303  0.33379007
   0.16657666  0.83290832  0.33397299
   0.49985171  0.49946483  0.33399799
   0.66673616  0.33334993  0.33359919
   0.50049410  0.00043038  0.33398678
   0.66647688  0.83352927  0.33396198
Direct configuration=    14
   0.00420645  0.00289377  0.10692181
   0.35909038  0.00315902  0.10054140
   0.00361668  0.35729724  0.10053496
   0.64977626  0.64776322  0.10055258
   0.32784239  0.32618968  0.10114820
   0.68070880  0.00287461  0.10119422
   0.00390873  0.67916606  0.10120079
  -0.00006643  0.49998159  0.33399173
   0.16671801  0.33341363  0.33396828
   0.00002418  0.00001202  0.33386506
   0.16670853  0.83330321  0.33397533
   0.50006012  0.49995381  0.33399702
   0.66667466  0.33334267  0.33366743
   0.50008553  0.00010356  0.33398767
   0.66660637  0.83331322  0.33396620
Direct configuration=    15
   0.00420577  0.00288763  0.10650489
   0.35907731  0.00312626  0.10059667
   0.00367067  0.35732024  0.10059052
   0.64974310  0.64778222  0.10060753
   0.32781417  0.32622300  0.10121238
   0.68067428  0.00282205  0.10125878
   0.00395926  0.67917899  0.10126527
   0.00008611  0.49993448  0.33399208
   0.16654031  0.33333327  0.33396976
   0.00005459  0.00001766  0.33389316
   0.16675795  0.83345119  0.33397620
   0.50013821  0.50013704  0.33399665
   0.66665161  0.33333995  0.33369300
   0.49993243 -0.00001890  0.33398801
   0.66665490  0.83323227  0.33396778
Direct configuration=    16
   0.00420376  0.00287646  0.10620665
   0.35909753  0.00309216  0.10063818
   0.00373993  0.35736779  0.10063305
   0.64965534  0.64777768  0.10064741
   0.32774674  0.32615945  0.10125122
   0.68073401  0.00285327  0.10129419
   0.00396236  0.67921057  0.10129978
   0.00012631  0.49999211  0.33397502
   0.16661329  0.33336442  0.33398586
   0.00002349  0.00001173  0.33390944
   0.16677199  0.83341528  0.33399147
   0.50004404  0.50014082  0.33397866
   0.66668527  0.33334641  0.33374631
   0.49989324 -0.00009421  0.33397124
   0.66666337  0.83325340  0.33398420
Direct configuration=    17
   0.00420095  0.00286091  0.10579139
   0.35912568  0.00304467  0.10069598
   0.00383638  0.35743400  0.10069227
   0.64953314  0.64777135  0.10070294
   0.32765285  0.32607096  0.10130530
   0.68081716  0.00289674  0.10134350
   0.00396669  0.67925455  0.10134784
   0.00018228  0.50007234  0.33395126
   0.16671491  0.33340780  0.33400828
  -0.00001982  0.00000348  0.33393211
   0.16679154  0.83336528  0.33401273
   0.49991293  0.50014608  0.33395360
   0.66673215  0.33335541  0.33382053
   0.49983868 -0.00019907  0.33394790
   0.66667516  0.83328282  0.33400706
Direct configuration=    18
   0.00418389  0.00281389  0.10542162
   0.35919531  0.00300599  0.10076183
   0.00391504  0.35753892  0.10075987
   0.64937837  0.64772338  0.10076566
   0.32764586  0.32601925  0.10133184
   0.68087955  0.00298728  0.10136230
   0.00392723  0.67923990  0.10136482
   0.00005203  0.50004974  0.33393584
   0.16674821  0.33342928  0.33403019
   0.00001793  0.00001149  0.33395428
   0.16671198  0.83328783  0.33403362
   0.49998372  0.50001103  0.33393705
   0.66669086  0.33334828  0.33389119
   0.50002179 -0.00002056  0.33393304
   0.66660888  0.83332162  0.33402952
Direct configuration=    19
   0.00417976  0.00280251  0.10533206
   0.35921218  0.00299663  0.10077778
   0.00393410  0.35756433  0.10077624
   0.64934089  0.64771176  0.10078085
   0.32764417  0.32600673  0.10133827
   0.68089466  0.00300921  0.10136685
   0.00391768  0.67923635  0.10136894
   0.00002048  0.50004427  0.33393210
   0.16675627  0.33343448  0.33403550
   0.00002707  0.00001344  0.33395964
   0.16669271  0.83326907  0.33403868
   0.50000087  0.49997833  0.33393304
   0.66668087  0.33334655  0.33390830
   0.50006613  0.00002267  0.33392945
   0.66659283  0.83333101  0.33403496
Direct configuration=    20
   0.00415795  0.00274990  0.10512497
   0.35926496  0.00299367  0.10083007
   0.00394597  0.35762790  0.10082967
   0.64926819  0.64766806  0.10083078
   0.32772621  0.32603524  0.10132969
   0.68088584  0.00307467  0.10135140
   0.00386831  0.67917443  0.10135200
  -0.00001679  0.49996172  0.33394594
   0.16667496  0.33340546  0.33403970
   0.00003546  0.00001563  0.33397821
   0.16673719  0.83334571  0.33404272
   0.50009274  0.50001982  0.33394672
   0.66667404  0.33334517  0.33392752
   0.50003267  0.00006758  0.33394376
   0.66661297  0.83328237  0.33403951
Direct configuration=    21
   0.00414313  0.00271414  0.10498422
   0.35930083  0.00299166  0.10086560
   0.00395404  0.35767110  0.10086598
   0.64921878  0.64763836  0.10086472
   0.32778196  0.32605462  0.10132386
   0.68087984  0.00311917  0.10134090
   0.00383475  0.67913235  0.10134049
  -0.00004212  0.49990561  0.33395535
   0.16661969  0.33338573  0.33404255
   0.00004116  0.00001712  0.33399083
   0.16676743  0.83339780  0.33404547
   0.50015519  0.50004803  0.33395602
   0.66666940  0.33334423  0.33394059
   0.50000993  0.00009811  0.33395349
   0.66662666  0.83324931  0.33404261
Direct configuration=    22
   0.00412920  0.00268076  0.10479497
   0.35932527  0.00300990  0.10091662
   0.00394163  0.35768293  0.10091798
   0.64920277  0.64762009  0.10091356
   0.32783322  0.32606488  0.10130704
   0.68088014  0.00316597  0.10131699
   0.00379459  0.67909291  0.10131509
   0.00001638  0.49995057  0.33398143
   0.16664831  0.33338842  0.33404408
   0.00002189  0.00001340  0.33400762
   0.16677819  0.83339389  0.33404723
   0.50008733  0.50007603  0.33398239
   0.66669191  0.33334858  0.33394322
   0.49995955  0.00001726  0.33397999
   0.66665029  0.83326175  0.33404444
Direct configuration=    23
   0.00411403  0.00264438  0.10458873
   0.35935189  0.00302978  0.10097222
   0.00392811  0.35769582  0.10097466
   0.64918533  0.64760019  0.10096678
   0.32788908  0.32607606  0.10128872
   0.68088047  0.00321697  0.10129094
   0.00375082  0.67904993  0.10128741
   0.00008012  0.49999956  0.33400985
   0.16667951  0.33339134  0.33404575
   0.00000088  0.00000935  0.33402591
   0.16678992  0.83338962  0.33404914
   0.50001339  0.50010655  0.33401113
   0.66671644  0.33335333  0.33394610
   0.49990465 -0.00007085  0.33400888
   0.66667603  0.83327529  0.33404644
Direct configuration=    24
   0.00412282  0.00266472  0.10442725
   0.35933199  0.00306542  0.10100544
   0.00390019  0.35763476  0.10100841
   0.64923697  0.64762133  0.10099861
   0.32784025  0.32603262  0.10127793
   0.68091009  0.00321576  0.10127459
   0.00375079  0.67907442  0.10126996
   0.00008768  0.50004769  0.33403442
   0.16671467  0.33340570  0.33405555
   0.00002852  0.00001501  0.33403112
   0.16671751  0.83332158  0.33405940
   0.49999874  0.50004591  0.33403637
   0.66668899  0.33334981  0.33394365
   0.49999948 -0.00004333  0.33403363
   0.66663196  0.83331595  0.33405633
Direct configuration=    25
   0.00412607  0.00267225  0.10436745
   0.35932462  0.00307862  0.10101774
   0.00388986  0.35761214  0.10102091
   0.64925610  0.64762916  0.10101040
   0.32782216  0.32601653  0.10127393
   0.68092106  0.00321531  0.10126854
   0.00375079  0.67908349  0.10126349
   0.00009048  0.50006551  0.33404353
   0.16672770  0.33341102  0.33405918
   0.00003876  0.00001711  0.33403305
   0.16669069  0.83329638  0.33406319
   0.49999332  0.50002345  0.33404572
   0.66667883  0.33334851  0.33394275
   0.50003460 -0.00003314  0.33404280
   0.66661563  0.83333100  0.33405999
Direct configuration=    26
   0.00414392  0.00271564  0.10422164
   0.35929899  0.00311237  0.10103270
   0.00385550  0.35754501  0.10103593
   0.64931979  0.64764776  0.10102482
   0.32776043  0.32599294  0.10127235
   0.68092446  0.00317252  0.10126321
   0.00378059  0.67911687  0.10125745
   0.00002628  0.50000812  0.33406158
   0.16670546  0.33341174  0.33407945
   0.00003565  0.00001757  0.33402920
   0.16672431  0.83332576  0.33408399
   0.50004740  0.50001946  0.33406455
   0.66668297  0.33334929  0.33394472
   0.50003498  0.00002707  0.33406085
   0.66661993  0.83330521  0.33408022
Direct configuration=    27
   0.00415545  0.00274367  0.10412741
   0.35928243  0.00313419  0.10104236
   0.00383330  0.35750162  0.10104563
   0.64936096  0.64765977  0.10103414
   0.32772053  0.32597770  0.10127133
   0.68092666  0.00314486  0.10125977
   0.00379984  0.67913845  0.10125355
  -0.00001520  0.49997103  0.33407324
   0.16669110  0.33341221  0.33409256
   0.00003364  0.00001787  0.33402671
   0.16674604  0.83334475  0.33409744
   0.50008235  0.50001689  0.33407672
   0.66668564  0.33334980  0.33394600
   0.50003523  0.00006598  0.33407251
   0.66662270  0.83328855  0.33409329
Direct configuration=    28
   0.00416489  0.00277183  0.10396181
   0.35928637  0.00314801  0.10104466
   0.00379621  0.35749247  0.10104754
   0.64938966  0.64763824  0.10103669
   0.32773447  0.32603887  0.10127692
   0.68085850  0.00307403  0.10126296
   0.00384021  0.67913115  0.10125639
   0.00002147  0.49997461  0.33408901
   0.16668385  0.33340634  0.33412286
   0.00001689  0.00001454  0.33402348
   0.16678307  0.83337630  0.33412814
   0.50005946  0.50006464  0.33409318
   0.66670610  0.33335314  0.33395755
   0.49996784  0.00000875  0.33408809
   0.66665169  0.83327441  0.33412340
Direct configuration=    29
   0.00417246  0.00279442  0.10382894
   0.35928953  0.00315909  0.10104650
   0.00376645  0.35748512  0.10104907
   0.64941269  0.64762097  0.10103872
   0.32774565  0.32608795  0.10128140
   0.68080380  0.00301720  0.10126553
   0.00387260  0.67912530  0.10125866
   0.00005090  0.49997748  0.33410166
   0.16667804  0.33340163  0.33414717
   0.00000345  0.00001186  0.33402090
   0.16681277  0.83340161  0.33415276
   0.50004109  0.50010296  0.33410638
   0.66672251  0.33335583  0.33396681
   0.49991378 -0.00003717  0.33410059
   0.66667494  0.83326306  0.33414756
Direct configuration=    30
   0.00417170  0.00279983  0.10368684
   0.35930562  0.00315088  0.10104428
   0.00374638  0.35751331  0.10104635
   0.64940867  0.64759029  0.10103712
   0.32777938  0.32614354  0.10128584
   0.68074982  0.00297237  0.10126918
   0.00389340  0.67911466  0.10126226
   0.00008556  0.50001892  0.33411622
   0.16668835  0.33339762  0.33417086
   0.00002485  0.00001613  0.33402841
   0.16676004  0.83336740  0.33417649
   0.50002557  0.50008135  0.33412119
   0.66670249  0.33335352  0.33398165
   0.49996139 -0.00004493  0.33411491
   0.66665744  0.83329245  0.33417105
Direct configuration=    31
   0.00417111  0.00280402  0.10357678
   0.35931808  0.00314451  0.10104256
   0.00373084  0.35753514  0.10104423
   0.64940556  0.64756653  0.10103587
   0.32780550  0.32618660  0.10128928
   0.68070801  0.00293765  0.10127201
   0.00390951  0.67910641  0.10126505
   0.00011241  0.50005101  0.33412750
   0.16669634  0.33339450  0.33418921
   0.00004142  0.00001944  0.33403423
   0.16671920  0.83334091  0.33419487
   0.50001355  0.50006462  0.33413267
   0.66668699  0.33335173  0.33399315
   0.49999827 -0.00005093  0.33412600
   0.66664389  0.83331521  0.33418925
Direct configuration=    32
   0.00416691  0.00279988  0.10346884
   0.35932636  0.00312134  0.10104096
   0.00373657  0.35756613  0.10104221
   0.64938440  0.64755370  0.10103504
   0.32780433  0.32617286  0.10128694
   0.68072146  0.00294290  0.10127051
   0.00390153  0.67911976  0.10126378
   0.00006052  0.50002858  0.33414258
   0.16670674  0.33340307  0.33420088
   0.00004031  0.00002063  0.33405640
   0.16672263  0.83333398  0.33420622
   0.50003466  0.50003534  0.33414752
   0.66668926  0.33335278  0.33400910
   0.50002637  0.00000027  0.33414090
   0.66663861  0.83331612  0.33420078
Direct configuration=    33
   0.00416061  0.00279366  0.10330700
   0.35933877  0.00308660  0.10103856
   0.00374516  0.35761260  0.10103916
   0.64935268  0.64753447  0.10103380
   0.32780257  0.32615225  0.10128344
   0.68074162  0.00295077  0.10126826
   0.00388957  0.67913979  0.10126187
  -0.00001728  0.49999496  0.33416520
   0.16672235  0.33341592  0.33421839
   0.00003866  0.00002241  0.33408965
   0.16672779  0.83332359  0.33422323
   0.50006632  0.49999144  0.33416980
   0.66669266  0.33335435  0.33403301
   0.50006852  0.00007705  0.33416323
   0.66663068  0.83331748  0.33421806
Direct configuration=    34
   0.00415912  0.00279364  0.10321079
   0.35933939  0.00306494  0.10103940
   0.00376132  0.35763071  0.10103968
   0.64932971  0.64753348  0.10103538
   0.32778824  0.32611616  0.10127545
   0.68077389  0.00297633  0.10126173
   0.00387236  0.67915066  0.10125567
  -0.00000981  0.49998554  0.33418030
   0.16671561  0.33341834  0.33422704
   0.00003245  0.00002123  0.33411620
   0.16675191  0.83334096  0.33423146
   0.50006874  0.50001451  0.33418453
   0.66670120  0.33335571  0.33405025
   0.50003869  0.00006208  0.33417818
   0.66663785  0.83330305  0.33422661
Direct configuration=    35
   0.00415527  0.00279358  0.10296262
   0.35934101  0.00300906  0.10104158
   0.00380301  0.35767742  0.10104101
   0.64927045  0.64753091  0.10103944
   0.32775127  0.32602307  0.10125484
   0.68085715  0.00304225  0.10124489
   0.00382797  0.67917871  0.10123968
   0.00000946  0.49996125  0.33421925
   0.16669823  0.33342456  0.33424936
   0.00001644  0.00001821  0.33418467
   0.16681412  0.83338577  0.33425268
   0.50007498  0.50007401  0.33422254
   0.66672325  0.33335923  0.33409473
   0.49996173  0.00002347  0.33421675
   0.66665633  0.83326582  0.33424864
Direct configuration=    36
   0.00415526  0.00279470  0.10282528
   0.35933526  0.00299071  0.10104712
   0.00382967  0.35768409  0.10104625
   0.64924149  0.64753781  0.10104585
   0.32775354  0.32599975  0.10123411
   0.68087617  0.00308225  0.10122687
   0.00380385  0.67915905  0.10122225
   0.00007590  0.50000825  0.33423994
   0.16669406  0.33340894  0.33426589
   0.00003589  0.00002144  0.33422131
   0.16676955  0.83336980  0.33426870
   0.50005245  0.50008124  0.33424268
   0.66670623  0.33335730  0.33412399
   0.49997793 -0.00001875  0.33423731
   0.66665343  0.83329075  0.33426511
Direct configuration=    37
   0.00415526  0.00279550  0.10272662
   0.35933113  0.00297753  0.10105110
   0.00384882  0.35768889  0.10105002
   0.64922069  0.64754277  0.10105045
   0.32775516  0.32598300  0.10121922
   0.68088983  0.00311099  0.10121393
   0.00378652  0.67914492  0.10120973
   0.00012363  0.50004201  0.33425480
   0.16669106  0.33339772  0.33427777
   0.00004986  0.00002376  0.33424762
   0.16673753  0.83335832  0.33428022
   0.50003627  0.50008644  0.33425715
   0.66669401  0.33335591  0.33414500
   0.49998956 -0.00004908  0.33425207
   0.66665134  0.83330866  0.33427694
Direct configuration=    38
   0.00415209  0.00278557  0.10261476
   0.35932010  0.00298126  0.10105894
   0.00386322  0.35767593  0.10105785
   0.64921453  0.64755622  0.10105866
   0.32778689  0.32601233  0.10119439
   0.68086298  0.00312463  0.10119164
   0.00377755  0.67910149  0.10118795
   0.00009043  0.50004210  0.33426998
   0.16670996  0.33339587  0.33429874
   0.00004717  0.00002486  0.33426956
   0.16672538  0.83334502  0.33430106
   0.50003338  0.50005448  0.33427208
   0.66669875  0.33335783  0.33417181
   0.50001848 -0.00001788  0.33426729
   0.66665975  0.83332762  0.33429796
Direct configuration=    39
   0.00414766  0.00277171  0.10245849
   0.35930469  0.00298647  0.10106990
   0.00388333  0.35765783  0.10106879
   0.64920592  0.64757501  0.10107013
   0.32783122  0.32605331  0.10115969
   0.68082547  0.00314369  0.10116049
   0.00376500  0.67904082  0.10115752
   0.00004406  0.50004222  0.33429119
   0.16673636  0.33339328  0.33432802
   0.00004342  0.00002638  0.33430020
   0.16670842  0.83332644  0.33433019
   0.50002935  0.50000984  0.33429294
   0.66670537  0.33336051  0.33420926
   0.50005889  0.00002571  0.33428854
   0.66667150  0.83335410  0.33432732
Direct configuration=    40
   0.00413884  0.00274799  0.10233607
   0.35928980  0.00300551  0.10107639
   0.00388369  0.35763236  0.10107546
   0.64922464  0.64759617  0.10107665
   0.32784368  0.32608280  0.10113104
   0.68080047  0.00313152  0.10113442
   0.00377022  0.67902518  0.10113197
   0.00002971  0.50000471  0.33430999
   0.16672011  0.33341094  0.33435547
   0.00003785  0.00002562  0.33431720
   0.16675900  0.83335523  0.33435788
   0.50006019  0.50003994  0.33431173
   0.66671471  0.33336196  0.33423602
   0.50002355  0.00003310  0.33430747
   0.66666420  0.83331429  0.33435491
Direct configuration=    41
   0.00413334  0.00273323  0.10225986
   0.35928052  0.00301737  0.10108043
   0.00388391  0.35761651  0.10107962
   0.64923630  0.64760934  0.10108071
   0.32785144  0.32610116  0.10111320
   0.68078491  0.00312394  0.10111819
   0.00377348  0.67901543  0.10111606
   0.00002077  0.49998137  0.33432169
   0.16671000  0.33342194  0.33437256
   0.00003438  0.00002515  0.33432779
   0.16679049  0.83337315  0.33437511
   0.50007939  0.50005867  0.33432343
   0.66672053  0.33336286  0.33425268
   0.50000155  0.00003770  0.33431926
   0.66665965  0.83328951  0.33437208
Direct configuration=    42
   0.00412483  0.00271233  0.10215244
   0.35927784  0.00304412  0.10107993
   0.00386763  0.35759530  0.10107946
   0.64926295  0.64761885  0.10107983
   0.32781927  0.32609865  0.10109177
   0.68078754  0.00309278  0.10109841
   0.00379235  0.67904792  0.10109660
   0.00006986  0.50000138  0.33434367
   0.16669823  0.33342085  0.33439728
   0.00004683  0.00002679  0.33433896
   0.16678257  0.83337468  0.33440039
   0.50007535  0.50008164  0.33434569
   0.66671088  0.33336160  0.33426981
   0.49999418  0.00000363  0.33434144
   0.66665035  0.83328682  0.33439700
Direct configuration=    43
   0.00411836  0.00269645  0.10207082
   0.35927580  0.00306444  0.10107955
   0.00385526  0.35757919  0.10107934
   0.64928319  0.64762607  0.10107917
   0.32779484  0.32609674  0.10107549
   0.68078954  0.00306910  0.10108338
   0.00380670  0.67907260  0.10108181
   0.00010716  0.50001659  0.33436037
   0.16668929  0.33342002  0.33441607
   0.00005630  0.00002804  0.33434745
   0.16677655  0.83337584  0.33441959
   0.50007227  0.50009909  0.33436260
   0.66670355  0.33336065  0.33428281
   0.49998859 -0.00002225  0.33435830
   0.66664327  0.83328477  0.33441593
Direct configuration=    44
   0.00411727  0.00269588  0.10196071
   0.35930204  0.00309170  0.10107031
   0.00382893  0.35757881  0.10107057
   0.64928340  0.64759953  0.10106920
   0.32775424  0.32608678  0.10106010
   0.68079403  0.00303804  0.10106871
   0.00383101  0.67910600  0.10106728
   0.00008458  0.50004164  0.33438939
   0.16672237  0.33340288  0.33443912
   0.00004891  0.00002874  0.33436047
   0.16674422  0.83335384  0.33444336
   0.50003964  0.50005580  0.33439209
   0.66671347  0.33336385  0.33429458
   0.50002302 -0.00000663  0.33438758
   0.66667354  0.83333048  0.33443920
Direct configuration=    45
   0.00411681  0.00269564  0.10191449
   0.35931305  0.00310315  0.10106644
   0.00381787  0.35757864  0.10106688
   0.64928348  0.64758839  0.10106501
   0.32773720  0.32608259  0.10105364
   0.68079592  0.00302500  0.10106255
   0.00384122  0.67912001  0.10106118
   0.00007510  0.50005215  0.33440157
   0.16673626  0.33339569  0.33444880
   0.00004581  0.00002904  0.33436593
   0.16673065  0.83334461  0.33445334
   0.50002595  0.50003762  0.33440447
   0.66671763  0.33336520  0.33429952
   0.50003747 -0.00000007  0.33439988
   0.66668625  0.83334967  0.33444897
Direct configuration=    46
   0.00412148  0.00271145  0.10180799
   0.35935228  0.00311892  0.10105136
   0.00379271  0.35759622  0.10105226
   0.64925866  0.64754004  0.10104908
   0.32772158  0.32608398  0.10104250
   0.68078785  0.00300812  0.10105122
   0.00385761  0.67912645  0.10104982
   0.00004762  0.50002928  0.33443239
   0.16673311  0.33340118  0.33447009
   0.00004445  0.00003022  0.33438214
   0.16674775  0.83335435  0.33447524
   0.50004678  0.50003512  0.33443572
   0.66672269  0.33336687  0.33431146
   0.50003898  0.00002641  0.33443093
   0.66668712  0.83333873  0.33447046
Direct configuration=    47
   0.00412526  0.00272426  0.10172165
   0.35938409  0.00313172  0.10103914
   0.00377230  0.35761046  0.10104041
   0.64923854  0.64750084  0.10103616
   0.32770891  0.32608511  0.10103347
   0.68078131  0.00299444  0.10104203
   0.00387090  0.67913166  0.10104060
   0.00002534  0.50001073  0.33445737
   0.16673057  0.33340563  0.33448735
   0.00004334  0.00003117  0.33439529
   0.16676162  0.83336224  0.33449299
   0.50006366  0.50003309  0.33446105
   0.66672679  0.33336822  0.33432115
   0.50004020  0.00004787  0.33445611
   0.66668783  0.83332986  0.33448789
Direct configuration=    48
   0.00412643  0.00273302  0.10166192
   0.35938286  0.00311701  0.10102773
   0.00376896  0.35761985  0.10102916
   0.64922973  0.64749171  0.10102431
   0.32773184  0.32609134  0.10102691
   0.68077363  0.00300567  0.10103442
   0.00385900  0.67911441  0.10103278
   0.00008750  0.50001677  0.33447222
   0.16670505  0.33342207  0.33450124
   0.00006025  0.00003238  0.33440960
   0.16677612  0.83337277  0.33450687
   0.50007889  0.50008126  0.33447589
   0.66671230  0.33336547  0.33433677
   0.50001340  0.00000510  0.33447101
   0.66665471  0.83329851  0.33450183
Direct configuration=    49
   0.00412633  0.00273224  0.10166720
   0.35938297  0.00311831  0.10102874
   0.00376926  0.35761902  0.10103015
   0.64923050  0.64749252  0.10102535
   0.32772982  0.32609079  0.10102749
   0.68077431  0.00300468  0.10103509
   0.00386005  0.67911593  0.10103348
   0.00008201  0.50001624  0.33447091
   0.16670731  0.33342062  0.33450001
   0.00005875  0.00003227  0.33440833
   0.16677484  0.83337184  0.33450564
   0.50007754  0.50007701  0.33447458
   0.66671358  0.33336571  0.33433539
   0.50001577  0.00000888  0.33446969
   0.66665764  0.83330128  0.33450060
Direct configuration=    50
   0.00412512  0.00273463  0.10163702
   0.35935711  0.00309192  0.10102121
   0.00377867  0.35761765  0.10102260
   0.64923772  0.64751167  0.10101770
   0.32775517  0.32608872  0.10102168
   0.68077560  0.00302503  0.10102796
   0.00383785  0.67910012  0.10102608
   0.00009304  0.50003101  0.33447644
   0.16671789  0.33341772  0.33450941
   0.00005529  0.00003171  0.33442068
   0.16676989  0.83336705  0.33451473
   0.50006006  0.50007662  0.33447988