  16  16   0   4
  0.2062353E+02  0.5040000E-09  0.5040000E-09  0.1500000E-08  0.5000000E-15
  1.000000000000000E-004
  CAR 
 Lattice                                 
      9.32112530    -20.89999218  301     -0.28448119      1.00000000
    -20.900  0.0000E+00  0.0000E+00  0.0000E+00  0.0000E+00
    -20.799  0.0000E+00  0.0000E+00  0.0000E+00  0.0000E+00
    -20.699  0.0000E+00  0.0000E+00  0.0000E+00  0.0000E+00
    -20.598  0.0000E+00  0.0000E+00  0.0000E+00  0.0000E+00
    -20.497  0.0000E+00  0.0000E+00  0.0000E+00  0.0000E+00
    -20.396  0.0000E+00  0.0000E+00  0.0000E+00  0.0000E+00
    -20.296  0.0000E+00  0.0000E+00  0.0000E+00  0.0000E+00
    -20.195  0.0000E+00  0.0000E+00  0.0000E+00  0.0000E+00
    -20.094  0.2691E-18  0.2691E-18  0.2711E-19  0.2711E-19
    -19.993  0.1196E-13  0.1196E-13  0.1205E-14  0.1205E-14
    -19.893  0.7494E-10  0.7494E-10  0.7550E-11  0.7550E-11
    -19.792  0.7235E-07  0.7235E-07  0.7296E-08  0.7296E-08
    -19.691  0.1157E-04  0.1157E-04  0.1173E-05  0.1173E-05
    -19.590  0.3358E-03  0.3358E-03  0.3500E-04  0.3500E-04
    -19.490  0.2132E-02  0.2132E-02  0.2498E-03  0.2498E-03
    -19.389  0.4373E-02  0.4373E-02  0.6903E-03  0.6903E-03
    -19.288  0.4879E-02  0.4879E-02  0.1182E-02  0.1182E-02
    -19.187  0.5196E-02  0.5196E-02  0.1705E-02  0.1705E-02
    -19.087  0.4586E-02  0.4586E-02  0.2167E-02  0.2167E-02
    -18.986  0.5656E-02  0.5656E-02  0.2737E-02  0.2737E-02
    -18.885  0.4480E-02  0.4480E-02  0.3188E-02  0.3188E-02
    -18.785  0.4807E-02  0.4808E-02  0.3673E-02  0.3673E-02
    -18.684  0.6203E-02  0.6203E-02  0.4297E-02  0.4297E-02
    -18.583  0.3986E-02  0.3986E-02  0.4699E-02  0.4699E-02
    -18.482  0.4542E-02  0.4542E-02  0.5157E-02  0.5157E-02
    -18.382  0.6469E-02  0.6469E-02  0.5808E-02  0.5808E-02
    -18.281  0.5248E-02  0.5248E-02  0.6337E-02  0.6337E-02
    -18.180  0.3167E-02  0.3167E-02  0.6656E-02  0.6656E-02
    -18.079  0.5404E-02  0.5404E-02  0.7200E-02  0.7200E-02
    -17.979  0.7004E-02  0.7004E-02  0.7906E-02  0.7906E-02
    -17.878  0.4671E-02  0.4671E-02  0.8376E-02  0.8376E-02
    -17.777  0.3802E-02  0.3802E-02  0.8759E-02  0.8759E-02
    -17.676  0.3907E-02  0.3907E-02  0.9153E-02  0.9153E-02
    -17.576  0.7547E-02  0.7547E-02  0.9913E-02  0.9913E-02
    -17.475  0.6248E-02  0.6248E-02  0.1054E-01  0.1054E-01
    -17.374  0.3427E-02  0.3427E-02  0.1089E-01  0.1089E-01
    -17.273  0.3897E-02  0.3897E-02  0.1128E-01  0.1128E-01
    -17.173  0.4871E-02  0.4871E-02  0.1177E-01  0.1177E-01
    -17.072  0.7283E-02  0.7283E-02  0.1250E-01  0.1250E-01
    -16.971  0.6510E-02  0.6510E-02  0.1316E-01  0.1316E-01
    -16.871  0.4319E-02  0.4319E-02  0.1360E-01  0.1360E-01
    -16.770  0.2434E-02  0.2434E-02  0.1384E-01  0.1384E-01
    -16.669  0.5068E-02  0.5068E-02  0.1435E-01  0.1435E-01
    -16.568  0.7374E-02  0.7374E-02  0.1509E-01  0.1509E-01
    -16.468  0.6528E-02  0.6528E-02  0.1575E-01  0.1575E-01
    -16.367  0.5345E-02  0.5345E-02  0.1629E-01  0.1629E-01
    -16.266  0.4487E-02  0.4487E-02  0.1674E-01  0.1674E-01
    -16.165  0.2572E-02  0.2572E-02  0.1700E-01  0.1700E-01
    -16.065  0.4832E-02  0.4832E-02  0.1749E-01  0.1749E-01
    -15.964  0.1137E-01  0.1136E-01  0.1863E-01  0.1863E-01
    -15.863  0.1141E-01  0.1141E-01  0.1978E-01  0.1978E-01
    -15.762  0.1108E-01  0.1108E-01  0.2090E-01  0.2090E-01
    -15.662  0.1068E-01  0.1068E-01  0.2197E-01  0.2197E-01
    -15.561  0.1116E-01  0.1116E-01  0.2310E-01  0.2310E-01
    -15.460  0.1016E-01  0.1016E-01  0.2412E-01  0.2412E-01
    -15.359  0.1545E-01  0.1545E-01  0.2568E-01  0.2568E-01
    -15.259  0.1705E-01  0.1705E-01  0.2740E-01  0.2740E-01
    -15.158  0.1528E-01  0.1528E-01  0.2894E-01  0.2894E-01
    -15.057  0.1309E-01  0.1309E-01  0.3025E-01  0.3025E-01
    -14.957  0.9767E-02  0.9767E-02  0.3124E-01  0.3124E-01
    -14.856  0.7720E-02  0.7720E-02  0.3202E-01  0.3202E-01
    -14.755  0.7435E-02  0.7435E-02  0.3276E-01  0.3276E-01
    -14.654  0.1194E-01  0.1194E-01  0.3397E-01  0.3397E-01
    -14.554  0.1126E-01  0.1126E-01  0.3510E-01  0.3510E-01
    -14.453  0.1260E-01  0.1260E-01  0.3637E-01  0.3637E-01
    -14.352  0.1065E-01  0.1065E-01  0.3745E-01  0.3745E-01
    -14.251  0.9505E-02  0.9505E-02  0.3840E-01  0.3840E-01
    -14.151  0.1039E-01  0.1039E-01  0.3945E-01  0.3945E-01
    -14.050  0.1326E-01  0.1326E-01  0.4079E-01  0.4079E-01
    -13.949  0.1093E-01  0.1093E-01  0.4189E-01  0.4189E-01
    -13.848  0.5625E-02  0.5625E-02  0.4245E-01  0.4245E-01
    -13.748  0.3188E-02  0.3188E-02  0.4277E-01  0.4277E-01
    -13.647  0.4075E-02  0.4075E-02  0.4318E-01  0.4318E-01
    -13.546  0.6670E-02  0.6670E-02  0.4386E-01  0.4386E-01
    -13.445  0.6239E-02  0.6239E-02  0.4448E-01  0.4448E-01
    -13.345  0.5193E-02  0.5193E-02  0.4501E-01  0.4501E-01
    -13.244  0.5511E-02  0.5511E-02  0.4556E-01  0.4556E-01
    -13.143  0.8048E-02  0.8048E-02  0.4637E-01  0.4637E-01
    -13.043  0.6839E-02  0.6839E-02  0.4706E-01  0.4706E-01
    -12.942  0.6976E-02  0.6976E-02  0.4777E-01  0.4777E-01
    -12.841  0.7117E-02  0.7117E-02  0.4848E-01  0.4848E-01
    -12.740  0.9887E-02  0.9887E-02  0.4948E-01  0.4948E-01
    -12.640  0.1369E-01  0.1369E-01  0.5086E-01  0.5086E-01
    -12.539  0.1329E-01  0.1329E-01  0.5220E-01  0.5220E-01
    -12.438  0.1532E-01  0.1532E-01  0.5374E-01  0.5374E-01
    -12.337  0.1356E-01  0.1356E-01  0.5511E-01  0.5511E-01
    -12.237  0.1608E-01  0.1608E-01  0.5673E-01  0.5673E-01
    -12.136  0.1695E-01  0.1695E-01  0.5843E-01  0.5843E-01
    -12.035  0.1540E-01  0.1540E-01  0.5998E-01  0.5998E-01
    -11.934  0.1800E-01  0.1800E-01  0.6180E-01  0.6180E-01
    -11.834  0.1399E-01  0.1399E-01  0.6321E-01  0.6321E-01
    -11.733  0.8338E-02  0.8338E-02  0.6405E-01  0.6405E-01
    -11.632  0.6263E-02  0.6263E-02  0.6468E-01  0.6468E-01
    -11.531  0.5999E-02  0.5999E-02  0.6528E-01  0.6528E-01
    -11.431  0.6355E-02  0.6355E-02  0.6592E-01  0.6592E-01
    -11.330  0.5273E-02  0.5273E-02  0.6645E-01  0.6645E-01
    -11.229  0.5403E-02  0.5403E-02  0.6700E-01  0.6700E-01
    -11.128  0.4817E-02  0.4817E-02  0.6748E-01  0.6748E-01
    -11.028  0.3862E-02  0.3862E-02  0.6787E-01  0.6787E-01
    -10.927  0.7726E-02  0.7726E-02  0.6865E-01  0.6865E-01
    -10.826  0.1154E-01  0.1154E-01  0.6981E-01  0.6981E-01
    -10.726  0.1127E-01  0.1127E-01  0.7095E-01  0.7095E-01
    -10.625  0.1179E-01  0.1179E-01  0.7214E-01  0.7214E-01
    -10.524  0.1514E-01  0.1514E-01  0.7366E-01  0.7366E-01
    -10.423  0.1326E-01  0.1326E-01  0.7500E-01  0.7500E-01
    -10.323  0.1308E-01  0.1308E-01  0.7631E-01  0.7631E-01
    -10.222  0.8491E-02  0.8491E-02  0.7717E-01  0.7717E-01
    -10.121  0.9769E-02  0.9769E-02  0.7815E-01  0.7815E-01
    -10.020  0.8951E-02  0.8951E-02  0.7905E-01  0.7905E-01
     -9.920  0.8445E-02  0.8445E-02  0.7991E-01  0.7991E-01
     -9.819  0.1194E-01  0.1194E-01  0.8111E-01  0.8111E-01
     -9.718  0.1026E-01  0.1026E-01  0.8214E-01  0.8214E-01
     -9.617  0.1708E-01  0.1708E-01  0.8386E-01  0.8386E-01
     -9.517  0.1668E-01  0.1668E-01  0.8554E-01  0.8554E-01
     -9.416  0.1335E-01  0.1335E-01  0.8689E-01  0.8689E-01
     -9.315  0.1768E-01  0.1768E-01  0.8867E-01  0.8867E-01
     -9.214  0.1407E-01  0.1407E-01  0.9009E-01  0.9009E-01
     -9.114  0.1105E-01  0.1105E-01  0.9120E-01  0.9120E-01
     -9.013  0.1364E-01  0.1364E-01  0.9257E-01  0.9257E-01
     -8.912  0.2310E-01  0.2310E-01  0.9490E-01  0.9490E-01
     -8.812  0.1897E-01  0.1897E-01  0.9681E-01  0.9681E-01
     -8.711  0.5857E-02  0.5857E-02  0.9740E-01  0.9740E-01
     -8.610  0.7582E-02  0.7582E-02  0.9816E-01  0.9816E-01
     -8.509  0.1616E-01  0.1616E-01  0.9979E-01  0.9979E-01
     -8.409  0.1933E-01  0.1933E-01  0.1017E+00  0.1017E+00
     -8.308  0.1508E-01  0.1508E-01  0.1033E+00  0.1033E+00
     -8.207  0.1425E-01  0.1425E-01  0.1047E+00  0.1047E+00
     -8.106  0.1094E-01  0.1094E-01  0.1058E+00  0.1058E+00
     -8.006  0.9640E-02  0.9640E-02  0.1068E+00  0.1068E+00
     -7.905  0.1459E-01  0.1459E-01  0.1082E+00  0.1082E+00
     -7.804  0.2062E-01  0.2062E-01  0.1103E+00  0.1103E+00
     -7.703  0.2119E-01  0.2119E-01  0.1124E+00  0.1124E+00
     -7.603  0.1474E-01  0.1474E-01  0.1139E+00  0.1139E+00
     -7.502  0.1535E-01  0.1535E-01  0.1155E+00  0.1155E+00
     -7.401  0.1245E-01  0.1245E-01  0.1167E+00  0.1167E+00
     -7.300  0.1872E-01  0.1872E-01  0.1186E+00  0.1186E+00
     -7.200  0.2013E-01  0.2013E-01  0.1206E+00  0.1206E+00
     -7.099  0.1433E-01  0.1433E-01  0.1221E+00  0.1221E+00
     -6.998  0.1892E-01  0.1892E-01  0.1240E+00  0.1240E+00
     -6.898  0.2311E-01  0.2311E-01  0.1263E+00  0.1263E+00
     -6.797  0.2410E-01  0.2410E-01  0.1288E+00  0.1288E+00
     -6.696  0.2592E-01  0.2592E-01  0.1314E+00  0.1314E+00
     -6.595  0.3412E-01  0.3412E-01  0.1348E+00  0.1348E+00
     -6.495  0.3155E-01  0.3155E-01  0.1380E+00  0.1380E+00
     -6.394  0.2150E-01  0.2150E-01  0.1401E+00  0.1401E+00
     -6.293  0.1731E-01  0.1731E-01  0.1419E+00  0.1419E+00
     -6.192  0.1668E-01  0.1668E-01  0.1436E+00  0.1436E+00
     -6.092  0.1886E-01  0.1886E-01  0.1455E+00  0.1455E+00
     -5.991  0.1800E-01  0.1800E-01  0.1473E+00  0.1473E+00
     -5.890  0.1586E-01  0.1586E-01  0.1489E+00  0.1489E+00
     -5.789  0.1568E-01  0.1568E-01  0.1505E+00  0.1505E+00
     -5.689  0.1715E-01  0.1715E-01  0.1522E+00  0.1522E+00
     -5.588  0.1326E-01  0.1326E-01  0.1535E+00  0.1535E+00
     -5.487  0.1231E-01  0.1231E-01  0.1548E+00  0.1548E+00
     -5.386  0.1657E-01  0.1657E-01  0.1564E+00  0.1564E+00
     -5.286  0.1760E-01  0.1760E-01  0.1582E+00  0.1582E+00
     -5.185  0.1574E-01  0.1574E-01  0.1598E+00  0.1598E+00
     -5.084  0.1357E-01  0.1357E-01  0.1612E+00  0.1612E+00
     -4.984  0.2034E-01  0.2034E-01  0.1632E+00  0.1632E+00
     -4.883  0.1927E-01  0.1927E-01  0.1651E+00  0.1651E+00
     -4.782  0.9318E-02  0.9318E-02  0.1661E+00  0.1661E+00
     -4.681  0.1136E-01  0.1136E-01  0.1672E+00  0.1672E+00
     -4.581  0.2026E-01  0.2026E-01  0.1693E+00  0.1693E+00
     -4.480  0.1908E-01  0.1908E-01  0.1712E+00  0.1712E+00
     -4.379  0.1809E-01  0.1809E-01  0.1730E+00  0.1730E+00
     -4.278  0.2351E-01  0.2351E-01  0.1754E+00  0.1754E+00
     -4.178  0.2442E-01  0.2442E-01  0.1778E+00  0.1778E+00
     -4.077  0.2221E-01  0.2221E-01  0.1801E+00  0.1801E+00
     -3.976  0.2449E-01  0.2449E-01  0.1825E+00  0.1825E+00
     -3.875  0.3014E-01  0.3014E-01  0.1856E+00  0.1856E+00
     -3.775  0.2437E-01  0.2437E-01  0.1880E+00  0.1880E+00
     -3.674  0.1899E-01  0.1899E-01  0.1900E+00  0.1900E+00
     -3.573  0.1825E-01  0.1825E-01  0.1918E+00  0.1918E+00
     -3.472  0.1461E-01  0.1461E-01  0.1933E+00  0.1933E+00
     -3.372  0.1100E-01  0.1100E-01  0.1944E+00  0.1944E+00
     -3.271  0.6478E-02  0.6478E-02  0.1950E+00  0.1950E+00
     -3.170  0.1005E-01  0.1005E-01  0.1960E+00  0.1960E+00
     -3.070  0.1500E-01  0.1500E-01  0.1975E+00  0.1975E+00
     -2.969  0.1582E-01  0.1582E-01  0.1991E+00  0.1991E+00
     -2.868  0.1257E-01  0.1257E-01  0.2004E+00  0.2004E+00
     -2.767  0.1227E-01  0.1227E-01  0.2016E+00  0.2016E+00
     -2.667  0.9626E-02  0.9626E-02  0.2026E+00  0.2026E+00
     -2.566  0.1291E-01  0.1291E-01  0.2039E+00  0.2039E+00
     -2.465  0.1591E-01  0.1591E-01  0.2055E+00  0.2055E+00
     -2.364  0.1093E-01  0.1093E-01  0.2066E+00  0.2066E+00
     -2.264  0.1054E-01  0.1054E-01  0.2077E+00  0.2077E+00
     -2.163  0.1157E-01  0.1157E-01  0.2088E+00  0.2088E+00
     -2.062  0.6254E-02  0.6254E-02  0.2095E+00  0.2095E+00
     -1.961  0.5048E-02  0.5048E-02  0.2100E+00  0.2100E+00
     -1.861  0.7557E-02  0.7557E-02  0.2107E+00  0.2107E+00
     -1.760  0.9116E-02  0.9116E-02  0.2117E+00  0.2117E+00
     -1.659  0.7918E-02  0.7918E-02  0.2125E+00  0.2125E+00
     -1.558  0.9623E-02  0.9623E-02  0.2134E+00  0.2134E+00
     -1.458  0.6793E-02  0.6793E-02  0.2141E+00  0.2141E+00
     -1.357  0.4694E-02  0.4694E-02  0.2146E+00  0.2146E+00
     -1.256  0.5681E-02  0.5681E-02  0.2152E+00  0.2152E+00
     -1.156  0.6815E-02  0.6815E-02  0.2158E+00  0.2158E+00
     -1.055  0.6958E-02  0.6958E-02  0.2165E+00  0.2165E+00
     -0.954  0.5557E-02  0.5557E-02  0.2171E+00  0.2171E+00
     -0.853  0.3081E-02  0.3081E-02  0.2174E+00  0.2174E+00
     -0.753  0.1342E-02  0.1342E-02  0.2176E+00  0.2176E+00
     -0.652  0.1453E-02  0.1453E-02  0.2177E+00  0.2177E+00
     -0.551  0.4011E-02  0.4011E-02  0.2181E+00  0.2181E+00
     -0.450  0.2956E-02  0.2956E-02  0.2184E+00  0.2184E+00
     -0.350  0.1538E-02  0.1538E-02  0.2186E+00  0.2186E+00
     -0.249  0.3411E-02  0.3411E-02  0.2189E+00  0.2189E+00
     -0.148  0.4754E-02  0.4754E-02  0.2194E+00  0.2194E+00
     -0.047  0.3895E-02  0.3895E-02  0.2198E+00  0.2198E+00
      0.053  0.5165E-02  0.5165E-02  0.2203E+00  0.2203E+00
      0.154  0.8286E-02  0.8286E-02  0.2211E+00  0.2211E+00
      0.255  0.1137E-01  0.1137E-01  0.2223E+00  0.2223E+00
      0.356  0.1194E-01  0.1194E-01  0.2235E+00  0.2235E+00
      0.456  0.8863E-02  0.8863E-02  0.2244E+00  0.2244E+00
      0.557  0.5867E-02  0.5867E-02  0.2250E+00  0.2250E+00
      0.658  0.9672E-02  0.9672E-02  0.2259E+00  0.2259E+00
      0.758  0.9646E-02  0.9646E-02  0.2269E+00  0.2269E+00
      0.859  0.4898E-02  0.4898E-02  0.2274E+00  0.2274E+00
      0.960  0.4549E-02  0.4549E-02  0.2279E+00  0.2279E+00
      1.061  0.1116E-01  0.1116E-01  0.2290E+00  0.2290E+00
      1.161  0.1816E-01  0.1816E-01  0.2308E+00  0.2308E+00
      1.262  0.1840E-01  0.1840E-01  0.2327E+00  0.2327E+00
      1.363  0.1483E-01  0.1483E-01  0.2342E+00  0.2342E+00
      1.464  0.8662E-02  0.8662E-02  0.2350E+00  0.2350E+00
      1.564  0.1004E-01  0.1004E-01  0.2360E+00  0.2360E+00
      1.665  0.1004E-01  0.1004E-01  0.2371E+00  0.2371E+00
      1.766  0.8430E-02  0.8430E-02  0.2379E+00  0.2379E+00
      1.867  0.1354E-01  0.1354E-01  0.2393E+00  0.2393E+00
      1.967  0.1604E-01  0.1604E-01  0.2409E+00  0.2409E+00
      2.068  0.1405E-01  0.1405E-01  0.2423E+00  0.2423E+00
      2.169  0.8235E-02  0.8235E-02  0.2431E+00  0.2431E+00
      2.270  0.5249E-02  0.5249E-02  0.2437E+00  0.2437E+00
      2.370  0.9170E-02  0.9170E-02  0.2446E+00  0.2446E+00
      2.471  0.1154E-01  0.1154E-01  0.2457E+00  0.2457E+00
      2.572  0.1527E-01  0.1527E-01  0.2473E+00  0.2473E+00
      2.672  0.1674E-01  0.1674E-01  0.2490E+00  0.2490E+00
      2.773  0.1502E-01  0.1502E-01  0.2505E+00  0.2505E+00
      2.874  0.1125E-01  0.1125E-01  0.2516E+00  0.2516E+00
      2.975  0.1242E-01  0.1241E-01  0.2529E+00  0.2529E+00
      3.075  0.1502E-01  0.1502E-01  0.2544E+00  0.2544E+00
      3.176  0.2170E-01  0.2170E-01  0.2566E+00  0.2566E+00
      3.277  0.1770E-01  0.1770E-01  0.2583E+00  0.2583E+00
      3.378  0.1712E-01  0.1712E-01  0.2601E+00  0.2601E+00
      3.478  0.2161E-01  0.2161E-01  0.2622E+00  0.2622E+00
      3.579  0.2851E-01  0.2851E-01  0.2651E+00  0.2651E+00
      3.680  0.2384E-01  0.2384E-01  0.2675E+00  0.2675E+00
      3.781  0.1664E-01  0.1664E-01  0.2692E+00  0.2692E+00
      3.881  0.1559E-01  0.1559E-01  0.2708E+00  0.2708E+00
      3.982  0.2068E-01  0.2068E-01  0.2728E+00  0.2728E+00
      4.083  0.1961E-01  0.1961E-01  0.2748E+00  0.2748E+00
      4.184  0.2021E-01  0.2021E-01  0.2769E+00  0.2769E+00
      4.284  0.2150E-01  0.2150E-01  0.2790E+00  0.2790E+00
      4.385  0.2130E-01  0.2130E-01  0.2812E+00  0.2812E+00
      4.486  0.2251E-01  0.2251E-01  0.2834E+00  0.2834E+00
      4.586  0.2581E-01  0.2581E-01  0.2860E+00  0.2860E+00
      4.687  0.2704E-01  0.2703E-01  0.2888E+00  0.2888E+00
      4.788  0.2310E-01  0.2309E-01  0.2911E+00  0.2911E+00
      4.889  0.1743E-01  0.1744E-01  0.2928E+00  0.2928E+00
      4.989  0.2041E-01  0.2040E-01  0.2949E+00  0.2949E+00
      5.090  0.3051E-01  0.3051E-01  0.2980E+00  0.2980E+00
      5.191  0.2426E-01  0.2428E-01  0.3004E+00  0.3004E+00
      5.292  0.2276E-01  0.2274E-01  0.3027E+00  0.3027E+00
      5.392  0.3058E-01  0.3057E-01  0.3058E+00  0.3058E+00
      5.493  0.3014E-01  0.3016E-01  0.3088E+00  0.3088E+00
      5.594  0.2678E-01  0.2678E-01  0.3115E+00  0.3115E+00
      5.695  0.2665E-01  0.2663E-01  0.3142E+00  0.3142E+00
      5.795  0.1599E-01  0.1601E-01  0.3158E+00  0.3158E+00
      5.896  0.1678E-01  0.1678E-01  0.3175E+00  0.3175E+00
      5.997  0.3017E-01  0.3016E-01  0.3206E+00  0.3205E+00
      6.098  0.3191E-01  0.3191E-01  0.3238E+00  0.3238E+00
      6.198  0.3009E-01  0.3008E-01  0.3268E+00  0.3268E+00
      6.299  0.3371E-01  0.3371E-01  0.3302E+00  0.3302E+00
      6.400  0.2824E-01  0.2825E-01  0.3330E+00  0.3330E+00
      6.500  0.2319E-01  0.2318E-01  0.3354E+00  0.3354E+00
      6.601  0.3063E-01  0.3062E-01  0.3385E+00  0.3385E+00
      6.702  0.2813E-01  0.2814E-01  0.3413E+00  0.3413E+00
      6.803  0.3099E-01  0.3098E-01  0.3444E+00  0.3444E+00
      6.903  0.3814E-01  0.3814E-01  0.3483E+00  0.3483E+00
      7.004  0.3532E-01  0.3532E-01  0.3518E+00  0.3518E+00
      7.105  0.3287E-01  0.3286E-01  0.3551E+00  0.3551E+00
      7.206  0.2961E-01  0.2961E-01  0.3581E+00  0.3581E+00
      7.306  0.2832E-01  0.2832E-01  0.3610E+00  0.3610E+00
      7.407  0.3752E-01  0.3753E-01  0.3647E+00  0.3647E+00
      7.508  0.3490E-01  0.3491E-01  0.3683E+00  0.3683E+00
      7.609  0.2470E-01  0.2471E-01  0.3707E+00  0.3707E+00
      7.709  0.1836E-01  0.1837E-01  0.3726E+00  0.3726E+00
      7.810  0.1492E-01  0.1493E-01  0.3741E+00  0.3741E+00
      7.911  0.6125E-02  0.6126E-02  0.3747E+00  0.3747E+00
      8.012  0.2320E-02  0.2320E-02  0.3749E+00  0.3749E+00
      8.112  0.4933E-03  0.4934E-03  0.3750E+00  0.3750E+00
      8.213  0.2299E-04  0.2300E-04  0.3750E+00  0.3750E+00
      8.314  0.1758E-06  0.1759E-06  0.3750E+00  0.3750E+00
      8.414  0.2000E-09  0.2001E-09  0.3750E+00  0.3750E+00
      8.515  0.3239E-13  0.3241E-13  0.3750E+00  0.3750E+00
      8.616  0.7175E-18  0.7175E-18  0.3750E+00  0.3750E+00
      8.717  0.0000E+00  0.0000E+00  0.3750E+00  0.3750E+00
      8.817  0.0000E+00  0.0000E+00  0.3750E+00  0.3750E+00
      8.918  0.0000E+00  0.0000E+00  0.3750E+00  0.3750E+00
      9.019  0.0000E+00  0.0000E+00  0.3750E+00  0.3750E+00
      9.120  0.0000E+00  0.0000E+00  0.3750E+00  0.3750E+00
      9.220  0.0000E+00  0.0000E+00  0.3750E+00  0.3750E+00
      9.321  0.0000E+00  0.0000E+00  0.3750E+00  0.3750E+00
