  15  15   0   4
  0.2037108E+02  0.4850000E-09  0.4850000E-09  0.1500000E-08  0.5000000E-15
  1.000000000000000E-004
  CAR 
 Lattice                                 
     10.32117661    -21.69083240  301     -0.33769136      1.00000000
    -21.691  0.0000E+00  0.0000E+00  0.0000E+00  0.0000E+00
    -21.584  0.0000E+00  0.0000E+00  0.0000E+00  0.0000E+00
    -21.477  0.0000E+00  0.0000E+00  0.0000E+00  0.0000E+00
    -21.371  0.0000E+00  0.0000E+00  0.0000E+00  0.0000E+00
    -21.264  0.0000E+00  0.0000E+00  0.0000E+00  0.0000E+00
    -21.157  0.0000E+00  0.0000E+00  0.0000E+00  0.0000E+00
    -21.051  0.0000E+00  0.0000E+00  0.0000E+00  0.0000E+00
    -20.944  0.0000E+00  0.0000E+00  0.0000E+00  0.0000E+00
    -20.837  0.0000E+00  0.0000E+00  0.0000E+00  0.0000E+00
    -20.730  0.7141E-15  0.7141E-15  0.7620E-16  0.7620E-16
    -20.624  0.1214E-10  0.1214E-10  0.1295E-11  0.1295E-11
    -20.517  0.2485E-07  0.2485E-07  0.2653E-08  0.2653E-08
    -20.410  0.6744E-05  0.6744E-05  0.7223E-06  0.7223E-06
    -20.304  0.2709E-03  0.2709E-03  0.2963E-04  0.2963E-04
    -20.197  0.1974E-02  0.1974E-02  0.2403E-03  0.2403E-03
    -20.090  0.4153E-02  0.4153E-02  0.6835E-03  0.6835E-03
    -19.984  0.4524E-02  0.4524E-02  0.1166E-02  0.1166E-02
    -19.877  0.4938E-02  0.4938E-02  0.1693E-02  0.1693E-02
    -19.770  0.4160E-02  0.4160E-02  0.2137E-02  0.2137E-02
    -19.663  0.5387E-02  0.5387E-02  0.2712E-02  0.2712E-02
    -19.557  0.4213E-02  0.4213E-02  0.3161E-02  0.3161E-02
    -19.450  0.4267E-02  0.4267E-02  0.3617E-02  0.3617E-02
    -19.343  0.6009E-02  0.6009E-02  0.4258E-02  0.4258E-02
    -19.237  0.3803E-02  0.3803E-02  0.4664E-02  0.4664E-02
    -19.130  0.3899E-02  0.3899E-02  0.5080E-02  0.5080E-02
    -19.023  0.6121E-02  0.6121E-02  0.5733E-02  0.5733E-02
    -18.916  0.5197E-02  0.5197E-02  0.6287E-02  0.6287E-02
    -18.810  0.2951E-02  0.2951E-02  0.6602E-02  0.6602E-02
    -18.703  0.4413E-02  0.4413E-02  0.7073E-02  0.7073E-02
    -18.596  0.6909E-02  0.6909E-02  0.7810E-02  0.7810E-02
    -18.490  0.4548E-02  0.4548E-02  0.8296E-02  0.8296E-02
    -18.383  0.3787E-02  0.3787E-02  0.8700E-02  0.8700E-02
    -18.276  0.2997E-02  0.2997E-02  0.9020E-02  0.9020E-02
    -18.170  0.6673E-02  0.6673E-02  0.9732E-02  0.9732E-02
    -18.063  0.6574E-02  0.6574E-02  0.1043E-01  0.1043E-01
    -17.956  0.3505E-02  0.3505E-02  0.1081E-01  0.1081E-01
    -17.849  0.3312E-02  0.3312E-02  0.1116E-01  0.1116E-01
    -17.743  0.4116E-02  0.4116E-02  0.1160E-01  0.1160E-01
    -17.636  0.6263E-02  0.6263E-02  0.1227E-01  0.1227E-01
    -17.529  0.6733E-02  0.6733E-02  0.1299E-01  0.1299E-01
    -17.423  0.5442E-02  0.5442E-02  0.1357E-01  0.1357E-01
    -17.316  0.6288E-02  0.6288E-02  0.1424E-01  0.1424E-01
    -17.209  0.1020E-01  0.1020E-01  0.1533E-01  0.1533E-01
    -17.102  0.1461E-01  0.1461E-01  0.1688E-01  0.1688E-01
    -16.996  0.1555E-01  0.1555E-01  0.1854E-01  0.1854E-01
    -16.889  0.1690E-01  0.1690E-01  0.2035E-01  0.2035E-01
    -16.782  0.2068E-01  0.2068E-01  0.2255E-01  0.2255E-01
    -16.676  0.1672E-01  0.1672E-01  0.2434E-01  0.2434E-01
    -16.569  0.5409E-02  0.5409E-02  0.2492E-01  0.2492E-01
    -16.462  0.7444E-02  0.7444E-02  0.2571E-01  0.2571E-01
    -16.355  0.8047E-02  0.8047E-02  0.2657E-01  0.2657E-01
    -16.249  0.4543E-02  0.4543E-02  0.2705E-01  0.2705E-01
    -16.142  0.4131E-02  0.4131E-02  0.2749E-01  0.2749E-01
    -16.035  0.3894E-02  0.3894E-02  0.2791E-01  0.2791E-01
    -15.929  0.3766E-02  0.3766E-02  0.2831E-01  0.2831E-01
    -15.822  0.3759E-02  0.3759E-02  0.2871E-01  0.2871E-01
    -15.715  0.8201E-02  0.8201E-02  0.2959E-01  0.2959E-01
    -15.609  0.7939E-02  0.7939E-02  0.3043E-01  0.3043E-01
    -15.502  0.3886E-02  0.3886E-02  0.3085E-01  0.3085E-01
    -15.395  0.3862E-02  0.3862E-02  0.3126E-01  0.3126E-01
    -15.288  0.3398E-02  0.3398E-02  0.3162E-01  0.3162E-01
    -15.182  0.4677E-02  0.4677E-02  0.3212E-01  0.3212E-01
    -15.075  0.6216E-02  0.6216E-02  0.3279E-01  0.3279E-01
    -14.968  0.1056E-01  0.1056E-01  0.3391E-01  0.3391E-01
    -14.862  0.1656E-01  0.1656E-01  0.3568E-01  0.3568E-01
    -14.755  0.1815E-01  0.1815E-01  0.3762E-01  0.3762E-01
    -14.648  0.1753E-01  0.1753E-01  0.3949E-01  0.3949E-01
    -14.541  0.1103E-01  0.1103E-01  0.4067E-01  0.4067E-01
    -14.435  0.7759E-02  0.7759E-02  0.4149E-01  0.4149E-01
    -14.328  0.1519E-01  0.1519E-01  0.4311E-01  0.4311E-01
    -14.221  0.1527E-01  0.1527E-01  0.4474E-01  0.4474E-01
    -14.115  0.1070E-01  0.1070E-01  0.4588E-01  0.4588E-01
    -14.008  0.1079E-01  0.1079E-01  0.4704E-01  0.4704E-01
    -13.901  0.1230E-01  0.1230E-01  0.4835E-01  0.4835E-01
    -13.795  0.1972E-01  0.1972E-01  0.5045E-01  0.5045E-01
    -13.688  0.2016E-01  0.2016E-01  0.5260E-01  0.5260E-01
    -13.581  0.1816E-01  0.1816E-01  0.5454E-01  0.5454E-01
    -13.474  0.1120E-01  0.1120E-01  0.5574E-01  0.5574E-01
    -13.368  0.6892E-02  0.6892E-02  0.5647E-01  0.5647E-01
    -13.261  0.3296E-02  0.3296E-02  0.5682E-01  0.5682E-01
    -13.154  0.4150E-02  0.4150E-02  0.5727E-01  0.5727E-01
    -13.048  0.6950E-02  0.6950E-02  0.5801E-01  0.5801E-01
    -12.941  0.6800E-02  0.6800E-02  0.5873E-01  0.5873E-01
    -12.834  0.4842E-02  0.4842E-02  0.5925E-01  0.5925E-01
    -12.727  0.6885E-02  0.6885E-02  0.5999E-01  0.5999E-01
    -12.621  0.6999E-02  0.6999E-02  0.6073E-01  0.6073E-01
    -12.514  0.5558E-02  0.5558E-02  0.6133E-01  0.6133E-01
    -12.407  0.5339E-02  0.5339E-02  0.6189E-01  0.6189E-01
    -12.301  0.3302E-02  0.3302E-02  0.6225E-01  0.6225E-01
    -12.194  0.6588E-02  0.6588E-02  0.6295E-01  0.6295E-01
    -12.087  0.7906E-02  0.7906E-02  0.6379E-01  0.6379E-01
    -11.981  0.3225E-02  0.3225E-02  0.6414E-01  0.6414E-01
    -11.874  0.3401E-02  0.3401E-02  0.6450E-01  0.6450E-01
    -11.767  0.3416E-02  0.3416E-02  0.6487E-01  0.6487E-01
    -11.660  0.6172E-02  0.6172E-02  0.6552E-01  0.6552E-01
    -11.554  0.6634E-02  0.6634E-02  0.6623E-01  0.6623E-01
    -11.447  0.3638E-02  0.3638E-02  0.6662E-01  0.6662E-01
    -11.340  0.1928E-02  0.1928E-02  0.6683E-01  0.6683E-01
    -11.234  0.4822E-02  0.4822E-02  0.6734E-01  0.6734E-01
    -11.127  0.5807E-02  0.5807E-02  0.6796E-01  0.6796E-01
    -11.020  0.5100E-02  0.5100E-02  0.6850E-01  0.6850E-01
    -10.913  0.7820E-02  0.7820E-02  0.6934E-01  0.6934E-01
    -10.807  0.5890E-02  0.5890E-02  0.6997E-01  0.6997E-01
    -10.700  0.2416E-02  0.2416E-02  0.7022E-01  0.7022E-01
    -10.593  0.7952E-02  0.7952E-02  0.7107E-01  0.7107E-01
    -10.487  0.1258E-01  0.1258E-01  0.7242E-01  0.7242E-01
    -10.380  0.1534E-01  0.1534E-01  0.7405E-01  0.7405E-01
    -10.273  0.1468E-01  0.1468E-01  0.7562E-01  0.7562E-01
    -10.167  0.1444E-01  0.1444E-01  0.7716E-01  0.7716E-01
    -10.060  0.1816E-01  0.1816E-01  0.7910E-01  0.7910E-01
     -9.953  0.1900E-01  0.1900E-01  0.8112E-01  0.8112E-01
     -9.846  0.9708E-02  0.9708E-02  0.8216E-01  0.8216E-01
     -9.740  0.6445E-02  0.6446E-02  0.8285E-01  0.8285E-01
     -9.633  0.1420E-01  0.1420E-01  0.8436E-01  0.8436E-01
     -9.526  0.1607E-01  0.1607E-01  0.8608E-01  0.8608E-01
     -9.420  0.1638E-01  0.1638E-01  0.8783E-01  0.8783E-01
     -9.313  0.1489E-01  0.1489E-01  0.8942E-01  0.8942E-01
     -9.206  0.1415E-01  0.1415E-01  0.9092E-01  0.9092E-01
     -9.099  0.1081E-01  0.1081E-01  0.9208E-01  0.9208E-01
     -8.993  0.7953E-02  0.7953E-02  0.9293E-01  0.9293E-01
     -8.886  0.1520E-01  0.1520E-01  0.9455E-01  0.9455E-01
     -8.779  0.2028E-01  0.2028E-01  0.9671E-01  0.9671E-01
     -8.673  0.1565E-01  0.1565E-01  0.9838E-01  0.9838E-01
     -8.566  0.7636E-02  0.7636E-02  0.9920E-01  0.9920E-01
     -8.459  0.1076E-01  0.1076E-01  0.1003E+00  0.1003E+00
     -8.352  0.2081E-01  0.2081E-01  0.1026E+00  0.1026E+00
     -8.246  0.1858E-01  0.1858E-01  0.1045E+00  0.1045E+00
     -8.139  0.1163E-01  0.1163E-01  0.1058E+00  0.1058E+00
     -8.032  0.1613E-01  0.1613E-01  0.1075E+00  0.1075E+00
     -7.926  0.2535E-01  0.2535E-01  0.1102E+00  0.1102E+00
     -7.819  0.2458E-01  0.2458E-01  0.1128E+00  0.1128E+00
     -7.712  0.1997E-01  0.1997E-01  0.1150E+00  0.1150E+00
     -7.606  0.1013E-01  0.1013E-01  0.1161E+00  0.1161E+00
     -7.499  0.8727E-02  0.8727E-02  0.1170E+00  0.1170E+00
     -7.392  0.1887E-01  0.1887E-01  0.1190E+00  0.1190E+00
     -7.285  0.1794E-01  0.1794E-01  0.1209E+00  0.1209E+00
     -7.179  0.1163E-01  0.1163E-01  0.1222E+00  0.1222E+00
     -7.072  0.1101E-01  0.1101E-01  0.1233E+00  0.1233E+00
     -6.965  0.1705E-01  0.1705E-01  0.1251E+00  0.1251E+00
     -6.859  0.1823E-01  0.1823E-01  0.1271E+00  0.1271E+00
     -6.752  0.2029E-01  0.2029E-01  0.1293E+00  0.1293E+00
     -6.645  0.2045E-01  0.2045E-01  0.1314E+00  0.1314E+00
     -6.538  0.1801E-01  0.1801E-01  0.1334E+00  0.1334E+00
     -6.432  0.2024E-01  0.2024E-01  0.1355E+00  0.1355E+00
     -6.325  0.1714E-01  0.1714E-01  0.1373E+00  0.1373E+00
     -6.218  0.1883E-01  0.1883E-01  0.1394E+00  0.1394E+00
     -6.112  0.2614E-01  0.2614E-01  0.1421E+00  0.1421E+00
     -6.005  0.2214E-01  0.2214E-01  0.1445E+00  0.1445E+00
     -5.898  0.3168E-01  0.3168E-01  0.1479E+00  0.1479E+00
     -5.792  0.2908E-01  0.2908E-01  0.1510E+00  0.1510E+00
     -5.685  0.1587E-01  0.1587E-01  0.1527E+00  0.1527E+00
     -5.578  0.1804E-01  0.1804E-01  0.1546E+00  0.1546E+00
     -5.471  0.3286E-01  0.3286E-01  0.1581E+00  0.1581E+00
     -5.365  0.3633E-01  0.3633E-01  0.1620E+00  0.1620E+00
     -5.258  0.2362E-01  0.2362E-01  0.1645E+00  0.1645E+00
     -5.151  0.1672E-01  0.1672E-01  0.1663E+00  0.1663E+00
     -5.045  0.1063E-01  0.1063E-01  0.1674E+00  0.1674E+00
     -4.938  0.1076E-01  0.1076E-01  0.1686E+00  0.1686E+00
     -4.831  0.1426E-01  0.1426E-01  0.1701E+00  0.1701E+00
     -4.724  0.1082E-01  0.1082E-01  0.1713E+00  0.1713E+00
     -4.618  0.7894E-02  0.7894E-02  0.1721E+00  0.1721E+00
     -4.511  0.9342E-02  0.9342E-02  0.1731E+00  0.1731E+00
     -4.404  0.1678E-01  0.1678E-01  0.1749E+00  0.1749E+00
     -4.298  0.2176E-01  0.2176E-01  0.1772E+00  0.1772E+00
     -4.191  0.1822E-01  0.1822E-01  0.1792E+00  0.1792E+00
     -4.084  0.1919E-01  0.1919E-01  0.1812E+00  0.1812E+00
     -3.978  0.2244E-01  0.2244E-01  0.1836E+00  0.1836E+00
     -3.871  0.2364E-01  0.2364E-01  0.1861E+00  0.1861E+00
     -3.764  0.1819E-01  0.1819E-01  0.1881E+00  0.1881E+00
     -3.657  0.1805E-01  0.1805E-01  0.1900E+00  0.1900E+00
     -3.551  0.2046E-01  0.2046E-01  0.1922E+00  0.1922E+00
     -3.444  0.1579E-01  0.1579E-01  0.1939E+00  0.1939E+00
     -3.337  0.1389E-01  0.1389E-01  0.1953E+00  0.1953E+00
     -3.231  0.1303E-01  0.1303E-01  0.1967E+00  0.1967E+00
     -3.124  0.1712E-01  0.1712E-01  0.1986E+00  0.1986E+00
     -3.017  0.1835E-01  0.1835E-01  0.2005E+00  0.2005E+00
     -2.910  0.1192E-01  0.1192E-01  0.2018E+00  0.2018E+00
     -2.804  0.1180E-01  0.1180E-01  0.2030E+00  0.2030E+00
     -2.697  0.7464E-02  0.7464E-02  0.2038E+00  0.2038E+00
     -2.590  0.1015E-01  0.1015E-01  0.2049E+00  0.2049E+00
     -2.484  0.1979E-01  0.1979E-01  0.2070E+00  0.2070E+00
     -2.377  0.1410E-01  0.1410E-01  0.2085E+00  0.2085E+00
     -2.270  0.4027E-02  0.4027E-02  0.2090E+00  0.2090E+00
     -2.164  0.4736E-02  0.4736E-02  0.2095E+00  0.2095E+00
     -2.057  0.1035E-01  0.1035E-01  0.2106E+00  0.2106E+00
     -1.950  0.1038E-01  0.1038E-01  0.2117E+00  0.2117E+00
     -1.843  0.1123E-01  0.1123E-01  0.2129E+00  0.2129E+00
     -1.737  0.1159E-01  0.1159E-01  0.2141E+00  0.2141E+00
     -1.630  0.9370E-02  0.9370E-02  0.2151E+00  0.2151E+00
     -1.523  0.7071E-02  0.7071E-02  0.2159E+00  0.2159E+00
     -1.417  0.4607E-02  0.4607E-02  0.2164E+00  0.2164E+00
     -1.310  0.3893E-02  0.3893E-02  0.2168E+00  0.2168E+00
     -1.203  0.4004E-02  0.4004E-02  0.2172E+00  0.2172E+00
     -1.096  0.4084E-02  0.4084E-02  0.2176E+00  0.2176E+00
     -0.990  0.5877E-02  0.5877E-02  0.2183E+00  0.2183E+00
     -0.883  0.2782E-02  0.2782E-02  0.2186E+00  0.2186E+00
     -0.776  0.6046E-03  0.6045E-03  0.2186E+00  0.2186E+00
     -0.670  0.6901E-04  0.6900E-04  0.2186E+00  0.2186E+00
     -0.563  0.2920E-05  0.2920E-05  0.2186E+00  0.2186E+00
     -0.456  0.9536E-04  0.9536E-04  0.2187E+00  0.2187E+00
     -0.349  0.7858E-03  0.7858E-03  0.2187E+00  0.2187E+00
     -0.243  0.9664E-03  0.9664E-03  0.2188E+00  0.2188E+00
     -0.136  0.1800E-03  0.1800E-03  0.2189E+00  0.2189E+00
     -0.029  0.4603E-05  0.4603E-05  0.2189E+00  0.2189E+00
      0.077  0.4263E-06  0.4263E-06  0.2189E+00  0.2189E+00
      0.184  0.6364E-04  0.6364E-04  0.2189E+00  0.2189E+00
      0.291  0.1230E-02  0.1230E-02  0.2190E+00  0.2190E+00
      0.397  0.3351E-02  0.3351E-02  0.2194E+00  0.2194E+00
      0.504  0.1484E-02  0.1484E-02  0.2195E+00  0.2195E+00
      0.611  0.1272E-02  0.1272E-02  0.2196E+00  0.2196E+00
      0.718  0.3304E-02  0.3304E-02  0.2200E+00  0.2200E+00
      0.824  0.5222E-02  0.5222E-02  0.2206E+00  0.2206E+00
      0.931  0.1011E-01  0.1011E-01  0.2216E+00  0.2216E+00
      1.038  0.2576E-01  0.2576E-01  0.2244E+00  0.2244E+00
      1.144  0.2005E-01  0.2005E-01  0.2265E+00  0.2265E+00
      1.251  0.5009E-02  0.5009E-02  0.2271E+00  0.2271E+00
      1.358  0.4271E-02  0.4271E-02  0.2275E+00  0.2275E+00
      1.465  0.8554E-02  0.8554E-02  0.2284E+00  0.2284E+00
      1.571  0.1290E-01  0.1290E-01  0.2298E+00  0.2298E+00
      1.678  0.1955E-01  0.1955E-01  0.2319E+00  0.2319E+00
      1.785  0.1505E-01  0.1505E-01  0.2335E+00  0.2335E+00
      1.891  0.6228E-02  0.6228E-02  0.2342E+00  0.2342E+00
      1.998  0.7030E-02  0.7030E-02  0.2349E+00  0.2349E+00
      2.105  0.9910E-02  0.9910E-02  0.2360E+00  0.2360E+00
      2.211  0.7170E-02  0.7170E-02  0.2367E+00  0.2367E+00
      2.318  0.8287E-02  0.8287E-02  0.2376E+00  0.2376E+00
      2.425  0.7597E-02  0.7597E-02  0.2384E+00  0.2384E+00
      2.532  0.1099E-01  0.1099E-01  0.2396E+00  0.2396E+00
      2.638  0.1055E-01  0.1055E-01  0.2407E+00  0.2407E+00
      2.745  0.6303E-02  0.6303E-02  0.2414E+00  0.2414E+00
      2.852  0.4396E-02  0.4396E-02  0.2419E+00  0.2419E+00
      2.958  0.9612E-02  0.9611E-02  0.2429E+00  0.2429E+00
      3.065  0.1205E-01  0.1205E-01  0.2442E+00  0.2442E+00
      3.172  0.9022E-02  0.9022E-02  0.2451E+00  0.2451E+00
      3.279  0.1014E-01  0.1014E-01  0.2462E+00  0.2462E+00
      3.385  0.1022E-01  0.1022E-01  0.2473E+00  0.2473E+00
      3.492  0.1113E-01  0.1113E-01  0.2485E+00  0.2485E+00
      3.599  0.1649E-01  0.1649E-01  0.2503E+00  0.2503E+00
      3.705  0.2217E-01  0.2216E-01  0.2526E+00  0.2526E+00
      3.812  0.2532E-01  0.2531E-01  0.2553E+00  0.2553E+00
      3.919  0.2243E-01  0.2243E-01  0.2577E+00  0.2577E+00
      4.025  0.2361E-01  0.2361E-01  0.2602E+00  0.2602E+00
      4.132  0.2358E-01  0.2358E-01  0.2628E+00  0.2628E+00
      4.239  0.2615E-01  0.2615E-01  0.2655E+00  0.2655E+00
      4.346  0.2427E-01  0.2427E-01  0.2681E+00  0.2681E+00
      4.452  0.2277E-01  0.2277E-01  0.2706E+00  0.2706E+00
      4.559  0.2177E-01  0.2177E-01  0.2729E+00  0.2729E+00
      4.666  0.2161E-01  0.2161E-01  0.2752E+00  0.2752E+00
      4.772  0.2678E-01  0.2679E-01  0.2781E+00  0.2781E+00
      4.879  0.2349E-01  0.2349E-01  0.2806E+00  0.2806E+00
      4.986  0.2175E-01  0.2175E-01  0.2829E+00  0.2829E+00
      5.093  0.2585E-01  0.2585E-01  0.2856E+00  0.2856E+00
      5.199  0.2670E-01  0.2670E-01  0.2885E+00  0.2885E+00
      5.306  0.2467E-01  0.2467E-01  0.2911E+00  0.2911E+00
      5.413  0.2156E-01  0.2155E-01  0.2934E+00  0.2934E+00
      5.519  0.2034E-01  0.2034E-01  0.2956E+00  0.2956E+00
      5.626  0.2650E-01  0.2650E-01  0.2984E+00  0.2984E+00
      5.733  0.2354E-01  0.2355E-01  0.3009E+00  0.3009E+00
      5.839  0.2318E-01  0.2317E-01  0.3034E+00  0.3034E+00
      5.946  0.1922E-01  0.1922E-01  0.3055E+00  0.3055E+00
      6.053  0.2024E-01  0.2024E-01  0.3076E+00  0.3076E+00
      6.160  0.1556E-01  0.1557E-01  0.3093E+00  0.3093E+00
      6.266  0.1891E-01  0.1891E-01  0.3113E+00  0.3113E+00
      6.373  0.2335E-01  0.2334E-01  0.3138E+00  0.3138E+00
      6.480  0.2327E-01  0.2327E-01  0.3163E+00  0.3163E+00
      6.586  0.2502E-01  0.2503E-01  0.3189E+00  0.3189E+00
      6.693  0.2762E-01  0.2762E-01  0.3219E+00  0.3219E+00
      6.800  0.3198E-01  0.3199E-01  0.3253E+00  0.3253E+00
      6.907  0.2653E-01  0.2654E-01  0.3281E+00  0.3281E+00
      7.013  0.2592E-01  0.2592E-01  0.3309E+00  0.3309E+00
      7.120  0.2638E-01  0.2636E-01  0.3337E+00  0.3337E+00
      7.227  0.2134E-01  0.2133E-01  0.3360E+00  0.3360E+00
      7.333  0.1930E-01  0.1930E-01  0.3380E+00  0.3380E+00
      7.440  0.1946E-01  0.1948E-01  0.3401E+00  0.3401E+00
      7.547  0.2406E-01  0.2405E-01  0.3427E+00  0.3427E+00
      7.654  0.2489E-01  0.2488E-01  0.3453E+00  0.3453E+00
      7.760  0.3135E-01  0.3135E-01  0.3487E+00  0.3487E+00
      7.867  0.3380E-01  0.3380E-01  0.3523E+00  0.3523E+00
      7.974  0.2520E-01  0.2521E-01  0.3550E+00  0.3550E+00
      8.080  0.3215E-01  0.3216E-01  0.3584E+00  0.3584E+00
      8.187  0.3497E-01  0.3497E-01  0.3622E+00  0.3622E+00
      8.294  0.3423E-01  0.3423E-01  0.3658E+00  0.3658E+00
      8.400  0.3787E-01  0.3787E-01  0.3698E+00  0.3698E+00
      8.507  0.2506E-01  0.2506E-01  0.3725E+00  0.3725E+00
      8.614  0.1210E-01  0.1210E-01  0.3738E+00  0.3738E+00
      8.721  0.4978E-02  0.4978E-02  0.3743E+00  0.3743E+00
      8.827  0.3153E-02  0.3154E-02  0.3747E+00  0.3747E+00
      8.934  0.2465E-02  0.2466E-02  0.3749E+00  0.3749E+00
      9.041  0.5397E-03  0.5398E-03  0.3750E+00  0.3750E+00
      9.147  0.2076E-04  0.2077E-04  0.3750E+00  0.3750E+00
      9.254  0.1050E-06  0.1051E-06  0.3750E+00  0.3750E+00
      9.361  0.6137E-10  0.6144E-10  0.3750E+00  0.3750E+00
      9.468  0.3934E-14  0.3940E-14  0.3750E+00  0.3750E+00
      9.574  0.0000E+00  0.0000E+00  0.3750E+00  0.3750E+00
      9.681  0.0000E+00  0.0000E+00  0.3750E+00  0.3750E+00
      9.788  0.0000E+00  0.0000E+00  0.3750E+00  0.3750E+00
      9.894  0.0000E+00  0.0000E+00  0.3750E+00  0.3750E+00
     10.001  0.0000E+00  0.0000E+00  0.3750E+00  0.3750E+00
     10.108  0.0000E+00  0.0000E+00  0.3750E+00  0.3750E+00
     10.214  0.0000E+00  0.0000E+00  0.3750E+00  0.3750E+00
     10.321  0.0000E+00  0.0000E+00  0.3750E+00  0.3750E+00
