 ----------------------------------------------------
    OOO  PPPP  EEEEE N   N M   M PPPP
   O   O P   P E     NN  N MM MM P   P
   O   O PPPP  EEEEE N N N M M M PPPP   -- VERSION
   O   O P     E     N  NN M   M P
    OOO  P     EEEEE N   N M   M P
 ----------------------------------------------------
 running   48 mpi-ranks, with    1 threads/rank
 distrk:  each k-point on   48 cores,    1 groups
 distr:  one band on    1 cores,   48 groups
 vasp.6.3.2 27Jun22 (build Dec 22 2022 13:13:19) complex                        
  
 POSCAR found type information on POSCAR B C 
 POSCAR found :  2 types and      15 ions
 Reading from existing POTCAR
 -----------------------------------------------------------------------------
|                                                                             |
|           W    W    AA    RRRRR   N    N  II  N    N   GGGG   !!!           |
|           W    W   A  A   R    R  NN   N  II  NN   N  G    G  !!!           |
|           W    W  A    A  R    R  N N  N  II  N N  N  G       !!!           |
|           W WW W  AAAAAA  RRRRR   N  N N  II  N  N N  G  GGG   !            |
|           WW  WW  A    A  R   R   N   NN  II  N   NN  G    G                |
|           W    W  A    A  R    R  N    N  II  N    N   GGGG   !!!           |
|                                                                             |
|     You use a magnetic or noncollinear calculation, but did not specify     |
|     the initial magnetic moment with the MAGMOM tag. Note that a            |
|     default of 1 will be used for all atoms. This ferromagnetic setup       |
|     may break the symmetry of the crystal, in particular it may rule        |
|     out finding an antiferromagnetic solution. Thence, we recommend         |
|     setting the initial magnetic moment manually or verifying carefully     |
|     that this magnetic setup is desired.                                    |
|                                                                             |
 -----------------------------------------------------------------------------

 scaLAPACK will be used
 Reading from existing POTCAR
 LDA part: xc-table for Pade appr. of Perdew
 POSCAR found type information on POSCAR B C 
 POSCAR found :  2 types and      15 ions
 POSCAR, INCAR and KPOINTS ok, starting setup
 FFT: planning ... GRIDC
 FFT: planning ... GRID_SOFT
 FFT: planning ... GRID
 WAVECAR not read
 entering main loop
       N       E                     dE             d eps       ncg     rms          rms(c)
DAV:   1     0.203869282885E+03    0.20387E+03   -0.25662E+04 14208   0.859E+02
DAV:   2    -0.116518783275E+03   -0.32039E+03   -0.31873E+03 20496   0.162E+02
DAV:   3    -0.129304991189E+03   -0.12786E+02   -0.12768E+02 26496   0.428E+01
DAV:   4    -0.129328928162E+03   -0.23937E-01   -0.23936E-01 19872   0.180E+00
DAV:   5    -0.129328991254E+03   -0.63091E-04   -0.63091E-04 25440   0.932E-02    0.244E+01
DAV:   6    -0.919847047540E+02    0.37344E+02   -0.72540E+01 25776   0.255E+01    0.138E+01
DAV:   7    -0.100438629070E+03   -0.84539E+01   -0.98864E+00 21552   0.101E+01    0.809E+00
DAV:   8    -0.110415538258E+03   -0.99769E+01   -0.87891E+00 23904   0.896E+00    0.434E+00
DAV:   9    -0.117154484674E+03   -0.67389E+01   -0.38976E+00 19152   0.611E+00    0.277E+00
DAV:  10    -0.123496174779E+03   -0.63417E+01   -0.81599E+00 23808   0.709E+00    0.159E+00
DAV:  11    -0.125276628206E+03   -0.17805E+01   -0.27970E+00 25344   0.382E+00    0.990E-01
DAV:  12    -0.125437360602E+03   -0.16073E+00   -0.22748E-01 19680   0.138E+00    0.464E-01
DAV:  13    -0.125464524895E+03   -0.27164E-01   -0.23069E-02 18048   0.556E-01    0.187E-01
DAV:  14    -0.125486913037E+03   -0.22388E-01   -0.60230E-03 20112   0.284E-01    0.838E-02
DAV:  15    -0.125494379701E+03   -0.74667E-02   -0.31139E-03 19104   0.157E-01    0.437E-02
DAV:  16    -0.125496341112E+03   -0.19614E-02   -0.62904E-04 16608   0.811E-02    0.221E-02
DAV:  17    -0.125497588301E+03   -0.12472E-02   -0.16967E-04 14400   0.519E-02    0.169E-02
DAV:  18    -0.125498315363E+03   -0.72706E-03   -0.84169E-05 16032   0.383E-02    0.122E-02
DAV:  19    -0.125498740392E+03   -0.42503E-03   -0.40592E-05 19632   0.248E-02    0.718E-03
DAV:  20    -0.125498792872E+03   -0.52480E-04   -0.21376E-05 21984   0.178E-02    0.433E-03
DAV:  21    -0.125498813756E+03   -0.20884E-04   -0.57939E-06 20544   0.960E-03    0.216E-03
DAV:  22    -0.125498835309E+03   -0.21553E-04   -0.22251E-06 22080   0.558E-03    0.137E-03
DAV:  23    -0.125498849978E+03   -0.14668E-04   -0.16760E-06 21648   0.401E-03    0.714E-04
DAV:  24    -0.125498852896E+03   -0.29185E-05   -0.32076E-07 23232   0.215E-03    0.374E-04
DAV:  25    -0.125498853839E+03   -0.94300E-06   -0.11544E-07 22176   0.115E-03
   1 F= -.12708920E+03 E0= -.12708842E+03  d E =-.127089E+03  mag=    -0.0000
 curvature:   0.00 expect dE= 0.000E+00 dE for cont linesearch  0.000E+00
 trial: gam= 0.00000 g(F)=  0.298E-01 g(S)=  0.000E+00 ort = 0.000E+00 (trialstep = 0.100E+01)
 search vector abs. value=  0.298E-01
 bond charge predicted
       N       E                     dE             d eps       ncg     rms          rms(c)
DAV:   1    -0.125508714309E+03   -0.98614E-02   -0.32831E+00 14208   0.559E+00    0.492E-01
DAV:   2    -0.125500024024E+03    0.86903E-02   -0.65813E-02 26112   0.726E-01    0.217E-01
DAV:   3    -0.125499046965E+03    0.97706E-03   -0.54566E-03 21120   0.206E-01    0.849E-02
DAV:   4    -0.125499004121E+03    0.42844E-04   -0.62978E-04 26736   0.713E-02    0.225E-02
DAV:   5    -0.125499007299E+03   -0.31775E-05   -0.18351E-05 24480   0.136E-02    0.741E-03
DAV:   6    -0.125499007276E+03    0.22897E-07   -0.38883E-06 23088   0.579E-03
   2 F= -.12708877E+03 E0= -.12708799E+03  d E =0.424982E-03  mag=    -0.0000
 trial-energy change:    0.000425  1 .order    0.000364   -0.029823    0.030551
 step:   0.4925(harm=  0.4940)  dis= 0.00762  next Energy=  -127.096532 (dE=-0.734E-02)
 bond charge predicted
       N       E                     dE             d eps       ncg     rms          rms(c)
DAV:   1    -0.125509019148E+03   -0.10012E-01   -0.84595E-01 14208   0.283E+00    0.250E-01
DAV:   2    -0.125506726359E+03    0.22928E-02   -0.16890E-02 26352   0.367E-01    0.110E-01
DAV:   3    -0.125506482631E+03    0.24373E-03   -0.13763E-03 23616   0.105E-01    0.436E-02
DAV:   4    -0.125506471850E+03    0.10781E-04   -0.15550E-04 22464   0.355E-02    0.111E-02
DAV:   5    -0.125506472610E+03   -0.75996E-06   -0.52189E-06 22752   0.720E-03
   3 F= -.12709653E+03 E0= -.12709575E+03  d E =-.733025E-02  mag=    -0.0000
 curvature:  -0.25 expect dE=-0.187E-02 dE for cont linesearch -0.549E-07
 trial: gam= 0.25111 g(F)=  0.757E-02 g(S)=  0.000E+00 ort = 0.814E-04 (trialstep = 0.898E+00)
 search vector abs. value=  0.949E-02
 bond charge predicted
       N       E                     dE             d eps       ncg     rms          rms(c)
DAV:   1    -0.125512425906E+03   -0.59541E-02   -0.29234E-01 14208   0.192E+00    0.113E-01
DAV:   2    -0.125512474684E+03   -0.48779E-04   -0.19293E-03 27888   0.179E-01    0.660E-02
DAV:   3    -0.125512471323E+03    0.33618E-05   -0.19003E-04 22848   0.496E-02    0.171E-02
DAV:   4    -0.125512472229E+03   -0.90629E-06   -0.30088E-05 26592   0.200E-02    0.650E-03
DAV:   5    -0.125512472675E+03   -0.44662E-06   -0.11592E-06 22368   0.452E-03
   4 F= -.12710242E+03 E0= -.12710163E+03  d E =-.588883E-02  mag=    -0.0000
 trial-energy change:   -0.005889  1 .order   -0.005894   -0.006820   -0.004968
 step:   3.3077(harm=  3.3077)  dis= 0.02019  next Energy=  -127.109080 (dE=-0.126E-01)
 bond charge predicted
       N       E                     dE             d eps       ncg     rms          rms(c)
DAV:   1    -0.125519360094E+03   -0.68879E-02   -0.21129E+00 14208   0.514E+00    0.303E-01
DAV:   2    -0.125519805195E+03   -0.44510E-03   -0.14111E-02 26880   0.483E-01    0.176E-01
DAV:   3    -0.125519773681E+03    0.31514E-04   -0.13931E-03 21648   0.134E-01    0.456E-02
DAV:   4    -0.125519780656E+03   -0.69743E-05   -0.21749E-04 26976   0.537E-02    0.175E-02
DAV:   5    -0.125519783957E+03   -0.33016E-05   -0.79801E-06 23040   0.118E-02    0.759E-03
DAV:   6    -0.125519784112E+03   -0.15512E-06   -0.43074E-06 24528   0.736E-03
   5 F= -.12710940E+03 E0= -.12710862E+03  d E =-.128786E-01  mag=     0.0000
 curvature:  -2.07 expect dE=-0.776E-01 dE for cont linesearch -0.286E-04
 trial: gam= 4.96344 g(F)=  0.375E-01 g(S)=  0.000E+00 ort = 0.362E-03 (trialstep = 0.477E-01)
 search vector abs. value=  0.275E+00
 bond charge predicted
       N       E                     dE             d eps       ncg     rms          rms(c)
DAV:   1    -0.125521583883E+03   -0.17999E-02   -0.26548E-02 14400   0.607E-01    0.354E-02
DAV:   2    -0.125521587660E+03   -0.37771E-05   -0.21864E-04 27168   0.631E-02    0.200E-02
DAV:   3    -0.125521586164E+03    0.14960E-05   -0.21987E-05 21936   0.177E-02    0.596E-03
DAV:   4    -0.125521586614E+03   -0.45001E-06   -0.37017E-06 25344   0.714E-03
   6 F= -.12711118E+03 E0= -.12711040E+03  d E =-.177499E-02  mag=     0.0000
 ZBRENT: can't locate minimum, use default step
 trial-energy change:   -0.001775  1 .order   -0.001774   -0.001873   -0.001675
 step:   0.1906(harm=  0.4505)  dis= 0.00537  next Energy=  -127.118259 (dE=-0.885E-02)
 bond charge predicted
       N       E                     dE             d eps       ncg     rms          rms(c)
DAV:   1    -0.125525804087E+03   -0.42179E-02   -0.23920E-01 14208   0.182E+00    0.106E-01
DAV:   2    -0.125525833985E+03   -0.29898E-04   -0.19077E-03 26640   0.187E-01    0.598E-02
DAV:   3    -0.125525820053E+03    0.13932E-04   -0.19131E-04 19872   0.522E-02    0.176E-02
DAV:   4    -0.125525820913E+03   -0.86002E-06   -0.32080E-05 26496   0.207E-02    0.721E-03
DAV:   5    -0.125525821675E+03   -0.76211E-06   -0.10961E-06 21456   0.440E-03
   7 F= -.12711533E+03 E0= -.12711454E+03  d E =-.592014E-02  mag=     0.0000
 curvature:  -0.92 expect dE=-0.113E-01 dE for cont linesearch -0.174E-02
 ZBRENT: increasing intervall
 opt :   0.4765  next Energy=  -127.118333 (dE=-0.893E-02)
 bond charge predicted
       N       E                     dE             d eps       ncg     rms          rms(c)
DAV:   1    -0.125529047554E+03   -0.32266E-02   -0.96050E-01 14208   0.364E+00    0.212E-01
DAV:   2    -0.125529167070E+03   -0.11952E-03   -0.77425E-03 26496   0.376E-01    0.119E-01
DAV:   3    -0.125529108994E+03    0.58076E-04   -0.77330E-04 22368   0.105E-01    0.352E-02
DAV:   4    -0.125529111999E+03   -0.30047E-05   -0.12468E-04 25536   0.408E-02    0.143E-02
DAV:   5    -0.125529114356E+03   -0.23574E-05   -0.42564E-06 22752   0.875E-03    0.587E-03
DAV:   6    -0.125529113993E+03    0.36323E-06   -0.21080E-06 24912   0.558E-03
   8 F= -.12711840E+03 E0= -.12711764E+03  d E =-.900003E-02  mag=     0.0000
 curvature:  -1.59 expect dE=-0.222E-01 dE for cont linesearch -0.881E-05
 trial: gam= 0.55675 g(F)=  0.140E-01 g(S)=  0.000E+00 ort =-0.124E-02 (trialstep = 0.133E+00)
 search vector abs. value=  0.978E-01
 bond charge predicted
       N       E                     dE             d eps       ncg     rms          rms(c)
DAV:   1    -0.125530864026E+03   -0.17497E-02   -0.71388E-02 14208   0.888E-01    0.510E-02
DAV:   2    -0.125530878999E+03   -0.14973E-04   -0.39630E-04 23376   0.735E-02    0.304E-02
DAV:   3    -0.125530876736E+03    0.22630E-05   -0.47132E-05 21552   0.217E-02    0.497E-03
DAV:   4    -0.125530876895E+03   -0.15907E-06   -0.32089E-06 25200   0.703E-03
   9 F= -.12712006E+03 E0= -.12711929E+03  d E =-.165940E-02  mag=     0.0000
 ZBRENT: can't locate minimum, use default step
 trial-energy change:   -0.001659  1 .order   -0.001662   -0.001777   -0.001547
 step:   0.5337(harm=  1.0302)  dis= 0.00579  next Energy=  -127.125264 (dE=-0.686E-02)
 bond charge predicted
       N       E                     dE             d eps       ncg     rms          rms(c)
DAV:   1    -0.125534717306E+03   -0.38406E-02   -0.64321E-01 14208   0.267E+00    0.152E-01
DAV:   2    -0.125534867089E+03   -0.14978E-03   -0.34745E-03 26256   0.218E-01    0.909E-02
DAV:   3    -0.125534845220E+03    0.21869E-04   -0.41509E-04 20688   0.639E-02    0.141E-02
DAV:   4    -0.125534845921E+03   -0.70065E-06   -0.26052E-05 24192   0.201E-02    0.734E-03
DAV:   5    -0.125534844467E+03    0.14533E-05   -0.34724E-06 22032   0.718E-03    0.263E-03
DAV:   6    -0.125534844018E+03    0.44939E-06   -0.11149E-06 24624   0.388E-03
  10 F= -.12712372E+03 E0= -.12712294E+03  d E =-.531939E-02  mag=    -0.0000
 curvature:  -2.62 expect dE=-0.241E-01 dE for cont linesearch -0.125E-02
 ZBRENT: increasing intervall
 opt :   1.3343  next Energy=  -127.125376 (dE=-0.697E-02)
 bond charge predicted
       N       E                     dE             d eps       ncg     rms          rms(c)
DAV:   1    -0.125536959614E+03   -0.21151E-02   -0.25741E+00 14208   0.532E+00    0.299E-01
DAV:   2    -0.125537584013E+03   -0.62440E-03   -0.13333E-02 26784   0.431E-01    0.180E-01
DAV:   3    -0.125537499727E+03    0.84286E-04   -0.16881E-03 21984   0.128E-01    0.258E-02
DAV:   4    -0.125537499901E+03   -0.17446E-06   -0.96899E-05 23328   0.393E-02    0.144E-02
DAV:   5    -0.125537495371E+03    0.45299E-05   -0.13194E-05 23760   0.140E-02    0.458E-03
DAV:   6    -0.125537494361E+03    0.10105E-05   -0.39408E-06 25008   0.725E-03    0.214E-03
DAV:   7    -0.125537495521E+03   -0.11603E-05   -0.12740E-06 22992   0.376E-03    0.165E-03
DAV:   8    -0.125537498773E+03   -0.32516E-05   -0.20609E-06 19584   0.435E-03    0.848E-04
DAV:   9    -0.125537502172E+03   -0.33992E-05   -0.40133E-07 20496   0.191E-03    0.437E-04
DAV:  10    -0.125537504820E+03   -0.26485E-05   -0.15318E-07 19488   0.103E-03    0.258E-04
DAV:  11    -0.125537506044E+03   -0.12239E-05   -0.37690E-08 22032   0.514E-04    0.171E-04
DAV:  12    -0.125537507126E+03   -0.10815E-05   -0.41601E-08 19248   0.394E-04    0.864E-05
DAV:  13    -0.125537507453E+03   -0.32726E-06   -0.85889E-09 22512   0.193E-04
  11 F= -.12712579E+03 E0= -.12712504E+03  d E =-.738335E-02  mag=     0.0000
 curvature:  -3.47 expect dE=-0.107E+00 dE for cont linesearch -0.715E-04
 trial: gam= 2.26098 g(F)=  0.309E-01 g(S)=  0.000E+00 ort =-0.142E-02 (trialstep = 0.697E-01)
 search vector abs. value=  0.525E+00
 bond charge predicted
       N       E                     dE             d eps       ncg     rms          rms(c)
DAV:   1    -0.125539308373E+03   -0.18012E-02   -0.10961E-01 14208   0.117E+00    0.627E-02
DAV:   2    -0.125539335136E+03   -0.26763E-04   -0.68252E-04 26400   0.105E-01    0.378E-02
DAV:   3    -0.125539330644E+03    0.44918E-05   -0.80534E-05 17472   0.312E-02    0.714E-03
DAV:   4    -0.125539330794E+03   -0.14966E-06   -0.83770E-06 22176   0.113E-02
  12 F= -.12712749E+03 E0= -.12712673E+03  d E =-.170489E-02  mag=     0.0000
 ZBRENT: can't locate minimum, use default step
 trial-energy change:   -0.001705  1 .order   -0.001707   -0.001929   -0.001484
 step:   0.2787(harm=  0.3020)  dis= 0.00632  next Energy=  -127.129969 (dE=-0.418E-02)
 bond charge predicted
       N       E                     dE             d eps       ncg     rms          rms(c)
DAV:   1    -0.125541977914E+03   -0.26473E-02   -0.98693E-01 14208   0.352E+00    0.188E-01
DAV:   2    -0.125542223879E+03   -0.24597E-03   -0.58918E-03 25440   0.309E-01    0.113E-01
DAV:   3    -0.125542176285E+03    0.47593E-04   -0.73499E-04 21840   0.940E-02    0.211E-02
DAV:   4    -0.125542175814E+03    0.47087E-06   -0.72700E-05 22416   0.335E-02    0.107E-02
DAV:   5    -0.125542175517E+03    0.29779E-06   -0.38322E-06 24480   0.833E-03
  13 F= -.12712998E+03 E0= -.12712920E+03  d E =-.419147E-02  mag=    -0.0000
 curvature:  -2.83 expect dE=-0.578E-02 dE for cont linesearch -0.401E-04
 ZBRENT: extrapolating
 opt :   0.3093  next Energy=  -127.130021 (dE=-0.423E-02)
 bond charge predicted
       N       E                     dE             d eps       ncg     rms          rms(c)
DAV:   1    -0.125542264461E+03   -0.88646E-04   -0.21337E-02 14208   0.517E-01    0.274E-02
DAV:   2    -0.125542270950E+03   -0.64891E-05   -0.13880E-04 26928   0.472E-02    0.167E-02
DAV:   3    -0.125542270539E+03    0.41113E-06   -0.17621E-05 22176   0.145E-02    0.322E-03
DAV:   4    -0.125542271120E+03   -0.58107E-06   -0.16924E-06 23328   0.526E-03
  14 F= -.12713002E+03 E0= -.12712924E+03  d E =-.423422E-02  mag=    -0.0000
 curvature:  -2.95 expect dE=-0.612E-02 dE for cont linesearch -0.128E-07
 trial: gam= 0.05282 g(F)=  0.207E-02 g(S)=  0.000E+00 ort = 0.478E-04 (trialstep = 0.118E+00)
 search vector abs. value=  0.354E-02
 bond charge predicted
       N       E                     dE             d eps       ncg     rms          rms(c)
DAV:   1    -0.125542499457E+03   -0.22892E-03   -0.40779E-03 16848   0.268E-01    0.160E-02
DAV:   2    -0.125542496348E+03    0.31094E-05   -0.59652E-05 26736   0.319E-02    0.814E-03
DAV:   3    -0.125542496122E+03    0.22590E-06   -0.59701E-06 20544   0.955E-03
  15 F= -.12713023E+03 E0= -.12712945E+03  d E =-.205193E-03  mag=    -0.0000
 trial-energy change:   -0.000205  1 .order   -0.000203   -0.000244   -0.000162
 step:   0.3473(harm=  0.3473)  dis= 0.00123  next Energy=  -127.130383 (dE=-0.361E-03)
 bond charge predicted
       N       E                     dE             d eps       ncg     rms          rms(c)
DAV:   1    -0.125542714953E+03   -0.21861E-03   -0.15562E-02 15648   0.523E-01    0.319E-02
DAV:   2    -0.125542701734E+03    0.13219E-04   -0.22872E-04 27216   0.626E-02    0.163E-02
DAV:   3    -0.125542698338E+03    0.33961E-05   -0.23421E-05 20784   0.188E-02    0.568E-03
DAV:   4    -0.125542698729E+03   -0.39153E-06   -0.33454E-06 22992   0.693E-03
  16 F= -.12713039E+03 E0= -.12712961E+03  d E =-.368007E-03  mag=     0.0000
 curvature:  -0.30 expect dE=-0.196E-03 dE for cont linesearch -0.492E-07
 trial: gam= 0.31732 g(F)=  0.661E-03 g(S)=  0.000E+00 ort = 0.243E-04 (trialstep = 0.164E+00)
 search vector abs. value=  0.103E-02
 bond charge predicted
       N       E                     dE             d eps       ncg     rms          rms(c)
DAV:   1    -0.125542807617E+03   -0.10928E-03   -0.19900E-03 14400   0.184E-01    0.963E-03
DAV:   2    -0.125542806618E+03    0.99910E-06   -0.20952E-05 28272   0.182E-02    0.510E-03
DAV:   3    -0.125542806564E+03    0.53486E-07   -0.18000E-06 21120   0.508E-03
  17 F= -.12713048E+03 E0= -.12712970E+03  d E =-.944040E-04  mag=    -0.0000
 trial-energy change:   -0.000094  1 .order   -0.000093   -0.000109   -0.000077
 step:   0.5599(harm=  0.5599)  dis= 0.00175  next Energy=  -127.130578 (dE=-0.187E-03)
 bond charge predicted
       N       E                     dE             d eps       ncg     rms          rms(c)
DAV:   1    -0.125542942051E+03   -0.13543E-03   -0.11678E-02 14208   0.444E-01    0.235E-02
DAV:   2    -0.125542935045E+03    0.70059E-05   -0.12100E-04 27408   0.436E-02    0.122E-02
DAV:   3    -0.125542933534E+03    0.15110E-05   -0.10342E-05 20448   0.120E-02    0.441E-03
DAV:   4    -0.125542933859E+03   -0.32510E-06   -0.13900E-06 21888   0.475E-03
  18 F= -.12713058E+03 E0= -.12712980E+03  d E =-.189082E-03  mag=    -0.0000
 curvature:  -0.43 expect dE=-0.138E-03 dE for cont linesearch -0.921E-10
 trial: gam= 0.49760 g(F)=  0.319E-03 g(S)=  0.000E+00 ort = 0.469E-06 (trialstep = 0.243E+00)
 search vector abs. value=  0.575E-03
 bond charge predicted
       N       E                     dE             d eps       ncg     rms          rms(c)
DAV:   1    -0.125543007334E+03   -0.73800E-04   -0.25186E-03 14208   0.198E-01    0.109E-02
DAV:   2    -0.125543005858E+03    0.14758E-05   -0.30956E-05 27696   0.223E-02    0.610E-03
DAV:   3    -0.125543005383E+03    0.47567E-06   -0.32418E-06 20160   0.682E-03
  19 F= -.12713064E+03 E0= -.12712986E+03  d E =-.583525E-04  mag=     0.0000
 trial-energy change:   -0.000058  1 .order   -0.000058   -0.000077   -0.000039
 step:   0.4882(harm=  0.4882)  dis= 0.00130  next Energy=  -127.130657 (dE=-0.779E-04)
 bond charge predicted
       N       E                     dE             d eps       ncg     rms          rms(c)
DAV:   1    -0.125543041050E+03   -0.35192E-04   -0.25757E-03 14304   0.201E-01    0.114E-02
DAV:   2    -0.125543039520E+03    0.15306E-05   -0.31256E-05 25872   0.225E-02    0.636E-03
DAV:   3    -0.125543039033E+03    0.48725E-06   -0.36095E-06 21456   0.725E-03
  20 F= -.12713066E+03 E0= -.12712988E+03  d E =-.786963E-04  mag=    -0.0000
 curvature:  -0.44 expect dE=-0.686E-04 dE for cont linesearch -0.151E-08
 trial: gam= 0.48181 g(F)=  0.156E-03 g(S)=  0.000E+00 ort = 0.140E-05 (trialstep = 0.292E+00)
 search vector abs. value=  0.291E-03
 bond charge predicted
       N       E                     dE             d eps       ncg     rms          rms(c)
DAV:   1    -0.125543093775E+03   -0.54255E-04   -0.20721E-03 15888   0.187E-01    0.980E-03
DAV:   2    -0.125543092716E+03    0.10594E-05   -0.23670E-05 16944   0.204E-02    0.534E-03
DAV:   3    -0.125543092405E+03    0.31053E-06   -0.29578E-06 21792   0.697E-03
  21 F= -.12713069E+03 E0= -.12712991E+03  d E =-.296284E-04  mag=    -0.0000
 trial-energy change:   -0.000030  1 .order   -0.000030   -0.000046   -0.000013
 step:   0.4120(harm=  0.4120)  dis= 0.00070  next Energy=  -127.130691 (dE=-0.323E-04)
 bond charge predicted
       N       E                     dE             d eps       ncg     rms          rms(c)
DAV:   1    -0.125543105413E+03   -0.12698E-04   -0.35325E-04 19392   0.773E-02    0.455E-03
DAV:   2    -0.125543105206E+03    0.20742E-06   -0.38569E-06 14976   0.858E-03
  22 F= -.12713069E+03 E0= -.12712991E+03  d E =-.326172E-04  mag=    -0.0000
 curvature:  -0.38 expect dE=-0.319E-04 dE for cont linesearch -0.267E-07
 trial: gam= 0.52326 g(F)=  0.833E-04 g(S)=  0.000E+00 ort = 0.451E-05 (trialstep = 0.316E+00)
 search vector abs. value=  0.168E-03
 bond charge predicted
       N       E                     dE             d eps       ncg     rms          rms(c)
DAV:   1    -0.125543165264E+03   -0.59851E-04   -0.11285E-03 14208   0.134E-01    0.661E-03
DAV:   2    -0.125543165331E+03   -0.67093E-07   -0.10202E-05 15072   0.135E-02    0.388E-03
DAV:   3    -0.125543165277E+03    0.54606E-07   -0.11600E-06 14688   0.477E-03
  23 F= -.12713071E+03 E0= -.12712993E+03  d E =-.224192E-04  mag=    -0.0000
 trial-energy change:   -0.000022  1 .order   -0.000022   -0.000027   -0.000018
 step:   0.9184(harm=  0.9184)  dis= 0.00089  next Energy=  -127.130730 (dE=-0.394E-04)
 bond charge predicted
       N       E                     dE             d eps       ncg     rms          rms(c)
DAV:   1    -0.125543254945E+03   -0.89614E-04   -0.41189E-03 14208   0.255E-01    0.123E-02
DAV:   2    -0.125543254878E+03    0.67376E-07   -0.35341E-05 20112   0.250E-02    0.715E-03
DAV:   3    -0.125543254501E+03    0.37710E-06   -0.33600E-06 16512   0.758E-03
  24 F= -.12713073E+03 E0= -.12712995E+03  d E =-.398182E-04  mag=     0.0000
 curvature:  -0.90 expect dE=-0.919E-04 dE for cont linesearch -0.140E-08
 trial: gam= 1.25681 g(F)=  0.102E-03 g(S)=  0.000E+00 ort = 0.511E-06 (trialstep = 0.199E+00)
 search vector abs. value=  0.368E-03
 bond charge predicted
       N       E                     dE             d eps       ncg     rms          rms(c)
DAV:   1    -0.125543312207E+03   -0.57329E-04   -0.10629E-03 14592   0.132E-01    0.662E-03
DAV:   2    -0.125543312185E+03    0.21334E-07   -0.11105E-05 18288   0.149E-02    0.396E-03
DAV:   3    -0.125543312162E+03    0.22978E-07   -0.17534E-06 14784   0.638E-03
  25 F= -.12713075E+03 E0= -.12712997E+03  d E =-.164357E-04  mag=     0.0000
 trial-energy change:   -0.000016  1 .order   -0.000016   -0.000020   -0.000012
 step:   0.4641(harm=  0.4641)  dis= 0.00049  next Energy=  -127.130755 (dE=-0.239E-04)
 bond charge predicted
       N       E                     dE             d eps       ncg     rms          rms(c)
DAV:   1    -0.125543375837E+03   -0.63652E-04   -0.19026E-03 14208   0.177E-01    0.880E-03
DAV:   2    -0.125543375777E+03    0.60249E-07   -0.19334E-05 20256   0.194E-02    0.521E-03
DAV:   3    -0.125543375640E+03    0.13760E-06   -0.26434E-06 14544   0.743E-03
  26 F= -.12713076E+03 E0= -.12712997E+03  d E =-.247774E-04  mag=    -0.0000
 curvature:  -0.83 expect dE=-0.534E-04 dE for cont linesearch -0.806E-09
 trial: gam= 0.62363 g(F)=  0.643E-04 g(S)=  0.000E+00 ort = 0.598E-06 (trialstep = 0.252E+00)
 search vector abs. value=  0.208E-03
 bond charge predicted
       N       E                     dE             d eps       ncg     rms          rms(c)
DAV:   1    -0.125543434104E+03   -0.58327E-04   -0.82488E-04 14208   0.116E-01    0.531E-03
DAV:   2    -0.125543434220E+03   -0.11541E-06   -0.74223E-06 18912   0.121E-02
  27 F= -.12713077E+03 E0= -.12712999E+03  d E =-.149673E-04  mag=     0.0000
 ZBRENT: can't locate minimum, use default step
 trial-energy change:   -0.000015  1 .order   -0.000015   -0.000016   -0.000014
 step:   1.0069(harm=  1.8233)  dis= 0.00073  next Energy=  -127.130814 (dE=-0.590E-04)
 bond charge predicted
       N       E                     dE             d eps       ncg     rms          rms(c)
DAV:   1    -0.125543594181E+03   -0.16008E-03   -0.73744E-03 14208   0.346E-01    0.157E-02
DAV:   2    -0.125543595709E+03   -0.15284E-05   -0.60662E-05 14736   0.335E-02    0.987E-03
DAV:   3    -0.125543595874E+03   -0.16409E-06   -0.62505E-06 15360   0.110E-02
  28 F= -.12713080E+03 E0= -.12713002E+03  d E =-.458088E-04  mag=     0.0000
 curvature:  -2.14 expect dE=-0.940E-04 dE for cont linesearch -0.581E-05
 ZBRENT: increasing intervall
 opt :   2.5173  next Energy=  -127.130789 (dE=-0.334E-04)
 bond charge predicted
       N       E                     dE             d eps       ncg     rms          rms(c)
DAV:   1    -0.125543844068E+03   -0.24836E-03   -0.29713E-02 14208   0.694E-01    0.306E-02
DAV:   2    -0.125543851582E+03   -0.75140E-05   -0.24164E-04 24000   0.660E-02    0.193E-02
DAV:   3    -0.125543850301E+03    0.12804E-05   -0.19358E-05 16224   0.178E-02    0.470E-03
DAV:   4    -0.125543850504E+03   -0.20223E-06   -0.59194E-06 15072   0.122E-02
  29 F= -.12713079E+03 E0= -.12713001E+03  d E =-.389523E-04  mag=    -0.0000
 curvature:   4.59 expect dE= 0.108E-02 dE for cont linesearch  0.263E-04
 ZBRENT: bracketing found
 ZBRENT: interpolating
 opt :   1.6222  next Energy=  -127.130809 (dE=-0.531E-04)
 bond charge predicted
       N       E                     dE             d eps       ncg     rms          rms(c)
DAV:   1    -0.125543707894E+03    0.14241E-03   -0.10405E-02 14208   0.411E-01    0.177E-02
DAV:   2    -0.125543710201E+03   -0.23067E-05   -0.86836E-05 15072   0.399E-02    0.110E-02
DAV:   3    -0.125543710206E+03   -0.52978E-08   -0.80973E-06 15408   0.123E-02
  30 F= -.12713081E+03 E0= -.12713003E+03  d E =-.535945E-04  mag=    -0.0000
 curvature:  -1.27 expect dE=-0.113E-03 dE for cont linesearch -0.481E-07
 trial: gam= 1.37017 g(F)=  0.888E-04 g(S)=  0.000E+00 ort = 0.280E-05 (trialstep = 0.225E+00)
 search vector abs. value=  0.488E-03
 bond charge predicted
       N       E                     dE             d eps       ncg     rms          rms(c)
DAV:   1    -0.125543789375E+03   -0.79174E-04   -0.16073E-03 14208   0.165E-01    0.731E-03
DAV:   2    -0.125543789501E+03   -0.12613E-06   -0.19026E-05 15120   0.200E-02    0.457E-03
DAV:   3    -0.125543789862E+03   -0.36117E-06   -0.31522E-06 17088   0.928E-03
  31 F= -.12713082E+03 E0= -.12713004E+03  d E =-.158280E-04  mag=     0.0000
 trial-energy change:   -0.000016  1 .order   -0.000016   -0.000021   -0.000010
 step:   0.4486(harm=  0.4486)  dis= 0.00046  next Energy=  -127.130830 (dE=-0.208E-04)
 bond charge predicted
       N       E                     dE             d eps       ncg     rms          rms(c)
DAV:   1    -0.125543858163E+03   -0.68662E-04   -0.15985E-03 14688   0.165E-01    0.787E-03
DAV:   2    -0.125543858444E+03   -0.28108E-06   -0.17365E-05 14592   0.189E-02    0.499E-03
DAV:   3    -0.125543858837E+03   -0.39316E-06   -0.28515E-06 16224   0.878E-03
  32 F= -.12713083E+03 E0= -.12713005E+03  d E =-.211803E-04  mag=     0.0000
 curvature:  -1.18 expect dE=-0.119E-03 dE for cont linesearch -0.119E-07
 trial: gam= 1.11901 g(F)=  0.101E-03 g(S)=  0.000E+00 ort = 0.222E-05 (trialstep = 0.183E+00)
 search vector abs. value=  0.716E-03
 bond charge predicted
       N       E                     dE             d eps       ncg     rms          rms(c)
DAV:   1    -0.125543942140E+03   -0.83697E-04   -0.14600E-03 14208   0.156E-01    0.685E-03
DAV:   2    -0.125543942738E+03   -0.59770E-06   -0.16200E-05 15840   0.178E-02    0.452E-03
DAV:   3    -0.125543943181E+03   -0.44299E-06   -0.21438E-06 15408   0.750E-03
  33 F= -.12713085E+03 E0= -.12713007E+03  d E =-.181896E-04  mag=     0.0000
 ZBRENT: can't locate minimum, use default step
 trial-energy change:   -0.000018  1 .order   -0.000018   -0.000019   -0.000017
 step:   0.7338(harm=  2.0723)  dis= 0.00080  next Energy=  -127.130937 (dE=-0.107E-03)
 bond charge predicted
       N       E                     dE             d eps       ncg     rms          rms(c)
DAV:   1    -0.125544180136E+03   -0.23740E-03   -0.13115E-02 14208   0.466E-01    0.201E-02
DAV:   2    -0.125544186230E+03   -0.60936E-05   -0.13070E-04 16896   0.486E-02    0.131E-02
DAV:   3    -0.125544186591E+03   -0.36084E-06   -0.94615E-06 14640   0.136E-02
  34 F= -.12713089E+03 E0= -.12713011E+03  d E =-.632287E-04  mag=    -0.0000
 curvature:  -3.58 expect dE=-0.303E-03 dE for cont linesearch -0.206E-04
 ZBRENT: increasing intervall
 opt :   1.8345  next Energy=  -127.130931 (dE=-0.101E-03)
 bond charge predicted
       N       E                     dE             d eps       ncg     rms          rms(c)
DAV:   1    -0.125544602866E+03   -0.41664E-03   -0.52505E-02 14208   0.931E-01    0.405E-02
DAV:   2    -0.125544628401E+03   -0.25535E-04   -0.51447E-04 19344   0.961E-02    0.264E-02
DAV:   3    -0.125544627746E+03    0.65471E-06   -0.33605E-05 15312   0.240E-02    0.678E-03
DAV:   4    -0.125544628459E+03   -0.71231E-06   -0.90971E-06 14304   0.150E-02
  35 F= -.12713094E+03 E0= -.12713016E+03  d E =-.108569E-03  mag=     0.0000
 curvature:  -6.57 expect dE=-0.193E-02 dE for cont linesearch -0.132E-05
 trial: gam= 2.87909 g(F)=  0.293E-03 g(S)=  0.000E+00 ort = 0.120E-04 (trialstep = 0.584E-01)
 search vector abs. value=  0.630E-02
 bond charge predicted
       N       E                     dE             d eps       ncg     rms          rms(c)
DAV:   1    -0.125544708392E+03   -0.80646E-04   -0.13338E-03 14208   0.149E-01    0.675E-03
DAV:   2    -0.125544708706E+03   -0.31367E-06   -0.16924E-05 17520   0.191E-02    0.447E-03
DAV:   3    -0.125544709715E+03   -0.10091E-05   -0.34380E-06 15744   0.970E-03    0.175E-03
DAV:   4    -0.125544708955E+03    0.75978E-06   -0.29202E-06 14736   0.860E-03
  36 F= -.12713096E+03 E0= -.12713017E+03  d E =-.175012E-04  mag=     0.0000
 ZBRENT: can't locate minimum, use default step
 trial-energy change:   -0.000018  1 .order   -0.000018   -0.000019   -0.000017
 step:   0.2336(harm=  0.6212)  dis= 0.00068  next Energy=  -127.131041 (dE=-0.102E-03)
 bond charge predicted
       N       E                     dE             d eps       ncg     rms          rms(c)
DAV:   1    -0.125544935005E+03   -0.22529E-03   -0.11893E-02 14208   0.444E-01    0.193E-02
DAV:   2    -0.125544940831E+03   -0.58253E-05   -0.12463E-04 21600   0.471E-02    0.126E-02
DAV:   3    -0.125544940552E+03    0.27887E-06   -0.80144E-06 25008   0.107E-02
  37 F= -.12713100E+03 E0= -.12713022E+03  d E =-.600907E-04  mag=    -0.0000
 curvature:  -3.14 expect dE=-0.335E-03 dE for cont linesearch -0.187E-04
 ZBRENT: increasing intervall
 opt :   0.5841  next Energy=  -127.131031 (dE=-0.919E-04)
 bond charge predicted
       N       E                     dE             d eps       ncg     rms          rms(c)
DAV:   1    -0.125545334831E+03   -0.39400E-03   -0.47609E-02 14208   0.889E-01    0.393E-02
DAV:   2    -0.125545356079E+03   -0.21248E-04   -0.46561E-04 23040   0.909E-02    0.255E-02
DAV:   3    -0.125545354165E+03    0.19140E-05   -0.30864E-05 26016   0.205E-02    0.664E-03
DAV:   4    -0.125545354509E+03   -0.34399E-06   -0.45030E-06 15792   0.829E-03
  38 F= -.12713103E+03 E0= -.12713025E+03  d E =-.959166E-04  mag=    -0.0000
 curvature:  -5.34 expect dE=-0.112E-02 dE for cont linesearch -0.108E-07
 trial: gam= 0.92390 g(F)=  0.209E-03 g(S)=  0.000E+00 ort = 0.357E-05 (trialstep = 0.164E+00)
 search vector abs. value=  0.559E-02
 bond charge predicted
       N       E                     dE             d eps       ncg     rms          rms(c)
DAV:   1    -0.125545550376E+03   -0.19621E-03   -0.90784E-03 14208   0.388E-01    0.167E-02
DAV:   2    -0.125545554767E+03   -0.43914E-05   -0.85643E-05 19920   0.393E-02    0.109E-02
DAV:   3    -0.125545554797E+03   -0.30340E-07   -0.50867E-06 19968   0.877E-03
  39 F= -.12713107E+03 E0= -.12713028E+03  d E =-.321408E-04  mag=    -0.0000
 ZBRENT: can't locate minimum, use default step
 trial-energy change:   -0.000032  1 .order   -0.000031   -0.000035   -0.000028
 step:   0.6541(harm=  0.8557)  dis= 0.00179  next Energy=  -127.131126 (dE=-0.910E-04)
 bond charge predicted
       N       E                     dE             d eps       ncg     rms          rms(c)
DAV:   1    -0.125546084360E+03   -0.52959E-03   -0.81625E-02 14208   0.116E+00    0.502E-02
DAV:   2    -0.125546122250E+03   -0.37890E-04   -0.75237E-04 22560   0.116E-01    0.327E-02
DAV:   3    -0.125546118427E+03    0.38223E-05   -0.44167E-05 25728   0.242E-02    0.758E-03
DAV:   4    -0.125546119047E+03   -0.61961E-06   -0.57406E-06 14976   0.970E-03
  40 F= -.12713113E+03 E0= -.12713035E+03  d E =-.925278E-04  mag=    -0.0000
 curvature: -10.30 expect dE=-0.136E-02 dE for cont linesearch -0.874E-05
 ZBRENT: increasing intervall
 opt :   1.6353  next Energy=  -127.131094 (dE=-0.589E-04)
 bond charge predicted
       N       E                     dE             d eps       ncg     rms          rms(c)
DAV:   1    -0.125546954860E+03   -0.83643E-03   -0.32650E-01 14208   0.233E+00    0.998E-02
DAV:   2    -0.125547105825E+03   -0.15097E-03   -0.29967E-03 22080   0.231E-01    0.649E-02
DAV:   3    -0.125547087224E+03    0.18602E-04   -0.17749E-04 26640   0.484E-02    0.152E-02
DAV:   4    -0.125547088942E+03   -0.17188E-05   -0.21670E-05 17088   0.184E-02    0.520E-03
DAV:   5    -0.125547089400E+03   -0.45760E-06   -0.32789E-06 18912   0.804E-03
  41 F= -.12713109E+03 E0= -.12713031E+03  d E =-.576082E-04  mag=     0.0000
 curvature:  39.61 expect dE= 0.222E-01 dE for cont linesearch  0.136E-03
 ZBRENT: bracketing found
 ZBRENT: interpolating
 opt :   0.9798  next Energy=  -127.131138 (dE=-0.104E-03)
 bond charge predicted
       N       E                     dE             d eps       ncg     rms          rms(c)
DAV:   1    -0.125546405168E+03    0.68377E-03   -0.14555E-01 14208   0.155E+00    0.665E-02
DAV:   2    -0.125546472040E+03   -0.66872E-04   -0.13517E-03 24672   0.156E-01    0.434E-02
DAV:   3    -0.125546464635E+03    0.74048E-05   -0.79816E-05 22272   0.330E-02    0.101E-02
DAV:   4    -0.125546465667E+03   -0.10318E-05   -0.12381E-05 14208   0.157E-02    0.353E-03
DAV:   5    -0.125546465863E+03   -0.19638E-06   -0.35942E-06 14976   0.946E-03
  42 F= -.12713114E+03 E0= -.12713036E+03  d E =-.105343E-03  mag=     0.0000
 curvature:  -3.26 expect dE=-0.649E-03 dE for cont linesearch -0.225E-12
 trial: gam= 0.75873 g(F)=  0.199E-03 g(S)=  0.000E+00 ort = 0.196E-07 (trialstep = 0.327E+00)
 search vector abs. value=  0.342E-02
 bond charge predicted
       N       E                     dE             d eps       ncg     rms          rms(c)
DAV:   1    -0.125546755071E+03   -0.28940E-03   -0.22177E-02 14208   0.611E-01    0.266E-02
DAV:   2    -0.125546764833E+03   -0.97613E-05   -0.22290E-04 19920   0.640E-02    0.173E-02
DAV:   3    -0.125546763972E+03    0.86066E-06   -0.14989E-05 16128   0.161E-02    0.446E-03
DAV:   4    -0.125546764224E+03   -0.25234E-06   -0.35544E-06 18432   0.930E-03
  43 F= -.12713118E+03 E0= -.12713040E+03  d E =-.395361E-04  mag=     0.0000
 trial-energy change:   -0.000040  1 .order   -0.000039   -0.000065   -0.000014
 step:   0.4140(harm=  0.4140)  dis= 0.00098  next Energy=  -127.131181 (dE=-0.412E-04)
 bond charge predicted
       N       E                     dE             d eps       ncg     rms          rms(c)
DAV:   1    -0.125546834231E+03   -0.70259E-04   -0.15872E-03 14208   0.164E-01    0.737E-03
DAV:   2    -0.125546834995E+03   -0.76394E-06   -0.17533E-05 14832   0.186E-02    0.485E-03
DAV:   3    -0.125546835264E+03   -0.26915E-06   -0.20016E-06 14976   0.732E-03
  44 F= -.12713118E+03 E0= -.12713040E+03  d E =-.414901E-04  mag=     0.0000
 curvature:  -3.55 expect dE=-0.418E-03 dE for cont linesearch -0.137E-08
 trial: gam= 0.58461 g(F)=  0.118E-03 g(S)=  0.000E+00 ort =-0.115E-05 (trialstep = 0.344E+00)
 search vector abs. value=  0.128E-02
 bond charge predicted
       N       E                     dE             d eps       ncg     rms          rms(c)
DAV:   1    -0.125547024846E+03   -0.18985E-03   -0.91784E-03 14208   0.395E-01    0.173E-02
DAV:   2    -0.125547028759E+03   -0.39125E-05   -0.90046E-05 16128   0.406E-02    0.113E-02
DAV:   3    -0.125547028748E+03    0.10903E-07   -0.64131E-06 14784   0.116E-02
  45 F= -.12713121E+03 E0= -.12713043E+03  d E =-.301352E-04  mag=    -0.0000
 trial-energy change:   -0.000030  1 .order   -0.000030   -0.000040   -0.000019
 step:   0.6524(harm=  0.6524)  dis= 0.00117  next Energy=  -127.131220 (dE=-0.381E-04)
 bond charge predicted
       N       E                     dE             d eps       ncg     rms          rms(c)
DAV:   1    -0.125547181180E+03   -0.15242E-03   -0.73651E-03 14208   0.354E-01    0.158E-02
DAV:   2    -0.125547184328E+03   -0.31482E-05   -0.72732E-05 15216   0.370E-02    0.103E-02
DAV:   3    -0.125547184804E+03   -0.47567E-06   -0.61884E-06 15072   0.121E-02
  46 F= -.12713122E+03 E0= -.12713044E+03  d E =-.401013E-04  mag=     0.0000
 curvature:  -3.59 expect dE=-0.284E-03 dE for cont linesearch -0.689E-08
 trial: gam= 0.64726 g(F)=  0.793E-04 g(S)=  0.000E+00 ort = 0.157E-05 (trialstep = 0.406E+00)
 search vector abs. value=  0.619E-03
 bond charge predicted
       N       E                     dE             d eps       ncg     rms          rms(c)
DAV:   1    -0.125547329252E+03   -0.14492E-03   -0.71341E-03 14208   0.356E-01    0.154E-02
DAV:   2    -0.125547331369E+03   -0.21165E-05   -0.68719E-05 17088   0.369E-02    0.998E-03
DAV:   3    -0.125547331965E+03   -0.59636E-06   -0.77377E-06 15024   0.138E-02
  47 F= -.12713124E+03 E0= -.12713046E+03  d E =-.193705E-04  mag=    -0.0000
 trial-energy change:   -0.000019  1 .order   -0.000018   -0.000033   -0.000004
 step:   0.4579(harm=  0.4579)  dis= 0.00065  next Energy=  -127.131240 (dE=-0.184E-04)
 bond charge predicted
       N       E                     dE             d eps       ncg     rms          rms(c)
DAV:   1    -0.125547348328E+03   -0.16959E-04   -0.12281E-04 14208   0.482E-02    0.261E-03
DAV:   2    -0.125547347769E+03    0.55872E-06   -0.38032E-06 16128   0.104E-02
  48 F= -.12713124E+03 E0= -.12713046E+03  d E =-.187880E-04  mag=    -0.0000
 curvature:  -1.77 expect dE=-0.683E-04 dE for cont linesearch -0.174E-07
 trial: gam= 0.50161 g(F)=  0.387E-04 g(S)=  0.000E+00 ort = 0.247E-05 (trialstep = 0.416E+00)
 search vector abs. value=  0.197E-03
 bond charge predicted
       N       E                     dE             d eps       ncg     rms          rms(c)
DAV:   1    -0.125547425847E+03   -0.77519E-04   -0.27920E-03 14304   0.223E-01    0.104E-02
DAV:   2    -0.125547425955E+03   -0.10805E-06   -0.28271E-05 19344   0.238E-02    0.654E-03
DAV:   3    -0.125547426230E+03   -0.27533E-06   -0.39459E-06 16608   0.956E-03
  49 F= -.12713125E+03 E0= -.12713047E+03  d E =-.997476E-05  mag=     0.0000
 trial-energy change:   -0.000010  1 .order   -0.000009   -0.000017   -0.000002
 step:   0.4821(harm=  0.4821)  dis= 0.00044  next Energy=  -127.131250 (dE=-0.962E-05)
 bond charge predicted
       N       E                     dE             d eps       ncg     rms          rms(c)
DAV:   1    -0.125547437183E+03   -0.11229E-04   -0.72877E-05 14208   0.370E-02    0.203E-03
DAV:   2    -0.125547436900E+03    0.28323E-06   -0.20933E-06 14544   0.768E-03
  50 F= -.12713125E+03 E0= -.12713047E+03  d E =-.981348E-05  mag=     0.0000
 curvature:  -1.19 expect dE=-0.239E-04 dE for cont linesearch -0.101E-07
 trial: gam= 0.51544 g(F)=  0.201E-04 g(S)=  0.000E+00 ort = 0.129E-05 (trialstep = 0.429E+00)
 search vector abs. value=  0.738E-04
 bond charge predicted
       N       E                     dE             d eps       ncg     rms          rms(c)
DAV:   1    -0.125547480545E+03   -0.43362E-04   -0.10750E-03 14976   0.139E-01    0.617E-03
DAV:   2    -0.125547480620E+03   -0.74698E-07   -0.10318E-05 14592   0.147E-02    0.402E-03
DAV:   3    -0.125547480934E+03   -0.31414E-06   -0.17481E-06 17136   0.673E-03
  51 F= -.12713126E+03 E0= -.12713048E+03  d E =-.765173E-05  mag=    -0.0000
 trial-energy change:   -0.000008  1 .order   -0.000007   -0.000009   -0.000006
 step:   1.1674(harm=  1.1674)  dis= 0.00069  next Energy=  -127.131262 (dE=-0.121E-04)
 bond charge predicted
       N       E                     dE             d eps       ncg     rms          rms(c)
DAV:   1    -0.125547547844E+03   -0.67225E-04   -0.31761E-03 14208   0.239E-01    0.100E-02
DAV:   2    -0.125547548599E+03   -0.75463E-06   -0.29517E-05 14976   0.240E-02    0.658E-03
DAV:   3    -0.125547548759E+03   -0.16035E-06   -0.31771E-06 16896   0.857E-03
  52 F= -.12713126E+03 E0= -.12713048E+03  d E =-.129928E-04  mag=     0.0000
 curvature:  -2.07 expect dE=-0.674E-04 dE for cont linesearch -0.581E-09
 trial: gam= 1.62593 g(F)=  0.325E-04 g(S)=  0.000E+00 ort = 0.144E-06 (trialstep = 0.187E+00)
 search vector abs. value=  0.228E-03
 bond charge predicted
       N       E                     dE             d eps       ncg     rms          rms(c)
DAV:   1    -0.125547578659E+03   -0.30060E-04   -0.63979E-04 14256   0.108E-01    0.478E-03
DAV:   2    -0.125547578693E+03   -0.33528E-07   -0.69216E-06 14304   0.127E-02
  53 F= -.12713127E+03 E0= -.12713049E+03  d E =-.487001E-05  mag=    -0.0000
 trial-energy change:   -0.000005  1 .order   -0.000005   -0.000006   -0.000004
 step:   0.4692(harm=  0.4692)  dis= 0.00045  next Energy=  -127.131271 (dE=-0.769E-05)
 bond charge predicted
       N       E                     dE             d eps       ncg     rms          rms(c)
DAV:   1    -0.125547619935E+03   -0.41276E-04   -0.14582E-03 18528   0.163E-01    0.785E-03
DAV:   2    -0.125547619797E+03    0.13803E-06   -0.11563E-05 14448   0.160E-02    0.496E-03
DAV:   3    -0.125547620322E+03   -0.52519E-06   -0.30473E-06 19104   0.902E-03
  54 F= -.12713127E+03 E0= -.12713049E+03  d E =-.854674E-05  mag=    -0.0000
 curvature:  -1.63 expect dE=-0.251E-04 dE for cont linesearch -0.617E-11
 trial: gam= 0.48423 g(F)=  0.154E-04 g(S)=  0.000E+00 ort = 0.293E-07 (trialstep = 0.243E+00)
 search vector abs. value=  0.689E-04
 bond charge predicted
       N       E                     dE             d eps       ncg     rms          rms(c)
DAV:   1    -0.125547639461E+03   -0.19664E-04   -0.34770E-04 14256   0.803E-02    0.346E-03
DAV:   2    -0.125547639448E+03    0.13257E-07   -0.36560E-06 17808   0.958E-03
  55 F= -.12713127E+03 E0= -.12713049E+03  d E =-.307339E-05  mag=     0.0000
 ZBRENT: can't locate minimum, use default step
 trial-energy change:   -0.000003  1 .order   -0.000004   -0.000004   -0.000003
 step:   0.9727(harm=  2.8887)  dis= 0.00062  next Energy=  -127.131294 (dE=-0.222E-04)
 bond charge predicted
       N       E                     dE             d eps       ncg     rms          rms(c)
DAV:   1    -0.125547696324E+03   -0.56862E-04   -0.31000E-03 15840   0.238E-01    0.104E-02
DAV:   2    -0.125547696687E+03   -0.36363E-06   -0.22467E-05 14448   0.212E-02    0.684E-03
DAV:   3    -0.125547696918E+03   -0.23109E-06   -0.37130E-06 17136   0.955E-03
  56 F= -.12713128E+03 E0= -.12713050E+03  d E =-.123870E-04  mag=    -0.0000
 curvature:  -3.08 expect dE=-0.604E-04 dE for cont linesearch -0.386E-05
 ZBRENT: increasing intervall
 opt :   2.4319  next Energy=  -127.131291 (dE=-0.190E-04)
 bond charge predicted
       N       E                     dE             d eps       ncg     rms          rms(c)
DAV:   1    -0.125547797902E+03   -0.10122E-03   -0.12433E-02 14208   0.476E-01    0.193E-02
DAV:   2    -0.125547801777E+03   -0.38743E-05   -0.99893E-05 17952   0.430E-02    0.132E-02
DAV:   3    -0.125547801001E+03    0.77574E-06   -0.82928E-06 15696   0.128E-02
  57 F= -.12713129E+03 E0= -.12713051E+03  d E =-.201710E-04  mag=    -0.0000
 curvature:  -5.24 expect dE=-0.456E-03 dE for cont linesearch -0.121E-07
 trial: gam= 5.61988 g(F)=  0.870E-04 g(S)=  0.000E+00 ort = 0.398E-06 (trialstep = 0.207E-01)
 search vector abs. value=  0.227E-02
 bond charge predicted
       N       E                     dE             d eps       ncg     rms          rms(c)
DAV:   1    -0.125547810284E+03   -0.85070E-05   -0.83928E-05 14208   0.404E-02    0.238E-03
DAV:   2    -0.125547810123E+03    0.16016E-06   -0.20950E-06 14208   0.777E-03
  58 F= -.12713129E+03 E0= -.12713051E+03  d E =-.160906E-05  mag=     0.0000
 ZBRENT: can't locate minimum, use default step
 trial-energy change:   -0.000002  1 .order   -0.000002   -0.000002   -0.000002
 step:   0.0828(harm=  4.9978)  dis= 0.00027  next Energy=  -127.131515 (dE=-0.223E-03)
 bond charge predicted
       N       E                     dE             d eps       ncg     rms          rms(c)
DAV:   1    -0.125547837714E+03   -0.27431E-04   -0.73131E-04 14208   0.116E-01    0.526E-03
DAV:   2    -0.125547837865E+03   -0.15128E-06   -0.63503E-06 14352   0.119E-02
  59 F= -.12713130E+03 E0= -.12713052E+03  d E =-.680869E-05  mag=     0.0000
 curvature:  -1.57 expect dE=-0.103E-03 dE for cont linesearch -0.423E-05
 ZBRENT: increasing intervall
 opt :   0.2069  next Energy=  -127.131307 (dE=-0.152E-04)
 bond charge predicted
       N       E                     dE             d eps       ncg     rms          rms(c)
DAV:   1    -0.125547891973E+03   -0.54259E-04   -0.29103E-03 15600   0.231E-01    0.101E-02
DAV:   2    -0.125547892459E+03   -0.48575E-06   -0.20734E-05 14208   0.207E-02    0.672E-03
DAV:   3    -0.125547892872E+03   -0.41345E-06   -0.37764E-06 16560   0.997E-03
  60 F= -.12713131E+03 E0= -.12713053E+03  d E =-.167317E-04  mag=     0.0000
 curvature:  -3.11 expect dE=-0.151E-03 dE for cont linesearch -0.556E-05
 ZBRENT: increasing intervall
 opt :   0.4552  next Energy=  -127.131321 (dE=-0.290E-04)
 bond charge predicted
       N       E                     dE             d eps       ncg     rms          rms(c)
DAV:   1    -0.125547991860E+03   -0.99401E-04   -0.11691E-02 14208   0.462E-01    0.184E-02
DAV:   2    -0.125547996084E+03   -0.42235E-05   -0.91978E-05 19536   0.413E-02    0.128E-02
DAV:   3    -0.125547995415E+03    0.66859E-06   -0.70875E-06 15696   0.121E-02
  61 F= -.12713132E+03 E0= -.12713054E+03  d E =-.290735E-04  mag=    -0.0000
 curvature:  -6.84 expect dE=-0.412E-03 dE for cont linesearch -0.299E-05
 ZBRENT: increasing intervall
 opt :   0.9517  next Energy=  -127.131321 (dE=-0.287E-04)
 bond charge predicted
       N       E                     dE             d eps       ncg     rms          rms(c)
DAV:   1    -0.125548165403E+03   -0.16932E-03   -0.46747E-02 14208   0.924E-01    0.372E-02
DAV:   2    -0.125548181492E+03   -0.16089E-04   -0.35388E-04 16512   0.806E-02    0.255E-02
DAV:   3    -0.125548177692E+03    0.37994E-05   -0.25824E-05 15408   0.217E-02    0.631E-03
DAV:   4    -0.125548177595E+03    0.97633E-07   -0.60927E-06 14208   0.122E-02
  62 F= -.12713132E+03 E0= -.12713054E+03  d E =-.309089E-04  mag=    -0.0000
 curvature:   0.86 expect dE= 0.223E-03 dE for cont linesearch  0.399E-06
 ZBRENT: bracketing found
 ZBRENT: interpolating
 opt :   0.6996  next Energy=  -127.131325 (dE=-0.329E-04)
 bond charge predicted
       N       E                     dE             d eps       ncg     rms          rms(c)
DAV:   1    -0.125548086335E+03    0.91357E-04   -0.12025E-02 14208   0.469E-01    0.184E-02
DAV:   2    -0.125548089845E+03   -0.35094E-05   -0.93786E-05 17184   0.420E-02    0.127E-02
DAV:   3    -0.125548089037E+03    0.80799E-06   -0.80224E-06 20496   0.131E-02
  63 F= -.12713133E+03 E0= -.12713054E+03  d E =-.338824E-04  mag=     0.0000
 curvature:  -8.28 expect dE=-0.104E-02 dE for cont linesearch -0.174E-06
 trial: gam= 1.55973 g(F)=  0.125E-03 g(S)=  0.000E+00 ort = 0.691E-05 (trialstep = 0.627E-01)
 search vector abs. value=  0.566E-02
 bond charge predicted
       N       E                     dE             d eps       ncg     rms          rms(c)
DAV:   1    -0.125548132421E+03   -0.42576E-04   -0.18350E-03 14448   0.183E-01    0.681E-03
DAV:   2    -0.125548132719E+03   -0.29749E-06   -0.15818E-05 19920   0.187E-02    0.473E-03
DAV:   3    -0.125548132972E+03   -0.25387E-06   -0.27892E-06 14736   0.860E-03
  64 F= -.12713133E+03 E0= -.12713055E+03  d E =-.828295E-05  mag=    -0.0000
 ZBRENT: can't locate minimum, use default step
 trial-energy change:   -0.000008  1 .order   -0.000008   -0.000009   -0.000008
 step:   0.2506(harm=  1.1110)  dis= 0.00119  next Energy=  -127.131401 (dE=-0.756E-04)
 bond charge predicted
       N       E                     dE             d eps       ncg     rms          rms(c)
DAV:   1    -0.125548257785E+03   -0.12507E-03   -0.16421E-02 14208   0.548E-01    0.215E-02
DAV:   2    -0.125548263982E+03   -0.61967E-05   -0.12413E-04 18096   0.476E-02    0.151E-02
DAV:   3    -0.125548263081E+03    0.90124E-06   -0.86128E-06 15840   0.134E-02
  65 F= -.12713136E+03 E0= -.12713057E+03  d E =-.314482E-04  mag=     0.0000
 curvature:  -7.55 expect dE=-0.841E-03 dE for cont linesearch -0.168E-04
 ZBRENT: increasing intervall
 opt :   0.6265  next Energy=  -127.131393 (dE=-0.675E-04)
 bond charge predicted
       N       E                     dE             d eps       ncg     rms          rms(c)
DAV:   1    -0.125548497692E+03   -0.23371E-03   -0.65730E-02 14208   0.110E+00    0.432E-02
DAV:   2    -0.125548522568E+03   -0.24875E-04   -0.48355E-04 16416   0.936E-02    0.301E-02
DAV:   3    -0.125548517717E+03    0.48510E-05   -0.31048E-05 15504   0.239E-02    0.736E-03
DAV:   4    -0.125548517641E+03    0.75935E-07   -0.69873E-06 14208   0.132E-02
  66 F= -.12713140E+03 E0= -.12713062E+03  d E =-.722229E-04  mag=     0.0000
 curvature: -16.23 expect dE=-0.200E-02 dE for cont linesearch -0.225E-04
 ZBRENT: increasing intervall
 opt :   1.3784  next Energy=  -127.131447 (dE=-0.121E-03)
 bond charge predicted
       N       E                     dE             d eps       ncg     rms          rms(c)
DAV:   1    -0.125548929359E+03   -0.41164E-03   -0.26319E-01 14208   0.219E+00    0.863E-02
DAV:   2    -0.125549027629E+03   -0.98270E-04   -0.19218E-03 19344   0.185E-01    0.602E-02
DAV:   3    -0.125549002521E+03    0.25108E-04   -0.11606E-04 15504   0.428E-02    0.135E-02
DAV:   4    -0.125549002660E+03   -0.13861E-06   -0.18005E-05 14208   0.192E-02    0.448E-03
DAV:   5    -0.125549002576E+03    0.83871E-07   -0.51420E-06 14208   0.112E-02
  67 F= -.12713146E+03 E0= -.12713067E+03  d E =-.129913E-03  mag=     0.0000
 curvature: -35.28 expect dE=-0.977E-02 dE for cont linesearch -0.189E-04
 ZBRENT: increasing intervall
 opt :   2.8821  next Energy=  -127.131488 (dE=-0.162E-03)
 bond charge predicted
       N       E                     dE             d eps       ncg     rms          rms(c)
DAV:   1    -0.125549597886E+03   -0.59523E-03   -0.10522E+00 14208   0.438E+00    0.172E-01
DAV:   2    -0.125549982021E+03   -0.38414E-03   -0.75978E-03 18192   0.367E-01    0.120E-01
DAV:   3    -0.125549875028E+03    0.10699E-03   -0.46477E-04 21408   0.829E-02    0.273E-02
DAV:   4    -0.125549875592E+03   -0.56374E-06   -0.51526E-05 14976   0.288E-02    0.861E-03
DAV:   5    -0.125549875561E+03    0.30793E-07   -0.72182E-06 14736   0.121E-02
  68 F= -.12713148E+03 E0= -.12713070E+03  d E =-.149204E-03  mag=     0.0000
 curvature: -60.64 expect dE=-0.672E-01 dE for cont linesearch -0.937E-05
 ZBRENT: bracketing found
 ZBRENT: interpolating
 opt :   2.3569  next Energy=  -127.131483 (dE=-0.157E-03)
 bond charge predicted
       N       E                     dE             d eps       ncg     rms          rms(c)
DAV:   1    -0.125549551804E+03    0.32379E-03   -0.12828E-01 14208   0.153E+00    0.600E-02
DAV:   2    -0.125549598507E+03   -0.46704E-04   -0.95242E-04 22320   0.130E-01    0.420E-02
DAV:   3    -0.125549586523E+03    0.11985E-04   -0.58863E-05 21888   0.310E-02    0.944E-03
DAV:   4    -0.125549586186E+03    0.33689E-06   -0.12766E-05 14928   0.175E-02    0.329E-03
DAV:   5    -0.125549585434E+03    0.75226E-06   -0.46774E-06 15696   0.107E-02
  69 F= -.12713148E+03 E0= -.12713070E+03  d E =-.157068E-03  mag=    -0.0000
 curvature: -50.25 expect dE=-0.371E-01 dE for cont linesearch -0.719E-08
 trial: gam= 5.86284 g(F)=  0.739E-03 g(S)=  0.000E+00 ort = 0.900E-06 (trialstep = 0.151E-01)
 search vector abs. value=  0.195E+00
 bond charge predicted
       N       E                     dE             d eps       ncg     rms          rms(c)
DAV:   1    -0.125549647098E+03   -0.60912E-04   -0.36973E-03 22224   0.260E-01    0.106E-02
DAV:   2    -0.125549646891E+03    0.20634E-06   -0.14577E-05 15504   0.164E-02    0.660E-03
DAV:   3    -0.125549646856E+03    0.35828E-07   -0.26913E-06 19632   0.738E-03
  70 F= -.12713149E+03 E0= -.12713071E+03  d E =-.107479E-04  mag=     0.0000
 ZBRENT: can't locate minimum, use default step
 trial-energy change:   -0.000011  1 .order   -0.000011   -0.000011   -0.000010
 step:   0.0605(harm=  0.2116)  dis= 0.00164  next Energy=  -127.131562 (dE=-0.787E-04)
 bond charge predicted
       N       E                     dE             d eps       ncg     rms          rms(c)
DAV:   1    -0.125549821097E+03   -0.17421E-03   -0.33209E-02 14208   0.779E-01    0.305E-02
DAV:   2    -0.125549833546E+03   -0.12449E-04   -0.24255E-04 14256   0.661E-02    0.212E-02
DAV:   3    -0.125549831050E+03    0.24955E-05   -0.15413E-05 14256   0.165E-02    0.539E-03
DAV:   4    -0.125549831123E+03   -0.72790E-07   -0.24865E-06 14208   0.758E-03
  71 F= -.12713153E+03 E0= -.12713075E+03  d E =-.429203E-04  mag=    -0.0000
 curvature: -11.34 expect dE=-0.752E-02 dE for cont linesearch -0.246E-04
 ZBRENT: increasing intervall
 opt :   0.1511  next Energy=  -127.131581 (dE=-0.982E-04)
 bond charge predicted
       N       E                     dE             d eps       ncg     rms          rms(c)
DAV:   1    -0.125550157890E+03   -0.32684E-03   -0.13282E-01 14208   0.156E+00    0.611E-02
DAV:   2    -0.125550206255E+03   -0.48365E-04   -0.95120E-04 14304   0.131E-01    0.423E-02
DAV:   3    -0.125550194698E+03    0.11557E-04   -0.60235E-05 14208   0.318E-02    0.105E-02
DAV:   4    -0.125550194945E+03   -0.24698E-06   -0.80578E-06 14208   0.129E-02
  72 F= -.12713159E+03 E0= -.12713080E+03  d E =-.102602E-03  mag=    -0.0000
 curvature: -25.54 expect dE=-0.149E-01 dE for cont linesearch -0.382E-04
 ZBRENT: increasing intervall
 opt :   0.3325  next Energy=  -127.131664 (dE=-0.181E-03)
 bond charge predicted
       N       E                     dE             d eps       ncg     rms          rms(c)
DAV:   1    -0.125550757383E+03   -0.56269E-03   -0.53127E-01 14208   0.312E+00    0.122E-01
DAV:   2    -0.125550953386E+03   -0.19600E-03   -0.37991E-03 16800   0.262E-01    0.848E-02
DAV:   3    -0.125550901812E+03    0.51574E-04   -0.23531E-04 15552   0.610E-02    0.197E-02
DAV:   4    -0.125550902467E+03   -0.65538E-06   -0.29782E-05 14208   0.236E-02    0.634E-03
DAV:   5    -0.125550902679E+03   -0.21144E-06   -0.69838E-06 14400   0.128E-02
  73 F= -.12713169E+03 E0= -.12713090E+03  d E =-.202721E-03  mag=     0.0000
 curvature: -52.23 expect dE=-0.284E-01 dE for cont linesearch -0.606E-04
 ZBRENT: increasing intervall
 opt :   0.6952  next Energy=  -127.131835 (dE=-0.352E-03)
 bond charge predicted
       N       E                     dE             d eps       ncg     rms          rms(c)
DAV:   1    -0.125551680883E+03   -0.77842E-03   -0.21235E+00 14208   0.623E+00    0.244E-01
DAV:   2    -0.125552449847E+03   -0.76896E-03   -0.15052E-02 16608   0.521E-01    0.169E-01
DAV:   3    -0.125552236924E+03    0.21292E-03   -0.94078E-04 19968   0.120E-01    0.396E-02
DAV:   4    -0.125552238068E+03   -0.11439E-05   -0.10127E-04 16032   0.412E-02    0.124E-02
DAV:   5    -0.125552238159E+03   -0.90759E-07   -0.16904E-05 15264   0.189E-02    0.501E-03
DAV:   6    -0.125552239272E+03   -0.11134E-05   -0.10967E-05 14256   0.166E-02    0.221E-03
DAV:   7    -0.125552235281E+03    0.39911E-05   -0.36673E-06 19920   0.938E-03    0.649E-04
DAV:   8    -0.125552235277E+03    0.37162E-08   -0.10854E-07 21456   0.150E-03
  74 F= -.12713181E+03 E0= -.12713102E+03  d E =-.322167E-03  mag=    -0.0000
 curvature: ****** expect dE=-0.120E+00 dE for cont linesearch -0.255E-04
 ZBRENT: increasing intervall
 opt :   1.4207  next Energy=  -127.131745 (dE=-0.262E-03)
 bond charge predicted
       N       E                     dE             d eps       ncg     rms          rms(c)
DAV:   1    -0.125552426690E+03   -0.19141E-03   -0.84889E+00 14208   0.125E+01    0.489E-01
DAV:   2    -0.125555454544E+03   -0.30279E-02   -0.59675E-02 14880   0.103E+00    0.337E-01
DAV:   3    -0.125554596479E+03    0.85807E-03   -0.37809E-03 26880   0.239E-01    0.840E-02
DAV:   4    -0.125554594821E+03    0.16580E-05   -0.33228E-04 21648   0.704E-02    0.246E-02
DAV:   5    -0.125554590074E+03    0.47468E-05   -0.35578E-05 20016   0.212E-02    0.929E-03
DAV:   6    -0.125554590326E+03   -0.25178E-06   -0.50905E-06 22272   0.861E-03
  75 F= -.12713174E+03 E0= -.12713096E+03  d E =-.259200E-03  mag=     0.0000
 curvature: 302.64 expect dE= 0.108E+01 dE for cont linesearch  0.192E-03
 ZBRENT: bracketing found
 ZBRENT: interpolating
 opt :   0.9552  next Energy=  -127.131831 (dE=-0.348E-03)
 bond charge predicted
       N       E                     dE             d eps       ncg     rms          rms(c)
DAV:   1    -0.125552243277E+03    0.23468E-02   -0.34961E+00 14208   0.799E+00    0.313E-01
DAV:   2    -0.125553516985E+03   -0.12737E-02   -0.24795E-02 22080   0.662E-01    0.218E-01
DAV:   3    -0.125553129903E+03    0.38708E-03   -0.15042E-03 22080   0.144E-01    0.459E-02
DAV:   4    -0.125553128957E+03    0.94629E-06   -0.16626E-04 17520   0.481E-02    0.153E-02
DAV:   5    -0.125553128319E+03    0.63738E-06   -0.13687E-05 23280   0.137E-02    0.615E-03
DAV:   6    -0.125553128548E+03   -0.22840E-06   -0.23604E-06 24912   0.585E-03
  76 F= -.12713183E+03 E0= -.12713105E+03  d E =-.347807E-03  mag=    -0.0000
 curvature: -40.25 expect dE=-0.644E-01 dE for cont linesearch -0.435E-08
 trial: gam= 2.05128 g(F)=  0.160E-02 g(S)=  0.000E+00 ort =-0.459E-05 (trialstep = 0.482E-01)
 search vector abs. value=  0.823E+00
 bond charge predicted
       N       E                     dE             d eps       ncg     rms          rms(c)
DAV:   1    -0.125553491243E+03   -0.36292E-03   -0.15864E-01 14208   0.170E+00    0.667E-02
DAV:   2    -0.125553546202E+03   -0.54960E-04   -0.11197E-03 17040   0.142E-01    0.462E-02
DAV:   3    -0.125553531081E+03    0.15122E-04   -0.70315E-05 16368   0.327E-02    0.108E-02
DAV:   4    -0.125553531470E+03   -0.38968E-06   -0.76759E-06 21456   0.109E-02
  77 F= -.12713190E+03 E0= -.12713112E+03  d E =-.741948E-04  mag=     0.0000
 ZBRENT: can't locate minimum, use default step
 trial-energy change:   -0.000074  1 .order   -0.000071   -0.000077   -0.000066
 step:   0.1927(harm=  0.3405)  dis= 0.01052  next Energy=  -127.132101 (dE=-0.271E-03)
 bond charge predicted
       N       E                     dE             d eps       ncg     rms          rms(c)
DAV:   1    -0.125554342793E+03   -0.81171E-03   -0.14285E+00 14208   0.511E+00    0.200E-01
DAV:   2    -0.125554856750E+03   -0.51396E-03   -0.10105E-02 17568   0.425E-01    0.139E-01
DAV:   3    -0.125554710217E+03    0.14653E-03   -0.62424E-04 19536   0.960E-02    0.317E-02
DAV:   4    -0.125554711497E+03   -0.12799E-05   -0.67660E-05 19776   0.312E-02    0.101E-02
DAV:   5    -0.125554711018E+03    0.47913E-06   -0.65303E-06 15120   0.984E-03
  78 F= -.12713210E+03 E0= -.12713132E+03  d E =-.268877E-03  mag=    -0.0000
 curvature: -65.64 expect dE=-0.634E-01 dE for cont linesearch -0.112E-03
 ZBRENT: increasing intervall
 opt :   0.4818  next Energy=  -127.132390 (dE=-0.559E-03)
 bond charge predicted
       N       E                     dE             d eps       ncg     rms          rms(c)
DAV:   1    -0.125555492041E+03   -0.78054E-03   -0.57105E+00 14208   0.102E+01    0.400E-01
DAV:   2    -0.125557513507E+03   -0.20215E-02   -0.40100E-02 14928   0.851E-01    0.276E-01
DAV:   3    -0.125556940586E+03    0.57292E-03   -0.25607E-03 24288   0.197E-01    0.683E-02
DAV:   4    -0.125556941153E+03   -0.56704E-06   -0.23696E-04 22704   0.598E-02    0.204E-02
DAV:   5    -0.125556938279E+03    0.28740E-05   -0.25920E-05 15264   0.196E-02    0.783E-03
DAV:   6    -0.125556939435E+03   -0.11561E-05   -0.72146E-06 16896   0.132E-02    0.230E-03
DAV:   7    -0.125556937714E+03    0.17207E-05   -0.22739E-06 17472   0.769E-03    0.984E-04
DAV:   8    -0.125556937713E+03    0.53933E-09   -0.20559E-07 22416   0.221E-03
  79 F= -.12713236E+03 E0= -.12713158E+03  d E =-.531381E-03  mag=     0.0000
 curvature: ****** expect dE=-0.958E-01 dE for cont linesearch -0.806E-04
 ZBRENT: increasing intervall
 opt :   1.0600  next Energy=  -127.132399 (dE=-0.568E-03)
 bond charge predicted
       N       E                     dE             d eps       ncg     rms          rms(c)
DAV:   1    -0.125554970819E+03    0.19669E-02   -0.22810E+01 14208   0.204E+01    0.801E-01
DAV:   2    -0.125563249532E+03   -0.82787E-02   -0.16193E-01 14784   0.171E+00    0.551E-01
DAV:   3    -0.125560887525E+03    0.23620E-02   -0.10142E-02 27456   0.390E-01    0.144E-01
DAV:   4    -0.125560875228E+03    0.12297E-04   -0.88659E-04 21312   0.116E-01    0.403E-02
DAV:   5    -0.125560860548E+03    0.14680E-04   -0.10180E-04 22032   0.357E-02    0.154E-02
DAV:   6    -0.125560860949E+03   -0.40042E-06   -0.13535E-05 19200   0.141E-02    0.294E-03
DAV:   7    -0.125560861403E+03   -0.45469E-06   -0.12535E-06 18960   0.441E-03
  80 F= -.12713238E+03 E0= -.12713160E+03  d E =-.549812E-03  mag=    -0.0000
 curvature: -78.41 expect dE=-0.132E+00 dE for cont linesearch -0.286E-04
 ZBRENT: bracketing found
 ZBRENT: interpolating
 opt :   0.7898  next Energy=  -127.132455 (dE=-0.624E-03)
 bond charge predicted
       N       E                     dE             d eps       ncg     rms          rms(c)
DAV:   1    -0.125557864931E+03    0.29960E-02   -0.49902E+00 14208   0.956E+00    0.374E-01
DAV:   2    -0.125559673129E+03   -0.18082E-02   -0.35374E-02 21168   0.794E-01    0.260E-01
DAV:   3    -0.125559122396E+03    0.55073E-03   -0.21561E-03 23424   0.173E-01    0.565E-02
DAV:   4    -0.125559119885E+03    0.25112E-05   -0.23592E-04 17808   0.572E-02    0.183E-02
DAV:   5    -0.125559118841E+03    0.10442E-05   -0.19446E-05 22848   0.164E-02    0.740E-03
DAV:   6    -0.125559119328E+03   -0.48680E-06   -0.36217E-06 23952   0.763E-03
  81 F= -.12713246E+03 E0= -.12713168E+03  d E =-.629269E-03  mag=    -0.0000
 curvature: ****** expect dE=-0.171E+00 dE for cont linesearch -0.436E-10
 trial: gam= 0.51666 g(F)=  0.839E-03 g(S)=  0.000E+00 ort = 0.421E-06 (trialstep = 0.197E+00)
 search vector abs. value=  0.221E+00
 bond charge predicted
       N       E                     dE             d eps       ncg     rms          rms(c)
DAV:   1    -0.125559736203E+03   -0.61736E-03   -0.70219E-01 14208   0.359E+00    0.140E-01
DAV:   2    -0.125559982049E+03   -0.24585E-03   -0.48697E-03 15648   0.296E-01    0.967E-02
DAV:   3    -0.125559913898E+03    0.68152E-04   -0.29813E-04 17472   0.680E-02    0.234E-02
DAV:   4    -0.125559915326E+03   -0.14285E-05   -0.30738E-05 17664   0.219E-02    0.709E-03
DAV:   5    -0.125559914993E+03    0.33359E-06   -0.42343E-06 21072   0.850E-03
  82 F= -.12713261E+03 E0= -.12713183E+03  d E =-.147850E-03  mag=    -0.0000
 ZBRENT: can't locate minimum, use default step
 trial-energy change:   -0.000148  1 .order   -0.000146   -0.000165   -0.000128
 step:   0.7860(harm=  0.8715)  dis= 0.02283  next Energy=  -127.132826 (dE=-0.366E-03)
 bond charge predicted
       N       E                     dE             d eps       ncg     rms          rms(c)
DAV:   1    -0.125560452481E+03   -0.53715E-03   -0.63176E+00 14208   0.108E+01    0.420E-01
DAV:   2    -0.125562729232E+03   -0.22768E-02   -0.44124E-02 18384   0.891E-01    0.291E-01
DAV:   3    -0.125562076704E+03    0.65253E-03   -0.26398E-03 21648   0.196E-01    0.671E-02
DAV:   4    -0.125562079037E+03   -0.23329E-05   -0.26827E-04 17952   0.630E-02    0.203E-02
DAV:   5    -0.125562076860E+03    0.21770E-05   -0.28755E-05 16368   0.211E-02    0.812E-03
DAV:   6    -0.125562077654E+03   -0.79371E-06   -0.74450E-06 15408   0.133E-02
  83 F= -.12713283E+03 E0= -.12713205E+03  d E =-.372176E-03  mag=     0.0000
 curvature: ****** expect dE=-0.580E-01 dE for cont linesearch -0.595E-05
 ZBRENT: extrapolating
 opt :   0.9034  next Energy=  -127.132839 (dE=-0.379E-03)
 bond charge predicted
       N       E                     dE             d eps       ncg     rms          rms(c)
DAV:   1    -0.125562396156E+03   -0.31930E-03   -0.25042E-01 14208   0.214E+00    0.830E-02
DAV:   2    -0.125562489646E+03   -0.93490E-04   -0.17896E-03 15984   0.179E-01    0.577E-02
DAV:   3    -0.125562466659E+03    0.22987E-04   -0.10931E-04 25824   0.409E-02    0.146E-02
DAV:   4    -0.125562467002E+03   -0.34237E-06   -0.99426E-06 15456   0.129E-02
  84 F= -.12713284E+03 E0= -.12713206E+03  d E =-.376425E-03  mag=     0.0000
 curvature: ****** expect dE=-0.797E-01 dE for cont linesearch -0.417E-05
 trial: gam= 0.79121 g(F)=  0.665E-03 g(S)=  0.000E+00 ort =-0.876E-04 (trialstep = 0.338E+00)
 search vector abs. value=  0.139E+00
 bond charge predicted
       N       E                     dE             d eps       ncg     rms          rms(c)
DAV:   1    -0.125563067269E+03   -0.60061E-03   -0.12911E+00 14208   0.488E+00    0.190E-01
DAV:   2    -0.125563530109E+03   -0.46284E-03   -0.88581E-03 16320   0.400E-01    0.131E-01
DAV:   3    -0.125563408189E+03    0.12192E-03   -0.53089E-04 20832   0.905E-02    0.319E-02
DAV:   4    -0.125563409682E+03   -0.14930E-05   -0.51548E-05 15936   0.286E-02    0.941E-03
DAV:   5    -0.125563409527E+03    0.15536E-06   -0.71484E-06 18384   0.111E-02
  85 F= -.12713296E+03 E0= -.12713218E+03  d E =-.127877E-03  mag=     0.0000
 trial-energy change:   -0.000128  1 .order   -0.000117   -0.000201   -0.000032
 step:   0.3828(harm=  0.4029)  dis= 0.00916  next Energy=  -127.132967 (dE=-0.130E-03)
 bond charge predicted
       N       E                     dE             d eps       ncg     rms          rms(c)
DAV:   1    -0.125563514065E+03   -0.10438E-03   -0.22860E-02 14208   0.649E-01    0.250E-02
DAV:   2    -0.125563522526E+03   -0.84615E-05   -0.16483E-04 14688   0.556E-02    0.174E-02
DAV:   3    -0.125563521777E+03    0.74925E-06   -0.11381E-05 21072   0.158E-02    0.496E-03
DAV:   4    -0.125563521662E+03    0.11499E-06   -0.40521E-06 14208   0.106E-02
  86 F= -.12713297E+03 E0= -.12713219E+03  d E =-.131635E-03  mag=    -0.0000
 curvature: -42.44 expect dE=-0.834E-02 dE for cont linesearch -0.188E-08
 trial: gam= 0.26441 g(F)=  0.197E-03 g(S)=  0.000E+00 ort =-0.248E-05 (trialstep = 0.347E+00)
 search vector abs. value=  0.989E-02
 bond charge predicted
       N       E                     dE             d eps       ncg     rms          rms(c)
DAV:   1    -0.125563710192E+03   -0.18841E-03   -0.94809E-02 14208   0.133E+00    0.513E-02
DAV:   2    -0.125563745383E+03   -0.35191E-04   -0.64243E-04 21312   0.107E-01    0.360E-02
DAV:   3    -0.125563737369E+03    0.80142E-05   -0.32513E-05 14448   0.229E-02    0.820E-03
DAV:   4    -0.125563737601E+03   -0.23207E-06   -0.47825E-06 14592   0.101E-02
  87 F= -.12713302E+03 E0= -.12713224E+03  d E =-.547521E-04  mag=     0.0000
 trial-energy change:   -0.000055  1 .order   -0.000052   -0.000068   -0.000037
 step:   0.7582(harm=  0.7582)  dis= 0.00527  next Energy=  -127.133042 (dE=-0.743E-04)
 bond charge predicted
       N       E                     dE             d eps       ncg     rms          rms(c)
DAV:   1    -0.125563917879E+03   -0.18051E-03   -0.13336E-01 14208   0.157E+00    0.610E-02
DAV:   2    -0.125563966232E+03   -0.48353E-04   -0.88983E-04 21360   0.126E-01    0.426E-02
DAV:   3    -0.125563954842E+03    0.11390E-04   -0.46706E-05 15360   0.273E-02    0.962E-03
DAV:   4    -0.125563955099E+03   -0.25651E-06   -0.65816E-06 14784   0.118E-02
  88 F= -.12713305E+03 E0= -.12713227E+03  d E =-.812796E-04  mag=     0.0000
 curvature: -19.13 expect dE=-0.327E-02 dE for cont linesearch -0.789E-08
 trial: gam= 0.86312 g(F)=  0.171E-03 g(S)=  0.000E+00 ort = 0.202E-05 (trialstep = 0.429E+00)
 search vector abs. value=  0.754E-02
 bond charge predicted
       N       E                     dE             d eps       ncg     rms          rms(c)
DAV:   1    -0.125564050481E+03   -0.95639E-04   -0.11095E-01 14208   0.143E+00    0.563E-02
DAV:   2    -0.125564091017E+03   -0.40535E-04   -0.73341E-04 26496   0.114E-01    0.394E-02
DAV:   3    -0.125564080563E+03    0.10454E-04   -0.38758E-05 15360   0.243E-02    0.803E-03
DAV:   4    -0.125564080692E+03   -0.12938E-06   -0.54359E-06 14688   0.103E-02
  89 F= -.12713309E+03 E0= -.12713230E+03  d E =-.366147E-04  mag=     0.0000
 trial-energy change:   -0.000037  1 .order   -0.000034   -0.000074    0.000006
 step:   0.3971(harm=  0.3971)  dis= 0.00246  next Energy=  -127.133084 (dE=-0.343E-04)
 bond charge predicted
       N       E                     dE             d eps       ncg     rms          rms(c)
DAV:   1    -0.125564074051E+03    0.65125E-05   -0.61248E-04 14208   0.107E-01    0.405E-03
DAV:   2    -0.125564074164E+03   -0.11356E-06   -0.45589E-06 15072   0.985E-03
  90 F= -.12713309E+03 E0= -.12713230E+03  d E =-.367254E-04  mag=     0.0000
 curvature:  -8.68 expect dE=-0.893E-03 dE for cont linesearch -0.207E-06
 trial: gam= 0.65902 g(F)=  0.103E-03 g(S)=  0.000E+00 ort = 0.134E-04 (trialstep = 0.423E+00)
 search vector abs. value=  0.340E-02
 bond charge predicted
       N       E                     dE             d eps       ncg     rms          rms(c)
DAV:   1    -0.125564076379E+03   -0.23289E-05   -0.48784E-02 14208   0.949E-01    0.360E-02
DAV:   2    -0.125564093150E+03   -0.16771E-04   -0.32089E-04 25152   0.753E-02    0.252E-02
DAV:   3    -0.125564088675E+03    0.44759E-05   -0.17200E-05 17808   0.160E-02    0.581E-03
DAV:   4    -0.125564088725E+03   -0.50552E-07   -0.27299E-06 14784   0.752E-03
  91 F= -.12713312E+03 E0= -.12713234E+03  d E =-.361370E-04  mag=    -0.0000
 trial-energy change:   -0.000036  1 .order   -0.000037   -0.000047   -0.000027
 step:   0.9829(harm=  0.9829)  dis= 0.00398  next Energy=  -127.133141 (dE=-0.549E-04)
 bond charge predicted
       N       E                     dE             d eps       ncg     rms          rms(c)
DAV:   1    -0.125564061674E+03    0.27001E-04   -0.85664E-02 14208   0.126E+00    0.493E-02
DAV:   2    -0.125564090219E+03   -0.28545E-04   -0.55562E-04 19200   0.995E-02    0.341E-02
DAV:   3    -0.125564082561E+03    0.76581E-05   -0.32064E-05 20736   0.221E-02    0.813E-03
DAV:   4    -0.125564082662E+03   -0.10108E-06   -0.38807E-06 14496   0.842E-03
  92 F= -.12713314E+03 E0= -.12713236E+03  d E =-.587665E-04  mag=    -0.0000
 curvature: -14.93 expect dE=-0.173E-02 dE for cont linesearch -0.377E-06
 trial: gam= 0.96962 g(F)=  0.116E-03 g(S)=  0.000E+00 ort = 0.925E-05 (trialstep = 0.535E+00)
 search vector abs. value=  0.333E-02
 bond charge predicted
       N       E                     dE             d eps       ncg     rms          rms(c)
DAV:   1    -0.125564006163E+03    0.76398E-04   -0.76995E-02 14208   0.119E+00    0.469E-02
DAV:   2    -0.125564032819E+03   -0.26656E-04   -0.51123E-04 14976   0.958E-02    0.324E-02
DAV:   3    -0.125564026131E+03    0.66875E-05   -0.31630E-05 21744   0.227E-02    0.800E-03
DAV:   4    -0.125564026323E+03   -0.19180E-06   -0.34682E-06 14688   0.849E-03
  93 F= -.12713320E+03 E0= -.12713242E+03  d E =-.579990E-04  mag=    -0.0000
 trial-energy change:   -0.000058  1 .order   -0.000055   -0.000067   -0.000044
 step:   1.5887(harm=  1.5887)  dis= 0.00605  next Energy=  -127.133244 (dE=-0.991E-04)
 bond charge predicted
       N       E                     dE             d eps       ncg     rms          rms(c)
DAV:   1    -0.125563778606E+03    0.24752E-03   -0.29902E-01 14208   0.234E+00    0.922E-02
DAV:   2    -0.125563881473E+03   -0.10287E-03   -0.19842E-03 15888   0.188E-01    0.636E-02
DAV:   3    -0.125563853601E+03    0.27871E-04   -0.11975E-04 17760   0.435E-02    0.154E-02
DAV:   4    -0.125563853930E+03   -0.32838E-06   -0.12766E-05 14928   0.152E-02    0.456E-03
DAV:   5    -0.125563853848E+03    0.81872E-07   -0.25276E-06 14976   0.769E-03
  94 F= -.12713326E+03 E0= -.12713247E+03  d E =-.110855E-03  mag=    -0.0000
 curvature: -21.18 expect dE=-0.642E-02 dE for cont linesearch -0.730E-06
 trial: gam= 2.79000 g(F)=  0.303E-03 g(S)=  0.000E+00 ort = 0.107E-04 (trialstep = 0.945E-01)
 search vector abs. value=  0.263E-01
 bond charge predicted
       N       E                     dE             d eps       ncg     rms          rms(c)
DAV:   1    -0.125563803419E+03    0.50511E-04   -0.19347E-02 14304   0.596E-01    0.233E-02
DAV:   2    -0.125563810368E+03   -0.69491E-05   -0.13421E-04 16512   0.496E-02    0.162E-02
DAV:   3    -0.125563808632E+03    0.17353E-05   -0.96278E-06 17424   0.139E-02    0.396E-03
DAV:   4    -0.125563808720E+03   -0.87458E-07   -0.29609E-06 14400   0.884E-03
  95 F= -.12713329E+03 E0= -.12713250E+03  d E =-.300024E-04  mag=     0.0000
 ZBRENT: can't locate minimum, use default step
 trial-energy change:   -0.000030  1 .order   -0.000029   -0.000031   -0.000028
 step:   0.3778(harm=  0.7606)  dis= 0.00385  next Energy=  -127.133382 (dE=-0.127E-03)
 bond charge predicted
       N       E                     dE             d eps       ncg     rms          rms(c)
DAV:   1    -0.125563611854E+03    0.19678E-03   -0.17411E-01 14208   0.179E+00    0.702E-02
DAV:   2    -0.125563673521E+03   -0.61666E-04   -0.11956E-03 20160   0.146E-01    0.487E-02
DAV:   3    -0.125563655572E+03    0.17949E-04   -0.74402E-05 19872   0.332E-02    0.107E-02
DAV:   4    -0.125563655671E+03   -0.99357E-07   -0.92361E-06 14976   0.131E-02
  96 F= -.12713336E+03 E0= -.12713258E+03  d E =-.102384E-03  mag=     0.0000
 curvature: -20.08 expect dE=-0.443E-02 dE for cont linesearch -0.279E-04
 ZBRENT: increasing intervall
 opt :   0.9445  next Energy=  -127.133409 (dE=-0.154E-03)
 bond charge predicted
       N       E                     dE             d eps       ncg     rms          rms(c)
DAV:   1    -0.125563099564E+03    0.55601E-03   -0.69649E-01 14208   0.357E+00    0.141E-01
DAV:   2    -0.125563344197E+03   -0.24463E-03   -0.47371E-03 19104   0.291E-01    0.974E-02
DAV:   3    -0.125563271257E+03    0.72940E-04   -0.29291E-04 19296   0.653E-02    0.213E-02
DAV:   4    -0.125563271165E+03    0.91551E-07   -0.33836E-05 18480   0.234E-02    0.697E-03
DAV:   5    -0.125563270975E+03    0.19054E-06   -0.44637E-06 17184   0.978E-03
  97 F= -.12713342E+03 E0= -.12713264E+03  d E =-.168491E-03  mag=    -0.0000
 curvature: -36.89 expect dE=-0.246E-01 dE for cont linesearch -0.674E-06
 trial: gam= 2.14877 g(F)=  0.666E-03 g(S)=  0.000E+00 ort = 0.219E-04 (trialstep = 0.569E-01)
 search vector abs. value=  0.122E+00
 bond charge predicted
       N       E                     dE             d eps       ncg     rms          rms(c)
DAV:   1    -0.125563191920E+03    0.79246E-04   -0.32858E-02 14208   0.776E-01    0.303E-02
DAV:   2    -0.125563204468E+03   -0.12549E-04   -0.23566E-04 18864   0.660E-02    0.212E-02
DAV:   3    -0.125563201783E+03    0.26852E-05   -0.17383E-05 19824   0.190E-02    0.508E-03
DAV:   4    -0.125563201564E+03    0.21904E-06   -0.72760E-06 14352   0.137E-02
  98 F= -.12713346E+03 E0= -.12713268E+03  d E =-.403184E-04  mag=    -0.0000
 ZBRENT: can't locate minimum, use default step
 trial-energy change:   -0.000040  1 .order   -0.000039   -0.000041   -0.000037
 step:   0.2277(harm=  0.7226)  dis= 0.00508  next Energy=  -127.133682 (dE=-0.258E-03)
 bond charge predicted
       N       E                     dE             d eps       ncg     rms          rms(c)
DAV:   1    -0.125562903924E+03    0.29786E-03   -0.29559E-01 14208   0.233E+00    0.913E-02
DAV:   2    -0.125563010157E+03   -0.10623E-03   -0.20559E-03 21264   0.192E-01    0.636E-02
DAV:   3    -0.125562978953E+03    0.31204E-04   -0.13087E-04 20400   0.436E-02    0.137E-02
DAV:   4    -0.125562978748E+03    0.20466E-06   -0.16620E-05 14208   0.174E-02    0.460E-03
DAV:   5    -0.125562978731E+03    0.17732E-07   -0.33946E-06 14208   0.888E-03
  99 F= -.12713357E+03 E0= -.12713279E+03  d E =-.146753E-03  mag=     0.0000
 curvature: -27.64 expect dE=-0.132E-01 dE for cont linesearch -0.730E-04
 ZBRENT: increasing intervall
 opt :   0.5692  next Energy=  -127.133734 (dE=-0.310E-03)
 bond charge predicted
       N       E                     dE             d eps       ncg     rms          rms(c)
DAV:   1    -0.125562193931E+03    0.78482E-03   -0.11822E+00 14208   0.465E+00    0.183E-01
DAV:   2    -0.125562605402E+03   -0.41147E-03   -0.80992E-03 19680   0.381E-01    0.126E-01
DAV:   3    -0.125562477619E+03    0.12778E-03   -0.51558E-04 19728   0.861E-02    0.275E-02
DAV:   4    -0.125562476949E+03    0.66946E-06   -0.60315E-05 19200   0.313E-02    0.913E-03
DAV:   5    -0.125562476489E+03    0.46000E-06   -0.81302E-06 17952   0.132E-02
 100 F= -.12713373E+03 E0= -.12713295E+03  d E =-.303996E-03  mag=    -0.0000
 curvature: -61.84 expect dE=-0.326E-01 dE for cont linesearch -0.585E-04
 ZBRENT: increasing intervall
 opt :   1.2523  next Energy=  -127.133804 (dE=-0.380E-03)
 bond charge predicted
       N       E                     dE             d eps       ncg     rms          rms(c)
DAV:   1    -0.125560123653E+03    0.23533E-02   -0.47280E+00 14208   0.930E+00    0.366E-01
DAV:   2    -0.125561783834E+03   -0.16602E-02   -0.32494E-02 21648   0.761E-01    0.253E-01
DAV:   3    -0.125561251612E+03    0.53222E-03   -0.20425E-03 21168   0.169E-01    0.541E-02
DAV:   4    -0.125561246826E+03    0.47860E-05   -0.23867E-04 22800   0.604E-02    0.180E-02
DAV:   5    -0.125561244748E+03    0.20780E-05   -0.24683E-05 18480   0.227E-02    0.774E-03
DAV:   6    -0.125561247381E+03   -0.26333E-05   -0.17447E-05 17856   0.211E-02    0.282E-03
DAV:   7    -0.125561244192E+03    0.31898E-05   -0.73485E-06 21408   0.134E-02    0.892E-04
DAV:   8    -0.125561244265E+03   -0.73773E-07   -0.27635E-07 25104   0.254E-03
 101 F= -.12713382E+03 E0= -.12713304E+03  d E =-.393364E-03  mag=     0.0000
 curvature: -80.64 expect dE=-0.146E+00 dE for cont linesearch -0.506E-05
 trial: gam= 2.86288 g(F)=  0.181E-02 g(S)=  0.000E+00 ort =-0.875E-04 (trialstep = 0.361E-01)
 search vector abs. value=  0.100E+01
 bond charge predicted
       N       E                     dE             d eps       ncg     rms          rms(c)
DAV:   1    -0.125561066335E+03    0.17786E-03   -0.10744E-01 14208   0.140E+00    0.550E-02
DAV:   2    -0.125561104410E+03   -0.38076E-04   -0.73641E-04 22368   0.114E-01    0.382E-02
[...]
DAV:   3    -0.125560613995E+03    0.10290E-03   -0.40559E-04 19488   0.754E-02    0.242E-02
DAV:   4    -0.125560613944E+03    0.50991E-07   -0.45814E-05 24000   0.250E-02    0.800E-03
DAV:   5    -0.125560613628E+03    0.31583E-06   -0.30332E-06 16368   0.652E-03
 103 F= -.12713401E+03 E0= -.12713323E+03  d E =-.192554E-03  mag=    -0.0000
 curvature: -63.07 expect dE=-0.847E-01 dE for cont linesearch -0.719E-04
 ZBRENT: increasing intervall
 opt :   0.3607  next Energy=  -127.134174 (dE=-0.356E-03)
 bond charge predicted
       N       E                     dE             d eps       ncg     rms          rms(c)
DAV:   1    -0.125558590528E+03    0.20234E-02   -0.38671E+00 14208   0.841E+00    0.330E-01
DAV:   2    -0.125559969245E+03   -0.13787E-02   -0.26420E-02 21024   0.684E-01    0.229E-01
DAV:   3    -0.125559542987E+03    0.42626E-03   -0.16020E-03 19824   0.149E-01    0.490E-02
DAV:   4    -0.125559542096E+03    0.89072E-06   -0.18060E-04 25680   0.495E-02    0.159E-02
DAV:   5    -0.125559540569E+03    0.15275E-05   -0.11553E-05 21408   0.126E-02    0.665E-03
DAV:   6    -0.125559540543E+03    0.25796E-07   -0.25456E-06 19104   0.676E-03
 104 F= -.12713417E+03 E0= -.12713339E+03  d E =-.356484E-03  mag=    -0.0000
 curvature: ****** expect dE=-0.187E+00 dE for cont linesearch -0.272E-04
 ZBRENT: increasing intervall
 opt :   0.7935  next Energy=  -127.134089 (dE=-0.271E-03)
 bond charge predicted
       N       E                     dE             d eps       ncg     rms          rms(c)
DAV:   1    -0.125553045456E+03    0.64951E-02   -0.15450E+01 14208   0.168E+01    0.661E-01
DAV:   2    -0.125558671392E+03   -0.56259E-02   -0.10677E-01 20736   0.138E+00    0.458E-01
DAV:   3    -0.125556954343E+03    0.17170E-02   -0.63526E-03 20928   0.296E-01    0.104E-01
DAV:   4    -0.125556944827E+03    0.95165E-05   -0.70605E-04 26928   0.979E-02    0.316E-02
DAV:   5    -0.125556937360E+03    0.74666E-05   -0.46485E-05 26064   0.248E-02    0.132E-02
DAV:   6    -0.125556937292E+03    0.67814E-07   -0.84856E-06 17328   0.119E-02
 105 F= -.12713405E+03 E0= -.12713327E+03  d E =-.235787E-03  mag=    -0.0000
 curvature: 448.88 expect dE= 0.164E+01 dE for cont linesearch  0.384E-03
 ZBRENT: bracketing found
 ZBRENT: interpolating
 opt :   0.4993  next Energy=  -127.134204 (dE=-0.387E-03)
 bond charge predicted
       N       E                     dE             d eps       ncg     rms          rms(c)
DAV:   1    -0.125557011990E+03   -0.74630E-04   -0.71427E+00 14208   0.114E+01    0.449E-01
DAV:   2    -0.125559575065E+03   -0.25631E-02   -0.49063E-02 21504   0.931E-01    0.312E-01
DAV:   3    -0.125558778989E+03    0.79608E-03   -0.28998E-03 20016   0.199E-01    0.656E-02
DAV:   4    -0.125558776560E+03    0.24290E-05   -0.33429E-04 19296   0.675E-02    0.215E-02
DAV:   5    -0.125558774964E+03    0.15959E-05   -0.24561E-05 20016   0.189E-02    0.920E-03
DAV:   6    -0.125558775026E+03   -0.61629E-07   -0.50559E-06 17280   0.953E-03
 106 F= -.12713420E+03 E0= -.12713342E+03  d E =-.384943E-03  mag=    -0.0000
 curvature: -35.33 expect dE=-0.600E-01 dE for cont linesearch -0.494E-07
 trial: gam= 0.55844 g(F)=  0.170E-02 g(S)=  0.000E+00 ort =-0.374E-04 (trialstep = 0.129E+00)
 search vector abs. value=  0.314E+00
 bond charge predicted
       N       E                     dE             d eps       ncg     rms          rms(c)
DAV:   1    -0.125558441085E+03    0.33388E-03   -0.42020E-01 14208   0.278E+00    0.108E-01
DAV:   2    -0.125558598140E+03   -0.15706E-03   -0.29114E-03 20688   0.227E-01    0.758E-02
DAV:   3    -0.125558555602E+03    0.42538E-04   -0.16014E-04 17712   0.483E-02    0.166E-02
DAV:   4    -0.125558556022E+03   -0.42022E-06   -0.17613E-05 16320   0.161E-02    0.505E-03
DAV:   5    -0.125558555966E+03    0.55969E-07   -0.18162E-06 17952   0.543E-03
 107 F= -.12713441E+03 E0= -.12713363E+03  d E =-.205179E-03  mag=    -0.0000
 ZBRENT: can't locate minimum, use default step
 trial-energy change:   -0.000205  1 .order   -0.000203   -0.000216   -0.000191
 step:   0.5148(harm=  1.1324)  dis= 0.01844  next Energy=  -127.135152 (dE=-0.949E-03)
 bond charge predicted
       N       E                     dE             d eps       ncg     rms          rms(c)
DAV:   1    -0.125556718387E+03    0.18376E-02   -0.37817E+00 14208   0.833E+00    0.326E-01
DAV:   2    -0.125558123093E+03   -0.14047E-02   -0.25807E-02 17280   0.678E-01    0.226E-01
DAV:   3    -0.125557741423E+03    0.38167E-03   -0.14476E-03 19968   0.147E-01    0.530E-02
DAV:   4    -0.125557742851E+03   -0.14274E-05   -0.14899E-04 24336   0.466E-02    0.151E-02
DAV:   5    -0.125557740355E+03    0.24959E-05   -0.13891E-05 24048   0.139E-02    0.607E-03
DAV:   6    -0.125557739943E+03    0.41143E-06   -0.28174E-06 20304   0.787E-03
 108 F= -.12713487E+03 E0= -.12713409E+03  d E =-.664090E-03  mag=    -0.0000
 curvature: -65.87 expect dE=-0.673E-01 dE for cont linesearch -0.170E-03
 ZBRENT: increasing intervall
 opt :   1.2871  next Energy=  -127.135108 (dE=-0.906E-03)
 bond charge predicted
       N       E                     dE             d eps       ncg     rms          rms(c)
DAV:   1    -0.125551219008E+03    0.65213E-02   -0.15112E+01 14208   0.166E+01    0.652E-01
DAV:   2    -0.125557019852E+03   -0.58008E-02   -0.10500E-01 21072   0.136E+00    0.454E-01
DAV:   3    -0.125555416532E+03    0.16033E-02   -0.56417E-03 19968   0.283E-01    0.103E-01
DAV:   4    -0.125555413447E+03    0.30848E-05   -0.62164E-04 27216   0.933E-02    0.296E-02
DAV:   5    -0.125555405390E+03    0.80575E-05   -0.45568E-05 23952   0.244E-02    0.124E-02
DAV:   6    -0.125555405349E+03    0.41246E-07   -0.80869E-06 17904   0.120E-02
 109 F= -.12713509E+03 E0= -.12713431E+03  d E =-.889389E-03  mag=    -0.0000
 curvature: -93.74 expect dE=-0.361E+00 dE for cont linesearch -0.232E-04
 trial: gam= 2.52682 g(F)=  0.386E-02 g(S)=  0.000E+00 ort =-0.279E-03 (trialstep = 0.564E-01)
 search vector abs. value=  0.201E+01
 bond charge predicted
       N       E                     dE             d eps       ncg     rms          rms(c)
DAV:   1    -0.125554941285E+03    0.46411E-03   -0.51829E-01 14208   0.309E+00    0.120E-01
DAV:   2    -0.125555140821E+03   -0.19954E-03   -0.35918E-03 23568   0.252E-01    0.841E-02
DAV:   3    -0.125555086253E+03    0.54568E-04   -0.19802E-04 20400   0.529E-02    0.175E-02
DAV:   4    -0.125555086568E+03   -0.31548E-06   -0.24037E-05 15408   0.196E-02    0.570E-03
DAV:   5    -0.125555086749E+03   -0.18030E-06   -0.31118E-06 16032   0.798E-03
 110 F= -.12713526E+03 E0= -.12713448E+03  d E =-.166717E-03  mag=     0.0000
 ZBRENT: can't locate minimum, use default step
 trial-energy change:   -0.000167  1 .order   -0.000167   -0.000178   -0.000156
 step:   0.2255(harm=  0.4605)  dis= 0.01965  next Energy=  -127.135817 (dE=-0.726E-03)
 bond charge predicted
       N       E                     dE             d eps       ncg     rms          rms(c)
DAV:   1    -0.125552754187E+03    0.23324E-02   -0.46637E+00 14208   0.926E+00    0.361E-01
DAV:   2    -0.125554520631E+03   -0.17664E-02   -0.32014E-02 22272   0.753E-01    0.252E-01
DAV:   3    -0.125554019852E+03    0.50078E-03   -0.17868E-03 20544   0.158E-01    0.528E-02
DAV:   4    -0.125554018532E+03    0.13203E-05   -0.20314E-04 25200   0.534E-02    0.167E-02
DAV:   5    -0.125554016687E+03    0.18446E-05   -0.14447E-05 18720   0.151E-02    0.728E-03
DAV:   6    -0.125554016698E+03   -0.10533E-07   -0.43282E-06 16752   0.101E-02
 111 F= -.12713565E+03 E0= -.12713487E+03  d E =-.555635E-03  mag=     0.0000
 curvature: -97.03 expect dE=-0.260E+00 dE for cont linesearch -0.173E-03
 ZBRENT: increasing intervall
 opt :   0.5637  next Energy=  -127.135992 (dE=-0.900E-03)
 bond charge predicted
       N       E                     dE             d eps       ncg     rms          rms(c)
DAV:   1    -0.125546223957E+03    0.77927E-02   -0.18635E+01 14208   0.185E+01    0.723E-01
DAV:   2    -0.125553387570E+03   -0.71636E-02   -0.12930E-01 21120   0.152E+00    0.503E-01
DAV:   3    -0.125551392800E+03    0.19948E-02   -0.71358E-03 20304   0.317E-01    0.114E-01
DAV:   4    -0.125551386192E+03    0.66079E-05   -0.79649E-04 27264   0.105E-01    0.334E-02
DAV:   5    -0.125551375576E+03    0.10616E-04   -0.56793E-05 23952   0.273E-02    0.140E-02
DAV:   6    -0.125551375774E+03   -0.19816E-06   -0.10140E-05 17616   0.129E-02    0.280E-03
DAV:   7    -0.125551376593E+03   -0.81929E-06   -0.13125E-06 17184   0.552E-03
 112 F= -.12713594E+03 E0= -.12713516E+03  d E =-.845593E-03  mag=    -0.0000
 curvature: ****** expect dE=-0.747E+00 dE for cont linesearch -0.179E-05
 trial: gam= 0.63958 g(F)=  0.387E-02 g(S)=  0.000E+00 ort =-0.136E-03 (trialstep = 0.158E+00)
 search vector abs. value=  0.824E+00
 bond charge predicted
       N       E                     dE             d eps       ncg     rms          rms(c)
DAV:   1    -0.125550555099E+03    0.82068E-03   -0.17014E+00 14208   0.559E+00    0.219E-01
DAV:   2    -0.125551155873E+03   -0.60077E-03   -0.11744E-02 23856   0.456E-01    0.152E-01
DAV:   3    -0.125550964159E+03    0.19171E-03   -0.70052E-04 20496   0.977E-02    0.316E-02
DAV:   4    -0.125550963202E+03    0.95701E-06   -0.83779E-05 21024   0.334E-02    0.106E-02
DAV:   5    -0.125550963183E+03    0.18927E-07   -0.58627E-06 22272   0.898E-03
 113 F= -.12713643E+03 E0= -.12713565E+03  d E =-.489391E-03  mag=    -0.0000
 trial-energy change:   -0.000489  1 .order   -0.000485   -0.000597   -0.000372
 step:   0.3596(harm=  0.4188)  dis= 0.02187  next Energy=  -127.136675 (dE=-0.737E-03)
 bond charge predicted
       N       E                     dE             d eps       ncg     rms          rms(c)
DAV:   1    -0.125549449306E+03    0.15139E-02   -0.27782E+00 14208   0.714E+00    0.280E-01
DAV:   2    -0.125550425969E+03   -0.97666E-03   -0.19108E-02 22896   0.583E-01    0.194E-01
DAV:   3    -0.125550115783E+03    0.31019E-03   -0.11430E-03 20640   0.125E-01    0.409E-02
DAV:   4    -0.125550114305E+03    0.14782E-05   -0.13418E-04 25152   0.424E-02    0.135E-02
DAV:   5    -0.125550113582E+03    0.72307E-06   -0.80245E-06 17328   0.107E-02
 114 F= -.12713673E+03 E0= -.12713595E+03  d E =-.795665E-03  mag=     0.0000
 curvature: -43.29 expect dE=-0.279E-01 dE for cont linesearch -0.178E-04
 ZBRENT: extrapolating
 opt :   0.4258  next Energy=  -127.136752 (dE=-0.815E-03)
 bond charge predicted
       N       E                     dE             d eps       ncg     rms          rms(c)
DAV:   1    -0.125549681566E+03    0.43274E-03   -0.29981E-01 14208   0.235E+00    0.916E-02
DAV:   2    -0.125549788756E+03   -0.10719E-03   -0.20763E-03 21744   0.193E-01    0.635E-02
DAV:   3    -0.125549757418E+03    0.31338E-04   -0.12442E-04 19824   0.421E-02    0.137E-02
DAV:   4    -0.125549757682E+03   -0.26391E-06   -0.14706E-05 18336   0.151E-02    0.462E-03
DAV:   5    -0.125549757782E+03   -0.10015E-06   -0.15477E-06 16320   0.554E-03
 115 F= -.12713676E+03 E0= -.12713598E+03  d E =-.819795E-03  mag=     0.0000
 curvature: -46.86 expect dE=-0.364E-01 dE for cont linesearch -0.124E-06
 trial: gam= 0.20170 g(F)=  0.776E-03 g(S)=  0.000E+00 ort = 0.467E-04 (trialstep = 0.211E+00)
 search vector abs. value=  0.343E-01
 bond charge predicted
       N       E                     dE             d eps       ncg     rms          rms(c)
DAV:   1    -0.125549613592E+03    0.14409E-03   -0.13040E-01 14208   0.155E+00    0.611E-02
DAV:   2    -0.125549655447E+03   -0.41855E-04   -0.92775E-04 23280   0.130E-01    0.420E-02
DAV:   3    -0.125549640877E+03    0.14570E-04   -0.58672E-05 18768   0.289E-02    0.929E-03
DAV:   4    -0.125549641057E+03   -0.17991E-06   -0.70856E-06 19152   0.107E-02
 116 F= -.12713689E+03 E0= -.12713611E+03  d E =-.129752E-03  mag=    -0.0000
 trial-energy change:   -0.000130  1 .order   -0.000127   -0.000166   -0.000088
 step:   0.4513(harm=  0.4513)  dis= 0.00570  next Energy=  -127.136935 (dE=-0.177E-03)
 bond charge predicted
       N       E                     dE             d eps       ncg     rms          rms(c)
DAV:   1    -0.125549380836E+03    0.26004E-03   -0.16790E-01 14208   0.176E+00    0.696E-02
DAV:   2    -0.125549434976E+03   -0.54140E-04   -0.11926E-03 21408   0.147E-01    0.477E-02
DAV:   3    -0.125549416614E+03    0.18361E-04   -0.77347E-05 19200   0.334E-02    0.107E-02
DAV:   4    -0.125549416743E+03   -0.12881E-06   -0.90308E-06 18384   0.121E-02
 117 F= -.12713694E+03 E0= -.12713616E+03  d E =-.185166E-03  mag=    -0.0000
 curvature:  -9.86 expect dE=-0.608E-02 dE for cont linesearch -0.240E-07
 trial: gam= 0.79002 g(F)=  0.617E-03 g(S)=  0.000E+00 ort = 0.914E-05 (trialstep = 0.259E+00)
 search vector abs. value=  0.221E-01
 bond charge predicted
       N       E                     dE             d eps       ncg     rms          rms(c)
DAV:   1    -0.125549288599E+03    0.12802E-03   -0.12616E-01 14208   0.152E+00    0.600E-02
DAV:   2    -0.125549325329E+03   -0.36730E-04   -0.89226E-04 21264   0.127E-01    0.411E-02
DAV:   3    -0.125549312157E+03    0.13172E-04   -0.57666E-05 19392   0.287E-02    0.940E-03
DAV:   4    -0.125549312286E+03   -0.12887E-06   -0.67494E-06 16464   0.110E-02
 118 F= -.12713707E+03 E0= -.12713629E+03  d E =-.132129E-03  mag=    -0.0000
 trial-energy change:   -0.000132  1 .order   -0.000129   -0.000162   -0.000095
 step:   0.6316(harm=  0.6316)  dis= 0.00621  next Energy=  -127.137140 (dE=-0.197E-03)
 bond charge predicted
       N       E                     dE             d eps       ncg     rms          rms(c)
DAV:   1    -0.125549000693E+03    0.31146E-03   -0.25966E-01 14208   0.218E+00    0.858E-02
DAV:   2    -0.125549074516E+03   -0.73823E-04   -0.18298E-03 20784   0.182E-01    0.586E-02
DAV:   3    -0.125549046783E+03    0.27733E-04   -0.11886E-04 19440   0.411E-02    0.135E-02
DAV:   4    -0.125549046968E+03   -0.18444E-06   -0.13411E-05 17616   0.152E-02    0.455E-03
DAV:   5    -0.125549046940E+03    0.27285E-07   -0.19430E-06 15648   0.674E-03
 119 F= -.12713715E+03 E0= -.12713637E+03  d E =-.206661E-03  mag=    -0.0000
 curvature: -11.16 expect dE=-0.125E-02 dE for cont linesearch -0.120E-06
 trial: gam= 0.20806 g(F)=  0.112E-03 g(S)=  0.000E+00 ort = 0.154E-04 (trialstep = 0.334E+00)
 search vector abs. value=  0.107E-02
 bond charge predicted
       N       E                     dE             d eps       ncg     rms          rms(c)
DAV:   1    -0.125549000285E+03    0.46683E-04   -0.10266E-02 14208   0.434E-01    0.173E-02
DAV:   2    -0.125549003735E+03   -0.34503E-05   -0.83636E-05 20928   0.397E-02    0.117E-02
DAV:   3    -0.125549002548E+03    0.11868E-05   -0.61082E-06 18144   0.108E-02    0.337E-03
DAV:   4    -0.125549002618E+03   -0.69292E-07   -0.19493E-06 14208   0.727E-03
 120 F= -.12713718E+03 E0= -.12713640E+03  d E =-.278074E-04  mag=     0.0000
 trial-energy change:   -0.000028  1 .order   -0.000027   -0.000038   -0.000016
 step:   0.5856(harm=  0.5856)  dis= 0.00127  next Energy=  -127.137183 (dE=-0.336E-04)
 bond charge predicted
       N       E                     dE             d eps       ncg     rms          rms(c)
DAV:   1    -0.125548953973E+03    0.48575E-04   -0.58376E-03 15120   0.327E-01    0.133E-02
DAV:   2    -0.125548955600E+03   -0.16267E-05   -0.44732E-05 21408   0.288E-02    0.891E-03
DAV:   3    -0.125548954957E+03    0.64266E-06   -0.34685E-06 16464   0.792E-03
 121 F= -.12713718E+03 E0= -.12713640E+03  d E =-.344445E-04  mag=    -0.0000
 curvature:  -2.74 expect dE=-0.347E-03 dE for cont linesearch -0.632E-08
 trial: gam= 1.16638 g(F)=  0.127E-03 g(S)=  0.000E+00 ort =-0.157E-05 (trialstep = 0.260E+00)
 search vector abs. value=  0.158E-02
 bond charge predicted
       N       E                     dE             d eps       ncg     rms          rms(c)
DAV:   1    -0.125548909072E+03    0.46528E-04   -0.93065E-03 14208   0.410E-01    0.164E-02
DAV:   2    -0.125548911373E+03   -0.23015E-05   -0.69401E-05 19056   0.360E-02    0.111E-02
DAV:   3    -0.125548910375E+03    0.99827E-06   -0.58783E-06 18192   0.989E-03
 122 F= -.12713721E+03 E0= -.12713643E+03  d E =-.274035E-04  mag=     0.0000
 trial-energy change:   -0.000027  1 .order   -0.000026   -0.000033   -0.000020
 step:   0.6926(harm=  0.6926)  dis= 0.00183  next Energy=  -127.137227 (dE=-0.433E-04)
 bond charge predicted
       N       E                     dE             d eps       ncg     rms          rms(c)
DAV:   1    -0.125548807070E+03    0.10430E-03   -0.25639E-02 14208   0.680E-01    0.271E-02
DAV:   2    -0.125548813360E+03   -0.62895E-05   -0.19017E-04 18960   0.593E-02    0.182E-02
DAV:   3    -0.125548810639E+03    0.27211E-05   -0.15583E-05 18480   0.156E-02    0.439E-03
DAV:   4    -0.125548810742E+03   -0.10347E-06   -0.31898E-06 15168   0.869E-03
 123 F= -.12713723E+03 E0= -.12713645E+03  d E =-.472366E-04  mag=     0.0000
 curvature:  -4.38 expect dE=-0.199E-03 dE for cont linesearch -0.151E-06
 trial: gam= 0.25768 g(F)=  0.454E-04 g(S)=  0.000E+00 ort = 0.738E-05 (trialstep = 0.347E+00)
 search vector abs. value=  0.154E-03
 bond charge predicted
       N       E                     dE             d eps       ncg     rms          rms(c)
DAV:   1    -0.125548788088E+03    0.22551E-04   -0.17018E-03 14928   0.175E-01    0.793E-03
DAV:   2    -0.125548788462E+03   -0.37454E-06   -0.17077E-05 19680   0.188E-02    0.501E-03
DAV:   3    -0.125548788200E+03    0.26203E-06   -0.24992E-06 16752   0.745E-03
 124 F= -.12713724E+03 E0= -.12713646E+03  d E =-.100891E-04  mag=     0.0000
 trial-energy change:   -0.000010  1 .order   -0.000010   -0.000016   -0.000003
 step:   0.4299(harm=  0.4299)  dis= 0.00035  next Energy=  -127.137241 (dE=-0.102E-04)
 bond charge predicted
       N       E                     dE             d eps       ncg     rms          rms(c)
DAV:   1    -0.125548780865E+03    0.75975E-05   -0.99282E-05 14976   0.427E-02    0.231E-03
DAV:   2    -0.125548780923E+03   -0.58668E-07   -0.14218E-06 16896   0.616E-03
 125 F= -.12713724E+03 E0= -.12713646E+03  d E =-.106246E-04  mag=    -0.0000
 curvature:  -0.70 expect dE=-0.147E-04 dE for cont linesearch -0.123E-07
 trial: gam= 0.48520 g(F)=  0.210E-04 g(S)=  0.000E+00 ort = 0.165E-05 (trialstep = 0.363E+00)
 search vector abs. value=  0.589E-04
 bond charge predicted
       N       E                     dE             d eps       ncg     rms          rms(c)
DAV:   1    -0.125548761727E+03    0.19138E-04   -0.66048E-04 14448   0.110E-01    0.506E-03
DAV:   2    -0.125548761848E+03   -0.12108E-06   -0.69364E-06 14352   0.123E-02
 126 F= -.12713725E+03 E0= -.12713647E+03  d E =-.515479E-05  mag=    -0.0000
 trial-energy change:   -0.000005  1 .order   -0.000005   -0.000008   -0.000002
 step:   0.5209(harm=  0.5209)  dis= 0.00028  next Energy=  -127.137247 (dE=-0.567E-05)
 bond charge predicted
       N       E                     dE             d eps       ncg     rms          rms(c)
DAV:   1    -0.125548751761E+03    0.99658E-05   -0.11951E-04 15024   0.473E-02    0.286E-03
DAV:   2    -0.125548751769E+03   -0.82591E-08   -0.17874E-06 14688   0.703E-03
 127 F= -.12713725E+03 E0= -.12713647E+03  d E =-.557367E-05  mag=    -0.0000
 curvature:  -0.70 expect dE=-0.907E-05 dE for cont linesearch -0.537E-09
 trial: gam= 0.64119 g(F)=  0.129E-04 g(S)=  0.000E+00 ort =-0.212E-06 (trialstep = 0.395E+00)
 search vector abs. value=  0.368E-04
 bond charge predicted
       N       E                     dE             d eps       ncg     rms          rms(c)
DAV:   1    -0.125548731722E+03    0.20039E-04   -0.39152E-04 14784   0.837E-02    0.403E-03
DAV:   2    -0.125548731733E+03   -0.10368E-07   -0.44224E-06 14208   0.104E-02
 128 F= -.12713725E+03 E0= -.12713647E+03  d E =-.376809E-05  mag=    -0.0000
 trial-energy change:   -0.000004  1 .order   -0.000004   -0.000005   -0.000002
 step:   0.7827(harm=  0.7827)  dis= 0.00040  next Energy=  -127.137252 (dE=-0.498E-05)
