Lattice                                 
           1
     4.334457    2.502500    0.000000
    -4.334457    2.502500    0.000000
     0.000000    0.000000   15.000000
   B    C 
     2    14
Direct configuration=     1
   0.33833034  0.66916432  0.10000000
   0.67165522  0.33584146  0.10000000
   0.16373946  0.31999962  0.10000000
   0.32250218  0.16126397  0.10000000
   0.16376430  0.84376384  0.10000000
   0.84623863  0.16123684  0.10000000
   0.68749850  0.84373000  0.10000000
   0.84626736  0.68499594  0.10000000
   0.24999933  0.24999967  0.32633333
   0.41666633  0.08333267  0.32633333
   0.24999933  0.74999967  0.32633333
   0.41666633  0.58333267  0.32633333
   0.74999933  0.24999967  0.32633333
   0.91666633  0.08333267  0.32633333
   0.74999933  0.74999967  0.32633333
   0.91666633  0.58333267  0.32633333
Direct configuration=     2
   0.33843847  0.66905994  0.10013857
   0.67179139  0.33570468  0.10008125
   0.16819445  0.32886216  0.09994811
   0.33106238  0.16557379  0.09997925
   0.16802986  0.83949169  0.09996055
   0.84178185  0.16567393  0.09996237
   0.67865146  0.83929930  0.09994864
   0.84193227  0.67644931  0.09997950
   0.24986842  0.24960604  0.32640178
   0.41630591  0.08328086  0.32639187
   0.24982145  0.75018902  0.32626896
   0.41677366  0.58322197  0.32622901
   0.75003497  0.24995524  0.32620895
   0.91686358  0.08312805  0.32637788
   0.75039388  0.75013771  0.32640322
   0.91671467  0.58369165  0.32638676
Direct configuration=     3
   0.33835792  0.66913770  0.10003535
   0.67168995  0.33580657  0.10002072
   0.16487581  0.32226022  0.09998676
   0.32468567  0.16236329  0.09999471
   0.16485233  0.84267413  0.09998994
   0.84510182  0.16236863  0.09999040
   0.68524186  0.84259985  0.09998690
   0.84516159  0.68281592  0.09999477
   0.24996594  0.24989926  0.32635079
   0.41657440  0.08331945  0.32634826
   0.24995396  0.75004797  0.32631691
   0.41669371  0.58330443  0.32630672
   0.75000842  0.24998833  0.32630161
   0.91671665  0.08328047  0.32634470
   0.75009997  0.75003488  0.32635116
   0.91667866  0.58342423  0.32634696
Direct configuration=     4
   0.33835790  0.66913772  0.10003531
   0.67168991  0.33580661  0.10002070
   0.16487467  0.32225795  0.09998678
   0.32468347  0.16236218  0.09999471
   0.16485124  0.84267522  0.09998995
   0.84510297  0.16236749  0.09999041
   0.68524413  0.84260098  0.09998691
   0.84516270  0.68281811  0.09999478
   0.24996597  0.24989936  0.32635077
   0.41657449  0.08331947  0.32634825
   0.24995401  0.75004792  0.32631693
   0.41669368  0.58330446  0.32630675
   0.75000842  0.24998835  0.32630164
   0.91671660  0.08328053  0.32634468
   0.75009987  0.75003484  0.32635114
   0.91667865  0.58342414  0.32634695
Direct configuration=     5
   0.33835768  0.66914310  0.10012486
   0.67168826  0.33580935  0.10007216
   0.16482664  0.32226427  0.09995425
   0.32469004  0.16239997  0.09997890
   0.16483335  0.84267889  0.09996852
   0.84512833  0.16235911  0.09996304
   0.68523080  0.84265452  0.09995466
   0.84511889  0.68281445  0.09997931
   0.24995962  0.24985126  0.32639765
   0.41655240  0.08329568  0.32638433
   0.24994087  0.75006048  0.32627602
   0.41671529  0.58328332  0.32623793
   0.75001390  0.24998094  0.32622292
   0.91675365  0.08324325  0.32637356
   0.75014640  0.75004014  0.32639888
   0.91670253  0.58344661  0.32637968
Direct configuration=     6
   0.33835760  0.66914508  0.10015784
   0.67168765  0.33581036  0.10009111
   0.16480895  0.32226660  0.09994227
   0.32469246  0.16241388  0.09997308
   0.16482677  0.84268024  0.09996063
   0.84513767  0.16235602  0.09995295
   0.68522590  0.84267423  0.09994278
   0.84510276  0.68281310  0.09997361
   0.24995728  0.24983354  0.32641492
   0.41654427  0.08328692  0.32639762
   0.24993603  0.75006511  0.32626095
   0.41672325  0.58327554  0.32621259
   0.75001593  0.24997821  0.32619393
   0.91676729  0.08322952  0.32638419
   0.75016354  0.75004209  0.32641647
   0.91671133  0.58345489  0.32639174
Direct configuration=     7
   0.33829448  0.66918798  0.10024232
   0.67169306  0.33581314  0.10014588
   0.16496182  0.32231300  0.09991676
   0.32459969  0.16236477  0.09995140
   0.16478756  0.84273266  0.09995323
   0.84502705  0.16244653  0.09991285
   0.68520883  0.84255916  0.09991775
   0.84511968  0.68289658  0.09995243
   0.25002116  0.24989291  0.32645492
   0.41663682  0.08329907  0.32640899
   0.25001347  0.74998787  0.32622932
   0.41671396  0.58328066  0.32616406
   0.75005324  0.24994422  0.32615156
   0.91672555  0.08326880  0.32640819
   0.75010623  0.74997923  0.32645649
   0.91669607  0.58335877  0.32640053
Direct configuration=     8
   0.33833369  0.66916133  0.10018984
   0.67168970  0.33581142  0.10011186
   0.16486685  0.32228418  0.09993261
   0.32465732  0.16239528  0.09996486
   0.16481192  0.84270010  0.09995782
   0.84509577  0.16239030  0.09993777
   0.68521943  0.84263064  0.09993330
   0.84510917  0.68284472  0.09996559
   0.24998148  0.24985603  0.32643007
   0.41657932  0.08329152  0.32640193
   0.24996536  0.75003585  0.32624897
   0.41671973  0.58327748  0.32619421
   0.75003006  0.24996534  0.32617788
   0.91675148  0.08324440  0.32639328
   0.75014183  0.75001828  0.32643162
   0.91670555  0.58341848  0.32639507
Direct configuration=     9
   0.33831168  0.66918743  0.10021694
   0.67165093  0.33584508  0.10013207
   0.16483486  0.32230122  0.09992657
   0.32466939  0.16238078  0.09995502
   0.16477964  0.84271620  0.09996509
   0.84510726  0.16239832  0.09991417
   0.68519420  0.84265709  0.09992763
   0.84513098  0.68284142  0.09995609
   0.25000643  0.24987271  0.32643827
   0.41662195  0.08328556  0.32638996
   0.24999477  0.75000532  0.32624235
   0.41672745  0.58326880  0.32619291
   0.75004578  0.24994966  0.32618710
   0.91674755  0.08324798  0.32640055
   0.75012477  0.74999262  0.32643922
   0.91671103  0.58337514  0.32638272
Direct configuration=    10
   0.33832021  0.66917731  0.10020644
   0.67166596  0.33583203  0.10012423
   0.16484726  0.32229461  0.09992891
   0.32466471  0.16238640  0.09995884
   0.16479215  0.84270996  0.09996227
   0.84510281  0.16239521  0.09992332
   0.68520398  0.84264684  0.09992983
   0.84512252  0.68284270  0.09995977
   0.24999676  0.24986624  0.32643509
   0.41660543  0.08328787  0.32639460
   0.24998337  0.75001715  0.32624492
   0.41672446  0.58327216  0.32619341
   0.75003969  0.24995573  0.32618353
   0.91674907  0.08324659  0.32639773
   0.75013138  0.75000257  0.32643627
   0.91670891  0.58339194  0.32638751
Direct configuration=    11
   0.33829897  0.66919814  0.10022663
   0.67165097  0.33584964  0.10013830
   0.16483510  0.32230125  0.09992345
   0.32465142  0.16241583  0.09995291
   0.16478851  0.84271539  0.09997114
   0.84509187  0.16240730  0.09990248
   0.68519923  0.84266659  0.09992481
   0.84508659  0.68285304  0.09995423
   0.25000801  0.24984716  0.32643770
   0.41661649  0.08327013  0.32638136
   0.24999367  0.75000599  0.32624008
   0.41674170  0.58325464  0.32619949
   0.75005243  0.24994190  0.32619758
   0.91676791  0.08322737  0.32640414
   0.75014946  0.74999036  0.32643821
   0.91672632  0.58338060  0.32637416
Direct configuration=    12
   0.33828886  0.66920805  0.10023624
   0.67164384  0.33585803  0.10014500
   0.16482931  0.32230441  0.09992084
   0.32464510  0.16242984  0.09995009
   0.16478678  0.84271798  0.09997537
   0.84508666  0.16241305  0.09989256
   0.68519697  0.84267599  0.09992243
   0.84506949  0.68285796  0.09995159
   0.25001337  0.24983807  0.32643894
   0.41662176  0.08326168  0.32637506
   0.24999858  0.75000068  0.32623777
   0.41674992  0.58324630  0.32620238
   0.75005850  0.24993531  0.32620426
   0.91677688  0.08321822  0.32640720
   0.75015806  0.74998455  0.32643913
   0.91673461  0.58337521  0.32636781
Direct configuration=    13
   0.33828706  0.66921163  0.10025106
   0.67163720  0.33586403  0.10015068
   0.16481667  0.32233754  0.09991225
   0.32461848  0.16243295  0.09995186
   0.16475137  0.84274714  0.09998498
   0.84506309  0.16244081  0.09987551
   0.68516465  0.84268971  0.09991440
   0.84506692  0.68288918  0.09995384
   0.25002801  0.24980528  0.32643683
   0.41662529  0.08324181  0.32636748
   0.25001172  0.74998742  0.32623163
   0.41676776  0.58322739  0.32621156
   0.75007707  0.24991621  0.32621330
   0.91679970  0.08319409  0.32641457
   0.75019045  0.74996965  0.32643649
   0.91675323  0.58337049  0.32636021
Direct configuration=    14
   0.33828674  0.66921228  0.10025372
   0.67163601  0.33586510  0.10015170
   0.16481441  0.32234348  0.09991071
   0.32461371  0.16243350  0.09995218
   0.16474502  0.84275237  0.09998670
   0.84505887  0.16244579  0.09987246
   0.68515885  0.84269218  0.09991295
   0.84506646  0.68289478  0.09995425
   0.25003064  0.24979939  0.32643646
   0.41662592  0.08323825  0.32636613
   0.25001408  0.74998504  0.32623053
   0.41677096  0.58322400  0.32621321
   0.75008040  0.24991278  0.32621492
   0.91680379  0.08318976  0.32641590
   0.75019626  0.74996698  0.32643602
   0.91675657  0.58336965  0.32635884
Direct configuration=    15
   0.33826691  0.66923292  0.10026069
   0.67161756  0.33588519  0.10014933
   0.16479030  0.32236198  0.09990036
   0.32459330  0.16245777  0.09996096
   0.16472632  0.84277128  0.09999785
   0.84503908  0.16246735  0.09985951
   0.68514142  0.84271865  0.09990326
   0.84504138  0.68291524  0.09996361
   0.25005281  0.24978195  0.32643245
   0.41665033  0.08321808  0.32636539
   0.25003692  0.74996124  0.32622489
   0.41679060  0.58320342  0.32622041
   0.75010117  0.24989121  0.32621642
   0.91682185  0.08317085  0.32642166
   0.75021288  0.74994392  0.32643178
   0.91677584  0.58334430  0.32635811
Direct configuration=    16
   0.33820744  0.66929483  0.10028159
   0.67156220  0.33594544  0.10014220
   0.16471797  0.32241749  0.09986934
   0.32453207  0.16253056  0.09998731
   0.16467024  0.84282804  0.10003128
   0.84497971  0.16253205  0.09982068
   0.68508910  0.84279806  0.09987419
   0.84496615  0.68297660  0.09999168
   0.25011934  0.24972962  0.32642042
   0.41672354  0.08315757  0.32636320
   0.25010547  0.74988982  0.32620796
   0.41684954  0.58314167  0.32624200
   0.75016349  0.24982650  0.32622091
   0.91687603  0.08311411  0.32643896
   0.75026274  0.74987473  0.32641905
   0.91683365  0.58326825  0.32635590
Direct configuration=    17
   0.33808849  0.66941867  0.10032340
   0.67145149  0.33606595  0.10012796
   0.16457330  0.32252850  0.09980729
   0.32440962  0.16267614  0.10004000
   0.16455807  0.84294154  0.10009813
   0.84486096  0.16266144  0.09974300
   0.68498447  0.84295688  0.09981604
   0.84481568  0.68309933  0.10004782
   0.25025239  0.24962495  0.32639636
   0.41686998  0.08303655  0.32635882
   0.25024255  0.74974699  0.32617412
   0.41696741  0.58301819  0.32628519
   0.75028813  0.24969708  0.32622990
   0.91698439  0.08300063  0.32647355
   0.75036245  0.74973634  0.32639361
   0.91694928  0.58311614  0.32635148
Direct configuration=    18
   0.33817140  0.66933235  0.10029426
   0.67152866  0.33598194  0.10013789
   0.16467414  0.32245112  0.09985054
   0.32449498  0.16257466  0.10000327
   0.16463626  0.84286242  0.10005153
   0.84494373  0.16257125  0.09979715
   0.68505740  0.84284617  0.09985658
   0.84492057  0.68301378  0.10000868
   0.25015964  0.24969791  0.32641313
   0.41676791  0.08312091  0.32636187
   0.25014700  0.74984656  0.32619771
   0.41688525  0.58310427  0.32625508
   0.75020125  0.24978729  0.32622363
   0.91690886  0.08307973  0.32644944
   0.75029294  0.74983281  0.32641135
   0.91686868  0.58322217  0.32635456
Direct configuration=    19
   0.33816007  0.66934426  0.10029517
   0.67151571  0.33599485  0.10013684
   0.16466515  0.32246279  0.09984664
   0.32448496  0.16258385  0.10000717
   0.16462510  0.84287347  0.10005887
   0.84493368  0.16258237  0.09978983
   0.68504595  0.84285560  0.09985300
   0.84491200  0.68302467  0.10001289
   0.25016970  0.24968651  0.32641289
   0.41677811  0.08310948  0.32636155
   0.25015686  0.74983619  0.32619685
   0.41689632  0.58309281  0.32625571
   0.75021149  0.24977651  0.32622388
   0.91692002  0.08306816  0.32645005
   0.75030383  0.74982224  0.32641108
   0.91687971  0.58321157  0.32635423
Direct configuration=    20
   0.33812607  0.66938001  0.10029791
   0.67147686  0.33603357  0.10013368
   0.16463818  0.32249781  0.09983493
   0.32445493  0.16261141  0.10001887
   0.16459161  0.84290664  0.10008091
   0.84490351  0.16261575  0.09976788
   0.68501159  0.84288390  0.09984229
   0.84488628  0.68305733  0.10002550
   0.25019986  0.24965232  0.32641219
   0.41680874  0.08307520  0.32636058
   0.25018646  0.74980508  0.32619428
   0.41692955  0.58305843  0.32625758
   0.75024221  0.24974415  0.32622464
   0.91695353  0.08303343  0.32645191
   0.75033647  0.74979056  0.32641028
   0.91691280  0.58317976  0.32635322
Direct configuration=    21
   0.33805806  0.66945150  0.10030340
   0.67139916  0.33611101  0.10012738
   0.16458425  0.32256785  0.09981152
   0.32439486  0.16266653  0.10004227
   0.16452464  0.84297297  0.10012498
   0.84484318  0.16268250  0.09972398
   0.68494288  0.84294049  0.09982087
   0.84483486  0.68312265  0.10005073
   0.25026017  0.24958393  0.32641078
   0.41687000  0.08300663  0.32635865
   0.25024565  0.74974286  0.32618914
   0.41699602  0.58298967  0.32626133
   0.75030365  0.24967944  0.32622615
   0.91702055  0.08296398  0.32645561
   0.75040176  0.74972719  0.32640868
   0.91697898  0.58311615  0.32635121
Direct configuration=    22
   0.33792205  0.66959449  0.10031436
   0.67124376  0.33626589  0.10011477
   0.16447637  0.32270792  0.09976468
   0.32427473  0.16277677  0.10008906
   0.16439069  0.84310562  0.10021311
   0.84472252  0.16281600  0.09963619
   0.68480545  0.84305367  0.09977802
   0.84473201  0.68325329  0.10010119
   0.25038081  0.24944715  0.32640797
   0.41699250  0.08286950  0.32635478
   0.25036403  0.74961842  0.32617886
   0.41712894  0.58285215  0.32626883
   0.75042653  0.24955002  0.32622917
   0.91715458  0.08282508  0.32646302
   0.75053235  0.74960045  0.32640547
   0.91711134  0.58298893  0.32634718
Direct configuration=    23
   0.33765003  0.66988046  0.10033630
   0.67093296  0.33657565  0.10008956
   0.16426063  0.32298807  0.09967101
   0.32403446  0.16299726  0.10018266
   0.16412281  0.84337094  0.10038939
   0.84448119  0.16308300  0.09946060
   0.68453058  0.84328003  0.09969232
   0.84452631  0.68351457  0.10020210
   0.25062208  0.24917358  0.32640234
   0.41723752  0.08259523  0.32634705
   0.25060080  0.74936955  0.32615830
   0.41739479  0.58257712  0.32628382
   0.75067230  0.24929117  0.32623520
   0.91742264  0.08254727  0.32647784
   0.75079352  0.74934697  0.32639907
   0.91737605  0.58273448  0.32633913
Direct configuration=    24
   0.33710600  0.67045239  0.10038017
   0.67031136  0.33719516  0.10003913
   0.16382913  0.32354837  0.09948367
   0.32355392  0.16343823  0.10036984
   0.16358703  0.84390157  0.10074194
   0.84399853  0.16361701  0.09910942
   0.68398086  0.84373274  0.09952092
   0.84411492  0.68403713  0.10040392
   0.25110463  0.24862646  0.32639108
   0.41772755  0.08204669  0.32633159
   0.25107433  0.74887181  0.32611717
   0.41792649  0.58202705  0.32631380
   0.75116383  0.24877347  0.32624727
   0.91795876  0.08199166  0.32650747
   0.75131586  0.74884000  0.32638625
   0.91790548  0.58222558  0.32632302
Direct configuration=    25
   0.33745235  0.67008828  0.10035224
   0.67070709  0.33680076  0.10007124
   0.16410383  0.32319167  0.09960294
   0.32385984  0.16315749  0.10025068
   0.16392812  0.84356376  0.10051750
   0.84430580  0.16327704  0.09933299
   0.68433083  0.84344453  0.09963003
   0.84437682  0.68370445  0.10027544
   0.25079743  0.24897477  0.32639825
   0.41741558  0.08239590  0.32634143
   0.25077287  0.74918869  0.32614335
   0.41758800  0.58237724  0.32629471
   0.75085091  0.24910305  0.32623959
   0.91761745  0.08234538  0.32648860
   0.75098332  0.74916275  0.32639441
   0.91756843  0.58254956  0.32633327
Direct configuration=    26
   0.33743937  0.67010166  0.10035285
   0.67069423  0.33681427  0.10007028
   0.16409212  0.32320455  0.09959857
   0.32384677  0.16317041  0.10025508
   0.16391597  0.84357660  0.10052656
   0.84429288  0.16329041  0.09932408
   0.68431872  0.84345730  0.09962606
   0.84436395  0.68371782  0.10028021
   0.25081008  0.24896139  0.32639829
   0.41742789  0.08238283  0.32634106
   0.25078546  0.74917557  0.32614276
   0.41760054  0.58236415  0.32629489
   0.75086356  0.24908987  0.32623979
   0.91763002  0.08233225  0.32648888
   0.75099619  0.74914958  0.32639443
   0.91758094  0.58253669  0.32633288
Direct configuration=    27
   0.33740043  0.67014178  0.10035470
   0.67065564  0.33685481  0.10006739
   0.16405697  0.32324319  0.09958546
   0.32380755  0.16320915  0.10026831
   0.16387954  0.84361513  0.10055373
   0.84425413  0.16333049  0.09929734
   0.68428240  0.84349562  0.09961413
   0.84432533  0.68375790  0.10029454
   0.25084803  0.24892123  0.32639840
   0.41746479  0.08234361  0.32633993
   0.25082325  0.74913623  0.32614100
   0.41763814  0.58232486  0.32629541
   0.75090151  0.24905033  0.32624042
   0.91766771  0.08229284  0.32648969
   0.75103479  0.74911007  0.32639448
   0.91761845  0.58249808  0.32633171
Direct configuration=    28
   0.33732255  0.67022203  0.10035840
   0.67057847  0.33693587  0.10006162
   0.16398669  0.32332047  0.09955925
   0.32372913  0.16328663  0.10029476
   0.16380667  0.84369220  0.10060809
   0.84417662  0.16341066  0.09924387
   0.68420977  0.84357226  0.09959028
   0.84424809  0.68383807  0.10032319
   0.25092392  0.24884092  0.32639864
   0.41753860  0.08226517  0.32633769
   0.25089882  0.74905754  0.32613748
   0.41771336  0.58224630  0.32629646
   0.75097741  0.24897124  0.32624167
   0.91774311  0.08221404  0.32649132
   0.75111199  0.74903105  0.32639459
   0.91769348  0.58242087  0.32632937
Direct configuration=    29
   0.33716679  0.67038252  0.10036580
   0.67042412  0.33709801  0.10005007
   0.16384611  0.32347503  0.09950684
   0.32357227  0.16344160  0.10034765
   0.16366094  0.84384633  0.10071680
   0.84402159  0.16357100  0.09913693
   0.68406449  0.84372554  0.09954257
   0.84409362  0.68399841  0.10038049
   0.25107572  0.24868029  0.32639911
   0.41768621  0.08210830  0.32633319
   0.25104996  0.74890017  0.32613043
   0.41786380  0.58208918  0.32629855
   0.75112921  0.24881306  0.32624416
   0.91789391  0.08205644  0.32649458
   0.75126639  0.74887302  0.32639480
   0.91784353  0.58226645  0.32632468
Direct configuration=    30
   0.33685528  0.67070351  0.10038060
   0.67011543  0.33742228  0.10002699
   0.16356497  0.32378414  0.09940200
   0.32325856  0.16375153  0.10045344
   0.16336947  0.84415460  0.10093423
   0.84371155  0.16389167  0.09892305
   0.68377395  0.84403209  0.09944715
   0.84378466  0.68431908  0.10049510
   0.25137931  0.24835904  0.32640005
   0.41798144  0.08179454  0.32632421
   0.25135224  0.74858543  0.32611634
   0.41816467  0.58177492  0.32630274
   0.75143282  0.24849671  0.32624915
   0.91819549  0.08174123  0.32650110
   0.75157520  0.74855695  0.32639522
   0.91814364  0.58195760  0.32631532
Direct configuration=    31
   0.33623225  0.67134549  0.10041019
   0.66949805  0.33807082  0.09998082
   0.16300268  0.32440237  0.09919233
   0.32263113  0.16437140  0.10066502
   0.16278653  0.84477114  0.10136907
   0.84309146  0.16453302  0.09849527
   0.68319285  0.84464520  0.09925631
   0.84316676  0.68496043  0.10072431
   0.25198648  0.24771653  0.32640193
   0.41857190  0.08116704  0.32630623
   0.25195681  0.74795594  0.32608816
   0.41876641  0.58114642  0.32631112
   0.75204003  0.24786400  0.32625913
   0.91879867  0.08111081  0.32651413
   0.75219280  0.74792482  0.32639607
   0.91874387  0.58133990  0.32629658
Direct configuration=    32
   0.33498619  0.67262944  0.10046937
   0.66826329  0.33936790  0.09988847
   0.16187809  0.32563883  0.09877298
   0.32137628  0.16561114  0.10108819
   0.16162065  0.84600421  0.10223877
   0.84185128  0.16581572  0.09763973
   0.68203067  0.84587141  0.09887464
   0.84193094  0.68624314  0.10118274
   0.25320084  0.24643152  0.32640569
   0.41975282  0.07991203  0.32627028
   0.25316594  0.74669697  0.32603179
   0.41996989  0.57988941  0.32632787
   0.75325445  0.24659858  0.32627908
   0.92000503  0.07984998  0.32654021
   0.75342801  0.74666056  0.32639776
   0.91994431  0.58010450  0.32625910
Direct configuration=    33
   0.33249407  0.67519735  0.10058774
   0.66579376  0.34196207  0.09970378
   0.15962893  0.32811174  0.09793429
   0.31886657  0.16809061  0.10193451
   0.15928890  0.84847035  0.10397816
   0.83937091  0.16838113  0.09592865
   0.67970630  0.84832383  0.09811129
   0.83945932  0.68880854  0.10209959
   0.25562955  0.24386149  0.32641320
   0.42211465  0.07740200  0.32619838
   0.25558420  0.74417902  0.32591906
   0.42237685  0.57737540  0.32636138
   0.75568329  0.24406774  0.32631899
   0.92241774  0.07732832  0.32659235
   0.75589843  0.74413203  0.32640114
   0.92234520  0.57763370  0.32618415
Direct configuration=    34
   0.33422761  0.67341109  0.10050540
   0.66751159  0.34015754  0.09983225
   0.16119347  0.32639156  0.09851769
   0.32061235  0.16636586  0.10134580
   0.16091089  0.84675487  0.10276822
   0.84109628  0.16659660  0.09711890
   0.68132315  0.84661790  0.09864228
   0.84117861  0.68702402  0.10146182
   0.25394011  0.24564923  0.32640797
   0.42047173  0.07914800  0.32624840
   0.25390203  0.74593053  0.32599748
   0.42070254  0.57912418  0.32633807
   0.75399376  0.24582822  0.32629123
   0.92073943  0.07908242  0.32655608
   0.75417998  0.74589090  0.32639879
   0.92067511  0.57935241  0.32623629
Direct configuration=    35
   0.33405650  0.67359210  0.10051075
   0.66733399  0.34034261  0.09982282
   0.16099409  0.32658108  0.09845564
   0.32043331  0.16655550  0.10140789
   0.16072304  0.84694377  0.10290062
   0.84091977  0.16678718  0.09698901
   0.68113889  0.84682386  0.09858584
   0.84099780  0.68721286  0.10152925
   0.25412480  0.24546307  0.32640956
   0.42065755  0.07896001  0.32624430
   0.25408729  0.74573740  0.32599232
   0.42088317  0.57893553  0.32633721
   0.75417633  0.24563803  0.32629246
   0.92091857  0.07889533  0.32655675
   0.75435847  0.74569848  0.32640022
   0.92085512  0.57915852  0.32623201
Direct configuration=    36
   0.33354317  0.67413515  0.10052678
   0.66680117  0.34089781  0.09979454
   0.16039594  0.32714966  0.09826951
   0.31989618  0.16712440  0.10159416
   0.16015948  0.84751045  0.10329783
   0.84039023  0.16735892  0.09659933
   0.68058611  0.84744175  0.09841651
   0.84045537  0.68777940  0.10173155
   0.25467886  0.24490461  0.32641433
   0.42121499  0.07839604  0.32623203
   0.25464306  0.74515800  0.32597683
   0.42142504  0.57836958  0.32633464
   0.75472402  0.24506744  0.32629617
   0.92145598  0.07833406  0.32655876
   0.75489394  0.74512121  0.32640452
   0.92139515  0.57857684  0.32621918
Direct configuration=    37
   0.33251651  0.67522125  0.10055884
   0.66573554  0.34200822  0.09973797
   0.15919963  0.32828681  0.09789723
   0.31882191  0.16826221  0.10196670
   0.15903237  0.84864382  0.10409225
   0.83933115  0.16850239  0.09581997
   0.67948054  0.84867752  0.09807784
   0.83937051  0.68891248  0.10213615
   0.25578698  0.24378769  0.32642388
   0.42232987  0.07726809  0.32620749
   0.25575459  0.74399920  0.32594585
   0.42250879  0.57723769  0.32632949
   0.75581940  0.24392627  0.32630357
   0.92253080  0.07721153  0.32656278
   0.75596487  0.74396667  0.32641312
   0.92247521  0.57741349  0.32619353
Direct configuration=    38
   0.33046319  0.67739344  0.10062297
   0.66360428  0.34422904  0.09962482
   0.15680702  0.33056111  0.09715268
   0.31667339  0.17053783  0.10271178
   0.15677814  0.85091056  0.10568108
   0.83721299  0.17078934  0.09426127
   0.67726939  0.85114907  0.09740051
   0.83720079  0.69117865  0.10294535
   0.25800321  0.24155384  0.32644296
   0.42455963  0.07501220  0.32615839
   0.25797766  0.74168161  0.32588389
   0.42467629  0.57497390  0.32631919
   0.75801017  0.24164392  0.32631839
   0.92468044  0.07496647  0.32657083
   0.75810674  0.74165758  0.32643033
   0.92463533  0.57508678  0.32614222
Direct configuration=    39
   0.33203278  0.67573298  0.10057395
   0.66523345  0.34253141  0.09971131
   0.15863597  0.32882260  0.09772183
   0.31831575  0.16879831  0.10214223
   0.15850131  0.84917783  0.10446655
   0.83883214  0.16904116  0.09545277
   0.67895962  0.84925978  0.09791827
   0.83885936  0.68944636  0.10232678
   0.25630909  0.24326143  0.32642837
   0.42285517  0.07673664  0.32619592
   0.25627831  0.74345321  0.32593125
   0.42301942  0.57670437  0.32632706
   0.75633551  0.24338858  0.32630706
   0.92303722  0.07668263  0.32656468
   0.75646946  0.74342268  0.32641718
   0.92298410  0.57686535  0.32618144
Direct configuration=    40
   0.33187276  0.67590227  0.10057895
   0.66506736  0.34270448  0.09970249
   0.15844951  0.32899984  0.09766380
   0.31814831  0.16897566  0.10220030
   0.15832563  0.84935448  0.10459037
   0.83866707  0.16921939  0.09533129
   0.67878731  0.84945240  0.09786549
   0.83869027  0.68962296  0.10238985
   0.25648180  0.24308734  0.32642986
   0.42302894  0.07656084  0.32619209
   0.25645156  0.74327260  0.32592642
   0.42318834  0.57652795  0.32632626
   0.75650624  0.24321071  0.32630822
   0.92320474  0.07650767  0.32656531
   0.75663638  0.74324273  0.32641852
   0.92315244  0.57668403  0.32617745
Direct configuration=    41
   0.33195032  0.67582022  0.10057653
   0.66514786  0.34262060  0.09970677
   0.15853988  0.32891393  0.09769193
   0.31822947  0.16888970  0.10217215
   0.15841078  0.84926886  0.10453036
   0.83874708  0.16913300  0.09539017
   0.67887083  0.84935904  0.09789107
   0.83877222  0.68953737  0.10235928
   0.25639809  0.24317172  0.32642914
   0.42294471  0.07664604  0.32619395
   0.25636759  0.74336014  0.32592876
   0.42310647  0.57661346  0.32632665
   0.75642349  0.24329692  0.32630766
   0.92312355  0.07659247  0.32656500
   0.75655548  0.74332995  0.32641787
   0.92307085  0.57677191  0.32617938
Direct configuration=    42
   0.33204070  0.67572906  0.10056134
   0.66523332  0.34253063  0.09973099
   0.15860103  0.32885045  0.09771979
   0.31831468  0.16882524  0.10214075
   0.15847493  0.84920186  0.10447654
   0.83882292  0.16905075  0.09544318
   0.67892860  0.84928584  0.09791624
   0.83884239  0.68945359  0.10232584
   0.25632096  0.24326227  0.32642908
   0.42288540  0.07672000  0.32620356
   0.25629116  0.74343823  0.32594340
   0.42303771  0.57668638  0.32631687
   0.75634475  0.24337778  0.32629823
   0.92305193  0.07666860  0.32655301
   0.75646669  0.74340888  0.32641852
   0.92300151  0.57683576  0.32618934
Direct configuration=    43
   0.33231183  0.67545559  0.10051579
   0.66548971  0.34226074  0.09980365
   0.15878447  0.32866001  0.09780336
   0.31857030  0.16863184  0.10204653
   0.15866738  0.84900086  0.10431510
   0.83905045  0.16880397  0.09560220
   0.67910191  0.84906625  0.09799174
   0.83905289  0.68920226  0.10222553
   0.25608955  0.24353394  0.32642890
   0.42270746  0.07694186  0.32623239
   0.25606187  0.74367252  0.32598733
   0.42283145  0.57690514  0.32628753
   0.75610850  0.24362038  0.32626994
   0.92283708  0.07689700  0.32651702
   0.75620034  0.74364567  0.32642048
   0.92279348  0.57702731  0.32621920
Direct configuration=    44
   0.33285409  0.67490864  0.10042468
   0.66600249  0.34172096  0.09994898
   0.15915135  0.32827912  0.09797050
   0.31908155  0.16824504  0.10185809
   0.15905229  0.84859885  0.10399220
   0.83950552  0.16831042  0.09592025
   0.67944853  0.84862706  0.09814275
   0.83947389  0.68869959  0.10202489
   0.25562675  0.24407728  0.32642853
   0.42235159  0.07738559  0.32629004
   0.25560330  0.74414108  0.32607519
   0.42241891  0.57734266  0.32622885
   0.75563602  0.24410556  0.32621335
   0.92240737  0.07735381  0.32644504
   0.75566762  0.74411926  0.32642439
   0.92237741  0.57741041  0.32627893
Direct configuration=    45
   0.33262233  0.67514240  0.10046361
   0.66578333  0.34195166  0.09988687
   0.15899455  0.32844191  0.09789907
   0.31886305  0.16841035  0.10193862
   0.15888778  0.84877066  0.10413020
   0.83931103  0.16852136  0.09578432
   0.67930039  0.84881476  0.09807821
   0.83929396  0.68891442  0.10211064
   0.25582455  0.24384506  0.32642869
   0.42250368  0.07719595  0.32626540
   0.25579929  0.74394082  0.32603764
   0.42259522  0.57715567  0.32625393
   0.75583795  0.24389820  0.32623754
   0.92259102  0.07715857  0.32647580
   0.75589530  0.74391685  0.32642272
   0.92255523  0.57724667  0.32625340
Direct configuration=    46
   0.33270295  0.67504966  0.10042539
   0.66593087  0.34180996  0.09994971
   0.15912416  0.32829773  0.09793960
   0.31895421  0.16833005  0.10188750
   0.15903447  0.84865120  0.10404019
   0.83940454  0.16839632  0.09587408
   0.67944616  0.84867627  0.09811393
   0.83937115  0.68880596  0.10205662
   0.25572537  0.24394552  0.32642637
   0.42236840  0.07732674  0.32629089
   0.25569887  0.74404975  0.32607754
   0.42246376  0.57728842  0.32622911
   0.75574052  0.24400397  0.32621296
   0.92246483  0.07728609  0.32644048
   0.75580260  0.74402397  0.32642240
   0.92242580  0.57738373  0.32627991
Direct configuration=    47
   0.33278002  0.67496099  0.10038884
   0.66607190  0.34167450  0.10000979
   0.15924807  0.32815991  0.09797835
   0.31904137  0.16825328  0.10183862
   0.15917471  0.84853700  0.10395413
   0.83949394  0.16827679  0.09595989
   0.67958552  0.84854388  0.09814808
   0.83944495  0.68870228  0.10200497
   0.25563056  0.24404155  0.32642416
   0.42223907  0.07745177  0.32631526
   0.25560288  0.74415388  0.32611568
   0.42233808  0.57741532  0.32620538
   0.75564737  0.24410508  0.32618947