   8   8   0  16
  0.3813280E+02  0.4846000E-09  0.4846000E-09  0.1500000E-08  0.5000000E-15
  1.000000000000000E-004
  CAR 
 SC                                      
     80.42651868    -26.87461211  301     -2.05818981      1.00000000
    -26.875  0.0000E+00  0.0000E+00
    -26.517  0.0000E+00  0.0000E+00
    -26.159  0.0000E+00  0.0000E+00
    -25.802  0.0000E+00  0.0000E+00
    -25.444  0.0000E+00  0.0000E+00
    -25.086  0.0000E+00  0.0000E+00
    -24.729  0.0000E+00  0.0000E+00
    -24.371  0.0000E+00  0.0000E+00
    -24.013  0.0000E+00  0.0000E+00
    -23.656  0.0000E+00  0.0000E+00
    -23.298  0.0000E+00  0.0000E+00
    -22.940  0.0000E+00  0.0000E+00
    -22.583  0.1074E-17  0.3842E-18
    -22.225  0.4064E-04  0.1454E-04
    -21.867  0.4361E+00  0.1560E+00
    -21.510  0.1190E+01  0.5816E+00
    -21.152  0.1212E+01  0.1015E+01
    -20.794  0.1171E+01  0.1434E+01
    -20.437  0.1200E+01  0.1863E+01
    -20.079  0.1229E+01  0.2303E+01
    -19.721  0.1211E+01  0.2736E+01
    -19.364  0.1211E+01  0.3169E+01
    -19.006  0.1196E+01  0.3597E+01
    -18.648  0.1300E+01  0.4062E+01
    -18.291  0.1314E+01  0.4532E+01
    -17.933  0.1298E+01  0.4996E+01
    -17.575  0.1159E+01  0.5411E+01
    -17.218  0.1333E+01  0.5887E+01
    -16.860  0.1479E+01  0.6417E+01
    -16.502  0.1484E+01  0.6947E+01
    -16.144  0.1212E+01  0.7381E+01
    -15.787  0.9195E+00  0.7710E+01
    -15.429  0.1002E+01  0.8068E+01
    -15.071  0.1216E+01  0.8503E+01
    -14.714  0.1317E+01  0.8974E+01
    -14.356  0.1628E+01  0.9556E+01
    -13.998  0.1367E+01  0.1005E+02
    -13.641  0.1290E+01  0.1051E+02
    -13.283  0.1177E+01  0.1093E+02
    -12.925  0.1180E+01  0.1135E+02
    -12.568  0.1415E+01  0.1186E+02
    -12.210  0.1464E+01  0.1238E+02
    -11.852  0.1267E+01  0.1283E+02
    -11.495  0.1578E+01  0.1340E+02
    -11.137  0.1530E+01  0.1394E+02
    -10.779  0.1394E+01  0.1444E+02
    -10.422  0.1633E+01  0.1503E+02
    -10.064  0.1710E+01  0.1564E+02
     -9.706  0.2679E+01  0.1660E+02
     -9.349  0.2948E+01  0.1765E+02
     -8.991  0.3222E+01  0.1880E+02
     -8.633  0.3767E+01  0.2015E+02
     -8.276  0.3931E+01  0.2156E+02
     -7.918  0.3131E+01  0.2268E+02
     -7.560  0.2751E+01  0.2366E+02
     -7.203  0.2677E+01  0.2462E+02
     -6.845  0.2473E+01  0.2550E+02
     -6.487  0.2197E+01  0.2629E+02
     -6.130  0.2229E+01  0.2709E+02
     -5.772  0.2259E+01  0.2789E+02
     -5.414  0.2072E+01  0.2864E+02
     -5.057  0.2065E+01  0.2937E+02
     -4.699  0.1810E+01  0.3002E+02
     -4.341  0.2008E+01  0.3074E+02
     -3.984  0.1007E+01  0.3110E+02
     -3.626  0.9963E+00  0.3146E+02
     -3.268  0.7386E+00  0.3172E+02
     -2.911  0.3483E+00  0.3184E+02
     -2.553  0.2868E+00  0.3195E+02
     -2.195  0.1459E+00  0.3200E+02
     -1.838  0.1875E-01  0.3201E+02
     -1.480  0.1897E+00  0.3207E+02
     -1.122  0.4120E+00  0.3222E+02
     -0.765  0.5746E+00  0.3243E+02
     -0.407  0.1164E+01  0.3284E+02
     -0.049  0.2231E+01  0.3364E+02
      0.308  0.1521E+01  0.3419E+02
      0.666  0.1053E+01  0.3456E+02
      1.024  0.1208E+01  0.3499E+02
      1.381  0.1680E+01  0.3559E+02
      1.739  0.1793E+01  0.3624E+02
      2.097  0.2099E+01  0.3699E+02
      2.454  0.2455E+01  0.3787E+02
      2.812  0.3288E+01  0.3904E+02
      3.170  0.3202E+01  0.4019E+02
      3.527  0.3393E+01  0.4140E+02
      3.885  0.3278E+01  0.4257E+02
      4.243  0.3464E+01  0.4381E+02
      4.600  0.3386E+01  0.4502E+02
      4.958  0.4122E+01  0.4650E+02
      5.316  0.4529E+01  0.4812E+02
      5.673  0.4868E+01  0.4986E+02
      6.031  0.6156E+01  0.5206E+02
      6.389  0.7061E+01  0.5459E+02
      6.746  0.8205E+01  0.5752E+02
      7.104  0.8848E+01  0.6068E+02
      7.462  0.7269E+01  0.6328E+02
      7.819  0.6399E+01  0.6557E+02
      8.177  0.7442E+01  0.6823E+02
      8.535  0.6362E+01  0.7051E+02
      8.892  0.8749E+01  0.7364E+02
      9.250  0.7618E+01  0.7636E+02
      9.608  0.7703E+01  0.7912E+02
      9.965  0.7866E+01  0.8193E+02
     10.323  0.7613E+01  0.8466E+02
     10.681  0.7639E+01  0.8739E+02
     11.038  0.8531E+01  0.9044E+02
     11.396  0.8353E+01  0.9343E+02
     11.754  0.8248E+01  0.9638E+02
     12.111  0.1032E+02  0.1001E+03
     12.469  0.9049E+01  0.1033E+03
     12.827  0.7108E+01  0.1058E+03
     13.184  0.6495E+01  0.1082E+03
     13.542  0.5584E+01  0.1102E+03
     13.900  0.8253E+01  0.1131E+03
     14.257  0.8228E+01  0.1161E+03
     14.615  0.8917E+01  0.1193E+03
     14.973  0.1027E+02  0.1229E+03
     15.330  0.1071E+02  0.1268E+03
     15.688  0.9187E+01  0.1300E+03
     16.046  0.7592E+01  0.1328E+03
     16.404  0.7225E+01  0.1353E+03
     16.761  0.1030E+02  0.1390E+03
     17.119  0.7838E+01  0.1418E+03
     17.477  0.9102E+01  0.1451E+03
     17.834  0.1167E+02  0.1493E+03
     18.192  0.7832E+01  0.1521E+03
     18.550  0.8580E+01  0.1551E+03
     18.907  0.8591E+01  0.1582E+03
     19.265  0.9604E+01  0.1616E+03
     19.623  0.9525E+01  0.1650E+03
     19.980  0.9260E+01  0.1684E+03
     20.338  0.1249E+02  0.1728E+03
     20.696  0.1038E+02  0.1765E+03
     21.053  0.9055E+01  0.1798E+03
     21.411  0.1006E+02  0.1834E+03
     21.769  0.8889E+01  0.1866E+03
     22.126  0.1082E+02  0.1904E+03
     22.484  0.1461E+02  0.1956E+03
     22.842  0.1276E+02  0.2002E+03
     23.199  0.9578E+01  0.2036E+03
     23.557  0.1046E+02  0.2074E+03
     23.915  0.1212E+02  0.2117E+03
     24.272  0.1046E+02  0.2155E+03
     24.630  0.1256E+02  0.2200E+03
     24.988  0.1228E+02  0.2243E+03
     25.345  0.1208E+02  0.2287E+03
     25.703  0.1147E+02  0.2328E+03
     26.061  0.1089E+02  0.2367E+03
     26.418  0.1070E+02  0.2405E+03
     26.776  0.1028E+02  0.2442E+03
     27.134  0.7848E+01  0.2470E+03
     27.491  0.1048E+02  0.2507E+03
     27.849  0.1268E+02  0.2552E+03
     28.207  0.1259E+02  0.2598E+03
     28.564  0.1073E+02  0.2636E+03
     28.922  0.7982E+01  0.2664E+03
     29.280  0.1206E+02  0.2708E+03
     29.637  0.1076E+02  0.2746E+03
     29.995  0.1161E+02  0.2788E+03
     30.353  0.1149E+02  0.2829E+03
     30.710  0.1093E+02  0.2868E+03
     31.068  0.1136E+02  0.2908E+03
     31.426  0.1301E+02  0.2955E+03
     31.783  0.1094E+02  0.2994E+03
     32.141  0.1235E+02  0.3038E+03
     32.499  0.9676E+01  0.3073E+03
     32.856  0.1398E+02  0.3123E+03
     33.214  0.1435E+02  0.3174E+03
     33.572  0.1285E+02  0.3220E+03
     33.929  0.1276E+02  0.3266E+03
     34.287  0.8705E+01  0.3297E+03
     34.645  0.1023E+02  0.3334E+03
     35.002  0.1163E+02  0.3375E+03
     35.360  0.1094E+02  0.3414E+03
     35.718  0.1166E+02  0.3456E+03
     36.075  0.1506E+02  0.3510E+03
     36.433  0.1348E+02  0.3558E+03
     36.791  0.1439E+02  0.3610E+03
     37.148  0.1271E+02  0.3655E+03
     37.506  0.1124E+02  0.3695E+03
     37.864  0.1181E+02  0.3737E+03
     38.221  0.1251E+02  0.3782E+03
     38.579  0.1251E+02  0.3827E+03
     38.937  0.1338E+02  0.3875E+03
     39.294  0.1207E+02  0.3918E+03
     39.652  0.1264E+02  0.3963E+03
     40.010  0.1308E+02  0.4010E+03
     40.367  0.1350E+02  0.4058E+03
     40.725  0.1435E+02  0.4110E+03
     41.083  0.1422E+02  0.4160E+03
     41.440  0.1583E+02  0.4217E+03
     41.798  0.1470E+02  0.4270E+03
     42.156  0.1558E+02  0.4325E+03
     42.513  0.1770E+02  0.4389E+03
     42.871  0.1306E+02  0.4435E+03
     43.229  0.1208E+02  0.4479E+03
     43.586  0.1537E+02  0.4534E+03
     43.944  0.1401E+02  0.4584E+03
     44.302  0.1338E+02  0.4632E+03
     44.659  0.1633E+02  0.4690E+03
     45.017  0.1454E+02  0.4742E+03
     45.375  0.1656E+02  0.4801E+03
     45.732  0.1410E+02  0.4852E+03
     46.090  0.1366E+02  0.4900E+03
     46.448  0.1239E+02  0.4945E+03
     46.805  0.1541E+02  0.5000E+03
     47.163  0.1586E+02  0.5057E+03
     47.521  0.1383E+02  0.5106E+03
     47.879  0.1496E+02  0.5160E+03
     48.236  0.1587E+02  0.5216E+03
     48.594  0.1438E+02  0.5268E+03
     48.952  0.1493E+02  0.5321E+03
     49.309  0.1528E+02  0.5376E+03
     49.667  0.1542E+02  0.5431E+03
     50.025  0.1402E+02  0.5481E+03
     50.382  0.1623E+02  0.5539E+03
     50.740  0.1382E+02  0.5589E+03
     51.098  0.1353E+02  0.5637E+03
     51.455  0.1290E+02  0.5683E+03
     51.813  0.1389E+02  0.5733E+03
     52.171  0.1769E+02  0.5796E+03
     52.528  0.1538E+02  0.5851E+03
     52.886  0.1657E+02  0.5910E+03
     53.244  0.1380E+02  0.5960E+03
     53.601  0.1349E+02  0.6008E+03
     53.959  0.1571E+02  0.6064E+03
     54.317  0.1726E+02  0.6126E+03
     54.674  0.1378E+02  0.6175E+03
     55.032  0.1406E+02  0.6226E+03
     55.390  0.1662E+02  0.6285E+03
     55.747  0.1650E+02  0.6344E+03
     56.105  0.1786E+02  0.6408E+03
     56.463  0.1594E+02  0.6465E+03
     56.820  0.1403E+02  0.6515E+03
     57.178  0.1658E+02  0.6574E+03
     57.536  0.1651E+02  0.6633E+03
     57.893  0.1833E+02  0.6699E+03
     58.251  0.1631E+02  0.6757E+03
     58.609  0.1531E+02  0.6812E+03
     58.966  0.1714E+02  0.6873E+03
     59.324  0.1636E+02  0.6932E+03
     59.682  0.1481E+02  0.6985E+03
     60.039  0.1771E+02  0.7048E+03
     60.397  0.1597E+02  0.7105E+03
     60.755  0.1605E+02  0.7163E+03
     61.112  0.1747E+02  0.7225E+03
     61.470  0.1522E+02  0.7280E+03
     61.828  0.1787E+02  0.7344E+03
     62.185  0.1609E+02  0.7401E+03
     62.543  0.1606E+02  0.7459E+03
     62.901  0.1779E+02  0.7522E+03
     63.258  0.1662E+02  0.7582E+03
     63.616  0.1734E+02  0.7644E+03
     63.974  0.1778E+02  0.7707E+03
     64.331  0.1432E+02  0.7758E+03
     64.689  0.1892E+02  0.7826E+03
     65.047  0.1918E+02  0.7895E+03
     65.404  0.1675E+02  0.7955E+03
     65.762  0.1776E+02  0.8018E+03
     66.120  0.1625E+02  0.8076E+03
     66.477  0.1629E+02  0.8135E+03
     66.835  0.1622E+02  0.8193E+03
     67.193  0.1850E+02  0.8259E+03
     67.550  0.1718E+02  0.8320E+03
     67.908  0.1982E+02  0.8391E+03
     68.266  0.1609E+02  0.8449E+03
     68.623  0.1790E+02  0.8513E+03
     68.981  0.1673E+02  0.8572E+03
     69.339  0.1830E+02  0.8638E+03
     69.696  0.1900E+02  0.8706E+03
     70.054  0.1780E+02  0.8770E+03
     70.412  0.1779E+02  0.8833E+03
     70.769  0.1777E+02  0.8897E+03
     71.127  0.1731E+02  0.8959E+03
     71.485  0.1745E+02  0.9021E+03
     71.842  0.1587E+02  0.9078E+03
     72.200  0.2039E+02  0.9151E+03
     72.558  0.1776E+02  0.9214E+03
     72.915  0.1654E+02  0.9273E+03
     73.273  0.1850E+02  0.9340E+03
     73.631  0.1599E+02  0.9397E+03
     73.988  0.1536E+02  0.9452E+03
     74.346  0.1272E+02  0.9497E+03
     74.704  0.1290E+02  0.9543E+03
     75.061  0.1092E+02  0.9582E+03
     75.419  0.4094E+01  0.9597E+03
     75.777  0.8001E+00  0.9600E+03
     76.134  0.9547E-04  0.9600E+03
     76.492  0.0000E+00  0.9600E+03
     76.850  0.0000E+00  0.9600E+03
     77.207  0.0000E+00  0.9600E+03
     77.565  0.0000E+00  0.9600E+03
     77.923  0.0000E+00  0.9600E+03
     78.280  0.0000E+00  0.9600E+03
     78.638  0.0000E+00  0.9600E+03
     78.996  0.0000E+00  0.9600E+03
     79.354  0.0000E+00  0.9600E+03
     79.711  0.0000E+00  0.9600E+03
     80.069  0.0000E+00  0.9600E+03
     80.427  0.0000E+00  0.9600E+03
