<?xml version="1.0" encoding="ISO-8859-1"?>
<modeling>
 <generator>
  <i name="program" type="string">vasp </i>
  <i name="version" type="string">6.3.2  </i>
  <i name="subversion" type="string">27Jun22 (build Dec 22 2022 13:13:19) complex                          parallel </i>
  <i name="platform" type="string">LinuxIFC </i>
  <i name="date" type="string">2023 08 23 </i>
  <i name="time" type="string">19:49:16 </i>
 </generator>
 <incar>
  <i type="string" name="SYSTEM">Lattice</i>
  <i type="int" name="ISTART">     0</i>
  <i type="string" name="PREC">Accurate</i>
  <i type="string" name="ALGO">Normal</i>
  <i type="int" name="ISPIN">     2</i>
  <i type="int" name="ICHARG">     2</i>
  <i type="int" name="NELM">    64</i>
  <i type="int" name="IBRION">     2</i>
  <i name="EDIFF">      0.00000100</i>
  <i name="EDIFFG">     -0.00100000</i>
  <i type="int" name="NSW">   128</i>
  <i type="int" name="ISIF">     2</i>
  <i name="ENCUT">    450.00000000</i>
  <i name="POTIM">      0.50000000</i>
  <i type="int" name="ISMEAR">     0</i>
  <i name="SIGMA">      0.10000000</i>
  <i type="logical" name="LWAVE"> F  </i>
  <i type="logical" name="LCHARG"> F  </i>
  <i type="string" name="GGA">PE</i>
  <i type="int" name="IVDW">    12</i>
 </incar>
 <primitive_cell>
  <structure name="primitive_cell" >
   <crystal>
    <varray name="basis" >
     <v>       4.21667769       2.43450000       0.00000000 </v>
     <v>      -4.21667769       2.43450000       0.00000000 </v>
     <v>       0.00000000       0.00000000      15.00000000 </v>
    </varray>
    <i name="volume">    307.96505516 </i>
    <varray name="rec_basis" >
     <v>       0.11857677       0.20538098       0.00000000 </v>
     <v>      -0.11857677       0.20538098       0.00000000 </v>
     <v>       0.00000000       0.00000000       0.06666667 </v>
    </varray>
   </crystal>
   <varray name="positions" >
    <v>       0.00415361       0.00267210       0.12034134 </v>
    <v>       0.35695335       0.00285503       0.09748893 </v>
    <v>       0.00423858       0.35550699       0.09749256 </v>
    <v>       0.65142295       0.65006557       0.09747688 </v>
    <v>       0.32808646       0.32671938       0.10030508 </v>
    <v>       0.68027775       0.00278085       0.10027562 </v>
    <v>       0.00416530       0.67883808       0.10026559 </v>
    <v>       0.11111044       0.38888856       0.33726667 </v>
    <v>       0.27777744       0.22222156       0.33726667 </v>
    <v>       0.11111044       0.88888856       0.33726667 </v>
    <v>       0.27777744       0.72222156       0.33726667 </v>
    <v>       0.61111044       0.38888856       0.33726667 </v>
    <v>       0.77777744       0.22222156       0.33726667 </v>
    <v>       0.61111044       0.88888856       0.33726667 </v>
    <v>       0.77777744       0.72222156       0.33726667 </v>
   </varray>
  </structure>
  <varray name="primitive_index" >
   <v type="int" >        1 </v>
   <v type="int" >        2 </v>
   <v type="int" >        3 </v>
   <v type="int" >        4 </v>
   <v type="int" >        5 </v>
   <v type="int" >        6 </v>
   <v type="int" >        7 </v>
   <v type="int" >        8 </v>
   <v type="int" >        9 </v>
   <v type="int" >       10 </v>
   <v type="int" >       11 </v>
   <v type="int" >       12 </v>
   <v type="int" >       13 </v>
   <v type="int" >       14 </v>
   <v type="int" >       15 </v>
  </varray>
 </primitive_cell>
 <kpoints>
  <generation param="Gamma">
   <v type="int" name="divisions">      12       12        1 </v>
   <v name="usershift">      0.00000000       0.00000000       0.00000000 </v>
   <v name="genvec1">      0.08333333      -0.00000000       0.00000000 </v>
   <v name="genvec2">     -0.00000000       0.08333333       0.00000000 </v>
   <v name="genvec3">      0.00000000       0.00000000       1.00000000 </v>
   <v name="shift">      0.00000000       0.00000000       0.00000000 </v>
  </generation>
  <varray name="kpointlist" >
   <v>       0.00000000       0.00000000       0.00000000 </v>
   <v>       0.08333333      -0.00000000       0.00000000 </v>
   <v>      -0.00000000       0.08333333       0.00000000 </v>
   <v>      -0.08333333       0.08333333       0.00000000 </v>
   <v>       0.16666667      -0.00000000       0.00000000 </v>
   <v>      -0.00000000       0.16666667       0.00000000 </v>
   <v>      -0.16666667       0.16666667       0.00000000 </v>
   <v>       0.25000000       0.00000000       0.00000000 </v>
   <v>      -0.00000000       0.25000000       0.00000000 </v>
   <v>      -0.25000000       0.25000000       0.00000000 </v>
   <v>       0.33333333      -0.00000000       0.00000000 </v>
   <v>      -0.00000000       0.33333333       0.00000000 </v>
   <v>      -0.33333333       0.33333333       0.00000000 </v>
   <v>       0.41666667       0.00000000       0.00000000 </v>
   <v>       0.00000000       0.41666667       0.00000000 </v>
   <v>      -0.41666667       0.41666667       0.00000000 </v>
   <v>       0.50000000       0.00000000       0.00000000 </v>
   <v>      -0.00000000       0.50000000       0.00000000 </v>
   <v>       0.50000000       0.50000000       0.00000000 </v>
   <v>       0.08333333       0.08333333       0.00000000 </v>
   <v>      -0.08333333       0.16666667       0.00000000 </v>
   <v>      -0.16666667       0.08333333       0.00000000 </v>
   <v>       0.16666667       0.08333333       0.00000000 </v>
   <v>      -0.08333333       0.25000000       0.00000000 </v>
   <v>      -0.25000000       0.16666667       0.00000000 </v>
   <v>      -0.16666667       0.25000000       0.00000000 </v>
   <v>       0.08333333       0.16666667       0.00000000 </v>
   <v>       0.25000000      -0.08333333       0.00000000 </v>
   <v>       0.25000000       0.08333333       0.00000000 </v>
   <v>      -0.08333333       0.33333333       0.00000000 </v>
   <v>      -0.33333333       0.25000000       0.00000000 </v>
   <v>      -0.25000000       0.33333333       0.00000000 </v>
   <v>       0.08333333       0.25000000       0.00000000 </v>
   <v>       0.33333333      -0.08333333       0.00000000 </v>
   <v>       0.33333333       0.08333333       0.00000000 </v>
   <v>      -0.08333333       0.41666667       0.00000000 </v>
   <v>      -0.41666667       0.33333333       0.00000000 </v>
   <v>      -0.33333333       0.41666667       0.00000000 </v>
   <v>       0.08333333       0.33333333       0.00000000 </v>
   <v>       0.41666667      -0.08333333       0.00000000 </v>
   <v>       0.41666667       0.08333333       0.00000000 </v>
   <v>      -0.08333333       0.50000000       0.00000000 </v>
   <v>       0.50000000       0.41666667       0.00000000 </v>
   <v>      -0.41666667       0.50000000       0.00000000 </v>
   <v>       0.08333333       0.41666667       0.00000000 </v>
   <v>       0.50000000      -0.08333333       0.00000000 </v>
   <v>       0.16666667       0.16666667       0.00000000 </v>
   <v>      -0.16666667       0.33333333       0.00000000 </v>
   <v>      -0.33333333       0.16666667       0.00000000 </v>
   <v>       0.25000000       0.16666667       0.00000000 </v>
   <v>      -0.16666667       0.41666667       0.00000000 </v>
   <v>      -0.41666667       0.25000000       0.00000000 </v>
   <v>      -0.25000000       0.41666667       0.00000000 </v>
   <v>       0.16666667       0.25000000       0.00000000 </v>
   <v>       0.41666667      -0.16666667       0.00000000 </v>
   <v>       0.33333333       0.16666667       0.00000000 </v>
   <v>      -0.16666667       0.50000000       0.00000000 </v>
   <v>       0.50000000       0.33333333       0.00000000 </v>
   <v>      -0.33333333       0.50000000       0.00000000 </v>
   <v>       0.16666667       0.33333333       0.00000000 </v>
   <v>       0.50000000      -0.16666667       0.00000000 </v>
   <v>       0.41666667       0.16666667       0.00000000 </v>
   <v>      -0.16666667      -0.41666667       0.00000000 </v>
   <v>       0.41666667       0.41666667       0.00000000 </v>
   <v>       0.25000000       0.25000000       0.00000000 </v>
   <v>      -0.25000000       0.50000000       0.00000000 </v>
   <v>       0.50000000       0.25000000       0.00000000 </v>
   <v>       0.33333333       0.25000000       0.00000000 </v>
   <v>      -0.25000000      -0.41666667       0.00000000 </v>
   <v>       0.41666667       0.33333333       0.00000000 </v>
   <v>      -0.33333333      -0.41666667       0.00000000 </v>
   <v>       0.25000000       0.33333333       0.00000000 </v>
   <v>      -0.41666667      -0.25000000       0.00000000 </v>
   <v>       0.33333333       0.33333333       0.00000000 </v>
  </varray>
  <varray name="weights" >
   <v>       0.00694444 </v>
   <v>       0.01388889 </v>
   <v>       0.01388889 </v>
   <v>       0.01388889 </v>
   <v>       0.01388889 </v>
   <v>       0.01388889 </v>
   <v>       0.01388889 </v>
   <v>       0.01388889 </v>
   <v>       0.01388889 </v>
   <v>       0.01388889 </v>
   <v>       0.01388889 </v>
   <v>       0.01388889 </v>
   <v>       0.01388889 </v>
   <v>       0.01388889 </v>
   <v>       0.01388889 </v>
   <v>       0.01388889 </v>
   <v>       0.00694444 </v>
   <v>       0.00694444 </v>
   <v>       0.00694444 </v>
   <v>       0.01388889 </v>
   <v>       0.01388889 </v>
   <v>       0.01388889 </v>
   <v>       0.01388889 </v>
   <v>       0.01388889 </v>
   <v>       0.01388889 </v>
   <v>       0.01388889 </v>
   <v>       0.01388889 </v>
   <v>       0.01388889 </v>
   <v>       0.01388889 </v>
   <v>       0.01388889 </v>
   <v>       0.01388889 </v>
   <v>       0.01388889 </v>
   <v>       0.01388889 </v>
   <v>       0.01388889 </v>
   <v>       0.01388889 </v>
   <v>       0.01388889 </v>
   <v>       0.01388889 </v>
   <v>       0.01388889 </v>
   <v>       0.01388889 </v>
   <v>       0.01388889 </v>
   <v>       0.01388889 </v>
   <v>       0.01388889 </v>
   <v>       0.01388889 </v>
   <v>       0.01388889 </v>
   <v>       0.01388889 </v>
   <v>       0.01388889 </v>
   <v>       0.01388889 </v>
   <v>       0.01388889 </v>
   <v>       0.01388889 </v>
   <v>       0.01388889 </v>
   <v>       0.01388889 </v>
   <v>       0.01388889 </v>
   <v>       0.01388889 </v>
   <v>       0.01388889 </v>
   <v>       0.01388889 </v>
   <v>       0.01388889 </v>
   <v>       0.01388889 </v>
   <v>       0.01388889 </v>
   <v>       0.01388889 </v>
   <v>       0.01388889 </v>
   <v>       0.01388889 </v>
   <v>       0.01388889 </v>
   <v>       0.01388889 </v>
   <v>       0.01388889 </v>
   <v>       0.01388889 </v>
   <v>       0.01388889 </v>
   <v>       0.01388889 </v>
   <v>       0.01388889 </v>
   <v>       0.01388889 </v>
   <v>       0.01388889 </v>
   <v>       0.01388889 </v>
   <v>       0.01388889 </v>
   <v>       0.01388889 </v>
   <v>       0.01388889 </v>
  </varray>
 </kpoints>
 <parameters>
  <separator name="general" >
   <i type="string" name="SYSTEM">Lattice</i>
   <i type="logical" name="LCOMPAT"> F  </i>
  </separator>
  <separator name="electronic" >
   <i type="string" name="PREC">accura</i>
   <i name="ENMAX">    450.00000000</i>
   <i name="ENAUG">    644.87300000</i>
   <i name="EDIFF">      0.00000100</i>
   <i type="int" name="IALGO">    38</i>
   <i type="int" name="IWAVPR">    11</i>
   <i type="int" name="NBANDS">    48</i>
   <i type="int" name="NBANDSLOW">    -1</i>
   <i type="int" name="NBANDSHIGH">    -1</i>
   <i name="NELECT">     56.00000000</i>
   <i type="int" name="TURBO">     0</i>
   <i type="int" name="IRESTART">     0</i>
   <i type="int" name="NREBOOT">     0</i>
   <i type="int" name="NMIN">     0</i>
   <i name="EREF">      0.00000000</i>
   <separator name="electronic smearing" >
    <i type="int" name="ISMEAR">     0</i>
    <i name="SIGMA">      0.10000000</i>
    <i name="KSPACING">      0.50000000</i>
    <i type="logical" name="KGAMMA"> T  </i>
    <i type="logical" name="KBLOWUP"> T  </i>
   </separator>
   <separator name="electronic projectors" >
    <i type="logical" name="LREAL"> F  </i>
    <v name="ROPT">      0.00000000      0.00000000</v>
    <i type="int" name="LMAXPAW">  -100</i>
    <i type="int" name="LMAXMIX">     2</i>
    <i type="logical" name="NLSPLINE"> F  </i>
   </separator>
   <separator name="electronic startup" >
    <i type="int" name="ISTART">     0</i>
    <i type="int" name="ICHARG">     2</i>
    <i type="int" name="INIWAV">     1</i>
   </separator>
   <separator name="electronic spin" >
    <i type="int" name="ISPIN">     2</i>
    <i type="logical" name="LNONCOLLINEAR"> F  </i>
    <v name="MAGMOM">      1.00000000      1.00000000      1.00000000      1.00000000      1.00000000      1.00000000      1.00000000      1.00000000      1.00000000      1.00000000      1.00000000      1.00000000      1.00000000      1.00000000      1.00000000</v>
    <i name="NUPDOWN">     -1.00000000</i>
    <i type="logical" name="LSORBIT"> F  </i>
    <v name="SAXIS">      0.00000000      0.00000000      1.00000000</v>
    <i type="logical" name="LSPIRAL"> F  </i>
    <v name="QSPIRAL">      0.00000000      0.00000000      0.00000000</v>
    <i type="logical" name="LZEROZ"> F  </i>
   </separator>
   <separator name="electronic exchange-correlation" >
    <i type="logical" name="LASPH"> F  </i>
    <i type="logical" name="LMETAGGA"> F  </i>
   </separator>
   <separator name="electronic convergence" >
    <i type="int" name="NELM">    64</i>
    <i type="int" name="NELMDL">    -5</i>
    <i type="int" name="NELMIN">     2</i>
    <i name="ENINI">    450.00000000</i>
    <separator name="electronic convergence detail" >
     <i type="logical" name="LDIAG"> T  </i>
     <i type="logical" name="LSUBROT"> F  </i>
     <i name="WEIMIN">      0.00100000</i>
     <i name="EBREAK">      0.00000001</i>
     <i name="DEPER">      0.30000000</i>
     <i type="int" name="NRMM">     4</i>
     <i name="TIME">      0.40000000</i>
    </separator>
   </separator>
   <separator name="electronic mixer" >
    <i name="AMIX">      0.40000000</i>
    <i name="BMIX">      1.00000000</i>
    <i name="AMIN">      0.10000000</i>
    <i name="AMIX_MAG">      1.60000000</i>
    <i name="BMIX_MAG">      1.00000000</i>
    <separator name="electronic mixer details" >
     <i type="int" name="IMIX">     4</i>
     <i type="logical" name="MIXFIRST"> F  </i>
     <i type="int" name="MAXMIX">   -45</i>
     <i name="WC">    100.00000000</i>
     <i type="int" name="INIMIX">     1</i>
     <i type="int" name="MIXPRE">     1</i>
     <i type="int" name="MREMOVE">     5</i>
    </separator>
   </separator>
   <separator name="electronic dipolcorrection" >
    <i type="logical" name="LDIPOL"> F  </i>
    <i type="logical" name="LMONO"> F  </i>
    <i type="int" name="IDIPOL">     0</i>
    <i name="EPSILON">      1.00000000</i>
    <v name="DIPOL">   -100.00000000   -100.00000000   -100.00000000</v>
    <i name="EFIELD">      0.00000000</i>
   </separator>
  </separator>
  <separator name="grids" >
   <i type="int" name="NGX">    36</i>
   <i type="int" name="NGY">    36</i>
   <i type="int" name="NGZ">   108</i>
   <i type="int" name="NGXF">    72</i>
   <i type="int" name="NGYF">    72</i>
   <i type="int" name="NGZF">   216</i>
   <i type="logical" name="ADDGRID"> F  </i>
  </separator>
  <separator name="ionic" >
   <i type="int" name="NSW">   128</i>
   <i type="int" name="IBRION">     2</i>
   <i type="int" name="MDALGO">     0</i>
   <i type="int" name="ISIF">     2</i>
   <i name="PSTRESS">      0.00000000</i>
   <i name="EDIFFG">     -0.00100000</i>
   <i type="int" name="NFREE">     1</i>
   <i name="POTIM">      0.50000000</i>
   <i name="SMASS">     -3.00000000</i>
   <i name="SCALEE">      1.00000000</i>
  </separator>
  <separator name="ionic md" >
   <i name="TEBEG">      0.00010000</i>
   <i name="TEEND">      0.00010000</i>
   <i type="int" name="NBLOCK">     1</i>
   <i type="int" name="KBLOCK">   128</i>
   <i type="int" name="NPACO">   256</i>
   <i name="APACO">     10.00000000</i>
  </separator>
  <separator name="symmetry" >
   <i type="int" name="ISYM">     2</i>
   <i name="SYMPREC">      0.00001000</i>
  </separator>
  <separator name="dos" >
   <i type="int" name="LORBIT">     0</i>
   <v name="RWIGS">     -1.00000000     -1.00000000</v>
   <i type="int" name="NEDOS">   301</i>
   <i name="EMIN">     10.00000000</i>
   <i name="EMAX">    -10.00000000</i>
   <i name="EFERMI">      0.00000000</i>
  </separator>
  <separator name="writing" >
   <i type="int" name="NWRITE">     2</i>
   <i type="logical" name="LWAVE"> F  </i>
   <i type="logical" name="LDOWNSAMPLE"> F  </i>
   <i type="logical" name="LCHARG"> F  </i>
   <i type="logical" name="LPARD"> F  </i>
   <i type="logical" name="LVTOT"> F  </i>
   <i type="logical" name="LVHAR"> F  </i>
   <i type="logical" name="LELF"> F  </i>
   <i type="logical" name="LOPTICS"> F  </i>
   <v name="STM">      0.00000000      0.00000000      0.00000000      0.00000000      0.00000000      0.00000000      0.00000000</v>
  </separator>
  <separator name="performance" >
   <i type="int" name="NPAR">    48</i>
   <i type="int" name="NSIM">     4</i>
   <i type="int" name="NBLK">    -1</i>
   <i type="logical" name="LPLANE"> T  </i>
   <i type="logical" name="LSCALAPACK"> T  </i>
   <i type="logical" name="LSCAAWARE"> F  </i>
   <i type="logical" name="LSCALU"> F  </i>
   <i type="logical" name="LASYNC"> F  </i>
   <i type="logical" name="LORBITALREAL"> F  </i>
  </separator>
  <separator name="miscellaneous" >
   <i type="int" name="IDIOT">     3</i>
   <i type="int" name="PHON_NSTRUCT">    -1</i>
   <i type="logical" name="LMUSIC"> F  </i>
   <v name="POMASS">     10.81100000     12.01100000</v>
   <v name="DARWINR">      0.00000000      0.00000000</v>
   <v name="DARWINV">      1.00000000      1.00000000</v>
   <i type="logical" name="LCORR"> T  </i>
  </separator>
  <i type="logical" name="GGA_COMPAT"> T  </i>
  <i type="logical" name="LBERRY"> F  </i>
  <i type="int" name="ICORELEVEL">     0</i>
  <i type="logical" name="LDAU"> F  </i>
  <i type="int" name="I_CONSTRAINED_M">     0</i>
  <separator name="electronic exchange-correlation" >
   <i type="string" name="GGA">PE</i>
   <i type="int" name="VOSKOWN">     0</i>
   <i type="logical" name="LHFCALC"> F  </i>
   <i type="string" name="PRECFOCK"></i>
   <i type="logical" name="LSYMGRAD"> F  </i>
   <i type="logical" name="LHFONE"> F  </i>
   <i type="logical" name="LRHFCALC"> F  </i>
   <i type="logical" name="LTHOMAS"> F  </i>
   <i type="logical" name="LMODELHF"> F  </i>
   <i type="logical" name="LFOCKACE"> F  </i>
   <i name="ENCUT4O">     -1.00000000</i>
   <i type="int" name="EXXOEP">     0</i>
   <i type="int" name="FOURORBIT">     0</i>
   <i name="AEXX">      0.00000000</i>
   <i name="HFALPHA">      0.00000000</i>
   <i name="MCALPHA">      0.00000000</i>
   <i name="ALDAX">      1.00000000</i>
   <i name="AGGAX">      1.00000000</i>
   <i name="ALDAC">      1.00000000</i>
   <i name="AGGAC">      1.00000000</i>
   <i type="int" name="NKREDX">     1</i>
   <i type="int" name="NKREDY">     1</i>
   <i type="int" name="NKREDZ">     1</i>
   <i type="logical" name="SHIFTRED"> F  </i>
   <i type="logical" name="ODDONLY"> F  </i>
   <i type="logical" name="EVENONLY"> F  </i>
   <i type="int" name="LMAXFOCK">     0</i>
   <i type="int" name="NMAXFOCKAE">     0</i>
   <i type="logical" name="LFOCKAEDFT"> F  </i>
   <i name="HFSCREEN">      0.00000000</i>
   <i name="HFSCREENC">      0.00000000</i>
   <i type="int" name="NBANDSGWLOW">     0</i>
  </separator>
  <separator name="vdW DFT" >
   <i type="logical" name="LUSE_VDW"> F  </i>
   <i name="Zab_VDW">     -0.84910000</i>
   <i name="PARAM1">      0.12340000</i>
   <i name="PARAM2">      1.00000000</i>
   <i name="PARAM3">      0.00000000</i>
  </separator>
  <separator name="model GW" >
   <i type="int" name="MODEL_GW">     0</i>
   <i name="MODEL_EPS0">     12.31860221</i>
   <i name="MODEL_ALPHA">      1.00000000</i>
  </separator>
  <separator name="linear response parameters" >
   <i type="logical" name="LEPSILON"> F  </i>
   <i type="logical" name="LRPA"> F  </i>
   <i type="logical" name="LNABLA"> F  </i>
   <i type="logical" name="LVEL"> F  </i>
   <i name="CSHIFT">      0.10000000</i>
   <i name="OMEGAMAX">     -1.00000000</i>
   <i name="DEG_THRESHOLD">      0.00200000</i>
   <i name="RTIME">     -0.10000000</i>
   <i name="WPLASMAI">      0.00000000</i>
   <v name="DFIELD">      0.00000000      0.00000000      0.00000000</v>
   <v name="WPLASMA">      0.00000000      0.00000000      0.00000000      0.00000000      0.00000000      0.00000000      0.00000000      0.00000000      0.00000000</v>
  </separator>
  <separator name="orbital magnetization" >
   <i type="logical" name="NUCIND"> F  </i>
   <v name="MAGPOS">      0.00000000      0.00000000      0.00000000</v>
   <i type="logical" name="LNICSALL"> T  </i>
   <i type="logical" name="ORBITALMAG"> F  </i>
   <i type="logical" name="LMAGBLOCH"> F  </i>
   <i type="logical" name="LCHIMAG"> F  </i>
   <i type="logical" name="LGAUGE"> T  </i>
   <i type="int" name="MAGATOM">     0</i>
   <v name="MAGDIPOL">      0.00000000      0.00000000      0.00000000</v>
   <v name="AVECCONST">      0.00000000      0.00000000      0.00000000</v>
  </separator>
  <separator name="response functions" >
   <i type="logical" name="LFINITE_TEMPERATURE"> F  </i>
   <i type="logical" name="LADDER"> F  </i>
   <i type="logical" name="LRPAFORCE"> F  </i>
   <i type="logical" name="LFXC"> F  </i>
   <i type="logical" name="LHARTREE"> T  </i>
   <i type="int" name="IBSE">     0</i>
   <v type="int" name="KPOINT">    -1     0     0     0</v>
   <i type="logical" name="LTCTC"> F  </i>
   <i type="logical" name="LTCTE"> F  </i>
   <i type="logical" name="LTETE"> F  </i>
   <i type="logical" name="LTRIPLET"> F  </i>
   <i type="logical" name="LFXCEPS"> F  </i>
   <i type="logical" name="LFXHEG"> F  </i>
   <i type="int" name="NATURALO">     2</i>
   <i type="logical" name="LHOLEGF"> F  </i>
   <i type="logical" name="L2ORDER"> F  </i>
   <i type="logical" name="LDMP1"> F  </i>
   <i type="logical" name="LMP2LT"> F  </i>
   <i type="logical" name="LSMP2LT"> F  </i>
   <i type="logical" name="LGWLF"> F  </i>
   <i name="ENCUTGW">     -2.00000000</i>
   <i name="ENCUTGWSOFT">     -2.00000000</i>
   <i name="ENCUTLF">     -1.00000000</i>
   <i type="logical" name="LESF_SPLINES"> F  </i>
   <i type="int" name="LMAXMP2">    -1</i>
   <i name="SCISSOR">      0.00000000</i>
   <i type="int" name="NOMEGA">     0</i>
   <i type="int" name="NOMEGAR">     0</i>
   <i type="int" name="NBANDSGW">    -1</i>
   <i type="int" name="NBANDSO">    -1</i>
   <i type="int" name="NBANDSV">    -1</i>
   <i type="int" name="NELMGW">     1</i>
   <i type="int" name="NELMHF">     1</i>
   <i type="int" name="DIM">     3</i>
   <i type="int" name="IESPILON">     4</i>
   <i type="int" name="ANTIRES">     0</i>
   <i name="OMEGAMAX">    -30.00000000</i>
   <i name="OMEGAMIN">    -30.00000000</i>
   <i name="OMEGATL">   -200.00000000</i>
   <i type="int" name="OMEGAGRID">     0</i>
   <i name="CSHIFT">     -0.10000000</i>
   <i type="logical" name="LSELFENERGY"> F  </i>
   <i type="logical" name="LSPECTRAL"> F  </i>
   <i type="logical" name="LSPECTRALGW"> F  </i>
   <i type="logical" name="LSINGLES"> F  </i>
   <i type="logical" name="LFERMIGW"> F  </i>
   <i type="logical" name="ODDONLYGW"> F  </i>
   <i type="logical" name="EVENONLYGW"> F  </i>
   <i type="int" name="NKREDLFX">     1</i>
   <i type="int" name="NKREDLFY">     1</i>
   <i type="int" name="NKREDLFZ">     1</i>
   <i type="int" name="MAXMEM">  2800</i>
   <i type="int" name="TELESCOPE">     0</i>
   <i type="int" name="NTAUPAR">    -1</i>
   <i type="int" name="NOMEGAPAR">    -1</i>
   <i name="DAMP_NEWTON">      0.80000001</i>
   <i name="LAMBDA">      1.00000000</i>
  </separator>
  <separator name="External order field" >
   <i name="OFIELD_KAPPA">      0.00000000</i>
   <v name="OFIELD_K">      0.00000000      0.00000000      0.00000000</v>
   <i name="OFIELD_Q6_NEAR">      0.00000000</i>
   <i name="OFIELD_Q6_FAR">      0.00000000</i>
   <i name="OFIELD_A">      0.00000000</i>
  </separator>
  <separator name="optional k-points parameters" >
   <i type="int" name="KPOINTS_OPT_MODE">     1</i>
   <i type="logical" name="LKPOINTS_OPT"> F  </i>
  </separator>
  <separator name="solvation model" >
   <i type="logical" name="LSOL"> F  </i>
  </separator>
 </parameters>
 <atominfo>
  <atoms>      15 </atoms>
  <types>       2 </types>
  <array name="atoms" >
   <dimension dim="1">ion</dimension>
   <field type="string">element</field>
   <field type="int">atomtype</field>
   <set>
    <rc><c>B </c><c>   1</c></rc>
    <rc><c>B </c><c>   1</c></rc>
    <rc><c>B </c><c>   1</c></rc>
    <rc><c>B </c><c>   1</c></rc>
    <rc><c>C </c><c>   2</c></rc>
    <rc><c>C </c><c>   2</c></rc>
    <rc><c>C </c><c>   2</c></rc>
    <rc><c>C </c><c>   2</c></rc>
    <rc><c>C </c><c>   2</c></rc>
    <rc><c>C </c><c>   2</c></rc>
    <rc><c>C </c><c>   2</c></rc>
    <rc><c>C </c><c>   2</c></rc>
    <rc><c>C </c><c>   2</c></rc>
    <rc><c>C </c><c>   2</c></rc>
    <rc><c>C </c><c>   2</c></rc>
   </set>
  </array>
  <array name="atomtypes" >
   <dimension dim="1">type</dimension>
   <field type="int">atomspertype</field>
   <field type="string">element</field>
   <field>mass</field>
   <field>valence</field>
   <field type="string">pseudopotential</field>
   <set>
    <rc><c>   4</c><c>B </c><c>     10.81100000</c><c>      3.00000000</c><c>  PAW_PBE B 06Sep2000                   </c></rc>
    <rc><c>  11</c><c>C </c><c>     12.01100000</c><c>      4.00000000</c><c>  PAW_PBE C 08Apr2002                   </c></rc>
   </set>
  </array>
 </atominfo>
 <structure name="initialpos" >
  <crystal>
   <varray name="basis" >
    <v>       4.21667769       2.43450000       0.00000000 </v>
    <v>      -4.21667769       2.43450000       0.00000000 </v>
    <v>       0.00000000       0.00000000      15.00000000 </v>
   </varray>
   <i name="volume">    307.96505516 </i>
   <varray name="rec_basis" >
    <v>       0.11857677       0.20538098       0.00000000 </v>
    <v>      -0.11857677       0.20538098       0.00000000 </v>
    <v>       0.00000000       0.00000000       0.06666667 </v>
   </varray>
  </crystal>
  <varray name="positions" >
   <v>       0.00415361       0.00267210       0.12034134 </v>
   <v>       0.35695335       0.00285503       0.09748893 </v>
   <v>       0.00423858       0.35550699       0.09749256 </v>
   <v>       0.65142295       0.65006557       0.09747688 </v>
   <v>       0.32808646       0.32671938       0.10030508 </v>
   <v>       0.68027775       0.00278085       0.10027562 </v>
   <v>       0.00416530       0.67883808       0.10026559 </v>
   <v>       0.11111044       0.38888856       0.33726667 </v>
   <v>       0.27777744       0.22222156       0.33726667 </v>
   <v>       0.11111044       0.88888856       0.33726667 </v>
   <v>       0.27777744       0.72222156       0.33726667 </v>
   <v>       0.61111044       0.38888856       0.33726667 </v>
   <v>       0.77777744       0.22222156       0.33726667 </v>
   <v>       0.61111044       0.88888856       0.33726667 </v>
   <v>       0.77777744       0.72222156       0.33726667 </v>
  </varray>
 </structure>
 <calculation>
  <scstep>
   <time name="dav">    5.51    5.58</time>
   <time name="total">    5.56    5.63</time>
   <energy>
    <i name="alphaZ">     57.75751028 </i>
    <i name="ewald">   4625.31170878 </i>
    <i name="hartreedc">  -6185.13375949 </i>
    <i name="XCdc">    174.64639810 </i>
    <i name="pawpsdc">   1365.87943566 </i>
    <i name="pawaedc">  -1368.52100941 </i>
    <i name="eentropy">     -0.01775291 </i>
    <i name="bandstr">   -370.95256976 </i>
    <i name="atom">   1903.26342058 </i>
    <i name="e_fr_energy">    202.23338184 </i>
    <i name="e_wo_entrp">    202.25113474 </i>
    <i name="e_0_energy">    202.24225829 </i>
   </energy>
  </scstep>
  <scstep>
   <time name="dav">    7.97    8.05</time>
   <time name="total">    7.98    8.05</time>
   <energy>
    <i name="e_fr_energy">   -115.94020339 </i>
    <i name="e_wo_entrp">   -115.93927702 </i>
    <i name="e_0_energy">   -115.93974020 </i>
   </energy>
  </scstep>
  <scstep>
   <time name="dav">   11.26   11.35</time>
   <time name="total">   11.26   11.35</time>
   <energy>
    <i name="e_fr_energy">   -128.98699601 </i>
    <i name="e_wo_entrp">   -128.98373688 </i>
    <i name="e_0_energy">   -128.98536645 </i>
   </energy>
  </scstep>
  <scstep>
   <time name="dav">    7.93    8.01</time>
   <time name="total">    7.93    8.01</time>
   <energy>
    <i name="e_fr_energy">   -129.00895405 </i>
    <i name="e_wo_entrp">   -129.00573850 </i>
    <i name="e_0_energy">   -129.00734627 </i>
   </energy>
  </scstep>
  <scstep>
   <time name="dav">   10.88   10.96</time>
   <time name="total">   11.15   11.24</time>
   <energy>
    <i name="e_fr_energy">   -129.00902247 </i>
    <i name="e_wo_entrp">   -129.00580694 </i>
    <i name="e_0_energy">   -129.00741471 </i>
   </energy>
  </scstep>
  <scstep>
   <time name="dav">   10.62   10.70</time>
   <time name="total">   10.92   11.01</time>
   <energy>
    <i name="e_fr_energy">    -91.86997591 </i>
    <i name="e_wo_entrp">    -91.86299019 </i>
    <i name="e_0_energy">    -91.86648305 </i>
   </energy>
  </scstep>
  <scstep>
   <time name="dav">    8.95    9.01</time>
   <time name="total">    9.24    9.32</time>
   <energy>
    <i name="e_fr_energy">   -100.27035885 </i>
    <i name="e_wo_entrp">   -100.26448634 </i>
    <i name="e_0_energy">   -100.26742259 </i>
   </energy>
  </scstep>
  <scstep>
   <time name="dav">    9.60    9.67</time>
   <time name="total">    9.89    9.97</time>
   <energy>
    <i name="e_fr_energy">   -110.43420179 </i>
    <i name="e_wo_entrp">   -110.43417504 </i>
    <i name="e_0_energy">   -110.43418842 </i>
   </energy>
  </scstep>
  <scstep>
   <time name="dav">    7.94    8.01</time>
   <time name="total">    8.23    8.30</time>
   <energy>
    <i name="e_fr_energy">   -117.12304659 </i>
    <i name="e_wo_entrp">   -117.12304237 </i>
    <i name="e_0_energy">   -117.12304448 </i>
   </energy>
  </scstep>
  <scstep>
   <time name="dav">    9.64    9.70</time>
   <time name="total">    9.93   10.00</time>
   <energy>
    <i name="e_fr_energy">   -123.45136620 </i>
    <i name="e_wo_entrp">   -123.45075692 </i>
    <i name="e_0_energy">   -123.45106156 </i>
   </energy>
  </scstep>
  <scstep>
   <time name="dav">   10.65   10.72</time>
   <time name="total">   10.94   11.02</time>
   <energy>
    <i name="e_fr_energy">   -125.26320898 </i>
    <i name="e_wo_entrp">   -125.26201041 </i>
    <i name="e_0_energy">   -125.26260970 </i>
   </energy>
  </scstep>
  <scstep>
   <time name="dav">    8.15    8.21</time>
   <time name="total">    8.44    8.51</time>
   <energy>
    <i name="e_fr_energy">   -125.40928131 </i>
    <i name="e_wo_entrp">   -125.40779794 </i>
    <i name="e_0_energy">   -125.40853963 </i>
   </energy>
  </scstep>
  <scstep>
   <time name="dav">    7.05    7.10</time>
   <time name="total">    7.34    7.40</time>
   <energy>
    <i name="e_fr_energy">   -125.43516549 </i>
    <i name="e_wo_entrp">   -125.43360660 </i>
    <i name="e_0_energy">   -125.43438604 </i>
   </energy>
  </scstep>
  <scstep>
   <time name="dav">    8.27    8.33</time>
   <time name="total">    8.56    8.63</time>
   <energy>
    <i name="e_fr_energy">   -125.45846695 </i>
    <i name="e_wo_entrp">   -125.45690291 </i>
    <i name="e_0_energy">   -125.45768493 </i>
   </energy>
  </scstep>
  <scstep>
   <time name="dav">    7.50    7.56</time>
   <time name="total">    7.79    7.86</time>
   <energy>
    <i name="e_fr_energy">   -125.46613982 </i>
    <i name="e_wo_entrp">   -125.46457507 </i>
    <i name="e_0_energy">   -125.46535745 </i>
   </energy>
  </scstep>
  <scstep>
   <time name="dav">    6.57    6.62</time>
   <time name="total">    6.86    6.92</time>
   <energy>
    <i name="e_fr_energy">   -125.46811587 </i>
    <i name="e_wo_entrp">   -125.46655109 </i>
    <i name="e_0_energy">   -125.46733348 </i>
   </energy>
  </scstep>
  <scstep>
   <time name="dav">    5.79    5.83</time>
   <time name="total">    6.08    6.13</time>
   <energy>
    <i name="e_fr_energy">   -125.46935914 </i>
    <i name="e_wo_entrp">   -125.46779437 </i>
    <i name="e_0_energy">   -125.46857676 </i>
   </energy>
  </scstep>
  <scstep>
   <time name="dav">    6.60    6.65</time>
   <time name="total">    6.89    6.95</time>
   <energy>
    <i name="e_fr_energy">   -125.47005231 </i>
    <i name="e_wo_entrp">   -125.46848755 </i>
    <i name="e_0_energy">   -125.46926993 </i>
   </energy>
  </scstep>
  <scstep>
   <time name="dav">    7.55    7.61</time>
   <time name="total">    7.84    7.91</time>
   <energy>
    <i name="e_fr_energy">   -125.47048692 </i>
    <i name="e_wo_entrp">   -125.46892215 </i>
    <i name="e_0_energy">   -125.46970453 </i>
   </energy>
  </scstep>
  <scstep>
   <time name="dav">    9.40    9.47</time>
   <time name="total">    9.70    9.77</time>
   <energy>
    <i name="e_fr_energy">   -125.47053975 </i>
    <i name="e_wo_entrp">   -125.46897498 </i>
    <i name="e_0_energy">   -125.46975737 </i>
   </energy>
  </scstep>
  <scstep>
   <time name="dav">    8.18    8.24</time>
   <time name="total">    8.47    8.54</time>
   <energy>
    <i name="e_fr_energy">   -125.47055901 </i>
    <i name="e_wo_entrp">   -125.46899423 </i>
    <i name="e_0_energy">   -125.46977662 </i>
   </energy>
  </scstep>
  <scstep>
   <time name="dav">    8.84    8.90</time>
   <time name="total">    9.13    9.21</time>
   <energy>
    <i name="e_fr_energy">   -125.47057985 </i>
    <i name="e_wo_entrp">   -125.46901507 </i>
    <i name="e_0_energy">   -125.46979746 </i>
   </energy>
  </scstep>
  <scstep>
   <time name="dav">    8.62    8.67</time>
   <time name="total">    8.91    8.97</time>
   <energy>
    <i name="e_fr_energy">   -125.47059544 </i>
    <i name="e_wo_entrp">   -125.46903066 </i>
    <i name="e_0_energy">   -125.46981305 </i>
   </energy>
  </scstep>
  <scstep>
   <time name="dav">    9.45    9.51</time>
   <time name="total">    9.74    9.81</time>
   <energy>
    <i name="e_fr_energy">   -125.47059858 </i>
    <i name="e_wo_entrp">   -125.46903380 </i>
    <i name="e_0_energy">   -125.46981619 </i>
   </energy>
  </scstep>
  <scstep>
   <time name="dav">    9.15    9.21</time>
   <time name="total">    9.19    9.25</time>
   <energy>
    <i name="alphaZ">     57.75751028 </i>
    <i name="ewald">   4625.31170878 </i>
    <i name="hartreedc">  -6382.00738134 </i>
    <i name="XCdc">    179.89736945 </i>
    <i name="pawpsdc">   5609.26018423 </i>
    <i name="pawaedc">  -5613.62063000 </i>
    <i name="eentropy">     -0.00156478 </i>
    <i name="bandstr">   -505.33121674 </i>
    <i name="atom">   1903.26342058 </i>
    <i name="e_fr_energy">   -125.47059953 </i>
    <i name="e_wo_entrp">   -125.46903476 </i>
    <i name="e_0_energy">   -125.46981714 </i>
   </energy>
  </scstep>
  <structure>
   <crystal>
    <varray name="basis" >
     <v>       4.21667769       2.43450000       0.00000000 </v>
     <v>      -4.21667769       2.43450000       0.00000000 </v>
     <v>       0.00000000       0.00000000      15.00000000 </v>
    </varray>
    <i name="volume">    307.96505516 </i>
    <varray name="rec_basis" >
     <v>       0.11857677       0.20538098       0.00000000 </v>
     <v>      -0.11857677       0.20538098       0.00000000 </v>
     <v>       0.00000000       0.00000000       0.06666667 </v>
    </varray>
   </crystal>
   <varray name="positions" >
    <v>       0.00415361       0.00267210       0.12034134 </v>
    <v>       0.35695335       0.00285503       0.09748893 </v>
    <v>       0.00423858       0.35550699       0.09749256 </v>
    <v>       0.65142295       0.65006557       0.09747688 </v>
    <v>       0.32808646       0.32671938       0.10030508 </v>
    <v>       0.68027775       0.00278085       0.10027562 </v>
    <v>       0.00416530       0.67883808       0.10026559 </v>
    <v>       0.11111044       0.38888856       0.33726667 </v>
    <v>       0.27777744       0.22222156       0.33726667 </v>
    <v>       0.11111044       0.88888856       0.33726667 </v>
    <v>       0.27777744       0.72222156       0.33726667 </v>
    <v>       0.61111044       0.38888856       0.33726667 </v>
    <v>       0.77777744       0.22222156       0.33726667 </v>
    <v>       0.61111044       0.88888856       0.33726667 </v>
    <v>       0.77777744       0.72222156       0.33726667 </v>
   </varray>
  </structure>
  <varray name="forces" >
   <v>      -0.00056783       0.00158091      -0.44473395 </v>
   <v>      -0.11497474      -0.07250239       0.11586963 </v>
   <v>       0.09587328      -0.06012272       0.13254363 </v>
   <v>       0.00947629       0.12219028       0.12818398 </v>
   <v>       0.01414092      -0.38725941       0.00314318 </v>
   <v>       0.35074082       0.20383181       0.01690141 </v>
   <v>      -0.32491606       0.19353601       0.00594742 </v>
   <v>      -0.01530378       0.00145455       0.00463024 </v>
   <v>       0.00134069       0.01264877       0.02805978 </v>
   <v>       0.00442274       0.01629299       0.00849900 </v>
   <v>       0.01702314       0.00957522      -0.01863165 </v>
   <v>       0.00124246      -0.00449491      -0.02019397 </v>
   <v>      -0.00771536       0.00055296       0.00750656 </v>
   <v>      -0.01150196      -0.01198869       0.02431041 </v>
   <v>      -0.01928062      -0.02529538       0.00796434 </v>
  </varray>
  <varray name="stress" >
   <v>     -29.72695905       0.07722674      -0.54805988 </v>
   <v>       0.07722674     -29.85370119      -0.02116152 </v>
   <v>      -0.54805990      -0.02116151      -2.10557812 </v>
  </varray>
  <energy>
   <i name="e_fr_energy">   -127.05380978 </i>
   <i name="e_wo_entrp">   -127.05224500 </i>
   <i name="e_0_energy">   -127.05302739 </i>
  </energy>
  <time name="totalsc">  222.73  224.57</time>
 </calculation>
 <calculation>
  <scstep>
   <time name="dav">    5.48    5.52</time>
   <time name="total">    5.78    5.83</time>
   <energy>
    <i name="alphaZ">     57.75751028 </i>
    <i name="ewald">   4629.16929934 </i>
    <i name="hartreedc">  -6384.33263674 </i>
    <i name="XCdc">    179.98667356 </i>
    <i name="pawpsdc">   5609.28890416 </i>
    <i name="pawaedc">  -5613.64934842 </i>
    <i name="eentropy">     -0.00156388 </i>
    <i name="bandstr">   -506.96639907 </i>
    <i name="atom">   1903.26342058 </i>
    <i name="e_fr_energy">   -125.48414019 </i>
    <i name="e_wo_entrp">   -125.48257631 </i>
    <i name="e_0_energy">   -125.48335825 </i>
   </energy>
  </scstep>
  <scstep>
   <time name="dav">   11.06   11.14</time>
   <time name="total">   11.35   11.44</time>
   <energy>
    <i name="e_fr_energy">   -125.47401747 </i>
    <i name="e_wo_entrp">   -125.47245348 </i>
    <i name="e_0_energy">   -125.47323547 </i>
   </energy>
  </scstep>
  <scstep>
   <time name="dav">    7.67    7.72</time>
   <time name="total">    7.96    8.02</time>
   <energy>
    <i name="e_fr_energy">   -125.47289090 </i>
    <i name="e_wo_entrp">   -125.47132687 </i>
    <i name="e_0_energy">   -125.47210888 </i>
   </energy>
  </scstep>
  <scstep>
   <time name="dav">   11.46   11.54</time>
   <time name="total">   11.75   11.84</time>
   <energy>
    <i name="e_fr_energy">   -125.47284418 </i>
    <i name="e_wo_entrp">   -125.47128014 </i>
    <i name="e_0_energy">   -125.47206216 </i>
   </energy>
  </scstep>
  <scstep>
   <time name="dav">    9.41    9.48</time>
   <time name="total">    9.70    9.77</time>
   <energy>
    <i name="e_fr_energy">   -125.47284815 </i>
    <i name="e_wo_entrp">   -125.47128411 </i>
    <i name="e_0_energy">   -125.47206613 </i>
   </energy>
  </scstep>
  <scstep>
   <time name="dav">    9.90    9.97</time>
   <time name="total">    9.93   10.00</time>
   <energy>
    <i name="alphaZ">     57.75751028 </i>
    <i name="ewald">   4629.16929934 </i>
    <i name="hartreedc">  -6385.13580056 </i>
    <i name="XCdc">    180.00471277 </i>
    <i name="pawpsdc">   5638.01450035 </i>
    <i name="pawaedc">  -5642.38440832 </i>
    <i name="eentropy">     -0.00156404 </i>
    <i name="bandstr">   -506.16051852 </i>
    <i name="atom">   1903.26342058 </i>
    <i name="e_fr_energy">   -125.47284812 </i>
    <i name="e_wo_entrp">   -125.47128409 </i>
    <i name="e_0_energy">   -125.47206611 </i>
   </energy>
  </scstep>
  <structure>
   <crystal>
    <varray name="basis" >
     <v>       4.21667769       2.43450000       0.00000000 </v>
     <v>      -4.21667769       2.43450000       0.00000000 </v>
     <v>       0.00000000       0.00000000      15.00000000 </v>
    </varray>
    <i name="volume">    307.96505516 </i>
    <varray name="rec_basis" >
     <v>       0.11857677       0.20538098       0.00000000 </v>
     <v>      -0.11857677       0.20538098       0.00000000 </v>
     <v>       0.00000000       0.00000000       0.06666667 </v>
    </varray>
   </crystal>
   <varray name="positions" >
    <v>       0.00416602       0.00269101       0.11891099 </v>
    <v>       0.35557728       0.00279438       0.09786159 </v>
    <v>       0.00419131       0.35436285       0.09791885 </v>
    <v>       0.65268784       0.65122204       0.09788914 </v>
    <v>       0.32433034       0.32280147       0.10031519 </v>
    <v>       0.68430374       0.00279405       0.10032998 </v>
    <v>       0.00422421       0.68261433       0.10028471 </v>
    <v>       0.11103731       0.38899051       0.33728156 </v>
    <v>       0.27791044       0.22233921       0.33735691 </v>
    <v>       0.11129718       0.88902469       0.33729400 </v>
    <v>       0.27796970       0.72221905       0.33720674 </v>
    <v>       0.61107302       0.38883691       0.33720172 </v>
    <v>       0.77773879       0.22227117       0.33729081 </v>
    <v>       0.61092586       0.88883557       0.33734485 </v>
    <v>       0.77741652       0.72208122       0.33729228 </v>
   </varray>
  </structure>
  <varray name="forces" >
   <v>      -0.00334149       0.00248918      -0.20149597 </v>
   <v>       0.26284680       0.14706340       0.06485319 </v>
   <v>      -0.22506568       0.13660073       0.07658530 </v>
   <v>       0.01090837      -0.27592416       0.07311664 </v>
   <v>       0.00247879       0.58676059      -0.02164622 </v>
   <v>      -0.52311009      -0.30504796      -0.01376759 </v>
   <v>       0.50458480      -0.29073759      -0.01986601 </v>
   <v>       0.03810749      -0.00617686       0.00530007 </v>
   <v>      -0.02701843      -0.04008008       0.00927107 </v>
   <v>      -0.03030593      -0.05896322       0.00836797 </v>
   <v>      -0.07472940      -0.03259940      -0.00035768 </v>
   <v>      -0.01457857       0.01287115       0.00115191 </v>
   <v>       0.01103502      -0.00562450       0.00394577 </v>
   <v>       0.02125830       0.04386676       0.00909861 </v>
   <v>       0.04693001       0.08550195       0.00544295 </v>
  </varray>
  <varray name="stress" >
   <v>     -26.89402355       0.11571449      -0.55634937 </v>
   <v>       0.11571450     -26.96862065      -0.01922871 </v>
   <v>      -0.55634935      -0.01922870      -1.67012335 </v>
  </varray>
  <energy>
   <i name="e_fr_energy">   -127.05533204 </i>
   <i name="e_wo_entrp">   -127.05376800 </i>
   <i name="e_0_energy">   -127.05455002 </i>
  </energy>
  <time name="totalsc">   61.20   61.66</time>
 </calculation>
 <calculation>
  <scstep>
   <time name="dav">    5.48    5.51</time>
   <time name="total">    5.77    5.82</time>
   <energy>
    <i name="alphaZ">     57.75751028 </i>
    <i name="ewald">   4627.27811235 </i>
    <i name="hartreedc">  -6383.98755107 </i>
    <i name="XCdc">    179.96060621 </i>
    <i name="pawpsdc">   5638.02614470 </i>
    <i name="pawaedc">  -5642.39603344 </i>
    <i name="eentropy">     -0.00156449 </i>
    <i name="bandstr">   -505.38373912 </i>
    <i name="atom">   1903.26342058 </i>
    <i name="e_fr_energy">   -125.48309399 </i>
    <i name="e_wo_entrp">   -125.48152950 </i>
    <i name="e_0_energy">   -125.48231175 </i>
   </energy>
  </scstep>
  <scstep>
   <time name="dav">   10.90   10.97</time>
   <time name="total">   11.19   11.26</time>
   <energy>
    <i name="e_fr_energy">   -125.48071235 </i>
    <i name="e_wo_entrp">   -125.47914791 </i>
    <i name="e_0_energy">   -125.47993013 </i>
   </energy>
  </scstep>
  <scstep>
   <time name="dav">    9.89    9.95</time>
   <time name="total">   10.17   10.24</time>
   <energy>
    <i name="e_fr_energy">   -125.48046417 </i>
    <i name="e_wo_entrp">   -125.47889975 </i>
    <i name="e_0_energy">   -125.47968196 </i>
   </energy>
  </scstep>
  <scstep>
   <time name="dav">    9.50    9.55</time>
   <time name="total">    9.78    9.85</time>
   <energy>
    <i name="e_fr_energy">   -125.48045322 </i>
    <i name="e_wo_entrp">   -125.47888880 </i>
    <i name="e_0_energy">   -125.47967101 </i>
   </energy>
  </scstep>
  <scstep>
   <time name="dav">    9.32    9.38</time>
   <time name="total">    9.35    9.41</time>
   <energy>
    <i name="alphaZ">     57.75751028 </i>
    <i name="ewald">   4627.27811235 </i>
    <i name="hartreedc">  -6383.62690059 </i>
    <i name="XCdc">    179.95204172 </i>
    <i name="pawpsdc">   5623.60810083 </i>
    <i name="pawaedc">  -5627.97312021 </i>
    <i name="eentropy">     -0.00156442 </i>
    <i name="bandstr">   -505.73805460 </i>
    <i name="atom">   1903.26342058 </i>
    <i name="e_fr_energy">   -125.48045405 </i>
    <i name="e_wo_entrp">   -125.47888963 </i>
    <i name="e_0_energy">   -125.47967184 </i>
   </energy>
  </scstep>
  <structure>
   <crystal>
    <varray name="basis" >
     <v>       4.21667769       2.43450000       0.00000000 </v>
     <v>      -4.21667769       2.43450000       0.00000000 </v>
     <v>       0.00000000       0.00000000      15.00000000 </v>
    </varray>
    <i name="volume">    307.96505516 </i>
    <varray name="rec_basis" >
     <v>       0.11857677       0.20538098       0.00000000 </v>
     <v>      -0.11857677       0.20538098       0.00000000 </v>
     <v>       0.00000000       0.00000000       0.06666667 </v>
    </varray>
   </crystal>
   <varray name="positions" >
    <v>       0.00416008       0.00268196       0.11959562 </v>
    <v>       0.35623593       0.00282341       0.09768322 </v>
    <v>       0.00421394       0.35491049       0.09771481 </v>
    <v>       0.65208241       0.65066850       0.09769181 </v>
    <v>       0.32612818       0.32467675       0.10031035 </v>
    <v>       0.68237672       0.00278773       0.10030396 </v>
    <v>       0.00419601       0.68080685       0.10027556 </v>
    <v>       0.11107232       0.38894171       0.33727443 </v>
    <v>       0.27784678       0.22228290       0.33731372 </v>
    <v>       0.11120780       0.88895953       0.33728092 </v>
    <v>       0.27787768       0.72222025       0.33723543 </v>
    <v>       0.61109093       0.38886163       0.33723281 </v>
    <v>       0.77775729       0.22224742       0.33727925 </v>
    <v>       0.61101421       0.88886093       0.33730743 </v>
    <v>       0.77758927       0.72214839       0.33728002 </v>
   </varray>
  </structure>
  <varray name="forces" >
   <v>      -0.00256087       0.00195288      -0.31649441 </v>
   <v>       0.08639620       0.04447036       0.08910235 </v>
   <v>      -0.07518173       0.04436931       0.10315722 </v>
   <v>       0.01026586      -0.08985686       0.09928665 </v>
   <v>       0.00838923       0.11878611      -0.00998928 </v>
   <v>      -0.10367797      -0.06068264       0.00076838 </v>
   <v>       0.10592258      -0.05777316      -0.00777527 </v>
   <v>       0.01251093      -0.00253298       0.00493209 </v>
   <v>      -0.01336276      -0.01487114       0.01827913 </v>
   <v>      -0.01374782      -0.02290392       0.00844044 </v>
   <v>      -0.03073165      -0.01229571      -0.00916327 </v>
   <v>      -0.00703493       0.00452586      -0.00912615 </v>
   <v>       0.00202271      -0.00261846       0.00560483 </v>
   <v>       0.00559130       0.01696150       0.01635295 </v>
   <v>       0.01519893       0.03246887       0.00662434 </v>
  </varray>
  <varray name="stress" >
   <v>     -28.39963563       0.09233123      -0.55264390 </v>
   <v>       0.09233121     -28.50064254      -0.01966597 </v>
   <v>      -0.55264388      -0.01966594      -1.86110127 </v>
  </varray>
  <energy>
   <i name="e_fr_energy">   -127.06327806 </i>
   <i name="e_wo_entrp">   -127.06171364 </i>
   <i name="e_0_energy">   -127.06249585 </i>
  </energy>
  <time name="totalsc">   50.99   51.36</time>
 </calculation>
 <calculation>
  <scstep>
   <time name="dav">    5.49    5.52</time>
   <time name="total">    5.77    5.82</time>
   <energy>
    <i name="alphaZ">     57.75751028 </i>
    <i name="ewald">   4627.33615518 </i>
    <i name="hartreedc">  -6383.41634373 </i>
    <i name="XCdc">    179.97176270 </i>
    <i name="pawpsdc">   5623.56756750 </i>
    <i name="pawaedc">  -5627.93259391 </i>
    <i name="eentropy">     -0.00156628 </i>
    <i name="bandstr">   -506.03430191 </i>
    <i name="atom">   1903.26342058 </i>
    <i name="e_fr_energy">   -125.48838959 </i>
    <i name="e_wo_entrp">   -125.48682331 </i>
    <i name="e_0_energy">   -125.48760645 </i>
   </energy>
  </scstep>
  <scstep>
   <time name="dav">   11.43   11.50</time>
   <time name="total">   11.71   11.80</time>
   <energy>
    <i name="e_fr_energy">   -125.48847523 </i>
    <i name="e_wo_entrp">   -125.48690901 </i>
    <i name="e_0_energy">   -125.48769212 </i>
   </energy>
  </scstep>
  <scstep>
   <time name="dav">    8.22    8.28</time>
   <time name="total">    8.51    8.58</time>
   <energy>
    <i name="e_fr_energy">   -125.48847440 </i>
    <i name="e_wo_entrp">   -125.48690827 </i>
    <i name="e_0_energy">   -125.48769134 </i>
   </energy>
  </scstep>
  <scstep>
   <time name="dav">   10.86   10.93</time>
   <time name="total">   11.15   11.23</time>
   <energy>
    <i name="e_fr_energy">   -125.48847570 </i>
    <i name="e_wo_entrp">   -125.48690955 </i>
    <i name="e_0_energy">   -125.48769263 </i>
   </energy>
  </scstep>
  <scstep>
   <time name="dav">    8.60    8.65</time>
   <time name="total">    8.63    8.69</time>
   <energy>
    <i name="alphaZ">     57.75751028 </i>
    <i name="ewald">   4627.33615518 </i>
    <i name="hartreedc">  -6383.40054758 </i>
    <i name="XCdc">    179.97047914 </i>
    <i name="pawpsdc">   5629.14566010 </i>
    <i name="pawaedc">  -5633.51261669 </i>
    <i name="eentropy">     -0.00156614 </i>
    <i name="bandstr">   -506.04697091 </i>
    <i name="atom">   1903.26342058 </i>
    <i name="e_fr_energy">   -125.48847604 </i>
    <i name="e_wo_entrp">   -125.48690990 </i>
    <i name="e_0_energy">   -125.48769297 </i>
   </energy>
  </scstep>
  <structure>
   <crystal>
    <varray name="basis" >
     <v>       4.21667769       2.43450000       0.00000000 </v>
     <v>      -4.21667769       2.43450000       0.00000000 </v>
     <v>       0.00000000       0.00000000      15.00000000 </v>
    </varray>
    <i name="volume">    307.96505516 </i>
    <varray name="rec_basis" >
     <v>       0.11857677       0.20538098       0.00000000 </v>
     <v>      -0.11857677       0.20538098       0.00000000 </v>
     <v>       0.00000000       0.00000000       0.06666667 </v>
    </varray>
   </crystal>
   <varray name="positions" >
    <v>       0.00416731       0.00271725       0.11833167 </v>
    <v>       0.35675082       0.00276037       0.09803185 </v>
    <v>       0.00421121       0.35542216       0.09811719 </v>
    <v>       0.65163419       0.65008804       0.09807957 </v>
    <v>       0.32633383       0.32475675       0.10028372 </v>
    <v>       0.68226355       0.00278351       0.10031925 </v>
    <v>       0.00424046       0.68064816       0.10025754 </v>
    <v>       0.11109678       0.38887878       0.33729235 </v>
    <v>       0.27767636       0.22224703       0.33738855 </v>
    <v>       0.11097632       0.88885813       0.33731203 </v>
    <v>       0.27765471       0.72226845       0.33719439 </v>
    <v>       0.61108610       0.38892617       0.33719067 </v>
    <v>       0.77773501       0.22222541       0.33730135 </v>
    <v>       0.61115078       0.88897125       0.33737377 </v>
    <v>       0.77787213       0.72232698       0.33730544 </v>
   </varray>
  </structure>
  <varray name="forces" >
   <v>       0.00085400       0.00096010      -0.28649330 </v>
   <v>       0.06241134       0.03312758       0.05350902 </v>
   <v>      -0.04568392       0.03123121       0.06032483 </v>
   <v>       0.00626209      -0.06121306       0.05834775 </v>
   <v>       0.00270740       0.10945832       0.02236429 </v>
   <v>      -0.09435391      -0.05875381       0.02842092 </v>
   <v>       0.09541160      -0.05365669       0.02399114 </v>
   <v>      -0.04095868       0.00560844       0.00430724 </v>
   <v>       0.02626531       0.02330163       0.00418982 </v>
   <v>       0.01157536       0.05345199       0.00655863 </v>
   <v>       0.05214208       0.02560280       0.00580627 </v>
   <v>      -0.00332152      -0.00831106       0.00673961 </v>
   <v>      -0.01337928       0.00905983       0.00341405 </v>
   <v>      -0.02024762      -0.04087731       0.00401584 </v>
   <v>      -0.03968425      -0.06898998       0.00450390 </v>
  </varray>
  <varray name="stress" >
   <v>     -27.95293301       0.09218274      -0.51357665 </v>
   <v>       0.09218276     -28.16588760      -0.02131917 </v>
   <v>      -0.51357664      -0.02131917      -1.83649545 </v>
  </varray>
  <energy>
   <i name="e_fr_energy">   -127.07111387 </i>
   <i name="e_wo_entrp">   -127.06954772 </i>
   <i name="e_0_energy">   -127.07033080 </i>
  </energy>
  <time name="totalsc">   50.51   51.59</time>
 </calculation>
 <calculation>
  <scstep>
   <time name="dav">    5.56    5.61</time>
   <time name="total">    5.85    5.91</time>
   <energy>
    <i name="alphaZ">     57.75751028 </i>
    <i name="ewald">   4626.89592111 </i>
    <i name="hartreedc">  -6382.29580428 </i>
    <i name="XCdc">    180.01941136 </i>
    <i name="pawpsdc">   5629.18267714 </i>
    <i name="pawaedc">  -5633.54964973 </i>
    <i name="eentropy">     -0.00156500 </i>
    <i name="bandstr">   -506.77218811 </i>
    <i name="atom">   1903.26342058 </i>
    <i name="e_fr_energy">   -125.50026667 </i>
    <i name="e_wo_entrp">   -125.49870167 </i>
    <i name="e_0_energy">   -125.49948417 </i>
   </energy>
  </scstep>
  <scstep>
   <time name="dav">   11.39   11.46</time>
   <time name="total">   11.68   11.76</time>
   <energy>
    <i name="e_fr_energy">   -125.50120942 </i>
    <i name="e_wo_entrp">   -125.49964417 </i>
    <i name="e_0_energy">   -125.50042679 </i>
   </energy>
  </scstep>
  <scstep>
   <time name="dav">    8.52    8.59</time>
   <time name="total">    8.81    8.89</time>
   <energy>
    <i name="e_fr_energy">   -125.50119127 </i>
    <i name="e_wo_entrp">   -125.49962579 </i>
    <i name="e_0_energy">   -125.50040853 </i>
   </energy>
  </scstep>
  <scstep>
   <time name="dav">   11.78   11.85</time>
   <time name="total">   12.06   12.15</time>
   <energy>
    <i name="e_fr_energy">   -125.50120478 </i>
    <i name="e_wo_entrp">   -125.49963927 </i>
    <i name="e_0_energy">   -125.50042202 </i>
   </energy>
  </scstep>
  <scstep>
   <time name="dav">    8.64    8.69</time>
   <time name="total">    8.92    8.99</time>
   <energy>
    <i name="e_fr_energy">   -125.50120851 </i>
    <i name="e_wo_entrp">   -125.49964300 </i>
    <i name="e_0_energy">   -125.50042575 </i>
   </energy>
  </scstep>
  <scstep>
   <time name="dav">   10.29   10.36</time>
   <time name="total">   10.33   10.40</time>
   <energy>
    <i name="alphaZ">     57.75751028 </i>
    <i name="ewald">   4626.89592111 </i>
    <i name="hartreedc">  -6382.22956467 </i>
    <i name="XCdc">    180.01515372 </i>
    <i name="pawpsdc">   5643.00721408 </i>
    <i name="pawaedc">  -5647.37912608 </i>
    <i name="eentropy">     -0.00156550 </i>
    <i name="bandstr">   -506.83017232 </i>
    <i name="atom">   1903.26342058 </i>
    <i name="e_fr_energy">   -125.50120881 </i>
    <i name="e_wo_entrp">   -125.49964331 </i>
    <i name="e_0_energy">   -125.50042606 </i>
   </energy>
  </scstep>
  <structure>
   <crystal>
    <varray name="basis" >
     <v>       4.21667769       2.43450000       0.00000000 </v>
     <v>      -4.21667769       2.43450000       0.00000000 </v>
     <v>       0.00000000       0.00000000      15.00000000 </v>
    </varray>
    <i name="volume">    307.96505516 </i>
    <varray name="rec_basis" >
     <v>       0.11857677       0.20538098       0.00000000 </v>
     <v>      -0.11857677       0.20538098       0.00000000 </v>
     <v>       0.00000000       0.00000000       0.06666667 </v>
    </varray>
   </crystal>
   <varray name="positions" >
    <v>       0.00418901       0.00282310       0.11453980 </v>
    <v>       0.35829549       0.00257124       0.09907774 </v>
    <v>       0.00420305       0.35695718       0.09932434 </v>
    <v>       0.65028952       0.64834664       0.09924285 </v>
    <v>       0.32695079       0.32499677       0.10020385 </v>
    <v>       0.68192404       0.00277087       0.10036512 </v>
    <v>       0.00437378       0.68017209       0.10020348 </v>
    <v>       0.11117016       0.38869000       0.33734611 </v>
    <v>       0.27716508       0.22213945       0.33761305 </v>
    <v>       0.11028187       0.88855392       0.33740536 </v>
    <v>       0.27698581       0.72241306       0.33707127 </v>
    <v>       0.61107161       0.38911979       0.33706425 </v>
    <v>       0.77766817       0.22215939       0.33736765 </v>
    <v>       0.61156047       0.88930221       0.33757277 </v>
    <v>       0.77872070       0.72286273       0.33738169 </v>
   </varray>
  </structure>
  <varray name="forces" >
   <v>       0.01176128      -0.00257667      -0.22819906 </v>
   <v>      -0.03081652      -0.01325537      -0.04346547 </v>
   <v>       0.06240763      -0.02106331      -0.05727931 </v>
   <v>      -0.00501609       0.04833450      -0.05387375 </v>
   <v>      -0.01263052       0.06228069       0.11942482 </v>
   <v>      -0.04890775      -0.04204842       0.11218412 </v>
   <v>       0.04599609      -0.03075842       0.11925891 </v>
   <v>      -0.20221996       0.03065481       0.00223290 </v>
   <v>       0.14506327       0.13900405      -0.03800823 </v>
   <v>       0.09084291       0.28680171       0.00063389 </v>
   <v>       0.30043408       0.13726625       0.05090872 </v>
   <v>       0.00794713      -0.04685795       0.05449140 </v>
   <v>      -0.06001658       0.04345306      -0.00309621 </v>
   <v>      -0.09751443      -0.21218579      -0.03307008 </v>
   <v>      -0.20733052      -0.37904914      -0.00214264 </v>
  </varray>
  <varray name="stress" >
   <v>     -26.71429423       0.12475362      -0.41406529 </v>
   <v>       0.12475361     -27.24811542      -0.02450634 </v>
   <v>      -0.41406529      -0.02450635      -1.80042675 </v>
  </varray>
  <energy>
   <i name="e_fr_energy">   -127.08329234 </i>
   <i name="e_wo_entrp">   -127.08172683 </i>
   <i name="e_0_energy">   -127.08250958 </i>
  </energy>
  <time name="totalsc">   62.38   62.86</time>
 </calculation>
 <calculation>
  <scstep>
   <time name="dav">    5.47    5.50</time>
   <time name="total">    5.76    5.80</time>
   <energy>
    <i name="alphaZ">     57.75751028 </i>
    <i name="ewald">   4626.86299595 </i>
    <i name="hartreedc">  -6382.11757014 </i>
    <i name="XCdc">    180.02022884 </i>
    <i name="pawpsdc">   5643.00412161 </i>
    <i name="pawaedc">  -5647.37603110 </i>
    <i name="eentropy">     -0.00156698 </i>
    <i name="bandstr">   -506.91785959 </i>
    <i name="atom">   1903.26342058 </i>
    <i name="e_fr_energy">   -125.50475055 </i>
    <i name="e_wo_entrp">   -125.50318357 </i>
    <i name="e_0_energy">   -125.50396706 </i>
   </energy>
  </scstep>
  <scstep>
   <time name="dav">   11.51   11.59</time>
   <time name="total">   11.80   11.88</time>
   <energy>
    <i name="e_fr_energy">   -125.50475263 </i>
    <i name="e_wo_entrp">   -125.50318566 </i>
    <i name="e_0_energy">   -125.50396914 </i>
   </energy>
  </scstep>
  <scstep>
   <time name="dav">    8.71    8.77</time>
   <time name="total">    8.99    9.06</time>
   <energy>
    <i name="e_fr_energy">   -125.50474070 </i>
    <i name="e_wo_entrp">   -125.50317372 </i>
    <i name="e_0_energy">   -125.50395721 </i>
   </energy>
  </scstep>
  <scstep>
   <time name="dav">   11.07   11.13</time>
   <time name="total">   11.35   11.43</time>
   <energy>
    <i name="e_fr_energy">   -125.50474113 </i>
    <i name="e_wo_entrp">   -125.50317416 </i>
    <i name="e_0_energy">   -125.50395765 </i>
   </energy>
  </scstep>
  <scstep>
   <time name="dav">   10.37   10.44</time>
   <time name="total">   10.41   10.47</time>
   <energy>
    <i name="alphaZ">     57.75751028 </i>
    <i name="ewald">   4626.86299595 </i>
    <i name="hartreedc">  -6382.11376065 </i>
    <i name="XCdc">    180.01945370 </i>
    <i name="pawpsdc">   5644.35102782 </i>
    <i name="pawaedc">  -5648.72348194 </i>
    <i name="eentropy">     -0.00156697 </i>
    <i name="bandstr">   -506.92034051 </i>
    <i name="atom">   1903.26342058 </i>
    <i name="e_fr_energy">   -125.50474176 </i>
    <i name="e_wo_entrp">   -125.50317478 </i>
    <i name="e_0_energy">   -125.50395827 </i>
   </energy>
  </scstep>
  <structure>
   <crystal>
    <varray name="basis" >
     <v>       4.21667769       2.43450000       0.00000000 </v>
     <v>      -4.21667769       2.43450000       0.00000000 </v>
     <v>       0.00000000       0.00000000      15.00000000 </v>
    </varray>
    <i name="volume">    307.96505516 </i>
    <varray name="rec_basis" >
     <v>       0.11857677       0.20538098       0.00000000 </v>
     <v>      -0.11857677       0.20538098       0.00000000 </v>
     <v>       0.00000000       0.00000000       0.06666667 </v>
    </varray>
   </crystal>
   <varray name="positions" >
    <v>       0.00419621       0.00282647       0.11398448 </v>
    <v>       0.35845673       0.00255228       0.09919425 </v>
    <v>       0.00421791       0.35708955       0.09945637 </v>
    <v>       0.65016871       0.64818210       0.09937053 </v>
    <v>       0.32708672       0.32510079       0.10023496 </v>
    <v>       0.68180675       0.00275462       0.10040953 </v>
    <v>       0.00438608       0.68005141       0.10023778 </v>
    <v>       0.11108800       0.38882273       0.33735364 </v>
    <v>       0.27733725       0.22218457       0.33762818 </v>
    <v>       0.11055465       0.88876442       0.33741732 </v>
    <v>       0.27723153       0.72239283       0.33707333 </v>
    <v>       0.61102493       0.38908952       0.33706713 </v>
    <v>       0.77766911       0.22223399       0.33737491 </v>
    <v>       0.61132700       0.88917836       0.33758640 </v>
    <v>       0.77829799       0.72265481       0.33739054 </v>
   </varray>
  </structure>
  <varray name="forces" >
   <v>       0.01318906      -0.00281428      -0.21756004 </v>
   <v>      -0.04026500      -0.01831324      -0.04658167 </v>
   <v>       0.06837157      -0.02479297      -0.06234203 </v>
   <v>      -0.00621005       0.05680743      -0.05842222 </v>
   <v>      -0.01288723       0.04410938       0.12117131 </v>
   <v>      -0.03174428      -0.03188291       0.11249728 </v>
   <v>       0.03186796      -0.02225521       0.12051873 </v>
   <v>      -0.12163463       0.01865127       0.00203762 </v>
   <v>       0.07806919       0.09789641      -0.03953933 </v>
   <v>       0.06330187       0.17044389      -0.00031363 </v>
   <v>       0.18900553       0.08939317       0.05262244 </v>
   <v>       0.01278843      -0.03340249       0.05589653 </v>
   <v>      -0.04308963       0.02241346      -0.00323120 </v>
   <v>      -0.06551450      -0.13132984      -0.03451561 </v>
   <v>      -0.13524829      -0.23492407      -0.00223817 </v>
  </varray>
  <varray name="stress" >
   <v>     -26.72467720       0.06948674      -0.40196813 </v>
   <v>       0.06948674     -27.05405474      -0.02171634 </v>
   <v>      -0.40196811      -0.02171635      -1.78724922 </v>
  </varray>
  <energy>
   <i name="e_fr_energy">   -127.08674355 </i>
   <i name="e_wo_entrp">   -127.08517658 </i>
   <i name="e_0_energy">   -127.08596006 </i>
  </energy>
  <time name="totalsc">   53.04   53.42</time>
 </calculation>
 <calculation>
  <scstep>
   <time name="dav">    5.49    5.52</time>
   <time name="total">    5.77    5.82</time>
   <energy>
    <i name="alphaZ">     57.75751028 </i>
    <i name="ewald">   4626.67490006 </i>
    <i name="hartreedc">  -6381.72135907 </i>
    <i name="XCdc">    180.03352709 </i>
    <i name="pawpsdc">   5644.44702923 </i>
    <i name="pawaedc">  -5648.81948564 </i>
    <i name="eentropy">     -0.00155373 </i>
    <i name="bandstr">   -507.14369709 </i>
    <i name="atom">   1903.26342058 </i>
    <i name="e_fr_energy">   -125.50970829 </i>
    <i name="e_wo_entrp">   -125.50815457 </i>
    <i name="e_0_energy">   -125.50893143 </i>
   </energy>
  </scstep>
  <scstep>
   <time name="dav">   11.80   11.88</time>
   <time name="total">   12.09   12.18</time>
   <energy>
    <i name="e_fr_energy">   -125.50971987 </i>
    <i name="e_wo_entrp">   -125.50816513 </i>
    <i name="e_0_energy">   -125.50894250 </i>
   </energy>
  </scstep>
  <scstep>
   <time name="dav">    8.59    8.64</time>
   <time name="total">    8.87    8.94</time>
   <energy>
    <i name="e_fr_energy">   -125.50961401 </i>
    <i name="e_wo_entrp">   -125.50805821 </i>
    <i name="e_0_energy">   -125.50883611 </i>
   </energy>
  </scstep>
  <scstep>
   <time name="dav">   11.00   11.07</time>
   <time name="total">   11.28   11.37</time>
   <energy>
    <i name="e_fr_energy">   -125.50961680 </i>
    <i name="e_wo_entrp">   -125.50806084 </i>
    <i name="e_0_energy">   -125.50883882 </i>
   </energy>
  </scstep>
  <scstep>
   <time name="dav">    8.34    8.39</time>
   <time name="total">    8.63    8.69</time>
   <energy>
    <i name="e_fr_energy">   -125.50961890 </i>
    <i name="e_wo_entrp">   -125.50806292 </i>
    <i name="e_0_energy">   -125.50884091 </i>
   </energy>
  </scstep>
  <scstep>
   <time name="dav">   10.81   10.87</time>
   <time name="total">   10.84   10.90</time>
   <energy>
    <i name="alphaZ">     57.75751028 </i>
    <i name="ewald">   4626.67490006 </i>
    <i name="hartreedc">  -6381.78221144 </i>
    <i name="XCdc">    180.03212736 </i>
    <i name="pawpsdc">   5648.71918371 </i>
    <i name="pawaedc">  -5653.09325694 </i>
    <i name="eentropy">     -0.00155592 </i>
    <i name="bandstr">   -507.07973607 </i>
    <i name="atom">   1903.26342058 </i>
    <i name="e_fr_energy">   -125.50961838 </i>
    <i name="e_wo_entrp">   -125.50806246 </i>
    <i name="e_0_energy">   -125.50884042 </i>
   </energy>
  </scstep>
  <structure>
   <crystal>
    <varray name="basis" >
     <v>       4.21667769       2.43450000       0.00000000 </v>
     <v>      -4.21667769       2.43450000       0.00000000 </v>
     <v>       0.00000000       0.00000000      15.00000000 </v>
    </varray>
    <i name="volume">    307.96505516 </i>
    <varray name="rec_basis" >
     <v>       0.11857677       0.20538098       0.00000000 </v>
     <v>      -0.11857677       0.20538098       0.00000000 </v>
     <v>       0.00000000       0.00000000       0.06666667 </v>
    </varray>
   </crystal>
   <varray name="positions" >
    <v>       0.00421781       0.00283657       0.11231851 </v>
    <v>       0.35894044       0.00249539       0.09954378 </v>
    <v>       0.00426249       0.35748668       0.09985244 </v>
    <v>       0.64980626       0.64768846       0.09975358 </v>
    <v>       0.32749450       0.32541286       0.10032827 </v>
    <v>       0.68145490       0.00270587       0.10054279 </v>
    <v>       0.00442298       0.67968935       0.10034066 </v>
    <v>       0.11084151       0.38922092       0.33737622 </v>
    <v>       0.27785373       0.22231993       0.33767356 </v>
    <v>       0.11137301       0.88939593       0.33745317 </v>
    <v>       0.27796868       0.72233213       0.33707951 </v>
    <v>       0.61088487       0.38899872       0.33707578 </v>
    <v>       0.77767193       0.22245779       0.33739672 </v>
    <v>       0.61062658       0.88880680       0.33762727 </v>
    <v>       0.77702987       0.72203104       0.33741708 </v>
   </varray>
  </structure>
  <varray name="forces" >
   <v>       0.01738679      -0.00355996      -0.19019367 </v>
   <v>      -0.07256232      -0.03560981      -0.05505068 </v>
   <v>       0.08993953      -0.03827483      -0.07661471 </v>
   <v>      -0.00971437       0.08656099      -0.07113372 </v>
   <v>      -0.01342217      -0.01406444       0.12694431 </v>
   <v>       0.02304084       0.00064967       0.11415307 </v>
   <v>      -0.01376112       0.00491625       0.12493774 </v>
   <v>       0.11603304      -0.01731213       0.00159136 </v>
   <v>      -0.11967668      -0.02585042      -0.04418988 </v>
   <v>      -0.01393238      -0.16735988      -0.00351003 </v>
   <v>      -0.14494370      -0.05736948       0.05780404 </v>
   <v>       0.02789696       0.00768131       0.06021092 </v>
   <v>       0.00657610      -0.03906712      -0.00356352 </v>
   <v>       0.03320587       0.11303783      -0.03880636 </v>
   <v>       0.07393361       0.18562203      -0.00257886 </v>
  </varray>
  <varray name="stress" >
   <v>     -26.72168407      -0.05141006      -0.36607138 </v>
   <v>      -0.05141006     -26.42892489      -0.01307985 </v>
   <v>      -0.36607140      -0.01307983      -1.79251237 </v>
  </varray>
  <energy>
   <i name="e_fr_energy">   -127.09133950 </i>
   <i name="e_wo_entrp">   -127.08978358 </i>
   <i name="e_0_energy">   -127.09056154 </i>
  </energy>
  <time name="totalsc">   62.21   62.67</time>
 </calculation>
 <calculation>
  <scstep>
   <time name="dav">    5.52    5.56</time>
   <time name="total">    5.81    5.86</time>
   <energy>
    <i name="alphaZ">     57.75751028 </i>
    <i name="ewald">   4626.85208269 </i>
    <i name="hartreedc">  -6381.85737144 </i>
    <i name="XCdc">    180.03879553 </i>
    <i name="pawpsdc">   5648.77890179 </i>
    <i name="pawaedc">  -5653.15297310 </i>
    <i name="eentropy">     -0.00156168 </i>
    <i name="bandstr">   -507.19073000 </i>
    <i name="atom">   1903.26342058 </i>
    <i name="e_fr_energy">   -125.51192536 </i>
    <i name="e_wo_entrp">   -125.51036367 </i>
    <i name="e_0_energy">   -125.51114451 </i>
   </energy>
  </scstep>
  <scstep>
   <time name="dav">   10.05   10.11</time>
   <time name="total">   10.34   10.41</time>
   <energy>
    <i name="e_fr_energy">   -125.51194379 </i>
    <i name="e_wo_entrp">   -125.51038229 </i>
    <i name="e_0_energy">   -125.51116304 </i>
   </energy>
  </scstep>
  <scstep>
   <time name="dav">    8.70    8.76</time>
   <time name="total">    8.99    9.06</time>
   <energy>
    <i name="e_fr_energy">   -125.51194051 </i>
    <i name="e_wo_entrp">   -125.51037926 </i>
    <i name="e_0_energy">   -125.51115989 </i>
   </energy>
  </scstep>
  <scstep>
   <time name="dav">   10.52   10.59</time>
   <time name="total">   10.55   10.62</time>
   <energy>
    <i name="alphaZ">     57.75751028 </i>
    <i name="ewald">   4626.85208269 </i>
    <i name="hartreedc">  -6381.94027079 </i>
    <i name="XCdc">    180.03834105 </i>
    <i name="pawpsdc">   5650.81622979 </i>
    <i name="pawaedc">  -5655.19106342 </i>
    <i name="eentropy">     -0.00156125 </i>
    <i name="bandstr">   -507.10662943 </i>
    <i name="atom">   1903.26342058 </i>
    <i name="e_fr_energy">   -125.51194052 </i>
    <i name="e_wo_entrp">   -125.51037927 </i>
    <i name="e_0_energy">   -125.51115990 </i>
   </energy>
  </scstep>
  <structure>
   <crystal>
    <varray name="basis" >
     <v>       4.21667769       2.43450000       0.00000000 </v>
     <v>      -4.21667769       2.43450000       0.00000000 </v>
     <v>       0.00000000       0.00000000      15.00000000 </v>
    </varray>
    <i name="volume">    307.96505516 </i>
    <varray name="rec_basis" >
     <v>       0.11857677       0.20538098       0.00000000 </v>
     <v>      -0.11857677       0.20538098       0.00000000 </v>
     <v>       0.00000000       0.00000000       0.06666667 </v>
    </varray>
   </crystal>
   <varray name="positions" >
    <v>       0.00423600       0.00281684       0.11165886 </v>
    <v>       0.35896991       0.00248712       0.09962983 </v>
    <v>       0.00430052       0.35746575       0.09994210 </v>
    <v>       0.64982303       0.64768060       0.09984193 </v>
    <v>       0.32759325       0.32550606       0.10042933 </v>
    <v>       0.68136142       0.00266815       0.10065009 </v>
    <v>       0.00443013       0.67959062       0.10044379 </v>
    <v>       0.11084380       0.38921035       0.33738462 </v>
    <v>       0.27786449       0.22243845       0.33766432 </v>
    <v>       0.11134765       0.88933568       0.33746318 </v>
    <v>       0.27797462       0.72235660       0.33711344 </v>
    <v>       0.61087862       0.38895418       0.33711185 </v>
    <v>       0.77761297       0.22245952       0.33740201 </v>
    <v>       0.61061786       0.88884247       0.33761949 </v>
    <v>       0.77699528       0.72206606       0.33742450 </v>
   </varray>
  </structure>
  <varray name="forces" >
   <v>       0.01711315      -0.00317583      -0.16994578 </v>
   <v>      -0.06148386      -0.02951215      -0.04389813 </v>
   <v>       0.07297687      -0.03084518      -0.06610422 </v>
   <v>      -0.00998392       0.07080531      -0.06027895 </v>
   <v>      -0.01114360      -0.01889008       0.10978396 </v>
   <v>       0.02716768       0.00572953       0.09615569 </v>
   <v>      -0.01422710       0.00644736       0.10771445 </v>
   <v>       0.09617794      -0.01604484       0.00147298 </v>
   <v>      -0.08478707      -0.05740181      -0.03917558 </v>
   <v>      -0.04079018      -0.14577647      -0.00351960 </v>
   <v>      -0.14320176      -0.06585334       0.05265536 </v>
   <v>      -0.00009854       0.02055985       0.05395675 </v>
   <v>       0.02320391      -0.02719122      -0.00222738 </v>
   <v>       0.03670843       0.10836569      -0.03482478 </v>
   <v>       0.09236804       0.18278320      -0.00176477 </v>
  </varray>
  <varray name="stress" >
   <v>     -26.49394350      -0.01676135      -0.35619825 </v>
   <v>      -0.01676136     -26.37312621      -0.01313896 </v>
   <v>      -0.35619828      -0.01313894      -1.77137719 </v>
  </varray>
  <energy>
   <i name="e_fr_energy">   -127.09350742 </i>
   <i name="e_wo_entrp">   -127.09194617 </i>
   <i name="e_0_energy">   -127.09272680 </i>
  </energy>
  <time name="totalsc">   40.41   40.72</time>
 </calculation>
 <calculation>
  <scstep>
   <time name="dav">    5.48    5.52</time>
   <time name="total">    5.77    5.82</time>
   <energy>
    <i name="alphaZ">     57.75751028 </i>
    <i name="ewald">   4627.21469071 </i>
    <i name="hartreedc">  -6382.04384047 </i>
    <i name="XCdc">    180.05565550 </i>
    <i name="pawpsdc">   5650.89926757 </i>
    <i name="pawaedc">  -5655.27409791 </i>
    <i name="eentropy">     -0.00156633 </i>
    <i name="bandstr">   -507.38802083 </i>
    <i name="atom">   1903.26342058 </i>
    <i name="e_fr_energy">   -125.51698090 </i>
    <i name="e_wo_entrp">   -125.51541456 </i>
    <i name="e_0_energy">   -125.51619773 </i>
   </energy>
  </scstep>
  <scstep>
   <time name="dav">   11.73   11.80</time>
   <time name="total">   12.02   12.10</time>
   <energy>
    <i name="e_fr_energy">   -125.51716879 </i>
    <i name="e_wo_entrp">   -125.51560230 </i>
    <i name="e_0_energy">   -125.51638555 </i>
   </energy>
  </scstep>
  <scstep>
   <time name="dav">    8.54    8.60</time>
   <time name="total">    8.83    8.90</time>
   <energy>
    <i name="e_fr_energy">   -125.51713794 </i>
    <i name="e_wo_entrp">   -125.51557128 </i>
    <i name="e_0_energy">   -125.51635461 </i>
   </energy>
  </scstep>
  <scstep>
   <time name="dav">   10.28   10.37</time>
   <time name="total">   10.57   10.67</time>
   <energy>
    <i name="e_fr_energy">   -125.51713690 </i>
    <i name="e_wo_entrp">   -125.51557025 </i>
    <i name="e_0_energy">   -125.51635358 </i>
   </energy>
  </scstep>
  <scstep>
   <time name="dav">    9.09    9.17</time>
   <time name="total">    9.37    9.47</time>
   <energy>
    <i name="e_fr_energy">   -125.51713478 </i>
    <i name="e_wo_entrp">   -125.51556813 </i>
    <i name="e_0_energy">   -125.51635145 </i>
   </energy>
  </scstep>
  <scstep>
   <time name="dav">   10.37   10.46</time>
   <time name="total">   10.40   10.49</time>
   <energy>
    <i name="alphaZ">     57.75751028 </i>
    <i name="ewald">   4627.21469071 </i>
    <i name="hartreedc">  -6382.34406693 </i>
    <i name="XCdc">    180.05422898 </i>
    <i name="pawpsdc">   5656.51562121 </i>
    <i name="pawaedc">  -5660.89241288 </i>
    <i name="eentropy">     -0.00156665 </i>
    <i name="bandstr">   -507.08455947 </i>
    <i name="atom">   1903.26342058 </i>
    <i name="e_fr_energy">   -125.51713416 </i>
    <i name="e_wo_entrp">   -125.51556752 </i>
    <i name="e_0_energy">   -125.51635084 </i>
   </energy>
  </scstep>
  <structure>
   <crystal>
    <varray name="basis" >
     <v>       4.21667769       2.43450000       0.00000000 </v>
     <v>      -4.21667769       2.43450000       0.00000000 </v>
     <v>       0.00000000       0.00000000      15.00000000 </v>
    </varray>
    <i name="volume">    307.96505516 </i>
    <varray name="rec_basis" >
     <v>       0.11857677       0.20538098       0.00000000 </v>
     <v>      -0.11857677       0.20538098       0.00000000 </v>
     <v>       0.00000000       0.00000000       0.06666667 </v>
    </varray>
   </crystal>
   <varray name="positions" >
    <v>       0.00429059       0.00275764       0.10967991 </v>
    <v>       0.35905830       0.00246231       0.09988799 </v>
    <v>       0.00441462       0.35740294       0.10021110 </v>
    <v>       0.64987336       0.64765702       0.10010697 </v>
    <v>       0.32788951       0.32578565       0.10073249 </v>
    <v>       0.68108098       0.00255498       0.10097200 </v>
    <v>       0.00445157       0.67929444       0.10075319 </v>
    <v>       0.11085066       0.38917864       0.33740982 </v>
    <v>       0.27789676       0.22279401       0.33763658 </v>
    <v>       0.11127158       0.88915491       0.33749320 </v>
    <v>       0.27799243       0.72243003       0.33721521 </v>
    <v>       0.61085988       0.38882054       0.33722006 </v>
    <v>       0.77743609       0.22246473       0.33741790 </v>
    <v>       0.61059168       0.88894949       0.33759615 </v>
    <v>       0.77689154       0.72217111       0.33744675 </v>
   </varray>
  </structure>
  <varray name="forces" >
   <v>       0.01640623      -0.00195816      -0.11596315 </v>
   <v>      -0.03396142      -0.01464026      -0.00936333 </v>
   <v>       0.02796817      -0.01165109      -0.03338346 </v>
   <v>      -0.01088805       0.03039305      -0.02660133 </v>
   <v>      -0.00466907      -0.03957653       0.05994977 </v>
   <v>       0.04513507       0.02376765       0.04392883 </v>
   <v>      -0.02100657       0.01420212       0.05775892 </v>
   <v>       0.03754367      -0.01191344       0.00084546 </v>
   <v>       0.01856656      -0.15053235      -0.02443527 </v>
   <v>      -0.12028334      -0.08317385      -0.00367932 </v>
   <v>      -0.13863897      -0.09123984       0.03710759 </v>
   <v>      -0.08361299       0.05858745       0.03502657 </v>
[...]
       <r>     2.6986     0.7910    30.9143 </r>
       <r>     2.8048     0.5533    30.9730 </r>
       <r>     2.9109     1.0097    31.0802 </r>
       <r>     3.0170     1.4836    31.2377 </r>
       <r>     3.1232     1.3510    31.3811 </r>
       <r>     3.2293     1.2490    31.5136 </r>
       <r>     3.3355     1.3458    31.6565 </r>
       <r>     3.4416     1.5928    31.8255 </r>
       <r>     3.5477     2.6513    32.1070 </r>
       <r>     3.6539     3.4263    32.4706 </r>
       <r>     3.7600     3.0501    32.7944 </r>
       <r>     3.8662     2.9122    33.1035 </r>
       <r>     3.9723     3.0802    33.4304 </r>
       <r>     4.0784     3.4548    33.7971 </r>
       <r>     4.1846     2.9011    34.1050 </r>
       <r>     4.2907     2.8815    34.4108 </r>
       <r>     4.3969     2.8240    34.7106 </r>
       <r>     4.5030     2.6548    34.9924 </r>
       <r>     4.6091     2.6500    35.2736 </r>
       <r>     4.7153     3.5861    35.6542 </r>
       <r>     4.8214     3.1570    35.9893 </r>
       <r>     4.9276     2.5178    36.2566 </r>
       <r>     5.0337     3.1389    36.5897 </r>
       <r>     5.1398     3.7537    36.9881 </r>
       <r>     5.2460     3.1424    37.3217 </r>
       <r>     5.3521     2.5463    37.5919 </r>
       <r>     5.4583     2.9305    37.9030 </r>
       <r>     5.5644     3.2034    38.2430 </r>
       <r>     5.6705     2.4632    38.5044 </r>
       <r>     5.7767     3.1887    38.8429 </r>
       <r>     5.8828     2.8583    39.1463 </r>
       <r>     5.9890     2.5322    39.4150 </r>
       <r>     6.0951     2.0109    39.6285 </r>
       <r>     6.2012     2.4648    39.8901 </r>
       <r>     6.3074     2.7988    40.1871 </r>
       <r>     6.4135     3.0508    40.5109 </r>
       <r>     6.5197     3.6362    40.8969 </r>
       <r>     6.6258     3.6341    41.2826 </r>
       <r>     6.7319     3.7761    41.6834 </r>
       <r>     6.8381     2.9995    42.0018 </r>
       <r>     6.9442     3.3398    42.3563 </r>
       <r>     7.0504     3.4491    42.7223 </r>
       <r>     7.1565     2.8909    43.0292 </r>
       <r>     7.2626     2.6060    43.3058 </r>
       <r>     7.3688     2.3381    43.5539 </r>
       <r>     7.4749     3.3572    43.9103 </r>
       <r>     7.5811     3.4565    44.2772 </r>
       <r>     7.6872     4.2729    44.7307 </r>
       <r>     7.7933     3.8202    45.1362 </r>
       <r>     7.8995     3.0390    45.4587 </r>
       <r>     8.0056     4.1549    45.8997 </r>
       <r>     8.1118     5.0897    46.4399 </r>
       <r>     8.2179     4.8448    46.9542 </r>
       <r>     8.3240     4.2810    47.4085 </r>
       <r>     8.4302     2.8886    47.7151 </r>
       <r>     8.5363     1.3910    47.8628 </r>
       <r>     8.6425     0.5841    47.9248 </r>
       <r>     8.7486     0.3730    47.9644 </r>
       <r>     8.8547     0.2677    47.9928 </r>
       <r>     8.9609     0.0652    47.9997 </r>
       <r>     9.0670     0.0027    48.0000 </r>
       <r>     9.1732     0.0000    48.0000 </r>
       <r>     9.2793     0.0000    48.0000 </r>
       <r>     9.3854     0.0000    48.0000 </r>
       <r>     9.4916     0.0000    48.0000 </r>
       <r>     9.5977     0.0000    48.0000 </r>
       <r>     9.7038     0.0000    48.0000 </r>
       <r>     9.8100     0.0000    48.0000 </r>
       <r>     9.9161     0.0000    48.0000 </r>
       <r>    10.0223     0.0000    48.0000 </r>
       <r>    10.1284     0.0000    48.0000 </r>
       <r>    10.2345     0.0000    48.0000 </r>
      </set>
      <set comment="spin 2">
       <r>   -21.6074     0.0000     0.0000 </r>
       <r>   -21.5012     0.0000     0.0000 </r>
       <r>   -21.3951     0.0000     0.0000 </r>
       <r>   -21.2889     0.0000     0.0000 </r>
       <r>   -21.1828     0.0000     0.0000 </r>
       <r>   -21.0767     0.0000     0.0000 </r>
       <r>   -20.9705     0.0000     0.0000 </r>
       <r>   -20.8644     0.0000     0.0000 </r>
       <r>   -20.7582     0.0000     0.0000 </r>
       <r>   -20.6521     0.0000     0.0000 </r>
       <r>   -20.5460     0.0000     0.0000 </r>
       <r>   -20.4398     0.0000     0.0000 </r>
       <r>   -20.3337     0.0009     0.0001 </r>
       <r>   -20.2275     0.0354     0.0039 </r>
       <r>   -20.1214     0.2547     0.0309 </r>
       <r>   -20.0153     0.5344     0.0876 </r>
       <r>   -19.9091     0.5835     0.1495 </r>
       <r>   -19.8030     0.6352     0.2170 </r>
       <r>   -19.6968     0.5377     0.2740 </r>
       <r>   -19.5907     0.6932     0.3476 </r>
       <r>   -19.4846     0.5418     0.4051 </r>
       <r>   -19.3784     0.5538     0.4639 </r>
       <r>   -19.2723     0.7718     0.5458 </r>
       <r>   -19.1661     0.4874     0.5975 </r>
       <r>   -19.0600     0.5086     0.6515 </r>
       <r>   -18.9539     0.7885     0.7352 </r>
       <r>   -18.8477     0.6649     0.8058 </r>
       <r>   -18.7416     0.3782     0.8459 </r>
       <r>   -18.6354     0.5810     0.9076 </r>
       <r>   -18.5293     0.8849     1.0015 </r>
       <r>   -18.4232     0.5808     1.0632 </r>
       <r>   -18.3170     0.4850     1.1147 </r>
       <r>   -18.2109     0.3946     1.1565 </r>
       <r>   -18.1047     0.8697     1.2488 </r>
       <r>   -17.9986     0.8353     1.3375 </r>
       <r>   -17.8925     0.4433     1.3846 </r>
       <r>   -17.7863     0.4336     1.4306 </r>
       <r>   -17.6802     0.5350     1.4874 </r>
       <r>   -17.5741     0.8199     1.5744 </r>
       <r>   -17.4679     0.8683     1.6665 </r>
       <r>   -17.3618     0.8060     1.7521 </r>
       <r>   -17.2556     0.9817     1.8563 </r>
       <r>   -17.1495     1.4058     2.0055 </r>
       <r>   -17.0434     1.9373     2.2111 </r>
       <r>   -16.9372     2.0852     2.4325 </r>
       <r>   -16.8311     2.4105     2.6883 </r>
       <r>   -16.7249     2.7213     2.9771 </r>
       <r>   -16.6188     1.5980     3.1467 </r>
       <r>   -16.5127     0.4559     3.1951 </r>
       <r>   -16.4065     0.9861     3.2998 </r>
       <r>   -16.3004     0.9977     3.4057 </r>
       <r>   -16.1942     0.5802     3.4673 </r>
       <r>   -16.0881     0.5271     3.5232 </r>
       <r>   -15.9820     0.5094     3.5773 </r>
       <r>   -15.8758     0.4692     3.6271 </r>
       <r>   -15.7697     0.5229     3.6826 </r>
       <r>   -15.6635     1.0974     3.7991 </r>
       <r>   -15.5574     0.9697     3.9020 </r>
       <r>   -15.4513     0.4919     3.9542 </r>
       <r>   -15.3451     0.4959     4.0068 </r>
       <r>   -15.2390     0.4545     4.0551 </r>
       <r>   -15.1328     0.6182     4.1207 </r>
       <r>   -15.0267     0.8807     4.2142 </r>
       <r>   -14.9206     1.6744     4.3919 </r>
       <r>   -14.8144     2.3476     4.6411 </r>
       <r>   -14.7083     2.4228     4.8982 </r>
       <r>   -14.6021     2.0497     5.1158 </r>
       <r>   -14.4960     1.1766     5.2407 </r>
       <r>   -14.3899     1.1559     5.3633 </r>
       <r>   -14.2837     2.0610     5.5821 </r>
       <r>   -14.1776     1.8508     5.7785 </r>
       <r>   -14.0714     1.4643     5.9340 </r>
       <r>   -13.9653     1.3617     6.0785 </r>
       <r>   -13.8592     1.8878     6.2789 </r>
       <r>   -13.7530     2.5554     6.5501 </r>
       <r>   -13.6469     2.3804     6.8027 </r>
       <r>   -13.5407     2.1411     7.0300 </r>
       <r>   -13.4346     1.0905     7.1457 </r>
       <r>   -13.3285     0.7518     7.2255 </r>
       <r>   -13.2223     0.4428     7.2725 </r>
       <r>   -13.1162     0.5494     7.3309 </r>
       <r>   -13.0100     0.9175     7.4282 </r>
       <r>   -12.9039     0.8552     7.5190 </r>
       <r>   -12.7978     0.6314     7.5860 </r>
       <r>   -12.6916     0.9413     7.6859 </r>
       <r>   -12.5855     0.8868     7.7801 </r>
       <r>   -12.4793     0.7014     7.8545 </r>
       <r>   -12.3732     0.6864     7.9273 </r>
       <r>   -12.2671     0.4094     7.9708 </r>
       <r>   -12.1609     0.8971     8.0660 </r>
       <r>   -12.0548     1.0023     8.1724 </r>
       <r>   -11.9486     0.3780     8.2125 </r>
       <r>   -11.8425     0.4398     8.2592 </r>
       <r>   -11.7364     0.4554     8.3076 </r>
       <r>   -11.6302     0.8502     8.3978 </r>
       <r>   -11.5241     0.8075     8.4835 </r>
       <r>   -11.4179     0.4298     8.5291 </r>
       <r>   -11.3118     0.2737     8.5582 </r>
       <r>   -11.2057     0.6108     8.6230 </r>
       <r>   -11.0995     0.7420     8.7018 </r>
       <r>   -10.9934     0.6404     8.7697 </r>
       <r>   -10.8873     0.9369     8.8692 </r>
       <r>   -10.7811     0.7927     8.9533 </r>
       <r>   -10.6750     0.3798     8.9936 </r>
       <r>   -10.5688     1.1177     9.1122 </r>
       <r>   -10.4627     1.8368     9.3072 </r>
       <r>   -10.3566     1.9550     9.5147 </r>
       <r>   -10.2504     1.7629     9.7018 </r>
       <r>   -10.1443     1.9896     9.9130 </r>
       <r>   -10.0381     2.4103    10.1688 </r>
       <r>    -9.9320     2.1914    10.4014 </r>
       <r>    -9.8259     1.2087    10.5297 </r>
       <r>    -9.7197     1.1259    10.6492 </r>
       <r>    -9.6136     1.8517    10.8458 </r>
       <r>    -9.5074     1.7601    11.0326 </r>
       <r>    -9.4013     2.1573    11.2615 </r>
       <r>    -9.2952     2.1579    11.4906 </r>
       <r>    -9.1890     1.7135    11.6724 </r>
       <r>    -9.0829     1.2192    11.8019 </r>
       <r>    -8.9767     1.1282    11.9216 </r>
       <r>    -8.8706     2.2030    12.1554 </r>
       <r>    -8.7645     2.4705    12.4177 </r>
       <r>    -8.6583     1.6702    12.5949 </r>
       <r>    -8.5522     1.0222    12.7034 </r>
       <r>    -8.4460     1.7154    12.8855 </r>
       <r>    -8.3399     2.5478    13.1559 </r>
       <r>    -8.2338     1.9678    13.3648 </r>
       <r>    -8.1276     1.6740    13.5425 </r>
       <r>    -8.0215     2.3302    13.7898 </r>
       <r>    -7.9153     3.1595    14.1251 </r>
       <r>    -7.8092     3.2664    14.4718 </r>
       <r>    -7.7031     2.1237    14.6972 </r>
       <r>    -7.5969     1.2807    14.8332 </r>
       <r>    -7.4908     1.1195    14.9520 </r>
       <r>    -7.3846     2.3000    15.1961 </r>
       <r>    -7.2785     2.3424    15.4447 </r>
       <r>    -7.1724     1.6425    15.6191 </r>
       <r>    -7.0662     1.3157    15.7587 </r>
       <r>    -6.9601     2.0464    15.9759 </r>
       <r>    -6.8539     2.4546    16.2365 </r>
       <r>    -6.7478     2.7121    16.5243 </r>
       <r>    -6.6417     2.6878    16.8096 </r>
       <r>    -6.5355     2.1646    17.0394 </r>
       <r>    -6.4294     2.6715    17.3229 </r>
       <r>    -6.3232     2.3574    17.5731 </r>
       <r>    -6.2171     2.5836    17.8473 </r>
       <r>    -6.1110     3.4504    18.2136 </r>
       <r>    -6.0048     2.9049    18.5219 </r>
       <r>    -5.8987     3.9474    18.9409 </r>
       <r>    -5.7925     3.7057    19.3342 </r>
       <r>    -5.6864     2.2704    19.5752 </r>
       <r>    -5.5803     2.4599    19.8363 </r>
       <r>    -5.4741     4.3614    20.2992 </r>
       <r>    -5.3680     4.6854    20.7965 </r>
       <r>    -5.2618     2.5816    21.0705 </r>
       <r>    -5.1557     1.9008    21.2722 </r>
       <r>    -5.0496     1.4051    21.4214 </r>
       <r>    -4.9434     1.6479    21.5963 </r>
       <r>    -4.8373     1.7344    21.7804 </r>
       <r>    -4.7311     1.1860    21.9063 </r>
       <r>    -4.6250     0.9056    22.0024 </r>
       <r>    -4.5189     1.3207    22.1426 </r>
       <r>    -4.4127     2.5412    22.4123 </r>
       <r>    -4.3066     2.9211    22.7223 </r>
       <r>    -4.2005     2.6153    22.9999 </r>
       <r>    -4.0943     2.1879    23.2321 </r>
       <r>    -3.9882     2.6445    23.5128 </r>
       <r>    -3.8820     2.9142    23.8221 </r>
       <r>    -3.7759     2.3509    24.0717 </r>
       <r>    -3.6698     2.4956    24.3365 </r>
       <r>    -3.5636     2.6136    24.6139 </r>
       <r>    -3.4575     2.0250    24.8289 </r>
       <r>    -3.3513     1.6579    25.0048 </r>
       <r>    -3.2452     1.5574    25.1701 </r>
       <r>    -3.1391     2.2448    25.4084 </r>
       <r>    -3.0329     2.3247    25.6551 </r>
       <r>    -2.9268     1.5152    25.8160 </r>
       <r>    -2.8206     1.5475    25.9802 </r>
       <r>    -2.7145     1.0208    26.0886 </r>
       <r>    -2.6084     1.2554    26.2218 </r>
       <r>    -2.5022     2.3735    26.4737 </r>
       <r>    -2.3961     2.0395    26.6902 </r>
       <r>    -2.2899     0.5795    26.7517 </r>
       <r>    -2.1838     0.6706    26.8229 </r>
       <r>    -2.0777     1.3044    26.9613 </r>
       <r>    -1.9715     1.2595    27.0950 </r>
       <r>    -1.8654     1.4376    27.2476 </r>
       <r>    -1.7592     1.4443    27.4009 </r>
       <r>    -1.6531     1.2822    27.5370 </r>
       <r>    -1.5470     0.9618    27.6391 </r>
       <r>    -1.4408     0.5124    27.6935 </r>
       <r>    -1.3347     0.5429    27.7511 </r>
       <r>    -1.2285     0.5238    27.8067 </r>
       <r>    -1.1224     0.4718    27.8568 </r>
       <r>    -1.0163     0.7305    27.9343 </r>
       <r>    -0.9101     0.4009    27.9769 </r>
       <r>    -0.8040     0.0787    27.9852 </r>
       <r>    -0.6978     0.0081    27.9861 </r>
       <r>    -0.5917     0.0003    27.9861 </r>
       <r>    -0.4856     0.0079    27.9870 </r>
       <r>    -0.3794     0.0848    27.9960 </r>
       <r>    -0.2733     0.1349    28.0103 </r>
       <r>    -0.1671     0.0329    28.0138 </r>
       <r>    -0.0610     0.0011    28.0139 </r>
       <r>     0.0451     0.0000    28.0139 </r>
       <r>     0.1513     0.0054    28.0145 </r>
       <r>     0.2574     0.1270    28.0279 </r>
       <r>     0.3636     0.4215    28.0727 </r>
       <r>     0.4697     0.2261    28.0967 </r>
       <r>     0.5758     0.1702    28.1147 </r>
       <r>     0.6820     0.5242    28.1704 </r>
       <r>     0.7881     0.8367    28.2592 </r>
       <r>     0.8943     1.7004    28.4397 </r>
       <r>     1.0004     3.3157    28.7916 </r>
       <r>     1.1065     2.0080    29.0047 </r>
       <r>     1.2127     0.4512    29.0526 </r>
       <r>     1.3188     0.3868    29.0937 </r>
       <r>     1.4250     1.0643    29.2066 </r>
       <r>     1.5311     2.0865    29.4281 </r>
       <r>     1.6372     2.5810    29.7020 </r>
       <r>     1.7434     1.6588    29.8781 </r>
       <r>     1.8495     0.8787    29.9714 </r>
       <r>     1.9557     1.0931    30.0874 </r>
       <r>     2.0618     1.2230    30.2172 </r>
       <r>     2.1679     0.9133    30.3141 </r>
       <r>     2.2741     1.1724    30.4386 </r>
       <r>     2.3802     0.7516    30.5184 </r>
       <r>     2.4864     1.3933    30.6662 </r>
       <r>     2.5925     1.5462    30.8304 </r>
       <r>     2.6986     0.7910    30.9143 </r>
       <r>     2.8048     0.5530    30.9730 </r>
       <r>     2.9109     1.0089    31.0801 </r>
       <r>     3.0170     1.4831    31.2375 </r>
       <r>     3.1232     1.3511    31.3809 </r>
       <r>     3.2293     1.2487    31.5135 </r>
       <r>     3.3355     1.3460    31.6563 </r>
       <r>     3.4416     1.5931    31.8254 </r>
       <r>     3.5477     2.6503    32.1067 </r>
       <r>     3.6539     3.4265    32.4704 </r>
       <r>     3.7600     3.0501    32.7941 </r>
       <r>     3.8662     2.9125    33.1033 </r>
       <r>     3.9723     3.0799    33.4302 </r>
       <r>     4.0784     3.4549    33.7969 </r>
       <r>     4.1846     2.9010    34.1048 </r>
       <r>     4.2907     2.8808    34.4106 </r>
       <r>     4.3969     2.8237    34.7103 </r>
       <r>     4.5030     2.6552    34.9921 </r>
       <r>     4.6091     2.6485    35.2732 </r>
       <r>     4.7153     3.5837    35.6536 </r>
       <r>     4.8214     3.1567    35.9886 </r>
       <r>     4.9276     2.5183    36.2559 </r>
       <r>     5.0337     3.1353    36.5887 </r>
       <r>     5.1398     3.7549    36.9872 </r>
       <r>     5.2460     3.1452    37.3211 </r>
       <r>     5.3521     2.5461    37.5913 </r>
       <r>     5.4583     2.9294    37.9022 </r>
       <r>     5.5644     3.2067    38.2426 </r>
       <r>     5.6705     2.4591    38.5036 </r>
       <r>     5.7767     3.1877    38.8419 </r>
       <r>     5.8828     2.8616    39.1457 </r>
       <r>     5.9890     2.5330    39.4145 </r>
       <r>     6.0951     2.0106    39.6279 </r>
       <r>     6.2012     2.4612    39.8892 </r>
       <r>     6.3074     2.7981    40.1861 </r>
       <r>     6.4135     3.0495    40.5098 </r>
       <r>     6.5197     3.6394    40.8961 </r>
       <r>     6.6258     3.6340    41.2818 </r>
       <r>     6.7319     3.7754    41.6825 </r>
       <r>     6.8381     2.9999    42.0009 </r>
       <r>     6.9442     3.3380    42.3552 </r>
       <r>     7.0504     3.4509    42.7215 </r>
       <r>     7.1565     2.8922    43.0285 </r>
       <r>     7.2626     2.6087    43.3054 </r>
       <r>     7.3688     2.3301    43.5527 </r>
       <r>     7.4749     3.3515    43.9084 </r>
       <r>     7.5811     3.4592    44.2756 </r>
       <r>     7.6872     4.2721    44.7290 </r>
       <r>     7.7933     3.8246    45.1350 </r>
       <r>     7.8995     3.0424    45.4579 </r>
       <r>     8.0056     4.1490    45.8983 </r>
       <r>     8.1118     5.0941    46.4390 </r>
       <r>     8.2179     4.8464    46.9534 </r>
       <r>     8.3240     4.2790    47.4075 </r>
       <r>     8.4302     2.8935    47.7146 </r>
       <r>     8.5363     1.3942    47.8626 </r>
       <r>     8.6425     0.5853    47.9247 </r>
       <r>     8.7486     0.3732    47.9643 </r>
       <r>     8.8547     0.2679    47.9928 </r>
       <r>     8.9609     0.0653    47.9997 </r>
       <r>     9.0670     0.0027    48.0000 </r>
       <r>     9.1732     0.0000    48.0000 </r>
       <r>     9.2793     0.0000    48.0000 </r>
       <r>     9.3854     0.0000    48.0000 </r>
       <r>     9.4916     0.0000    48.0000 </r>
       <r>     9.5977     0.0000    48.0000 </r>
       <r>     9.7038     0.0000    48.0000 </r>
       <r>     9.8100     0.0000    48.0000 </r>
       <r>     9.9161     0.0000    48.0000 </r>
       <r>    10.0223     0.0000    48.0000 </r>
       <r>    10.1284     0.0000    48.0000 </r>
       <r>    10.2345     0.0000    48.0000 </r>
      </set>
     </set>
    </array>
   </total>
  </dos>
 </calculation>
 <structure name="finalpos" >
  <crystal>
   <varray name="basis" >
    <v>       4.21667769       2.43450000       0.00000000 </v>
    <v>      -4.21667769       2.43450000       0.00000000 </v>
    <v>       0.00000000       0.00000000      15.00000000 </v>
   </varray>
   <i name="volume">    307.96505516 </i>
   <varray name="rec_basis" >
    <v>       0.11857677       0.20538098       0.00000000 </v>
    <v>      -0.11857677       0.20538098       0.00000000 </v>
    <v>       0.00000000       0.00000000       0.06666667 </v>
   </varray>
  </crystal>
  <varray name="positions" >
   <v>       0.02089273      -0.01158080       0.10003609 </v>
   <v>       0.37580686      -0.01175324       0.10101567 </v>
   <v>       0.02047402       0.34253703       0.10123580 </v>
   <v>       0.66560188       0.63298998       0.10117902 </v>
   <v>       0.34404988       0.31134321       0.10104602 </v>
   <v>       0.69688525      -0.01164936       0.10121502 </v>
   <v>       0.02098015       0.66474921       0.10109503 </v>
   <v>       0.09671522       0.40171039       0.33809714 </v>
   <v>       0.26320150       0.23493595       0.33830285 </v>
   <v>       0.09653654       0.90173512       0.33821221 </v>
   <v>       0.26320249       0.73505783       0.33793628 </v>
   <v>       0.59673108       0.40185793       0.33800207 </v>
   <v>       0.76345961       0.23511027       0.33801757 </v>
   <v>       0.59677496       0.90169998       0.33829229 </v>
   <v>       0.76353740       0.73513494       0.33809628 </v>
  </varray>
 </structure>
</modeling>
