 ----------------------------------------------------
    OOO  PPPP  EEEEE N   N M   M PPPP
   O   O P   P E     NN  N MM MM P   P
   O   O PPPP  EEEEE N N N M M M PPPP   -- VERSION
   O   O P     E     N  NN M   M P
    OOO  P     EEEEE N   N M   M P
 ----------------------------------------------------
 running   48 mpi-ranks, with    1 threads/rank
 distrk:  each k-point on   48 cores,    1 groups
 distr:  one band on    1 cores,   48 groups
 vasp.6.3.2 27Jun22 (build Dec 22 2022 13:13:19) complex                        
  
 POSCAR found type information on POSCAR B C 
 POSCAR found :  2 types and      16 ions
 Reading from existing POTCAR
 -----------------------------------------------------------------------------
|                                                                             |
|           W    W    AA    RRRRR   N    N  II  N    N   GGGG   !!!           |
|           W    W   A  A   R    R  NN   N  II  NN   N  G    G  !!!           |
|           W    W  A    A  R    R  N N  N  II  N N  N  G       !!!           |
|           W WW W  AAAAAA  RRRRR   N  N N  II  N  N N  G  GGG   !            |
|           WW  WW  A    A  R   R   N   NN  II  N   NN  G    G                |
|           W    W  A    A  R    R  N    N  II  N    N   GGGG   !!!           |
|                                                                             |
|     You use a magnetic or noncollinear calculation, but did not specify     |
|     the initial magnetic moment with the MAGMOM tag. Note that a            |
|     default of 1 will be used for all atoms. This ferromagnetic setup       |
|     may break the symmetry of the crystal, in particular it may rule        |
|     out finding an antiferromagnetic solution. Thence, we recommend         |
|     setting the initial magnetic moment manually or verifying carefully     |
|     that this magnetic setup is desired.                                    |
|                                                                             |
 -----------------------------------------------------------------------------

 scaLAPACK will be used
 Reading from existing POTCAR
 LDA part: xc-table for Pade appr. of Perdew
 POSCAR found type information on POSCAR B C 
 POSCAR found :  2 types and      16 ions
 POSCAR, INCAR and KPOINTS ok, starting setup
 FFT: planning ... GRIDC
 FFT: planning ... GRID_SOFT
 FFT: planning ... GRID
 WAVECAR not read
 entering main loop
       N       E                     dE             d eps       ncg     rms          rms(c)
DAV:   1     0.185391309249E+03    0.18539E+03   -0.25184E+04  8256   0.860E+02
DAV:   2    -0.117745916710E+03   -0.30314E+03   -0.30232E+03 13008   0.156E+02
DAV:   3    -0.127174198769E+03   -0.94283E+01   -0.94015E+01 13536   0.367E+01
DAV:   4    -0.127210612693E+03   -0.36414E-01   -0.36410E-01 13056   0.202E+00
DAV:   5    -0.127210654187E+03   -0.41494E-04   -0.41494E-04 12480   0.739E-02    0.223E+01
DAV:   6    -0.942489494329E+02    0.32962E+02   -0.58417E+01 10896   0.216E+01    0.121E+01
DAV:   7    -0.105481045156E+03   -0.11232E+02   -0.13578E+01 12240   0.109E+01    0.663E+00
DAV:   8    -0.111389751402E+03   -0.59087E+01   -0.51438E+00 12528   0.646E+00    0.371E+00
DAV:   9    -0.116624788949E+03   -0.52350E+01   -0.27366E+00 10416   0.464E+00    0.253E+00
DAV:  10    -0.120821187143E+03   -0.41964E+01   -0.32413E+00 12384   0.474E+00    0.135E+00
DAV:  11    -0.122728934070E+03   -0.19077E+01   -0.14954E+00 11664   0.285E+00    0.816E-01
DAV:  12    -0.123722874756E+03   -0.99394E+00   -0.79233E-01 13680   0.193E+00    0.407E-01
DAV:  13    -0.124032960287E+03   -0.31009E+00   -0.19546E-01 11664   0.970E-01    0.196E-01
DAV:  14    -0.124088563554E+03   -0.55603E-01   -0.31609E-02 10992   0.413E-01    0.108E-01
DAV:  15    -0.124110858935E+03   -0.22295E-01   -0.13464E-02  9936   0.292E-01    0.580E-02
DAV:  16    -0.124112623547E+03   -0.17646E-02   -0.24880E-03  9936   0.179E-01    0.360E-02
DAV:  17    -0.124113438903E+03   -0.81536E-03   -0.69085E-04  9552   0.896E-02    0.158E-02
DAV:  18    -0.124113440780E+03   -0.18762E-05   -0.16964E-04  8736   0.476E-02    0.832E-03
DAV:  19    -0.124113485451E+03   -0.44671E-04   -0.37061E-05  9216   0.275E-02    0.485E-03
DAV:  20    -0.124113511166E+03   -0.25715E-04   -0.18491E-05  8448   0.180E-02    0.356E-03
DAV:  21    -0.124113557460E+03   -0.46294E-04   -0.17308E-05  8736   0.164E-02    0.221E-03
DAV:  22    -0.124113581842E+03   -0.24382E-04   -0.57953E-06  9696   0.965E-03    0.129E-03
DAV:  23    -0.124113585475E+03   -0.36328E-05   -0.20413E-06 11232   0.560E-03    0.638E-04
DAV:  24    -0.124113588914E+03   -0.34392E-05   -0.51241E-07 11472   0.269E-03    0.330E-04
DAV:  25    -0.124113590160E+03   -0.12458E-05   -0.21432E-07 11232   0.177E-03    0.172E-04
DAV:  26    -0.124113590508E+03   -0.34752E-06   -0.11044E-07 13200   0.134E-03
   1 F= -.12558555E+03 E0= -.12558252E+03  d E =-.125586E+03  mag=     0.0000
 curvature:   0.00 expect dE= 0.000E+00 dE for cont linesearch  0.000E+00
 trial: gam= 0.00000 g(F)=  0.153E-02 g(S)=  0.000E+00 ort = 0.000E+00 (trialstep = 0.100E+01)
 search vector abs. value=  0.153E-02
 bond charge predicted
       N       E                     dE             d eps       ncg     rms          rms(c)
DAV:   1    -0.124114250938E+03   -0.66078E-03   -0.11318E-01  8448   0.924E-01    0.109E-01
DAV:   2    -0.124113738041E+03    0.51290E-03   -0.26296E-03 13008   0.134E-01    0.492E-02
DAV:   3    -0.124113651774E+03    0.86267E-04   -0.42222E-04 13584   0.463E-02    0.134E-02
DAV:   4    -0.124113648858E+03    0.29165E-05   -0.30574E-05 12288   0.140E-02    0.496E-03
DAV:   5    -0.124113648782E+03    0.76207E-07   -0.17587E-06 13056   0.351E-03
   2 F= -.12558573E+03 E0= -.12558272E+03  d E =-.188116E-03  mag=     0.0000
 trial-energy change:   -0.000188  1 .order   -0.000185   -0.001529    0.001160
 step:   0.5688(harm=  0.5688)  dis= 0.00196  next Energy=  -125.585981 (dE=-0.435E-03)
 bond charge predicted
       N       E                     dE             d eps       ncg     rms          rms(c)
DAV:   1    -0.124114062671E+03   -0.41381E-03   -0.20900E-02  8496   0.397E-01    0.472E-02
DAV:   2    -0.124113967701E+03    0.94970E-04   -0.49175E-04 12864   0.579E-02    0.212E-02
DAV:   3    -0.124113952174E+03    0.15527E-04   -0.79391E-05 11520   0.201E-02    0.572E-03
DAV:   4    -0.124113951828E+03    0.34523E-06   -0.63287E-06 12432   0.643E-03
   3 F= -.12558598E+03 E0= -.12558296E+03  d E =-.435322E-03  mag=     0.0000
 curvature:  -0.28 expect dE=-0.162E-04 dE for cont linesearch -0.157E-11
 trial: gam= 0.03729 g(F)=  0.571E-04 g(S)=  0.000E+00 ort = 0.919E-07 (trialstep = 0.914E+00)
 search vector abs. value=  0.593E-04
 bond charge predicted
       N       E                     dE             d eps       ncg     rms          rms(c)
DAV:   1    -0.124113958908E+03   -0.67345E-05   -0.48247E-03  8640   0.256E-01    0.119E-02
DAV:   2    -0.124113958101E+03    0.80668E-06   -0.55229E-05  8448   0.292E-02    0.741E-03
DAV:   3    -0.124113957501E+03    0.60046E-06   -0.69452E-06  9120   0.919E-03
   4 F= -.12558603E+03 E0= -.12558301E+03  d E =-.521346E-04  mag=     0.0000
 ZBRENT: can't locate minimum, use default step
 trial-energy change:   -0.000052  1 .order   -0.000051   -0.000052   -0.000050
 step:   3.6550(harm= 22.7190)  dis= 0.00196  next Energy=  -125.586630 (dE=-0.649E-03)
 bond charge predicted
       N       E                     dE             d eps       ncg     rms          rms(c)
DAV:   1    -0.124113984580E+03   -0.26478E-04   -0.43567E-02  8448   0.770E-01    0.364E-02
DAV:   2    -0.124113978883E+03    0.56968E-05   -0.49445E-04  8928   0.876E-02    0.226E-02
DAV:   3    -0.124113972781E+03    0.61022E-05   -0.62554E-05 10704   0.273E-02    0.558E-03
DAV:   4    -0.124113973370E+03   -0.58967E-06   -0.80614E-06  8976   0.104E-02
   5 F= -.12558619E+03 E0= -.12558317E+03  d E =-.207569E-03  mag=     0.0000
 curvature:  -2.78 expect dE=-0.180E-03 dE for cont linesearch -0.149E-03
 ZBRENT: increasing intervall
 opt :   9.1375  next Energy=  -125.586506 (dE=-0.525E-03)
 bond charge predicted
       N       E                     dE             d eps       ncg     rms          rms(c)
DAV:   1    -0.124114042423E+03   -0.69643E-04   -0.17380E-01  8256   0.154E+00    0.719E-02
DAV:   2    -0.124114025414E+03    0.17009E-04   -0.20029E-03  9120   0.176E-01    0.447E-02
DAV:   3    -0.124113997455E+03    0.27959E-04   -0.24791E-04 11424   0.542E-02    0.111E-02
DAV:   4    -0.124113999145E+03   -0.16899E-05   -0.30450E-05  9216   0.209E-02    0.497E-03
DAV:   5    -0.124114000208E+03   -0.10623E-05   -0.42848E-06  8448   0.924E-03    0.217E-03
DAV:   6    -0.124113999320E+03    0.88751E-06   -0.16497E-06  8736   0.547E-03
   6 F= -.12558649E+03 E0= -.12558348E+03  d E =-.513607E-03  mag=     0.0000
 curvature:  -5.92 expect dE=-0.674E-03 dE for cont linesearch -0.306E-03
 ZBRENT: increasing intervall
 opt :  20.1025  next Energy=  -125.587089 (dE=-0.111E-02)
 bond charge predicted
       N       E                     dE             d eps       ncg     rms          rms(c)
DAV:   1    -0.124114207881E+03   -0.20767E-03   -0.69499E-01  8256   0.308E+00    0.143E-01
DAV:   2    -0.124114148483E+03    0.59399E-04   -0.80360E-03  9312   0.351E-01    0.890E-02
DAV:   3    -0.124114028298E+03    0.12018E-03   -0.98659E-04 11424   0.107E-01    0.221E-02
DAV:   4    -0.124114032336E+03   -0.40379E-05   -0.11317E-04 12528   0.374E-02    0.940E-03
DAV:   5    -0.124114032461E+03   -0.12466E-06   -0.76029E-06  9312   0.107E-02
   7 F= -.12558709E+03 E0= -.12558407E+03  d E =-.111084E-02  mag=    -0.0000
 curvature: -11.52 expect dE=-0.393E-02 dE for cont linesearch -0.530E-03
 ZBRENT: increasing intervall
 opt :  42.0325  next Energy=  -125.588169 (dE=-0.219E-02)
 bond charge predicted
       N       E                     dE             d eps       ncg     rms          rms(c)
DAV:   1    -0.124114709972E+03   -0.67764E-03   -0.27800E+00  8256   0.615E+00    0.286E-01
DAV:   2    -0.124114484637E+03    0.22533E-03   -0.32103E-02  9120   0.702E-01    0.178E-01
DAV:   3    -0.124114012744E+03    0.47189E-03   -0.39197E-03  9840   0.215E-01    0.442E-02
DAV:   4    -0.124114026164E+03   -0.13420E-04   -0.48579E-04 12816   0.775E-02    0.189E-02
DAV:   5    -0.124114024502E+03    0.16619E-05   -0.30733E-05 10272   0.219E-02    0.579E-03
DAV:   6    -0.124114019637E+03    0.48650E-05   -0.10895E-05  9552   0.135E-02    0.261E-03
DAV:   7    -0.124114021517E+03   -0.18799E-05   -0.31811E-06  9456   0.633E-03    0.128E-03
DAV:   8    -0.124114028217E+03   -0.66996E-05   -0.32830E-06  9504   0.725E-03    0.984E-04
DAV:   9    -0.124114031829E+03   -0.36128E-05   -0.43385E-06 10848   0.890E-03    0.669E-04
DAV:  10    -0.124114035999E+03   -0.41691E-05   -0.31596E-06  9984   0.750E-03    0.282E-04
DAV:  11    -0.124114040547E+03   -0.45483E-05   -0.16047E-06 10368   0.464E-03    0.305E-04
DAV:  12    -0.124114041298E+03   -0.75139E-06   -0.16899E-07 12384   0.154E-03
   8 F= -.12558824E+03 E0= -.12558523E+03  d E =-.226309E-02  mag=    -0.0000
 curvature: -23.41 expect dE=-0.311E-01 dE for cont linesearch -0.100E-02
 ZBRENT: increasing intervall
 opt :  85.8925  next Energy=  -125.590370 (dE=-0.439E-02)
 bond charge predicted
       N       E                     dE             d eps       ncg     rms          rms(c)
DAV:   1    -0.124116437100E+03   -0.23966E-02   -0.11109E+01  8256   0.123E+01    0.572E-01
DAV:   2    -0.124115580495E+03    0.85661E-03   -0.12862E-01  8832   0.141E+00    0.356E-01
DAV:   3    -0.124113692659E+03    0.18878E-02   -0.16045E-02 13008   0.430E-01    0.871E-02
DAV:   4    -0.124113723106E+03   -0.30446E-04   -0.16002E-03 12960   0.141E-01    0.387E-02
DAV:   5    -0.124113693773E+03    0.29333E-04   -0.74579E-05 10560   0.271E-02    0.726E-03
DAV:   6    -0.124113689524E+03    0.42488E-05   -0.18060E-05 13296   0.113E-02    0.368E-03
DAV:   7    -0.124113694530E+03   -0.50058E-05   -0.18687E-06  9696   0.412E-03    0.219E-03
DAV:   8    -0.124113701940E+03   -0.74104E-05   -0.12149E-06 10416   0.275E-03    0.178E-03
DAV:   9    -0.124113709981E+03   -0.80407E-05   -0.58500E-07 10032   0.156E-03    0.819E-04
DAV:  10    -0.124113720841E+03   -0.10860E-04   -0.12052E-06 10368   0.224E-03    0.597E-04
DAV:  11    -0.124113726155E+03   -0.53142E-05   -0.76632E-07 10368   0.280E-03    0.373E-04
DAV:  12    -0.124113728283E+03   -0.21278E-05   -0.54137E-07 10080   0.267E-03    0.134E-04
DAV:  13    -0.124113728436E+03   -0.15345E-06   -0.12742E-07 13344   0.152E-03
   9 F= -.12559028E+03 E0= -.12558727E+03  d E =-.430026E-02  mag=     0.0000
 curvature: -49.71 expect dE=-0.268E+00 dE for cont linesearch -0.154E-02
 ZBRENT: increasing intervall
 opt : 173.6125  next Energy=  -125.593375 (dE=-0.739E-02)
 bond charge predicted
       N       E                     dE             d eps       ncg     rms          rms(c)
DAV:   1    -0.124122023598E+03   -0.82953E-02   -0.44366E+01  8256   0.246E+01    0.114E+00
DAV:   2    -0.124119531813E+03    0.24918E-02   -0.52023E-01  8352   0.283E+00    0.713E-01
DAV:   3    -0.124111869923E+03    0.76619E-02   -0.64117E-02 13920   0.861E-01    0.177E-01
DAV:   4    -0.124111969227E+03   -0.99304E-04   -0.58081E-03 13056   0.272E-01    0.788E-02
DAV:   5    -0.124111874508E+03    0.94718E-04   -0.31419E-04 10800   0.539E-02    0.151E-02
DAV:   6    -0.124111861253E+03    0.13256E-04   -0.71149E-05 13536   0.225E-02    0.710E-03
DAV:   7    -0.124111884026E+03   -0.22773E-04   -0.13027E-05  8928   0.103E-02    0.399E-03
DAV:   8    -0.124111903214E+03   -0.19188E-04   -0.33955E-06 11184   0.584E-03    0.343E-03
DAV:   9    -0.124111921955E+03   -0.18741E-04   -0.22064E-06 10176   0.445E-03    0.157E-03
DAV:  10    -0.124111942843E+03   -0.20888E-04   -0.28247E-06 10464   0.408E-03    0.112E-03
DAV:  11    -0.124111953825E+03   -0.10983E-04   -0.22166E-06 10080   0.509E-03    0.555E-04
DAV:  12    -0.124111959162E+03   -0.53364E-05   -0.25288E-06 10320   0.637E-03    0.266E-04
DAV:  13    -0.124111959912E+03   -0.75009E-06   -0.76384E-07 11232   0.365E-03
  10 F= -.12559347E+03 E0= -.12559049E+03  d E =-.749407E-02  mag=    -0.0000
 curvature: ****** expect dE=-0.219E+01 dE for cont linesearch -0.153E-02
 ZBRENT: increasing intervall
 opt : 349.0526  next Energy=  -125.596540 (dE=-0.106E-01)
 bond charge predicted
       N       E                     dE             d eps       ncg     rms          rms(c)
DAV:   1    -0.124134956813E+03   -0.22998E-01   -0.17633E+02  8256   0.490E+01    0.227E+00
DAV:   2    -0.124133714543E+03    0.12423E-02   -0.21533E+00  8544   0.583E+00    0.143E+00
DAV:   3    -0.124103613594E+03    0.30101E-01   -0.24657E-01 14112   0.169E+00    0.380E-01
DAV:   4    -0.124104071957E+03   -0.45836E-03   -0.21340E-02 12768   0.520E-01    0.163E-01
DAV:   5    -0.124103591715E+03    0.48024E-03   -0.14425E-03 12480   0.105E-01    0.317E-02
DAV:   6    -0.124103540179E+03    0.51536E-04   -0.23477E-04 13440   0.414E-02    0.147E-02
DAV:   7    -0.124103602927E+03   -0.62748E-04   -0.60711E-05  9408   0.216E-02    0.847E-03
DAV:   8    -0.124103652101E+03   -0.49174E-04   -0.92444E-06 10800   0.796E-03    0.693E-03
DAV:   9    -0.124103697413E+03   -0.45311E-04   -0.58113E-06 10320   0.621E-03    0.308E-03
DAV:  10    -0.124103740537E+03   -0.43124E-04   -0.62549E-06 11088   0.552E-03    0.213E-03
DAV:  11    -0.124103765111E+03   -0.24574E-04   -0.39362E-06 10416   0.476E-03    0.111E-03
DAV:  12    -0.124103774291E+03   -0.91801E-05   -0.22144E-06 11472   0.535E-03    0.415E-04
DAV:  13    -0.124103776866E+03   -0.25747E-05   -0.99645E-07 10896   0.412E-03    0.186E-04
DAV:  14    -0.124103778125E+03   -0.12591E-05   -0.20750E-07 10800   0.163E-03    0.822E-05
DAV:  15    -0.124103778316E+03   -0.19072E-06   -0.36514E-08 13440   0.740E-04
  11 F= -.12559636E+03 E0= -.12559345E+03  d E =-.103821E-01  mag=     0.0000
 curvature: ****** expect dE=-0.177E+02 dE for cont linesearch -0.458E-04
 trial: gam=******** g(F)=  0.886E-01 g(S)=  0.000E+00 ort = 0.368E-05 (trialstep = 0.293E-04)
 search vector abs. value=  0.143E+03
 bond charge predicted
       N       E                     dE             d eps       ncg     rms          rms(c)
DAV:   1    -0.124103778023E+03    0.10231E-06   -0.11971E-05 11808   0.128E-02    0.594E-04
DAV:   2    -0.124103778023E+03   -0.29058E-09   -0.13249E-07 14784   0.141E-03
  12 F= -.12559637E+03 E0= -.12559345E+03  d E =-.279561E-05  mag=     0.0000
 ZBRENT: can't locate minimum, use default step
 trial-energy change:   -0.000003  1 .order   -0.000003   -0.000003   -0.000003
 step:   0.0001(harm=  0.0001)  dis= 0.00010  next Energy=  -125.596374 (dE=-0.111E-04)
 bond charge predicted
       N       E                     dE             d eps       ncg     rms          rms(c)
DAV:   1    -0.124103777088E+03    0.93509E-06   -0.10589E-04 10368   0.381E-02    0.185E-03
DAV:   2    -0.124103777060E+03    0.27545E-07   -0.10914E-06 12672   0.405E-03
  13 F= -.12559637E+03 E0= -.12559346E+03  d E =-.110984E-04  mag=     0.0000
 curvature:  -0.13 expect dE=-0.118E-01 dE for cont linesearch -0.843E-05
 ZBRENT: increasing intervall
 opt :   0.0003  next Energy=  -125.596391 (dE=-0.279E-04)
 bond charge predicted
       N       E                     dE             d eps       ncg     rms          rms(c)
DAV:   1    -0.124103775200E+03    0.18877E-05   -0.42037E-04  8592   0.760E-02    0.373E-03
DAV:   2    -0.124103775131E+03    0.68726E-07   -0.45982E-06  9984   0.848E-03
  14 F= -.12559639E+03 E0= -.12559347E+03  d E =-.277062E-04  mag=    -0.0000
 curvature:  -0.27 expect dE=-0.235E-01 dE for cont linesearch -0.169E-04
 ZBRENT: increasing intervall
 opt :   0.0006  next Energy=  -125.596424 (dE=-0.614E-04)
 bond charge predicted
       N       E                     dE             d eps       ncg     rms          rms(c)
DAV:   1    -0.124103771583E+03    0.36175E-05   -0.16830E-03  8448   0.152E-01    0.748E-03
DAV:   2    -0.124103771283E+03    0.29979E-06   -0.18532E-05  9312   0.171E-02    0.466E-03
DAV:   3    -0.124103771139E+03    0.14392E-06   -0.23829E-06  9840   0.534E-03
  15 F= -.12559642E+03 E0= -.12559351E+03  d E =-.607686E-04  mag=     0.0000
 curvature:  -0.53 expect dE=-0.468E-01 dE for cont linesearch -0.316E-04
 ZBRENT: increasing intervall
 opt :   0.0013  next Energy=  -125.596487 (dE=-0.124E-03)
 bond charge predicted
       N       E                     dE             d eps       ncg     rms          rms(c)
DAV:   1    -0.124103764969E+03    0.63137E-05   -0.69160E-03  8256   0.307E-01    0.146E-02
DAV:   2    -0.124103763929E+03    0.10402E-05   -0.78488E-05  9408   0.350E-02    0.909E-03
DAV:   3    -0.124103763096E+03    0.83312E-06   -0.98380E-06 10752   0.108E-02
  16 F= -.12559649E+03 E0= -.12559357E+03  d E =-.126938E-03  mag=    -0.0000
 curvature:  -1.05 expect dE=-0.933E-01 dE for cont linesearch -0.607E-04
 ZBRENT: increasing intervall
 opt :   0.0028  next Energy=  -125.596615 (dE=-0.252E-03)
 bond charge predicted
       N       E                     dE             d eps       ncg     rms          rms(c)
DAV:   1    -0.124103754094E+03    0.98350E-05   -0.27650E-02  8256   0.613E-01    0.292E-02
DAV:   2    -0.124103750129E+03    0.39652E-05   -0.31413E-04  9360   0.700E-02    0.182E-02
DAV:   3    -0.124103746600E+03    0.35283E-05   -0.39145E-05 10176   0.215E-02    0.447E-03
DAV:   4    -0.124103747003E+03   -0.40279E-06   -0.52332E-06  9552   0.798E-03
  17 F= -.12559662E+03 E0= -.12559371E+03  d E =-.259479E-03  mag=     0.0000
 curvature:  -2.17 expect dE=-0.193E+00 dE for cont linesearch -0.135E-03
 ZBRENT: increasing intervall
 opt :   0.0056  next Energy=  -125.596898 (dE=-0.535E-03)
 bond charge predicted
       N       E                     dE             d eps       ncg     rms          rms(c)
DAV:   1    -0.124103741814E+03    0.47868E-05   -0.11010E-01  8256   0.122E+00    0.570E-02
DAV:   2    -0.124103728845E+03    0.12968E-04   -0.12637E-03  9600   0.140E-01    0.354E-02
DAV:   3    -0.124103711585E+03    0.17260E-04   -0.15586E-04 11856   0.425E-02    0.874E-03
DAV:   4    -0.124103713068E+03   -0.14829E-05   -0.18082E-05  9216   0.154E-02    0.380E-03
DAV:   5    -0.124103713886E+03   -0.81748E-06   -0.20564E-06  9120   0.612E-03
  18 F= -.12559689E+03 E0= -.12559397E+03  d E =-.524406E-03  mag=     0.0000
 curvature:  -4.41 expect dE=-0.394E+00 dE for cont linesearch -0.272E-03
 ZBRENT: increasing intervall
 opt :   0.0112  next Energy=  -125.597412 (dE=-0.105E-02)
 bond charge predicted
       N       E                     dE             d eps       ncg     rms          rms(c)
DAV:   1    -0.124103757774E+03   -0.44705E-04   -0.44020E-01  8256   0.245E+00    0.114E-01
DAV:   2    -0.124103717138E+03    0.40636E-04   -0.50434E-03  8640   0.279E-01    0.708E-02
DAV:   3    -0.124103641585E+03    0.75553E-04   -0.63460E-04 11904   0.860E-02    0.174E-02
DAV:   4    -0.124103644178E+03   -0.25932E-05   -0.68020E-05 12336   0.287E-02    0.753E-03
DAV:   5    -0.124103644476E+03   -0.29762E-06   -0.38198E-06  9600   0.701E-03
  19 F= -.12559742E+03 E0= -.12559450E+03  d E =-.105438E-02  mag=     0.0000
 curvature:  -8.51 expect dE=-0.766E+00 dE for cont linesearch -0.515E-03
 ZBRENT: increasing intervall
 opt :   0.0224  next Energy=  -125.598452 (dE=-0.209E-02)
 bond charge predicted
       N       E                     dE             d eps       ncg     rms          rms(c)
DAV:   1    -0.124103946025E+03   -0.30185E-03   -0.17608E+00  8256   0.490E+00    0.228E-01
DAV:   2    -0.124103787574E+03    0.15845E-03   -0.20195E-02  8832   0.558E-01    0.141E-01
DAV:   3    -0.124103492567E+03    0.29501E-03   -0.24932E-03  9792   0.172E-01    0.351E-02
DAV:   4    -0.124103501690E+03   -0.91225E-05   -0.31811E-04 13968   0.605E-02    0.147E-02
DAV:   5    -0.124103498355E+03    0.33348E-05   -0.12438E-05 10176   0.116E-02    0.328E-03
DAV:   6    -0.124103498234E+03    0.12079E-06   -0.32194E-06 10800   0.652E-03
  20 F= -.12559848E+03 E0= -.12559556E+03  d E =-.211996E-02  mag=     0.0000
 curvature: -17.10 expect dE=-0.156E+01 dE for cont linesearch -0.108E-02
 ZBRENT: increasing intervall
 opt :   0.0449  next Energy=  -125.600656 (dE=-0.429E-02)
 bond charge predicted
       N       E                     dE             d eps       ncg     rms          rms(c)
DAV:   1    -0.124105008996E+03   -0.15106E-02   -0.70405E+00  8256   0.979E+00    0.456E-01
DAV:   2    -0.124104361770E+03    0.64723E-03   -0.80974E-02 10080   0.112E+00    0.283E-01
DAV:   3    -0.124103179566E+03    0.11822E-02   -0.10172E-02 12480   0.340E-01    0.683E-02
DAV:   4    -0.124103188988E+03   -0.94226E-05   -0.10167E-03 13488   0.113E-01    0.308E-02
DAV:   5    -0.124103174182E+03    0.14807E-04   -0.50113E-05 11136   0.228E-02    0.584E-03
DAV:   6    -0.124103174195E+03   -0.13573E-07   -0.13011E-05 10512   0.116E-02    0.331E-03
DAV:   7    -0.124103178404E+03   -0.42087E-05   -0.37173E-06 10368   0.778E-03    0.190E-03
DAV:   8    -0.124103187656E+03   -0.92517E-05   -0.25510E-06 10224   0.550E-03    0.153E-03
DAV:   9    -0.124103196578E+03   -0.89228E-05   -0.17715E-06 10800   0.482E-03    0.551E-04
DAV:  10    -0.124103202134E+03   -0.55556E-05   -0.21828E-06 10944   0.613E-03    0.523E-04
DAV:  11    -0.124103206082E+03   -0.39481E-05   -0.10011E-06 10608   0.375E-03    0.415E-04
DAV:  12    -0.124103208312E+03   -0.22301E-05   -0.24443E-07 10368   0.126E-03    0.134E-04
DAV:  13    -0.124103208692E+03   -0.37938E-06   -0.43175E-08 12240   0.660E-04
  21 F= -.12560067E+03 E0= -.12559775E+03  d E =-.430778E-02  mag=    -0.0000
 curvature: -34.54 expect dE=-0.325E+01 dE for cont linesearch -0.231E-02
 ZBRENT: increasing intervall
 opt :   0.0899  next Energy=  -125.605198 (dE=-0.883E-02)
 bond charge predicted
       N       E                     dE             d eps       ncg     rms          rms(c)
DAV:   1    -0.124109258430E+03   -0.60501E-02   -0.28119E+01  8256   0.196E+01    0.909E-01
DAV:   2    -0.124107256080E+03    0.20024E-02   -0.32670E-01  8640   0.225E+00    0.568E-01
DAV:   3    -0.124102479202E+03    0.47769E-02   -0.41112E-02 14208   0.687E-01    0.139E-01
DAV:   4    -0.124102545233E+03   -0.66030E-04   -0.36416E-03 13248   0.213E-01    0.622E-02
DAV:   5    -0.124102490406E+03    0.54826E-04   -0.20179E-04 12192   0.431E-02    0.121E-02
DAV:   6    -0.124102483225E+03    0.71807E-05   -0.46472E-05 12576   0.182E-02    0.543E-03
DAV:   7    -0.124102498289E+03   -0.15063E-04   -0.69810E-06  9792   0.736E-03    0.365E-03
DAV:   8    -0.124102509713E+03   -0.11425E-04   -0.91831E-07 12624   0.253E-03    0.286E-03
DAV:   9    -0.124102528538E+03   -0.18825E-04   -0.21469E-06 10752   0.309E-03    0.884E-04
DAV:  10    -0.124102540479E+03   -0.11940E-04   -0.12355E-06 11424   0.211E-03    0.959E-04
DAV:  11    -0.124102547053E+03   -0.65739E-05   -0.62812E-07  9792   0.167E-03    0.467E-04
DAV:  12    -0.124102550475E+03   -0.34228E-05   -0.37063E-07 10800   0.168E-03    0.159E-04
DAV:  13    -0.124102551565E+03   -0.10901E-05   -0.14423E-07 11088   0.123E-03    0.807E-05
DAV:  14    -0.124102551660E+03   -0.94934E-07   -0.16852E-08 13872   0.529E-04
  22 F= -.12560519E+03 E0= -.12560227E+03  d E =-.882684E-02  mag=    -0.0000
 curvature: -67.70 expect dE=-0.677E+01 dE for cont linesearch -0.507E-02
 ZBRENT: increasing intervall
 opt :   0.1799  next Energy=  -125.614998 (dE=-0.186E-01)
 bond charge predicted
       N       E                     dE             d eps       ncg     rms          rms(c)
DAV:   1    -0.124123488333E+03   -0.20937E-01   -0.11201E+02  8256   0.390E+01    0.181E+00
DAV:   2    -0.124119381838E+03    0.41065E-02   -0.13418E+00  8736   0.459E+00    0.114E+00
DAV:   3    -0.124100814374E+03    0.18567E-01   -0.15979E-01 13920   0.135E+00    0.291E-01
DAV:   4    -0.124101081739E+03   -0.26737E-03   -0.13997E-02 13632   0.419E-01    0.128E-01
DAV:   5    -0.124100811925E+03    0.26981E-03   -0.86596E-04 13344   0.841E-02    0.260E-02
DAV:   6    -0.124100784950E+03    0.26976E-04   -0.16151E-04 12960   0.341E-02    0.114E-02
DAV:   7    -0.124100833062E+03   -0.48112E-04   -0.35134E-05  9888   0.166E-02    0.727E-03
DAV:   8    -0.124100878592E+03   -0.45530E-04   -0.69349E-06 11376   0.669E-03    0.400E-03
DAV:   9    -0.124100910007E+03   -0.31416E-04   -0.37789E-06 11280   0.450E-03    0.186E-03
DAV:  10    -0.124100932194E+03   -0.22186E-04   -0.24876E-06 11136   0.328E-03    0.158E-03
DAV:  11    -0.124100947437E+03   -0.15243E-04   -0.19715E-06 11040   0.279E-03    0.880E-04
DAV:  12    -0.124100954370E+03   -0.69334E-05   -0.86617E-07 10416   0.234E-03    0.242E-04
DAV:  13    -0.124100955840E+03   -0.14699E-05   -0.20472E-07 12864   0.176E-03    0.140E-04
DAV:  14    -0.124100956833E+03   -0.99258E-06   -0.89376E-08 10128   0.892E-04
  23 F= -.12561490E+03 E0= -.12561195E+03  d E =-.185324E-01  mag=    -0.0000
 curvature: ****** expect dE=-0.148E+02 dE for cont linesearch -0.117E-01
 ZBRENT: increasing intervall
 opt :   0.3598  next Energy=  -125.636925 (dE=-0.406E-01)
 bond charge predicted
       N       E                     dE             d eps       ncg     rms          rms(c)
DAV:   1    -0.124137182308E+03   -0.36226E-01   -0.44076E+02  8256   0.772E+01    0.357E+00
DAV:   2    -0.124172182006E+03   -0.35000E-01   -0.57754E+00  8544   0.972E+00    0.229E+00
DAV:   3    -0.124094989658E+03    0.77192E-01   -0.57425E-01 13728   0.259E+00    0.695E-01
DAV:   4    -0.124097081558E+03   -0.20919E-02   -0.48827E-02 13680   0.793E-01    0.266E-01
DAV:   5    -0.124095987448E+03    0.10941E-02   -0.44446E-03 13248   0.169E-01    0.487E-02
DAV:   6    -0.124095895031E+03    0.92417E-04   -0.46007E-04 13200   0.608E-02    0.230E-02
DAV:   7    -0.124096033307E+03   -0.13828E-03   -0.16928E-04  9648   0.380E-02    0.142E-02
DAV:   8    -0.124096117757E+03   -0.84450E-04   -0.18972E-05 11616   0.114E-02    0.112E-02
DAV:   9    -0.124096191541E+03   -0.73784E-04   -0.12387E-05 10752   0.864E-03    0.469E-03
DAV:  10    -0.124096252979E+03   -0.61438E-04   -0.10649E-05 11472   0.706E-03    0.367E-03
DAV:  11    -0.124096286423E+03   -0.33444E-04   -0.63590E-06 12192   0.517E-03    0.207E-03
DAV:  12    -0.124096297601E+03   -0.11177E-04   -0.14335E-06 12432   0.290E-03    0.617E-04
DAV:  13    -0.124096300953E+03   -0.33525E-05   -0.25327E-07 11568   0.171E-03    0.315E-04
DAV:  14    -0.124096303149E+03   -0.21964E-05   -0.14174E-07 10464   0.111E-03    0.169E-04
DAV:  15    -0.124096304411E+03   -0.12621E-05   -0.94842E-08 10992   0.755E-04    0.719E-05
DAV:  16    -0.124096304656E+03   -0.24500E-06   -0.19311E-08 11760   0.435E-04
  24 F= -.12563719E+03 E0= -.12563418E+03  d E =-.408316E-01  mag=     0.0000
 curvature: ****** expect dE=-0.348E+02 dE for cont linesearch -0.314E-01
 ZBRENT: increasing intervall
 opt :   0.7197  next Energy=  -125.693598 (dE=-0.972E-01)
 bond charge predicted
       N       E                     dE             d eps       ncg     rms          rms(c)
DAV:   1    -0.123668944065E+03    0.42736E+00   -0.16510E+03  8256   0.147E+02    0.689E+00
DAV:   2    -0.124398473263E+03   -0.72953E+00   -0.27765E+01  8736   0.220E+01    0.456E+00
DAV:   3    -0.124100333272E+03    0.29814E+00   -0.17350E+00 15168   0.462E+00    0.196E+00
DAV:   4    -0.124080613244E+03    0.19720E-01   -0.21363E-01 13536   0.170E+00    0.506E-01
DAV:   5    -0.124076907405E+03    0.37058E-02   -0.24866E-02 12864   0.447E-01    0.940E-02
DAV:   6    -0.124076564601E+03    0.34280E-03   -0.11313E-03 15744   0.105E-01    0.515E-02
DAV:   7    -0.124076776097E+03   -0.21150E-03   -0.82101E-04  9792   0.819E-02    0.243E-02
DAV:   8    -0.124076996668E+03   -0.22057E-03   -0.11779E-04  9984   0.275E-02    0.151E-02
DAV:   9    -0.124077179935E+03   -0.18327E-03   -0.76855E-05 10560   0.227E-02    0.112E-02
DAV:  10    -0.124077238614E+03   -0.58679E-04   -0.12468E-05 12720   0.790E-03    0.853E-03
DAV:  11    -0.124077289343E+03   -0.50729E-04   -0.19725E-05 10272   0.103E-02    0.268E-03
DAV:  12    -0.124077308737E+03   -0.19394E-04   -0.31726E-06 13152   0.469E-03    0.147E-03
DAV:  13    -0.124077315881E+03   -0.71441E-05   -0.64441E-07 13488   0.192E-03    0.106E-03
DAV:  14    -0.124077318713E+03   -0.28318E-05   -0.12178E-07 11616   0.883E-04    0.463E-04
DAV:  15    -0.124077320772E+03   -0.20596E-05   -0.12297E-07 10656   0.748E-04    0.154E-04
DAV:  16    -0.124077321214E+03   -0.44155E-06   -0.12190E-08 12912   0.223E-04
  25 F= -.12569476E+03 E0= -.12569137E+03  d E =-.983926E-01  mag=    -0.0000
 curvature: ****** expect dE=-0.944E+02 dE for cont linesearch -0.103E+00
 ZBRENT: increasing intervall
 opt :   1.4396  next Energy=  -125.859812 (dE=-0.263E+00)
 bond charge predicted
       N       E                     dE             d eps       ncg     rms          rms(c)
DAV:   1    -0.118666080133E+03    0.54112E+01   -0.51713E+03  8640   0.238E+02    0.155E+01
DAV:   2    -0.125238345165E+03   -0.65723E+01   -0.12940E+02  8352   0.480E+01    0.908E+00
DAV:   3    -0.124306927947E+03    0.93142E+00   -0.39904E+00 16224   0.765E+00    0.620E+00
DAV:   4    -0.123822393160E+03    0.48453E+00   -0.24155E+00 11520   0.493E+00    0.836E-01
DAV:   5    -0.123828362062E+03   -0.59689E-02   -0.98294E-02 13344   0.118E+00    0.487E-01
DAV:   6    -0.123822786760E+03    0.55753E-02   -0.26665E-02 14400   0.483E-01    0.103E-01
DAV:   7    -0.123821868090E+03    0.91867E-03   -0.27571E-03 14880   0.169E-01    0.503E-02
DAV:   8    -0.123822026775E+03   -0.15868E-03   -0.96814E-04 12768   0.836E-02    0.271E-02
DAV:   9    -0.123822208367E+03   -0.18159E-03   -0.23401E-04 13632   0.392E-02    0.161E-02
DAV:  10    -0.123822342027E+03   -0.13366E-03   -0.11317E-04 10656   0.263E-02    0.159E-02
DAV:  11    -0.123822378876E+03   -0.36849E-04   -0.16578E-05 13344   0.951E-03    0.973E-03
DAV:  12    -0.123822402845E+03   -0.23969E-04   -0.18257E-05 11568   0.109E-02    0.590E-03
DAV:  13    -0.123822412319E+03   -0.94737E-05   -0.31192E-06 13776   0.476E-03    0.320E-03
DAV:  14    -0.123822418916E+03   -0.65977E-05   -0.12668E-06 12336   0.311E-03    0.995E-04
DAV:  15    -0.123822421419E+03   -0.25030E-05   -0.20299E-07 13872   0.119E-03    0.847E-04
DAV:  16    -0.123822423097E+03   -0.16778E-05   -0.14134E-07 12240   0.841E-04    0.271E-04
DAV:  17    -0.123822424076E+03   -0.97917E-06   -0.60038E-08 12528   0.464E-04
  26 F= -.12572075E+03 E0= -.12571932E+03  d E =-.124387E+00  mag=     0.0000
 curvature: ****** expect dE=-0.319E+03 dE for cont linesearch -0.142E+01
 ZBRENT: bracketing found
 ZBRENT: interpolating
 opt :   0.9028  next Energy=  -125.711422 (dE=-0.115E+00)
 bond charge predicted
       N       E                     dE             d eps       ncg     rms          rms(c)
DAV:   1    -0.121893851576E+03    0.19286E+01   -0.33018E+03  8256   0.202E+02    0.104E+01
DAV:   2    -0.124830442525E+03   -0.29366E+01   -0.69573E+01  8256   0.360E+01    0.682E+00
DAV:   3    -0.124217436878E+03    0.61301E+00   -0.28258E+00 15744   0.615E+00    0.389E+00
DAV:   4    -0.124060633728E+03    0.15680E+00   -0.94452E-01 14400   0.323E+00    0.731E-01
DAV:   5    -0.124058892811E+03    0.17409E-02   -0.52974E-02 12192   0.809E-01    0.263E-01
DAV:   6    -0.124056879882E+03    0.20129E-02   -0.11692E-02 14592   0.297E-01    0.908E-02
DAV:   7    -0.124056566208E+03    0.31367E-03   -0.12998E-03 10848   0.122E-01    0.391E-02
DAV:   8    -0.124056617058E+03   -0.50850E-04   -0.22719E-04 12288   0.476E-02    0.304E-02
DAV:   9    -0.124056748983E+03   -0.13193E-03   -0.96439E-05 10368   0.255E-02    0.147E-02
DAV:  10    -0.124056920122E+03   -0.17114E-03   -0.36253E-05 13440   0.158E-02    0.148E-02
DAV:  11    -0.124057180529E+03   -0.26041E-03   -0.22287E-05 12576   0.125E-02    0.564E-03
DAV:  12    -0.124057286479E+03   -0.10595E-03   -0.52735E-06 13440   0.662E-03    0.263E-03
DAV:  13    -0.124057335867E+03   -0.49388E-04   -0.12071E-06 11856   0.356E-03    0.211E-03
DAV:  14    -0.124057349070E+03   -0.13203E-04   -0.22548E-07 14160   0.145E-03    0.888E-04
DAV:  15    -0.124057357703E+03   -0.86325E-05   -0.25503E-07 12432   0.117E-03    0.535E-04
DAV:  16    -0.124057359012E+03   -0.13094E-05   -0.39878E-08 13632   0.483E-04    0.289E-04
DAV:  17    -0.124057359554E+03   -0.54147E-06   -0.28177E-08 11760   0.366E-04
  27 F= -.12572869E+03 E0= -.12572514E+03  d E =-.132327E+00  mag=     0.0000
 curvature:  -8.35 expect dE=-0.217E+01 dE for cont linesearch -0.196E-02
 ZBRENT: bisectioning
 opt :   1.1712  next Energy=  -125.777898 (dE=-0.182E+00)
 bond charge predicted
       N       E                     dE             d eps       ncg     rms          rms(c)
DAV:   1    -0.123951329366E+03    0.10603E+00   -0.95189E+02  8256   0.113E+02    0.524E+00
DAV:   2    -0.124164142662E+03   -0.21281E+00   -0.14180E+01  9312   0.155E+01    0.342E+00
DAV:   3    -0.123998521971E+03    0.16562E+00   -0.10397E+00 15072   0.355E+00    0.127E+00
DAV:   4    -0.123996256473E+03    0.22655E-02   -0.10338E-01 13920   0.119E+00    0.387E-01
DAV:   5    -0.123994326504E+03    0.19300E-02   -0.11499E-02 14496   0.288E-01    0.691E-02
DAV:   6    -0.123994060765E+03    0.26574E-03   -0.80976E-04 13680   0.858E-02    0.313E-02
DAV:   7    -0.123994227615E+03   -0.16685E-03   -0.33097E-04 12192   0.521E-02    0.179E-02
DAV:   8    -0.123994364919E+03   -0.13730E-03   -0.55670E-05 10368   0.180E-02    0.126E-02
DAV:   9    -0.123994492202E+03   -0.12728E-03   -0.42031E-05 11520   0.167E-02    0.658E-03
DAV:  10    -0.123994541683E+03   -0.49480E-04   -0.10480E-05 12384   0.696E-03    0.561E-03
DAV:  11    -0.123994571538E+03   -0.29856E-04   -0.95305E-06 11328   0.654E-03    0.221E-03
DAV:  12    -0.123994582911E+03   -0.11373E-04   -0.18293E-06 14112   0.330E-03    0.121E-03
DAV:  13    -0.123994587800E+03   -0.48891E-05   -0.52328E-07 13248   0.189E-03    0.643E-04
DAV:  14    -0.123994589468E+03   -0.16680E-05   -0.11504E-07 13680   0.120E-03    0.340E-04
DAV:  15    -0.123994590343E+03   -0.87468E-06   -0.53977E-08 13536   0.751E-04
  28 F= -.12576676E+03 E0= -.12576377E+03  d E =-.170398E+00  mag=    -0.0000
 curvature: ****** expect dE=-0.723E+02 dE for cont linesearch -0.558E-02
 ZBRENT: interpolating
 opt :   1.2798  next Energy=  -125.770785 (dE=-0.174E+00)
 bond charge predicted
       N       E                     dE             d eps       ncg     rms          rms(c)
DAV:   1    -0.123977604960E+03    0.16985E-01   -0.16216E+02  8256   0.472E+01    0.219E+00
DAV:   2    -0.123971867450E+03    0.57375E-02   -0.20028E+00 11040   0.562E+00    0.137E+00
DAV:   3    -0.123945695238E+03    0.26172E-01   -0.20104E-01 15360   0.151E+00    0.385E-01
DAV:   4    -0.123945800598E+03   -0.10536E-03   -0.19042E-02 13920   0.488E-01    0.150E-01
DAV:   5    -0.123945486852E+03    0.31375E-03   -0.12122E-03 15456   0.103E-01    0.301E-02
DAV:   6    -0.123945446424E+03    0.40428E-04   -0.18855E-04 11712   0.403E-02    0.138E-02
DAV:   7    -0.123945495900E+03   -0.49476E-04   -0.57532E-05 12192   0.229E-02    0.728E-03
DAV:   8    -0.123945541140E+03   -0.45241E-04   -0.11830E-05 11136   0.919E-03    0.542E-03
DAV:   9    -0.123945585649E+03   -0.44508E-04   -0.96122E-06 13200   0.865E-03    0.246E-03
DAV:  10    -0.123945601224E+03   -0.15575E-04   -0.29823E-06 13008   0.558E-03    0.189E-03
DAV:  11    -0.123945613782E+03   -0.12558E-04   -0.23296E-06 13104   0.380E-03    0.935E-04
DAV:  12    -0.123945618400E+03   -0.46179E-05   -0.71428E-07 14208   0.258E-03    0.523E-04
DAV:  13    -0.123945619947E+03   -0.15474E-05   -0.27427E-07 13584   0.224E-03    0.289E-04
DAV:  14    -0.123945620875E+03   -0.92789E-06   -0.15546E-07 13536   0.153E-03
  29 F= -.12576607E+03 E0= -.12576375E+03  d E =-.169712E+00  mag=    -0.0000
 curvature: ****** expect dE=-0.581E+02 dE for cont linesearch -0.842E-02
 ZBRENT:  can not reach accuracy
 opt :   0.0000  next Energy=     0.000000 (dE= 0.126E+03)
 bond charge predicted
       N       E                     dE             d eps       ncg     rms          rms(c)
DAV:   1    -0.118838387163E+03    0.51072E+01   -0.10604E+04 12384   0.280E+02    0.209E+01
DAV:   2    -0.127579467628E+03   -0.87411E+01   -0.20625E+02  9264   0.591E+01    0.122E+01
DAV:   3    -0.125063166502E+03    0.25163E+01   -0.53323E+00 15216   0.892E+00    0.818E+00
DAV:   4    -0.124086290514E+03    0.97688E+00   -0.70479E+00 13584   0.772E+00    0.103E+00
DAV:   5    -0.124095808999E+03   -0.95185E-02   -0.15891E-01 11040   0.150E+00    0.618E-01
DAV:   6    -0.124103005566E+03   -0.71966E-02   -0.43117E-02 14688   0.712E-01    0.166E-01
DAV:   7    -0.124102470680E+03    0.53489E-03   -0.37786E-03 12624   0.232E-01    0.663E-02
DAV:   8    -0.124102154388E+03    0.31629E-03   -0.15250E-03 12432   0.103E-01    0.606E-02
DAV:   9    -0.124102351415E+03   -0.19703E-03   -0.14745E-04 10176   0.301E-02    0.367E-02
DAV:  10    -0.124103076588E+03   -0.72517E-03   -0.48621E-04 10464   0.599E-02    0.286E-02
DAV:  11    -0.124103497318E+03   -0.42073E-03   -0.44043E-05 11328   0.208E-02    0.167E-02
DAV:  12    -0.124103712326E+03   -0.21501E-03   -0.13152E-05 10608   0.141E-02    0.519E-03
DAV:  13    -0.124103760618E+03   -0.48292E-04   -0.49494E-06 11664   0.710E-03    0.724E-03
DAV:  14    -0.124103770176E+03   -0.95580E-05   -0.74646E-07 12336   0.265E-03    0.247E-03
DAV:  15    -0.124103776251E+03   -0.60753E-05   -0.47034E-07 11376   0.205E-03    0.429E-04
DAV:  16    -0.124103777521E+03   -0.12694E-05   -0.10708E-07 12192   0.122E-03    0.403E-04
DAV:  17    -0.124103778155E+03   -0.63458E-06   -0.49125E-08 11472   0.626E-04
  30 F= -.12559636E+03 E0= -.12559345E+03  d E =0.160787E-06  mag=    -0.0000
 curvature:   0.00 expect dE= 0.000E+00 dE for cont linesearch  0.000E+00
 -----------------------------------------------------------------------------
|                                                                             |
|     EEEEEEE  RRRRRR   RRRRRR   OOOOOOO  RRRRRR      ###     ###     ###     |
|     E        R     R  R     R  O     O  R     R     ###     ###     ###     |
|     E        R     R  R     R  O     O  R     R     ###     ###     ###     |
|     EEEEE    RRRRRR   RRRRRR   O     O  RRRRRR       #       #       #      |
|     E        R   R    R   R    O     O  R   R                               |
|     E        R    R   R    R   O     O  R    R      ###     ###     ###     |
|     EEEEEEE  R     R  R     R  OOOOOOO  R     R     ###     ###     ###     |
|                                                                             |
|     ZBRENT: fatal error in bracketing                                       |
|      please rerun with smaller EDIFF, or copy CONTCAR                       |
|      to POSCAR and continue                                                 |
|                                                                             |
|       ---->  I REFUSE TO CONTINUE WITH THIS SICK JOB ... BYE!!! <----       |
|                                                                             |
 -----------------------------------------------------------------------------

