Lattice                                 
           1
     4.347448    2.510000    0.000000
    -4.347448    2.510000    0.000000
     0.000000    0.000000   15.000000
   B    C 
     8     8
Direct configuration=     1
   0.66888689  0.00000000  0.10000000
   0.33111211  0.00000000  0.10000000
   0.00000000  0.33111211  0.10000000
   0.00000000  0.66888689  0.10000000
   0.33111211  0.33111211  0.10000000
   0.66888689  0.66888689  0.10000000
   0.66666600  0.33333300  0.09922189
   0.33333300  0.66666600  0.10077811
   0.24999933  0.24999967  0.46906667
   0.41666633  0.08333267  0.46906667
   0.24999933  0.74999967  0.46906667
   0.41666633  0.58333267  0.46906667
   0.74999933  0.24999967  0.46906667
   0.91666633  0.08333267  0.46906667
   0.74999933  0.74999967  0.46906667
   0.91666633  0.58333267  0.46906667
Direct configuration=     2
   0.66957273 -0.00000017  0.10002611
   0.33042640 -0.00000018  0.10002619
   0.00000017  0.33042627  0.10002611
   0.00000018  0.66957260  0.10002619
   0.33042608  0.33042604  0.10002621
   0.66957296  0.66957292  0.10002621
   0.66666607  0.33333293  0.09925523
   0.33333255  0.66666645  0.10080441
   0.24999515  0.24999501  0.46903986
   0.41666307  0.08333418  0.46903931
   0.24999891  0.75000009  0.46903891
   0.41666708  0.58333192  0.46903955
   0.75000216  0.24999684  0.46903968
   0.91666735  0.08333165  0.46904022
   0.75000399  0.75000385  0.46903986
   0.91666482  0.58333593  0.46903931
Direct configuration=     3
   0.66927696 -0.00000010  0.10001485
   0.33072211 -0.00000010  0.10001490
   0.00000010  0.33072204  0.10001485
   0.00000010  0.66927689  0.10001490
   0.33072193  0.33072191  0.10001490
   0.66927709  0.66927707  0.10001490
   0.66666604  0.33333296  0.09924085
   0.33333275  0.66666625  0.10079307
   0.24999696  0.24999702  0.46905142
   0.41666448  0.08333353  0.46905110
   0.24999909  0.74999991  0.46905088
   0.41666676  0.58333224  0.46905124
   0.75000094  0.24999806  0.46905132
   0.91666691  0.08333209  0.46905162
   0.75000198  0.75000204  0.46905142
   0.91666547  0.58333452  0.46905110
Direct configuration=     4
   0.66927713 -0.00000012  0.10003967
   0.33072211 -0.00000007  0.10003980
   0.00000012  0.33072187  0.10003967
   0.00000007  0.66927689  0.10003980
   0.33072196  0.33072190  0.10003982
   0.66927710  0.66927704  0.10003982
   0.66666600  0.33333300  0.09927359
   0.33333272  0.66666628  0.10081637
   0.25000001  0.25000116  0.46902595
   0.41666737  0.08333178  0.46902524
   0.24999899  0.75000001  0.46902476
   0.41666640  0.58333260  0.46902555
   0.74999816  0.25000084  0.46902573
   0.91666645  0.08333255  0.46902639
   0.74999784  0.74999899  0.46902595
   0.91666722  0.58333163  0.46902524
