Lattice                                 
           1
     4.364768    2.520000    0.000000
    -4.364768    2.520000    0.000000
     0.000000    0.000000   15.000000
   B    C 
     8     8
Direct configuration=     1
   0.66888689  0.00000000  0.10000000
   0.33111211  0.00000000  0.10000000
   0.00000000  0.33111211  0.10000000
   0.00000000  0.66888689  0.10000000
   0.33111211  0.33111211  0.10000000
   0.66888689  0.66888689  0.10000000
   0.66666600  0.33333300  0.09922189
   0.33333300  0.66666600  0.10077811
   0.33333267  0.16666633  0.47060000
   0.49999967  0.99999933  0.47060000
   0.33333267  0.66666633  0.47060000
   0.49999967  0.49999933  0.47060000
   0.83333267  0.16666633  0.47060000
   0.99999967  0.99999933  0.47060000
   0.83333267  0.66666633  0.47060000
   0.99999967  0.49999933  0.47060000
Direct configuration=     2
   0.66910803 -0.00000007  0.10002505
   0.33089091 -0.00000007  0.10002505
   0.00000007  0.33089097  0.10002505
   0.00000007  0.66910809  0.10002505
   0.33089091  0.33089097  0.10002505
   0.66910803  0.66910809  0.10002505
   0.66666600  0.33333300  0.09925881
   0.33333300  0.66666600  0.10079902
   0.33332683  0.16666341  0.47057425
   0.50000088  0.00000175  0.47057373
   0.33333267  0.66666633  0.47057306
   0.50000088  0.49999812  0.47057373
   0.83333559  0.16666341  0.47057425
   0.99999967  0.99999933  0.47057485
   0.83333559  0.66667217  0.47057425
   0.99999725  0.49999812  0.47057373
Direct configuration=     3
   0.66905608 -0.00000005  0.10001916
   0.33094287 -0.00000005  0.10001916
   0.00000005  0.33094292  0.10001916
   0.00000005  0.66905613  0.10001916
   0.33094287  0.33094292  0.10001916
   0.66905608  0.66905613  0.10001916
   0.66666600  0.33333300  0.09925013
   0.33333300  0.66666600  0.10079411
   0.33332820  0.16666410  0.47058030
   0.50000059  0.00000118  0.47057990
   0.33333267  0.66666633  0.47057939
   0.50000059  0.49999841  0.47057990
   0.83333490  0.16666410  0.47058030
   0.99999967  0.99999933  0.47058076
   0.83333490  0.66667080  0.47058030
   0.99999782  0.49999841  0.47057990
Direct configuration=     4
   0.66905682 -0.00000005  0.10005132
   0.33094213 -0.00000005  0.10005132
   0.00000005  0.33094218  0.10005132
   0.00000005  0.66905687  0.10005132
   0.33094213  0.33094218  0.10005132
   0.66905682  0.66905687  0.10005132
   0.66666600  0.33333300  0.09929783
   0.33333300  0.66666600  0.10082022
   0.33333493  0.16666746  0.47054723
   0.49999903 -0.00000193  0.47054630
   0.33333267  0.66666633  0.47054523
   0.49999903  0.49999997  0.47054630
   0.83333154  0.16666746  0.47054723
   0.99999967  0.99999933  0.47054820
   0.83333154  0.66666407  0.47054723
   0.00000093  0.49999997  0.47054630
Direct configuration=     5
   0.66905904 -0.00000006  0.10014779
   0.33093990 -0.00000006  0.10014779
   0.00000006  0.33093996  0.10014779
   0.00000006  0.66905910  0.10014779
   0.33093990  0.33093996  0.10014779
   0.66905904  0.66905910  0.10014779
   0.66666600  0.33333300  0.09944091
   0.33333300  0.66666600  0.10089856
   0.33335511  0.16667756  0.47044801
   0.49999436 -0.00001127  0.47044550
   0.33333267  0.66666633  0.47044275
   0.49999436  0.50000464  0.47044550
   0.83332144  0.16667756  0.47044801
   0.99999967  0.99999933  0.47045053
   0.83332144  0.66664389  0.47044801
   0.00001027  0.50000464  0.47044550
Direct configuration=     6
   0.66906348 -0.00000008  0.10034073
   0.33093544 -0.00000008  0.10034073
   0.00000008  0.33093552  0.10034073
   0.00000008  0.66906356  0.10034073
   0.33093544  0.33093552  0.10034073
   0.66906348  0.66906356  0.10034073
   0.66666600  0.33333300  0.09972708
   0.33333300  0.66666600  0.10105524
   0.33339548  0.16669774  0.47024956
   0.49998502 -0.00002996  0.47024389
   0.33333267  0.66666633  0.47023778
   0.49998502  0.50001398  0.47024389
   0.83330126  0.16669774  0.47024956
   0.99999967  0.99999933  0.47025519
   0.83330126  0.66660352  0.47024956
   0.00002896  0.50001398  0.47024389
Direct configuration=     7
   0.66907236 -0.00000011  0.10072660
   0.33092653 -0.00000011  0.10072660
   0.00000011  0.33092664  0.10072660
   0.00000011  0.66907247  0.10072660
   0.33092653  0.33092664  0.10072660
   0.66907236  0.66907247  0.10072660
   0.66666600  0.33333300  0.10029941
   0.33333300  0.66666600  0.10136860
   0.33347622  0.16673811  0.46985268
   0.49996634 -0.00006732  0.46984067
   0.33333267  0.66666633  0.46982785
   0.49996634  0.50003266  0.46984067
   0.83326089  0.16673811  0.46985268
   0.99999967  0.99999933  0.46986450
   0.83326089  0.66652278  0.46985268
   0.00006632  0.50003266  0.46984067
Direct configuration=     8
   0.66909012 -0.00000018  0.10149834
   0.33090870 -0.00000018  0.10149834
   0.00000018  0.33090888  0.10149834
   0.00000018  0.66909030  0.10149834
   0.33090870  0.33090888  0.10149834
   0.66909012  0.66909030  0.10149834
   0.66666600  0.33333300  0.10144408
   0.33333300  0.66666600  0.10199532
   0.33363770  0.16681885  0.46905891
   0.49992897 -0.00014206  0.46903424
   0.33333267  0.66666633  0.46900798
   0.49992897  0.50007003  0.46903424
   0.83318015  0.16681885  0.46905891
   0.99999967  0.99999933  0.46908312
   0.83318015  0.66636130  0.46905891
   0.00014106  0.50007003  0.46903424
Direct configuration=     9
   0.66912565 -0.00000031  0.10304183
   0.33087304 -0.00000031  0.10304183
   0.00000031  0.33087335  0.10304183
   0.00000031  0.66912596  0.10304183
   0.33087304  0.33087335  0.10304183
   0.66912565  0.66912596  0.10304183
   0.66666600  0.33333300  0.10373341
   0.33333300  0.66666600  0.10324876
   0.33396065  0.16698033  0.46747136
   0.49985424 -0.00029153  0.46742137
   0.33333267  0.66666633  0.46736826
   0.49985424  0.50014476  0.46742137
   0.83301867  0.16698033  0.46747136
   0.99999967  0.99999933  0.46752037
   0.83301867  0.66603835  0.46747136
   0.00029053  0.50014476  0.46742137
Direct configuration=    10
   0.66919670 -0.00000057  0.10612881
   0.33080173 -0.00000057  0.10612881
   0.00000057  0.33080230  0.10612881
   0.00000057  0.66919727  0.10612881
   0.33080173  0.33080230  0.10612881
   0.66919670  0.66919727  0.10612881
   0.66666600  0.33333300  0.10831207
   0.33333300  0.66666600  0.10575564
   0.33460656  0.16730328  0.46429627
   0.49970477 -0.00059047  0.46419564
   0.33333267  0.66666633  0.46408881
   0.49970477  0.50029423  0.46419564
   0.83269572  0.16730328  0.46429627
   0.99999967  0.99999933  0.46439487
   0.83269572  0.66539244  0.46429627
   0.00058947  0.50029423  0.46419564
Direct configuration=    11
   0.66933881 -0.00000109  0.11230277
   0.33065910 -0.00000109  0.11230277
   0.00000109  0.33066019  0.11230277
   0.00000109  0.66933990  0.11230277
   0.33065910  0.33066019  0.11230277
   0.66933881  0.66933990  0.11230277
   0.66666600  0.33333300  0.11746939
   0.33333300  0.66666600  0.11076939
   0.33589839  0.16794919  0.45794610
   0.49940583 -0.00118835  0.45774418
   0.33333267  0.66666633  0.45752990
   0.49940583  0.50059317  0.45774418
   0.83204981  0.16794919  0.45794610
   0.99999967  0.99999933  0.45814386
   0.83204981  0.66410061  0.45794610
   0.00118735  0.50059317  0.45774418
Direct configuration=    12
   0.66933883 -0.00000109  0.11230436
   0.33065908 -0.00000109  0.11230436
   0.00000109  0.33066017  0.11230436
   0.00000109  0.66933992  0.11230436
   0.33065908  0.33066017  0.11230436
   0.66933883  0.66933992  0.11230436
   0.66666600  0.33333300  0.11747173
   0.33333300  0.66666600  0.11077067
   0.33589846  0.16794923  0.45794447
   0.49940581 -0.00118838  0.45774253
   0.33333267  0.66666633  0.45752822
   0.49940581  0.50059319  0.45774253
   0.83204977  0.16794923  0.45794447
   0.99999967  0.99999933  0.45814226
   0.83204977  0.66410054  0.45794447
   0.00118738  0.50059319  0.45774253
Direct configuration=    13
   0.66933889 -0.00000107  0.11230910
   0.33065904 -0.00000107  0.11230910
   0.00000107  0.33066011  0.11230910
   0.00000107  0.66933996  0.11230910
   0.33065904  0.33066011  0.11230910
   0.66933889  0.66933996  0.11230910
   0.66666600  0.33333300  0.11747875
   0.33333300  0.66666600  0.11077451
   0.33589869  0.16794935  0.45793959
   0.49940577 -0.00118846  0.45773758
   0.33333267  0.66666633  0.45752320
   0.49940577  0.50059323  0.45773758
   0.83204965  0.16794935  0.45793959
   0.99999967  0.99999933  0.45813744
   0.83204965  0.66410031  0.45793959
   0.00118746  0.50059323  0.45773758
Direct configuration=    14
   0.66933900 -0.00000104  0.11231860
   0.33065896 -0.00000104  0.11231860
   0.00000104  0.33066000  0.11231860
   0.00000104  0.66934004  0.11231860
   0.33065896  0.33066000  0.11231860
   0.66933900  0.66934004  0.11231860
   0.66666600  0.33333300  0.11749278
   0.33333300  0.66666600  0.11078220
   0.33589915  0.16794958  0.45792982
   0.49940569 -0.00118863  0.45772767
   0.33333267  0.66666633  0.45751315
   0.49940569  0.50059331  0.45772767
   0.83204942  0.16794958  0.45792982
   0.99999967  0.99999933  0.45812781
   0.83204942  0.66409985  0.45792982
   0.00118763  0.50059331  0.45772767
Direct configuration=    15
   0.66933923 -0.00000098  0.11233759
   0.33065880 -0.00000098  0.11233759
   0.00000098  0.33065977  0.11233759
   0.00000098  0.66934020  0.11233759
   0.33065880  0.33065977  0.11233759
   0.66933923  0.66934020  0.11233759
   0.66666600  0.33333300  0.11752084
   0.33333300  0.66666600  0.11079757
   0.33590007  0.16795004  0.45791029
   0.49940552 -0.00118896  0.45770786
   0.33333267  0.66666633  0.45749305
   0.49940552  0.50059348  0.45770786
   0.83204896  0.16795004  0.45791029
   0.99999967  0.99999933  0.45810855
   0.83204896  0.66409893  0.45791029
   0.00118796  0.50059348  0.45770786
Direct configuration=    16
   0.66933968 -0.00000085  0.11237557
   0.33065847 -0.00000085  0.11237557
   0.00000085  0.33065932  0.11237557
   0.00000085  0.66934053  0.11237557
   0.33065847  0.33065932  0.11237557
   0.66933968  0.66934053  0.11237557
   0.66666600  0.33333300  0.11757697
   0.33333300  0.66666600  0.11082832
   0.33590191  0.16795095  0.45787122
   0.49940519 -0.00118963  0.45766825
   0.33333267  0.66666633  0.45745286
   0.49940519  0.50059381  0.45766825
   0.83204805  0.16795095  0.45787122
   0.99999967  0.99999933  0.45807002
   0.83204805  0.66409709  0.45787122
   0.00118863  0.50059381  0.45766825
Direct configuration=    17
   0.66934058 -0.00000060  0.11245153
   0.33065782 -0.00000060  0.11245153
   0.00000060  0.33065842  0.11245153
   0.00000060  0.66934118  0.11245153
   0.33065782  0.33065842  0.11245153
   0.66934058  0.66934118  0.11245153
   0.66666600  0.33333300  0.11768922
   0.33333300  0.66666600  0.11088982
   0.33590559  0.16795279  0.45779310
   0.49940452 -0.00119096  0.45758902
   0.33333267  0.66666633  0.45737246
   0.49940452  0.50059448  0.45758902
   0.83204621  0.16795279  0.45779310
   0.99999967  0.99999933  0.45799297
   0.83204621  0.66409341  0.45779310
   0.00118996  0.50059448  0.45758902
Direct configuration=    18
   0.66934239 -0.00000010  0.11260346
   0.33065651 -0.00000010  0.11260346
   0.00000010  0.33065661  0.11260346
   0.00000010  0.66934249  0.11260346
   0.33065651  0.33065661  0.11260346
   0.66934239  0.66934249  0.11260346
   0.66666600  0.33333300  0.11791371
   0.33333300  0.66666600  0.11101281
   0.33591294  0.16795647  0.45763684
   0.49940318 -0.00119363  0.45743055
   0.33333267  0.66666633  0.45721167
   0.49940318  0.50059582  0.45743055
   0.83204253  0.16795647  0.45763684
   0.99999967  0.99999933  0.45783886
   0.83204253  0.66408606  0.45763684
   0.00119263  0.50059582  0.45743055
Direct configuration=    19
   0.66934601  0.00000091  0.11290731
   0.33065390  0.00000091  0.11290731
  -0.00000091  0.33065299  0.11290731
  -0.00000091  0.66934510  0.11290731
   0.33065390  0.33065299  0.11290731
   0.66934601  0.66934510  0.11290731
   0.66666600  0.33333300  0.11836271
   0.33333300  0.66666600  0.11125879
   0.33592764  0.16796382  0.45732434
   0.49940052 -0.00119897  0.45711363
   0.33333267  0.66666633  0.45689010
   0.49940052  0.50059848  0.45711363
   0.83203518  0.16796382  0.45732434
   0.99999967  0.99999933  0.45753065
   0.83203518  0.66407136  0.45732434
   0.00119797  0.50059848  0.45711363
Direct configuration=    20
   0.66935324  0.00000292  0.11351501
   0.33064868  0.00000292  0.11351501
  -0.00000292  0.33064576  0.11351501
  -0.00000292  0.66935032  0.11351501
   0.33064868  0.33064576  0.11351501
   0.66935324  0.66935032  0.11351501
   0.66666600  0.33333300  0.11926071
   0.33333300  0.66666600  0.11175076
   0.33595705  0.16797853  0.45669932
   0.49939518 -0.00120964  0.45647977
   0.33333267  0.66666633  0.45624695
   0.49939518  0.50060382  0.45647977
   0.83202047  0.16797853  0.45669932
   0.99999967  0.99999933  0.45691422
   0.83202047  0.66404195  0.45669932
   0.00120864  0.50060382  0.45647977
Direct configuration=    21
   0.66936771  0.00000694  0.11473042
   0.33063823  0.00000694  0.11473042
  -0.00000694  0.33063129  0.11473042
  -0.00000694  0.66936077  0.11473042
   0.33063823  0.33063129  0.11473042
   0.66936771  0.66936077  0.11473042
   0.66666600  0.33333300  0.12105671
   0.33333300  0.66666600  0.11273469
   0.33601587  0.16800794  0.45544929
   0.49938450 -0.00123099  0.45521206
   0.33333267  0.66666633  0.45496065
   0.49938450  0.50061450  0.45521206
   0.83199106  0.16800794  0.45544929
   0.99999967  0.99999933  0.45568137
   0.83199106  0.66398313  0.45544929
   0.00122999  0.50061450  0.45521206
Direct configuration=    22
   0.66939665  0.00001498  0.11716123
   0.33061733  0.00001498  0.11716123
  -0.00001498  0.33060235  0.11716123
  -0.00001498  0.66938167  0.11716123
   0.33061733  0.33060235  0.11716123
   0.66939665  0.66938167  0.11716123
   0.66666600  0.33333300  0.12464870
   0.33333300  0.66666600  0.11470256
   0.33613352  0.16806676  0.45294923
   0.49936315 -0.00127370  0.45267665
   0.33333267  0.66666633  0.45238804
   0.49936315  0.50063585  0.45267665
   0.83193224  0.16806676  0.45294923
   0.99999967  0.99999933  0.45321567
   0.83193224  0.66386548  0.45294923
   0.00127270  0.50063585  0.45267665
Direct configuration=    23
   0.66945452  0.00003106  0.12202285
   0.33057554  0.00003106  0.12202285
  -0.00003106  0.33054448  0.12202285
  -0.00003106  0.66942346  0.12202285
   0.33057554  0.33054448  0.12202285
   0.66945452  0.66942346  0.12202285
   0.66666600  0.33333300  0.13183269
   0.33333300  0.66666600  0.11863830
   0.33636880  0.16818440  0.44794912
   0.49932045 -0.00135910  0.44760581
   0.33333267  0.66666633  0.44724283
   0.49932045  0.50067855  0.44760581
   0.83181460  0.16818440  0.44794912
   0.99999967  0.99999933  0.44828426
   0.83181460  0.66363020  0.44794912
   0.00135810  0.50067855  0.44760581
Direct configuration=    24
   0.66957027  0.00006322  0.13174610
   0.33049195  0.00006322  0.13174610
  -0.00006322  0.33042873  0.13174610
  -0.00006322  0.66950705  0.13174610
   0.33049195  0.33042873  0.13174610
   0.66957027  0.66950705  0.13174610
   0.66666600  0.33333300  0.14620066
   0.33333300  0.66666600  0.12650977
   0.33683937  0.16841968  0.43794888
   0.49923505 -0.00152991  0.43746415
   0.33333267  0.66666633  0.43695242
   0.49923505  0.50076395  0.43746415
   0.83157932  0.16841968  0.43794888
   0.99999967  0.99999933  0.43842145
   0.83157932  0.66315963  0.43794888
   0.00152891  0.50076395  0.43746415
Direct configuration=    25
   0.66980177  0.00012755  0.15119260
   0.33032478  0.00012755  0.15119260
  -0.00012755  0.33019723  0.15119260
  -0.00012755  0.66967422  0.15119260
   0.33032478  0.33019723  0.15119260
   0.66980177  0.66967422  0.15119260
   0.66666600  0.33333300  0.17493661
   0.33333300  0.66666600  0.14225272
   0.33778050  0.16889025  0.41794842
   0.49906424 -0.00187152  0.41718081
   0.33333267  0.66666633  0.41637158
   0.49906424  0.50093476  0.41718081
   0.83110875  0.16889025  0.41794842
   0.99999967  0.99999933  0.41869582
   0.83110875  0.66221850  0.41794842
   0.00187052  0.50093476  0.41718081
Direct configuration=    26
   0.66974713  0.00025710  0.15529691
   0.33050896  0.00025710  0.15529691
  -0.00025710  0.33025187  0.15529691
  -0.00025710  0.66949004  0.15529691
   0.33050896  0.33025187  0.15529691
   0.66974713  0.66949004  0.15529691
   0.66666600  0.33333300  0.18089886
   0.33333300  0.66666600  0.14555837
   0.33738753  0.16869376  0.41373484
   0.49916391 -0.00167218  0.41292286
   0.33333267  0.66666633  0.41206579
   0.49916391  0.50083509  0.41292286
   0.83130524  0.16869376  0.41373484
   0.99999967  0.99999933  0.41452240
   0.83130524  0.66261147  0.41373484
   0.00167118  0.50083509  0.41292286
Direct configuration=    27
   0.66971622  0.00033039  0.15761890
   0.33061316  0.00033039  0.15761890
  -0.00033039  0.33028278  0.15761890
  -0.00033039  0.66938584  0.15761890
   0.33061316  0.33028278  0.15761890
   0.66971622  0.66938584  0.15761890
   0.66666600  0.33333300  0.18427196
   0.33333300  0.66666600  0.14742852
   0.33716520  0.16858260  0.41135104
   0.49922030 -0.00155940  0.41051395
   0.33333267  0.66666633  0.40962982
   0.49922030  0.50077870  0.41051395
   0.83141640  0.16858260  0.41135104
   0.99999967  0.99999933  0.41216132
   0.83141640  0.66283380  0.41135104
   0.00155840  0.50077870  0.41051395
Direct configuration=    28
   0.66960784  0.00045381  0.15733326
   0.33084496  0.00045381  0.15733326
  -0.00045381  0.33039116  0.15733326
  -0.00045381  0.66915404  0.15733326
   0.33084496  0.33039116  0.15733326
   0.66960784  0.66915404  0.15733326
   0.66666600  0.33333300  0.18370931
   0.33333300  0.66666600  0.14718600
   0.33662622  0.16831311  0.41165580
   0.49933929 -0.00132142  0.41084055
   0.33333267  0.66666633  0.40997602
   0.49933929  0.50065971  0.41084055
   0.83168589  0.16831311  0.41165580
   0.99999967  0.99999933  0.41244009
   0.83168589  0.66337278  0.41165580
   0.00132042  0.50065971  0.41084055
Direct configuration=    29
   0.66928271  0.00082406  0.15647633
   0.33154036  0.00082406  0.15647633
  -0.00082406  0.33071629  0.15647633
  -0.00082406  0.66845864  0.15647633
   0.33154036  0.33071629  0.15647633
   0.66928271  0.66845864  0.15647633
   0.66666600  0.33333300  0.18202134
   0.33333300  0.66666600  0.14645844
   0.33500929  0.16750465  0.41257005
   0.49969626 -0.00060748  0.41182034
   0.33333267  0.66666633  0.41101464
   0.49969626  0.50030274  0.41182034
   0.83249435  0.16750465  0.41257005
   0.99999967  0.99999933  0.41327641
   0.83249435  0.66498971  0.41257005
   0.00060648  0.50030274  0.41182034
Direct configuration=    30
   0.66863243  0.00156458  0.15476248
   0.33293114  0.00156458  0.15476248
  -0.00156458  0.33136657  0.15476248
  -0.00156458  0.66706786  0.15476248
   0.33293114  0.33136657  0.15476248
   0.66863243  0.66706786  0.15476248
   0.66666600  0.33333300  0.17864539
   0.33333300  0.66666600  0.14500332
   0.33177543  0.16588772  0.41439857
   0.50041020  0.00082040  0.41377994
   0.33333267  0.66666633  0.41309188
   0.50041020  0.49958880  0.41377994
   0.83411128  0.16588772  0.41439857
   0.99999967  0.99999933  0.41494904
   0.83411128  0.66822357  0.41439857
  -0.00082140  0.49958880  0.41377994
Direct configuration=    31
   0.66880588  0.00136706  0.15521960
   0.33256018  0.00136706  0.15521960
  -0.00136706  0.33119312  0.15521960
  -0.00136706  0.66743882  0.15521960
   0.33256018  0.33119312  0.15521960
   0.66880588  0.66743882  0.15521960
   0.66666600  0.33333300  0.17954584
   0.33333300  0.66666600  0.14539144
   0.33263798  0.16631899  0.41391086
   0.50021977  0.00043955  0.41325726
   0.33333267  0.66666633  0.41253783
   0.50021977  0.49977923  0.41325726
   0.83368001  0.16631899  0.41391086
   0.99999967  0.99999933  0.41450290
   0.83368001  0.66736102  0.41391086
  -0.00044055  0.49977923  0.41325726
Direct configuration=    32
   0.66863408  0.00139428  0.15518788
   0.33275920  0.00139428  0.15518788
  -0.00139428  0.33136492  0.15518788
  -0.00139428  0.66723980  0.15518788
   0.33275920  0.33136492  0.15518788
   0.66863408  0.66723980  0.15518788
   0.66666600  0.33333300  0.17920280
   0.33333300  0.66666600  0.14533803
   0.33276364  0.16638182  0.41396367
   0.50016802  0.00033604  0.41335215
   0.33333267  0.66666633  0.41267302
   0.50016802  0.49983098  0.41335215
   0.83361718  0.16638182  0.41396367
   0.99999967  0.99999933  0.41451140
   0.83361718  0.66723536  0.41396367
  -0.00033704  0.49983098  0.41335215
Direct configuration=    33
   0.66811869  0.00147595  0.15509270
   0.33335625  0.00147595  0.15509270
  -0.00147595  0.33188031  0.15509270
  -0.00147595  0.66664275  0.15509270
   0.33335625  0.33188031  0.15509270
   0.66811869  0.66664275  0.15509270
   0.66666600  0.33333300  0.17817366
   0.33333300  0.66666600  0.14517783
   0.33314062  0.16657031  0.41412212
   0.50001276  0.00002552  0.41363681
   0.33333267  0.66666633  0.41307859
   0.50001276  0.49998624  0.41363681
   0.83342869  0.16657031  0.41412212
   0.99999967  0.99999933  0.41453689
   0.83342869  0.66685838  0.41412212
  -0.00002652  0.49998624  0.41363681
Direct configuration=    34
   0.66708792  0.00163928  0.15490235
   0.33455036  0.00163928  0.15490235
  -0.00163928  0.33291108  0.15490235
  -0.00163928  0.66544864  0.15490235
   0.33455036  0.33291108  0.15490235
   0.66708792  0.66544864  0.15490235
   0.66666600  0.33333300  0.17611538
   0.33333300  0.66666600  0.14485742
   0.33389457  0.16694729  0.41443902
   0.49970224 -0.00059551  0.41420614
   0.33333267  0.66666633  0.41388972
   0.49970224  0.50029676  0.41420614
   0.83305171  0.16694729  0.41443902
   0.99999967  0.99999933  0.41458786
   0.83305171  0.66610443  0.41443902
   0.00059451  0.50029676  0.41420614
Direct configuration=    35
   0.66704485  0.00145824  0.15488421
   0.33441239  0.00145824  0.15488421
  -0.00145824  0.33295415  0.15488421
  -0.00145824  0.66558661  0.15488421
   0.33441239  0.33295415  0.15488421
   0.66704485  0.66558661  0.15488421
   0.66666600  0.33333300  0.17531313
   0.33333300  0.66666600  0.14476558
   0.33381428  0.16690714  0.41451639
   0.49977722 -0.00044557  0.41438049
   0.33333267  0.66666633  0.41415871
   0.49977722  0.50022178  0.41438049
   0.83309186  0.16690714  0.41451639
   0.99999967  0.99999933  0.41456667
   0.83309186  0.66618472  0.41451639
   0.00044457  0.50022178  0.41438049
Direct configuration=    36
   0.66691562  0.00091512  0.15482977
   0.33399850  0.00091512  0.15482977
  -0.00091512  0.33308338  0.15482977
  -0.00091512  0.66600050  0.15482977
   0.33399850  0.33308338  0.15482977
   0.66691562  0.66600050  0.15482977
   0.66666600  0.33333300  0.17290639
   0.33333300  0.66666600  0.14449009
   0.33357341  0.16678671  0.41474851
   0.50000213  0.00000426  0.41490353
   0.33333267  0.66666633  0.41496568
   0.50000213  0.49999687  0.41490353
   0.83321229  0.16678671  0.41474851
   0.99999967  0.99999933  0.41450311
   0.83321229  0.66642559  0.41474851
  -0.00000526  0.49999687  0.41490353
Direct configuration=    37
   0.66665718 -0.00017112  0.15472090
   0.33317070 -0.00017112  0.15472090
   0.00017112  0.33334182  0.15472090
   0.00017112  0.66682830  0.15472090
   0.33317070  0.33334182  0.15472090
   0.66665718  0.66682830  0.15472090
   0.66666600  0.33333300  0.16809291
   0.33333300  0.66666600  0.14393909
   0.33309167  0.16654584  0.41521273
   0.50045196  0.00090392  0.41594960
   0.33333267  0.66666633  0.41657962
   0.50045196  0.49954704  0.41594960
   0.83345316  0.16654584  0.41521273
   0.99999967  0.99999933  0.41437597
   0.83345316  0.66690733  0.41521273
  -0.00090492  0.49954704  0.41594960
Direct configuration=    38
   0.66674763  0.00020905  0.15475900
   0.33346042  0.00020905  0.15475900
  -0.00020905  0.33325137  0.15475900
  -0.00020905  0.66653858  0.15475900
   0.33346042  0.33325137  0.15475900
   0.66674763  0.66653858  0.15475900
   0.66666600  0.33333300  0.16977757
   0.33333300  0.66666600  0.14413193
   0.33326028  0.16663014  0.41505026
   0.50029452  0.00058905  0.41558349
   0.33333267  0.66666633  0.41601476
   0.50029452  0.49970448  0.41558349
   0.83336886  0.16663014  0.41505026
   0.99999967  0.99999933  0.41442047
   0.83336886  0.66673872  0.41505026
  -0.00059005  0.49970448  0.41558349
Direct configuration=    39
   0.66764392  0.00020387  0.15480252
   0.33255896  0.00020387  0.15480252
  -0.00020387  0.33235508  0.15480252
  -0.00020387  0.66744004  0.15480252
   0.33255896  0.33235508  0.15480252
   0.66764392  0.66744004  0.15480252
   0.66666600  0.33333300  0.16910425
   0.33333300  0.66666600  0.14407033
   0.33332052  0.16666026  0.41512477
   0.49997537 -0.00004926  0.41562089
   0.33333267  0.66666633  0.41602721
   0.49997537  0.50002363  0.41562089
   0.83333874  0.16666026  0.41512477
   0.99999967  0.99999933  0.41454608
   0.83333874  0.66667848  0.41512477
   0.00004826  0.50002363  0.41562089
Direct configuration=    40
   0.66807131  0.00020140  0.15482328
   0.33212910  0.00020140  0.15482328
  -0.00020140  0.33192769  0.15482328
  -0.00020140  0.66786990  0.15482328
   0.33212910  0.33192769  0.15482328
   0.66807131  0.66786990  0.15482328
   0.66666600  0.33333300  0.16878317
   0.33333300  0.66666600  0.14404096
   0.33334925  0.16667463  0.41516031
   0.49982318 -0.00035363  0.41563872
   0.33333267  0.66666633  0.41603315
   0.49982318  0.50017582  0.41563872
   0.83332437  0.16667463  0.41516031
   0.99999967  0.99999933  0.41460598
   0.83332437  0.66664975  0.41516031
   0.00035263  0.50017582  0.41563872
Direct configuration=    41
   0.66825410  0.00022216  0.15488530
   0.33196706  0.00022216  0.15488530
  -0.00022216  0.33174490  0.15488530
  -0.00022216  0.66803194  0.15488530
   0.33196706  0.33174490  0.15488530
   0.66825410  0.66803194  0.15488530
   0.66666600  0.33333300  0.16851258
   0.33333300  0.66666600  0.14406697
   0.33332672  0.16666336  0.41519626
   0.50001456  0.00002912  0.41556437
   0.33333267  0.66666633  0.41586216
   0.50001456  0.49998444  0.41556437
   0.83333564  0.16666336  0.41519626
   0.99999967  0.99999933  0.41476457
   0.83333564  0.66667228  0.41519626
  -0.00003012  0.49998444  0.41556437
Direct configuration=    42
   0.66843739  0.00024298  0.15494750
   0.33180459  0.00024298  0.15494750
  -0.00024298  0.33156161  0.15494750
  -0.00024298  0.66819441  0.15494750
   0.33180459  0.33156161  0.15494750
   0.66843739  0.66819441  0.15494750
   0.66666600  0.33333300  0.16824125
   0.33333300  0.66666600  0.14409305
   0.33330412  0.16665206  0.41523232
   0.50020646  0.00041292  0.41548982
   0.33333267  0.66666633  0.41569069
   0.50020646  0.49979254  0.41548982
   0.83334694  0.16665206  0.41523232
   0.99999967  0.99999933  0.41492360
   0.83334694  0.66669488  0.41523232
  -0.00041392  0.49979254  0.41548982
Direct configuration=    43
   0.66837240  0.00020214  0.15501843
   0.33182874  0.00020214  0.15501843
  -0.00020214  0.33162660  0.15501843
  -0.00020214  0.66817026  0.15501843
   0.33182874  0.33162660  0.15501843
   0.66837240  0.66817026  0.15501843
   0.66666600  0.33333300  0.16799514
   0.33333300  0.66666600  0.14414772
   0.33332563  0.16666282  0.41525517
   0.50015484  0.00030969  0.41540405
   0.33333267  0.66666633  0.41550512
   0.50015484  0.49984416  0.41540405
   0.83333618  0.16666282  0.41525517
   0.99999967  0.99999933  0.41506375
   0.83333618  0.66667337  0.41525517
  -0.00031069  0.49984416  0.41540405
Direct configuration=    44
   0.66817741  0.00007961  0.15523123
   0.33190120  0.00007961  0.15523123
  -0.00007961  0.33182159  0.15523123
  -0.00007961  0.66809780  0.15523123
   0.33190120  0.33182159  0.15523123
   0.66817741  0.66809780  0.15523123
   0.66666600  0.33333300  0.16725679
   0.33333300  0.66666600  0.14431173
   0.33339017  0.16669508  0.41532374
   0.50000000  0.00000000  0.41514675
   0.33333267  0.66666633  0.41494842
   0.50000000  0.49999900  0.41514675
   0.83330392  0.16669508  0.41532374
   0.99999967  0.99999933  0.41548422
   0.83330392  0.66660883  0.41532374
  -0.00000100  0.49999900  0.41514675
Direct configuration=    45
   0.66813531  0.00005315  0.15527718
   0.33191684  0.00005315  0.15527718
  -0.00005315  0.33186369  0.15527718
  -0.00005315  0.66808216  0.15527718
   0.33191684  0.33186369  0.15527718
   0.66813531  0.66808216  0.15527718
   0.66666600  0.33333300  0.16709735
   0.33333300  0.66666600  0.14434714
   0.33340410  0.16670205  0.41533855
   0.49996656 -0.00006687  0.41509118
   0.33333267  0.66666633  0.41482820
   0.49996656  0.50003244  0.41509118
   0.83329695  0.16670205  0.41533855
   0.99999967  0.99999933  0.41557502
   0.83329695  0.66659490  0.41533855
   0.00006587  0.50003244  0.41509118
Direct configuration=    46
   0.66806119  0.00002056  0.15535131
   0.33195837  0.00002056  0.15535131
  -0.00002056  0.33193781  0.15535131
  -0.00002056  0.66804063  0.15535131
   0.33195837  0.33193781  0.15535131
   0.66806119  0.66804063  0.15535131
   0.66666600  0.33333300  0.16692700
   0.33333300  0.66666600  0.14444314
   0.33330136  0.16665068  0.41529221
   0.50000806  0.00001612  0.41505106
   0.33333267  0.66666633  0.41478182
   0.50000806  0.49999094  0.41505106
   0.83334832  0.16665068  0.41529221
   0.99999967  0.99999933  0.41551039
   0.83334832  0.66669764  0.41529221
  -0.00001712  0.49999094  0.41505106
Direct configuration=    47
   0.66783884 -0.00007719  0.15557367
   0.33208297 -0.00007719  0.15557367
   0.00007719  0.33216016  0.15557367
   0.00007719  0.66791603  0.15557367
   0.33208297  0.33216016  0.15557367
   0.66783884  0.66791603  0.15557367
   0.66666600  0.33333300  0.16641593
   0.33333300  0.66666600  0.14473113
   0.33299313  0.16649656  0.41515320
   0.50013254  0.00026509  0.41493070
   0.33333267  0.66666633  0.41464268
   0.50013254  0.49986646  0.41493070
   0.83350244  0.16649656  0.41515320