  16  16   0  16
  0.2017587E+02  0.4985000E-09  0.4985000E-09  0.1500000E-08  0.5000000E-15
  1.000000000000000E-004
  CAR 
 Lattice                                 
      9.73706218    -21.11536813  301     -0.31926358      1.00000000
    -21.115  0.0000E+00  0.0000E+00  0.0000E+00  0.0000E+00
    -21.013  0.0000E+00  0.0000E+00  0.0000E+00  0.0000E+00
    -20.910  0.0000E+00  0.0000E+00  0.0000E+00  0.0000E+00
    -20.807  0.0000E+00  0.0000E+00  0.0000E+00  0.0000E+00
    -20.704  0.0000E+00  0.0000E+00  0.0000E+00  0.0000E+00
    -20.601  0.0000E+00  0.0000E+00  0.0000E+00  0.0000E+00
    -20.498  0.0000E+00  0.0000E+00  0.0000E+00  0.0000E+00
    -20.395  0.0000E+00  0.0000E+00  0.0000E+00  0.0000E+00
    -20.293  0.5857E-19  0.5857E-19  0.6023E-20  0.6023E-20
    -20.190  0.4503E-14  0.4503E-14  0.4631E-15  0.4631E-15
    -20.087  0.3989E-10  0.3989E-10  0.4103E-11  0.4103E-11
    -19.984  0.5005E-07  0.5005E-07  0.5151E-08  0.5151E-08
    -19.881  0.9628E-05  0.9628E-05  0.9953E-06  0.9953E-06
    -19.778  0.3129E-03  0.3129E-03  0.3317E-04  0.3317E-04
    -19.676  0.2084E-02  0.2084E-02  0.2475E-03  0.2475E-03
    -19.573  0.4312E-02  0.4312E-02  0.6910E-03  0.6910E-03
    -19.470  0.4776E-02  0.4776E-02  0.1182E-02  0.1182E-02
    -19.367  0.5115E-02  0.5115E-02  0.1708E-02  0.1708E-02
    -19.264  0.4462E-02  0.4462E-02  0.2167E-02  0.2167E-02
    -19.161  0.5587E-02  0.5587E-02  0.2742E-02  0.2742E-02
    -19.059  0.4359E-02  0.4359E-02  0.3190E-02  0.3190E-02
    -18.956  0.4706E-02  0.4706E-02  0.3674E-02  0.3674E-02
    -18.853  0.6129E-02  0.6129E-02  0.4304E-02  0.4304E-02
    -18.750  0.3852E-02  0.3852E-02  0.4700E-02  0.4700E-02
    -18.647  0.4454E-02  0.4454E-02  0.5158E-02  0.5158E-02
    -18.544  0.6380E-02  0.6380E-02  0.5815E-02  0.5815E-02
    -18.441  0.5138E-02  0.5138E-02  0.6343E-02  0.6343E-02
    -18.339  0.3040E-02  0.3040E-02  0.6656E-02  0.6656E-02
    -18.236  0.5337E-02  0.5337E-02  0.7204E-02  0.7204E-02
    -18.133  0.6901E-02  0.6901E-02  0.7914E-02  0.7914E-02
    -18.030  0.4528E-02  0.4528E-02  0.8380E-02  0.8380E-02
    -17.927  0.3725E-02  0.3725E-02  0.8763E-02  0.8763E-02
    -17.824  0.3786E-02  0.3786E-02  0.9152E-02  0.9152E-02
    -17.722  0.7480E-02  0.7480E-02  0.9922E-02  0.9922E-02
    -17.619  0.6105E-02  0.6105E-02  0.1055E-01  0.1055E-01
    -17.516  0.3295E-02  0.3295E-02  0.1089E-01  0.1089E-01
    -17.413  0.3836E-02  0.3836E-02  0.1128E-01  0.1128E-01
    -17.310  0.4750E-02  0.4750E-02  0.1177E-01  0.1177E-01
    -17.207  0.7182E-02  0.7182E-02  0.1251E-01  0.1251E-01
    -17.105  0.6360E-02  0.6360E-02  0.1316E-01  0.1316E-01
    -17.002  0.4232E-02  0.4232E-02  0.1360E-01  0.1360E-01
    -16.899  0.2310E-02  0.2310E-02  0.1384E-01  0.1384E-01
    -16.796  0.4974E-02  0.4974E-02  0.1435E-01  0.1435E-01
    -16.693  0.7264E-02  0.7264E-02  0.1510E-01  0.1510E-01
    -16.590  0.6367E-02  0.6367E-02  0.1575E-01  0.1575E-01
    -16.488  0.5211E-02  0.5211E-02  0.1629E-01  0.1629E-01
    -16.385  0.4418E-02  0.4418E-02  0.1674E-01  0.1674E-01
    -16.282  0.2485E-02  0.2485E-02  0.1700E-01  0.1700E-01
    -16.179  0.4342E-02  0.4342E-02  0.1744E-01  0.1744E-01
    -16.076  0.9259E-02  0.9259E-02  0.1839E-01  0.1839E-01
    -15.973  0.6875E-02  0.6875E-02  0.1910E-01  0.1910E-01
    -15.870  0.8042E-02  0.8042E-02  0.1993E-01  0.1993E-01
    -15.768  0.9864E-02  0.9864E-02  0.2094E-01  0.2094E-01
    -15.665  0.1055E-01  0.1055E-01  0.2203E-01  0.2203E-01
    -15.562  0.9789E-02  0.9789E-02  0.2303E-01  0.2303E-01
    -15.459  0.1399E-01  0.1399E-01  0.2447E-01  0.2447E-01
    -15.356  0.1608E-01  0.1608E-01  0.2613E-01  0.2613E-01
    -15.253  0.1300E-01  0.1300E-01  0.2746E-01  0.2746E-01
    -15.151  0.1243E-01  0.1243E-01  0.2874E-01  0.2874E-01
    -15.048  0.1437E-01  0.1437E-01  0.3022E-01  0.3022E-01
    -14.945  0.1115E-01  0.1115E-01  0.3137E-01  0.3137E-01
    -14.842  0.1033E-01  0.1033E-01  0.3243E-01  0.3243E-01
    -14.739  0.1144E-01  0.1144E-01  0.3361E-01  0.3361E-01
    -14.636  0.1055E-01  0.1055E-01  0.3469E-01  0.3469E-01
    -14.534  0.8366E-02  0.8366E-02  0.3555E-01  0.3555E-01
    -14.431  0.8057E-02  0.8057E-02  0.3638E-01  0.3638E-01
    -14.328  0.7206E-02  0.7206E-02  0.3712E-01  0.3712E-01
    -14.225  0.9992E-02  0.9992E-02  0.3815E-01  0.3815E-01
    -14.122  0.1683E-01  0.1683E-01  0.3988E-01  0.3988E-01
    -14.019  0.1194E-01  0.1194E-01  0.4111E-01  0.4111E-01
    -13.916  0.5643E-02  0.5643E-02  0.4169E-01  0.4169E-01
    -13.814  0.5381E-02  0.5381E-02  0.4224E-01  0.4224E-01
    -13.711  0.4784E-02  0.4784E-02  0.4273E-01  0.4273E-01
    -13.608  0.4397E-02  0.4397E-02  0.4318E-01  0.4318E-01
    -13.505  0.7584E-02  0.7584E-02  0.4396E-01  0.4396E-01
    -13.402  0.8959E-02  0.8959E-02  0.4489E-01  0.4489E-01
    -13.299  0.6571E-02  0.6571E-02  0.4556E-01  0.4556E-01
    -13.197  0.6062E-02  0.6062E-02  0.4619E-01  0.4619E-01
    -13.094  0.7476E-02  0.7476E-02  0.4695E-01  0.4695E-01
    -12.991  0.8749E-02  0.8749E-02  0.4785E-01  0.4785E-01
    -12.888  0.6602E-02  0.6602E-02  0.4853E-01  0.4853E-01
    -12.785  0.8151E-02  0.8151E-02  0.4937E-01  0.4937E-01
    -12.682  0.8827E-02  0.8827E-02  0.5028E-01  0.5028E-01
    -12.580  0.1067E-01  0.1067E-01  0.5138E-01  0.5138E-01
    -12.477  0.1408E-01  0.1408E-01  0.5282E-01  0.5282E-01
    -12.374  0.1079E-01  0.1079E-01  0.5393E-01  0.5393E-01
    -12.271  0.1394E-01  0.1394E-01  0.5537E-01  0.5537E-01
    -12.168  0.1231E-01  0.1231E-01  0.5663E-01  0.5663E-01
    -12.065  0.1316E-01  0.1316E-01  0.5799E-01  0.5799E-01
    -11.962  0.2026E-01  0.2026E-01  0.6007E-01  0.6007E-01
    -11.860  0.1631E-01  0.1631E-01  0.6175E-01  0.6175E-01
    -11.757  0.1195E-01  0.1195E-01  0.6298E-01  0.6298E-01
    -11.654  0.1125E-01  0.1125E-01  0.6414E-01  0.6414E-01
    -11.551  0.1063E-01  0.1063E-01  0.6523E-01  0.6523E-01
    -11.448  0.7985E-02  0.7985E-02  0.6605E-01  0.6605E-01
    -11.345  0.4589E-02  0.4589E-02  0.6652E-01  0.6652E-01
    -11.243  0.3218E-02  0.3218E-02  0.6685E-01  0.6685E-01
    -11.140  0.5028E-02  0.5028E-02  0.6737E-01  0.6737E-01
    -11.037  0.5529E-02  0.5529E-02  0.6794E-01  0.6794E-01
    -10.934  0.6243E-02  0.6243E-02  0.6858E-01  0.6858E-01
    -10.831  0.6969E-02  0.6969E-02  0.6930E-01  0.6930E-01
    -10.728  0.8838E-02  0.8838E-02  0.7021E-01  0.7021E-01
    -10.626  0.8416E-02  0.8416E-02  0.7107E-01  0.7107E-01
    -10.523  0.1321E-01  0.1321E-01  0.7243E-01  0.7243E-01
    -10.420  0.2149E-01  0.2149E-01  0.7464E-01  0.7464E-01
    -10.317  0.1666E-01  0.1666E-01  0.7635E-01  0.7635E-01
    -10.214  0.6288E-02  0.6288E-02  0.7700E-01  0.7700E-01
    -10.111  0.3817E-02  0.3817E-02  0.7739E-01  0.7739E-01
    -10.008  0.1052E-01  0.1052E-01  0.7847E-01  0.7847E-01
     -9.906  0.1899E-01  0.1899E-01  0.8043E-01  0.8043E-01
     -9.803  0.1043E-01  0.1043E-01  0.8150E-01  0.8150E-01
     -9.700  0.4480E-02  0.4480E-02  0.8196E-01  0.8196E-01
     -9.597  0.6769E-02  0.6769E-02  0.8266E-01  0.8266E-01
     -9.494  0.1325E-01  0.1325E-01  0.8402E-01  0.8402E-01
     -9.391  0.1980E-01  0.1980E-01  0.8606E-01  0.8606E-01
     -9.289  0.1531E-01  0.1531E-01  0.8763E-01  0.8763E-01
     -9.186  0.1778E-01  0.1778E-01  0.8946E-01  0.8946E-01
     -9.083  0.1534E-01  0.1534E-01  0.9104E-01  0.9104E-01
     -8.980  0.1145E-01  0.1145E-01  0.9221E-01  0.9221E-01
     -8.877  0.1487E-01  0.1487E-01  0.9374E-01  0.9374E-01
     -8.774  0.1730E-01  0.1730E-01  0.9552E-01  0.9552E-01
     -8.672  0.1403E-01  0.1403E-01  0.9697E-01  0.9697E-01
     -8.569  0.9338E-02  0.9338E-02  0.9793E-01  0.9793E-01
     -8.466  0.1398E-01  0.1398E-01  0.9936E-01  0.9936E-01
     -8.363  0.2139E-01  0.2139E-01  0.1016E+00  0.1016E+00
     -8.260  0.1612E-01  0.1612E-01  0.1032E+00  0.1032E+00
     -8.157  0.8123E-02  0.8123E-02  0.1041E+00  0.1041E+00
     -8.055  0.1323E-01  0.1323E-01  0.1054E+00  0.1054E+00
     -7.952  0.1408E-01  0.1408E-01  0.1069E+00  0.1069E+00
     -7.849  0.1739E-01  0.1739E-01  0.1087E+00  0.1087E+00
     -7.746  0.2567E-01  0.2567E-01  0.1113E+00  0.1113E+00
     -7.643  0.1862E-01  0.1862E-01  0.1132E+00  0.1132E+00
     -7.540  0.1411E-01  0.1411E-01  0.1147E+00  0.1147E+00
     -7.437  0.1476E-01  0.1476E-01  0.1162E+00  0.1162E+00
     -7.335  0.2007E-01  0.2007E-01  0.1182E+00  0.1182E+00
     -7.232  0.1973E-01  0.1973E-01  0.1203E+00  0.1203E+00
     -7.129  0.1470E-01  0.1470E-01  0.1218E+00  0.1218E+00
     -7.026  0.1485E-01  0.1485E-01  0.1233E+00  0.1233E+00
     -6.923  0.1814E-01  0.1814E-01  0.1252E+00  0.1252E+00
     -6.820  0.2447E-01  0.2447E-01  0.1277E+00  0.1277E+00
     -6.718  0.2519E-01  0.2519E-01  0.1303E+00  0.1303E+00
     -6.615  0.2749E-01  0.2749E-01  0.1331E+00  0.1331E+00
     -6.512  0.2464E-01  0.2464E-01  0.1356E+00  0.1356E+00
     -6.409  0.2621E-01  0.2621E-01  0.1383E+00  0.1383E+00
     -6.306  0.2783E-01  0.2783E-01  0.1412E+00  0.1412E+00
     -6.203  0.2285E-01  0.2285E-01  0.1435E+00  0.1435E+00
     -6.101  0.1734E-01  0.1734E-01  0.1453E+00  0.1453E+00
     -5.998  0.1523E-01  0.1523E-01  0.1469E+00  0.1469E+00
     -5.895  0.1625E-01  0.1625E-01  0.1486E+00  0.1486E+00
     -5.792  0.1598E-01  0.1598E-01  0.1502E+00  0.1502E+00
     -5.689  0.1871E-01  0.1871E-01  0.1521E+00  0.1521E+00
     -5.586  0.1460E-01  0.1460E-01  0.1536E+00  0.1536E+00
     -5.483  0.8797E-02  0.8798E-02  0.1545E+00  0.1545E+00
     -5.381  0.1341E-01  0.1341E-01  0.1559E+00  0.1559E+00
     -5.278  0.1850E-01  0.1850E-01  0.1578E+00  0.1578E+00
     -5.175  0.1704E-01  0.1704E-01  0.1596E+00  0.1596E+00
     -5.072  0.1254E-01  0.1254E-01  0.1609E+00  0.1609E+00
     -4.969  0.1519E-01  0.1519E-01  0.1624E+00  0.1624E+00
     -4.866  0.1890E-01  0.1890E-01  0.1644E+00  0.1644E+00
     -4.764  0.1232E-01  0.1232E-01  0.1656E+00  0.1656E+00
     -4.661  0.9760E-02  0.9760E-02  0.1666E+00  0.1666E+00
     -4.558  0.1404E-01  0.1404E-01  0.1681E+00  0.1681E+00
     -4.455  0.1932E-01  0.1932E-01  0.1701E+00  0.1701E+00
     -4.352  0.1764E-01  0.1764E-01  0.1719E+00  0.1719E+00
     -4.249  0.1670E-01  0.1670E-01  0.1736E+00  0.1736E+00
     -4.147  0.2012E-01  0.2012E-01  0.1757E+00  0.1757E+00
     -4.044  0.2024E-01  0.2024E-01  0.1778E+00  0.1778E+00
     -3.941  0.2147E-01  0.2147E-01  0.1800E+00  0.1800E+00
     -3.838  0.2456E-01  0.2456E-01  0.1825E+00  0.1825E+00
     -3.735  0.2819E-01  0.2819E-01  0.1854E+00  0.1854E+00
     -3.632  0.2891E-01  0.2891E-01  0.1884E+00  0.1884E+00
     -3.529  0.2283E-01  0.2283E-01  0.1907E+00  0.1907E+00
     -3.427  0.1477E-01  0.1477E-01  0.1922E+00  0.1922E+00
     -3.324  0.1239E-01  0.1239E-01  0.1935E+00  0.1935E+00
     -3.221  0.1389E-01  0.1389E-01  0.1949E+00  0.1949E+00
     -3.118  0.1149E-01  0.1149E-01  0.1961E+00  0.1961E+00
     -3.015  0.1322E-01  0.1322E-01  0.1975E+00  0.1975E+00
     -2.912  0.1547E-01  0.1547E-01  0.1991E+00  0.1991E+00
     -2.810  0.1164E-01  0.1164E-01  0.2003E+00  0.2003E+00
     -2.707  0.8375E-02  0.8375E-02  0.2011E+00  0.2011E+00
     -2.604  0.9350E-02  0.9350E-02  0.2021E+00  0.2021E+00
     -2.501  0.1735E-01  0.1735E-01  0.2039E+00  0.2039E+00
     -2.398  0.1747E-01  0.1747E-01  0.2057E+00  0.2057E+00
     -2.295  0.7053E-02  0.7053E-02  0.2064E+00  0.2064E+00
     -2.193  0.6617E-02  0.6617E-02  0.2071E+00  0.2071E+00
     -2.090  0.9503E-02  0.9503E-02  0.2081E+00  0.2081E+00
     -1.987  0.9275E-02  0.9275E-02  0.2090E+00  0.2090E+00
     -1.884  0.9324E-02  0.9324E-02  0.2100E+00  0.2100E+00
     -1.781  0.9285E-02  0.9285E-02  0.2109E+00  0.2109E+00
     -1.678  0.6648E-02  0.6648E-02  0.2116E+00  0.2116E+00
     -1.575  0.6396E-02  0.6396E-02  0.2123E+00  0.2123E+00
     -1.473  0.1021E-01  0.1021E-01  0.2133E+00  0.2133E+00
     -1.370  0.7442E-02  0.7443E-02  0.2141E+00  0.2141E+00
     -1.267  0.4554E-02  0.4554E-02  0.2145E+00  0.2145E+00
     -1.164  0.7546E-02  0.7546E-02  0.2153E+00  0.2153E+00
     -1.061  0.6507E-02  0.6507E-02  0.2160E+00  0.2160E+00
     -0.958  0.6157E-02  0.6157E-02  0.2166E+00  0.2166E+00
     -0.856  0.5669E-02  0.5669E-02  0.2172E+00  0.2172E+00
     -0.753  0.2644E-02  0.2644E-02  0.2175E+00  0.2175E+00
     -0.650  0.1256E-02  0.1256E-02  0.2176E+00  0.2176E+00
     -0.547  0.3219E-02  0.3219E-02  0.2179E+00  0.2179E+00
     -0.444  0.4330E-02  0.4330E-02  0.2184E+00  0.2184E+00
     -0.341  0.3030E-02  0.3030E-02  0.2187E+00  0.2187E+00
     -0.239  0.2085E-02  0.2085E-02  0.2189E+00  0.2189E+00
     -0.136  0.2372E-02  0.2372E-02  0.2192E+00  0.2192E+00
     -0.033  0.3362E-02  0.3362E-02  0.2195E+00  0.2195E+00
      0.070  0.3394E-02  0.3394E-02  0.2198E+00  0.2198E+00
      0.173  0.6029E-02  0.6029E-02  0.2205E+00  0.2205E+00
      0.276  0.7399E-02  0.7399E-02  0.2212E+00  0.2212E+00
      0.378  0.9875E-02  0.9875E-02  0.2222E+00  0.2222E+00
      0.481  0.1003E-01  0.1003E-01  0.2233E+00  0.2233E+00
      0.584  0.8325E-02  0.8325E-02  0.2241E+00  0.2241E+00
      0.687  0.6352E-02  0.6352E-02  0.2248E+00  0.2248E+00
      0.790  0.9840E-02  0.9840E-02  0.2258E+00  0.2258E+00
      0.893  0.1028E-01  0.1028E-01  0.2269E+00  0.2269E+00
      0.996  0.7312E-02  0.7312E-02  0.2276E+00  0.2276E+00
      1.098  0.9493E-02  0.9493E-02  0.2286E+00  0.2286E+00
      1.201  0.1580E-01  0.1580E-01  0.2302E+00  0.2302E+00
      1.304  0.1815E-01  0.1815E-01  0.2321E+00  0.2321E+00
      1.407  0.1419E-01  0.1419E-01  0.2335E+00  0.2335E+00
      1.510  0.9107E-02  0.9107E-02  0.2345E+00  0.2345E+00
      1.613  0.6029E-02  0.6029E-02  0.2351E+00  0.2351E+00
      1.715  0.7473E-02  0.7473E-02  0.2359E+00  0.2359E+00
      1.818  0.1030E-01  0.1030E-01  0.2369E+00  0.2369E+00
      1.921  0.1072E-01  0.1072E-01  0.2380E+00  0.2380E+00
      2.024  0.1308E-01  0.1308E-01  0.2394E+00  0.2394E+00
      2.127  0.1266E-01  0.1266E-01  0.2407E+00  0.2407E+00
      2.230  0.1152E-01  0.1152E-01  0.2419E+00  0.2419E+00
      2.332  0.7722E-02  0.7722E-02  0.2426E+00  0.2426E+00
      2.435  0.4744E-02  0.4744E-02  0.2431E+00  0.2431E+00
      2.538  0.1073E-01  0.1073E-01  0.2442E+00  0.2442E+00
      2.641  0.1491E-01  0.1491E-01  0.2458E+00  0.2458E+00
      2.744  0.1349E-01  0.1349E-01  0.2472E+00  0.2472E+00
      2.847  0.1307E-01  0.1307E-01  0.2485E+00  0.2485E+00
      2.950  0.8800E-02  0.8798E-02  0.2494E+00  0.2494E+00
      3.052  0.1057E-01  0.1057E-01  0.2505E+00  0.2505E+00
      3.155  0.1564E-01  0.1564E-01  0.2521E+00  0.2521E+00
      3.258  0.1874E-01  0.1874E-01  0.2540E+00  0.2540E+00
      3.361  0.1862E-01  0.1863E-01  0.2559E+00  0.2559E+00
      3.464  0.1475E-01  0.1475E-01  0.2575E+00  0.2575E+00
      3.567  0.2000E-01  0.2000E-01  0.2595E+00  0.2595E+00
      3.669  0.2201E-01  0.2201E-01  0.2618E+00  0.2618E+00
      3.772  0.1938E-01  0.1938E-01  0.2638E+00  0.2638E+00
      3.875  0.1903E-01  0.1903E-01  0.2657E+00  0.2657E+00
      3.978  0.1828E-01  0.1828E-01  0.2676E+00  0.2676E+00
      4.081  0.1791E-01  0.1791E-01  0.2695E+00  0.2695E+00
      4.184  0.2332E-01  0.2332E-01  0.2719E+00  0.2719E+00
      4.286  0.2623E-01  0.2623E-01  0.2745E+00  0.2745E+00
      4.389  0.2269E-01  0.2269E-01  0.2769E+00  0.2769E+00
      4.492  0.1646E-01  0.1646E-01  0.2786E+00  0.2786E+00
      4.595  0.2380E-01  0.2380E-01  0.2810E+00  0.2810E+00
      4.698  0.2895E-01  0.2894E-01  0.2840E+00  0.2840E+00
      4.801  0.1983E-01  0.1982E-01  0.2860E+00  0.2860E+00
      4.904  0.2138E-01  0.2138E-01  0.2882E+00  0.2882E+00
      5.006  0.2749E-01  0.2749E-01  0.2911E+00  0.2911E+00
      5.109  0.3166E-01  0.3165E-01  0.2943E+00  0.2943E+00
      5.212  0.3008E-01  0.3008E-01  0.2974E+00  0.2974E+00
      5.315  0.2659E-01  0.2660E-01  0.3001E+00  0.3001E+00
      5.418  0.2094E-01  0.2093E-01  0.3023E+00  0.3023E+00
      5.521  0.2503E-01  0.2502E-01  0.3049E+00  0.3049E+00
      5.623  0.2933E-01  0.2934E-01  0.3079E+00  0.3079E+00
      5.726  0.2599E-01  0.2600E-01  0.3106E+00  0.3106E+00
      5.829  0.2278E-01  0.2278E-01  0.3129E+00  0.3129E+00
      5.932  0.1879E-01  0.1878E-01  0.3148E+00  0.3148E+00
      6.035  0.2324E-01  0.2323E-01  0.3172E+00  0.3172E+00
      6.138  0.2362E-01  0.2364E-01  0.3197E+00  0.3197E+00
      6.240  0.1767E-01  0.1767E-01  0.3215E+00  0.3215E+00
      6.343  0.2017E-01  0.2017E-01  0.3236E+00  0.3235E+00
      6.446  0.2195E-01  0.2194E-01  0.3258E+00  0.3258E+00
      6.549  0.2552E-01  0.2552E-01  0.3284E+00  0.3284E+00
      6.652  0.2920E-01  0.2920E-01  0.3314E+00  0.3314E+00
      6.755  0.3091E-01  0.3091E-01  0.3346E+00  0.3346E+00
      6.858  0.2993E-01  0.2994E-01  0.3377E+00  0.3377E+00
      6.960  0.2627E-01  0.2627E-01  0.3404E+00  0.3404E+00
      7.063  0.2373E-01  0.2372E-01  0.3428E+00  0.3428E+00
      7.166  0.2894E-01  0.2894E-01  0.3458E+00  0.3458E+00
      7.269  0.3422E-01  0.3421E-01  0.3493E+00  0.3493E+00
      7.372  0.4451E-01  0.4451E-01  0.3539E+00  0.3539E+00
      7.475  0.3982E-01  0.3983E-01  0.3580E+00  0.3580E+00
      7.577  0.2703E-01  0.2704E-01  0.3608E+00  0.3608E+00
      7.680  0.3158E-01  0.3157E-01  0.3640E+00  0.3640E+00
      7.783  0.3571E-01  0.3572E-01  0.3677E+00  0.3677E+00
      7.886  0.2760E-01  0.2761E-01  0.3705E+00  0.3705E+00
      7.989  0.1959E-01  0.1960E-01  0.3726E+00  0.3726E+00
      8.092  0.1604E-01  0.1605E-01  0.3742E+00  0.3742E+00
      8.194  0.6539E-02  0.6546E-02  0.3749E+00  0.3749E+00
      8.297  0.7866E-03  0.7882E-03  0.3750E+00  0.3750E+00
      8.400  0.2876E-03  0.2877E-03  0.3750E+00  0.3750E+00
      8.503  0.8900E-04  0.8902E-04  0.3750E+00  0.3750E+00
      8.606  0.4532E-05  0.4534E-05  0.3750E+00  0.3750E+00
      8.709  0.3315E-07  0.3318E-07  0.3750E+00  0.3750E+00
      8.811  0.3245E-10  0.3249E-10  0.3750E+00  0.3750E+00
      8.914  0.4084E-14  0.4089E-14  0.3750E+00  0.3750E+00
      9.017  0.5857E-19  0.5857E-19  0.3750E+00  0.3750E+00
      9.120  0.0000E+00  0.0000E+00  0.3750E+00  0.3750E+00
      9.223  0.0000E+00  0.0000E+00  0.3750E+00  0.3750E+00
      9.326  0.0000E+00  0.0000E+00  0.3750E+00  0.3750E+00
      9.429  0.0000E+00  0.0000E+00  0.3750E+00  0.3750E+00
      9.531  0.0000E+00  0.0000E+00  0.3750E+00  0.3750E+00
      9.634  0.0000E+00  0.0000E+00  0.3750E+00  0.3750E+00
      9.737  0.0000E+00  0.0000E+00  0.3750E+00  0.3750E+00
