  15  15   0   0
  0.1962206E+02  0.4760000E-09  0.4760000E-09  0.1500000E-08  0.5000000E-15
  1.000000000000000E-004
  CAR 
 Lattice                                 
     10.74378498    -22.01827225  301     -0.17173356      1.00000000
    -22.018  0.0000E+00  0.0000E+00  0.0000E+00  0.0000E+00
    -21.909  0.0000E+00  0.0000E+00  0.0000E+00  0.0000E+00
    -21.800  0.0000E+00  0.0000E+00  0.0000E+00  0.0000E+00
    -21.691  0.0000E+00  0.0000E+00  0.0000E+00  0.0000E+00
    -21.581  0.0000E+00  0.0000E+00  0.0000E+00  0.0000E+00
    -21.472  0.0000E+00  0.0000E+00  0.0000E+00  0.0000E+00
    -21.363  0.0000E+00  0.0000E+00  0.0000E+00  0.0000E+00
    -21.254  0.0000E+00  0.0000E+00  0.0000E+00  0.0000E+00
    -21.145  0.0000E+00  0.0000E+00  0.0000E+00  0.0000E+00
    -21.035  0.2106E-15  0.2106E-15  0.2300E-16  0.2300E-16
    -20.926  0.5531E-11  0.5531E-11  0.6041E-12  0.6041E-12
    -20.817  0.1568E-07  0.1568E-07  0.1713E-08  0.1713E-08
    -20.708  0.5334E-05  0.5334E-05  0.5843E-06  0.5843E-06
    -20.599  0.2464E-03  0.2464E-03  0.2749E-04  0.2749E-04
    -20.489  0.1904E-02  0.1904E-02  0.2354E-03  0.2354E-03
    -20.380  0.4048E-02  0.4048E-02  0.6775E-03  0.6775E-03
    -20.271  0.4361E-02  0.4361E-02  0.1154E-02  0.1154E-02
    -20.162  0.4826E-02  0.4826E-02  0.1681E-02  0.1681E-02
    -20.053  0.3973E-02  0.3973E-02  0.2115E-02  0.2115E-02
    -19.943  0.5237E-02  0.5237E-02  0.2687E-02  0.2687E-02
    -19.834  0.4153E-02  0.4153E-02  0.3140E-02  0.3140E-02
    -19.725  0.3965E-02  0.3965E-02  0.3573E-02  0.3573E-02
    -19.616  0.5899E-02  0.5899E-02  0.4217E-02  0.4217E-02
    -19.507  0.3849E-02  0.3849E-02  0.4638E-02  0.4638E-02
    -19.397  0.3516E-02  0.3516E-02  0.5022E-02  0.5022E-02
    -19.288  0.5907E-02  0.5907E-02  0.5667E-02  0.5667E-02
    -19.179  0.5234E-02  0.5234E-02  0.6238E-02  0.6238E-02
    -19.070  0.3033E-02  0.3033E-02  0.6569E-02  0.6569E-02
    -18.960  0.3723E-02  0.3723E-02  0.6976E-02  0.6976E-02
    -18.851  0.6812E-02  0.6812E-02  0.7720E-02  0.7720E-02
    -18.742  0.4693E-02  0.4693E-02  0.8232E-02  0.8232E-02
    -18.633  0.3781E-02  0.3781E-02  0.8645E-02  0.8645E-02
    -18.524  0.2714E-02  0.2714E-02  0.8942E-02  0.8942E-02
    -18.414  0.5808E-02  0.5808E-02  0.9576E-02  0.9576E-02
    -18.305  0.6879E-02  0.6879E-02  0.1033E-01  0.1033E-01
    -18.196  0.3889E-02  0.3889E-02  0.1075E-01  0.1075E-01
    -18.087  0.2884E-02  0.2884E-02  0.1107E-01  0.1107E-01
    -17.978  0.3884E-02  0.3884E-02  0.1149E-01  0.1149E-01
    -17.868  0.5397E-02  0.5397E-02  0.1208E-01  0.1208E-01
    -17.759  0.6888E-02  0.6888E-02  0.1283E-01  0.1283E-01
    -17.650  0.4984E-02  0.4984E-02  0.1338E-01  0.1338E-01
    -17.541  0.3178E-02  0.3178E-02  0.1372E-01  0.1372E-01
    -17.432  0.4633E-02  0.4633E-02  0.1423E-01  0.1423E-01
    -17.322  0.1172E-01  0.1172E-01  0.1551E-01  0.1551E-01
    -17.213  0.1401E-01  0.1401E-01  0.1704E-01  0.1704E-01
    -17.104  0.1366E-01  0.1366E-01  0.1853E-01  0.1853E-01
    -16.995  0.1412E-01  0.1412E-01  0.2007E-01  0.2007E-01
    -16.886  0.1785E-01  0.1785E-01  0.2202E-01  0.2202E-01
    -16.776  0.1777E-01  0.1777E-01  0.2396E-01  0.2396E-01
    -16.667  0.1172E-01  0.1172E-01  0.2524E-01  0.2524E-01
    -16.558  0.9737E-02  0.9737E-02  0.2631E-01  0.2631E-01
    -16.449  0.5120E-02  0.5120E-02  0.2686E-01  0.2686E-01
    -16.340  0.4171E-02  0.4171E-02  0.2732E-01  0.2732E-01
    -16.230  0.3561E-02  0.3561E-02  0.2771E-01  0.2771E-01
    -16.121  0.4044E-02  0.4044E-02  0.2815E-01  0.2815E-01
    -16.012  0.2996E-02  0.2996E-02  0.2848E-01  0.2848E-01
    -15.903  0.5730E-02  0.5730E-02  0.2910E-01  0.2910E-01
    -15.793  0.8785E-02  0.8785E-02  0.3006E-01  0.3006E-01
    -15.684  0.5354E-02  0.5354E-02  0.3065E-01  0.3065E-01
    -15.575  0.3489E-02  0.3489E-02  0.3103E-01  0.3103E-01
    -15.466  0.3263E-02  0.3263E-02  0.3138E-01  0.3138E-01
    -15.357  0.3455E-02  0.3455E-02  0.3176E-01  0.3176E-01
    -15.247  0.5220E-02  0.5220E-02  0.3233E-01  0.3233E-01
    -15.138  0.6595E-02  0.6595E-02  0.3305E-01  0.3305E-01
    -15.029  0.7361E-02  0.7361E-02  0.3386E-01  0.3386E-01
    -14.920  0.1083E-01  0.1083E-01  0.3504E-01  0.3504E-01
    -14.811  0.1333E-01  0.1333E-01  0.3650E-01  0.3650E-01
    -14.701  0.1744E-01  0.1744E-01  0.3840E-01  0.3840E-01
    -14.592  0.1367E-01  0.1367E-01  0.3989E-01  0.3989E-01
    -14.483  0.9522E-02  0.9522E-02  0.4093E-01  0.4093E-01
    -14.374  0.1291E-01  0.1291E-01  0.4234E-01  0.4234E-01
    -14.265  0.1562E-01  0.1562E-01  0.4405E-01  0.4405E-01
    -14.155  0.8418E-02  0.8418E-02  0.4497E-01  0.4497E-01
    -14.046  0.9168E-02  0.9168E-02  0.4597E-01  0.4597E-01
    -13.937  0.1223E-01  0.1223E-01  0.4730E-01  0.4730E-01
    -13.828  0.1365E-01  0.1365E-01  0.4879E-01  0.4879E-01
    -13.719  0.2171E-01  0.2171E-01  0.5116E-01  0.5116E-01
    -13.609  0.2179E-01  0.2179E-01  0.5354E-01  0.5354E-01
    -13.500  0.1674E-01  0.1674E-01  0.5537E-01  0.5537E-01
    -13.391  0.1023E-01  0.1023E-01  0.5649E-01  0.5649E-01
    -13.282  0.6184E-02  0.6184E-02  0.5717E-01  0.5717E-01
    -13.173  0.6007E-02  0.6007E-02  0.5782E-01  0.5782E-01
    -13.063  0.6629E-02  0.6629E-02  0.5855E-01  0.5855E-01
    -12.954  0.5087E-02  0.5087E-02  0.5910E-01  0.5910E-01
    -12.845  0.5594E-02  0.5594E-02  0.5971E-01  0.5971E-01
    -12.736  0.5457E-02  0.5457E-02  0.6031E-01  0.6031E-01
    -12.626  0.6507E-02  0.6507E-02  0.6102E-01  0.6102E-01
    -12.517  0.5441E-02  0.5441E-02  0.6161E-01  0.6161E-01
    -12.408  0.4149E-02  0.4149E-02  0.6207E-01  0.6207E-01
    -12.299  0.4589E-02  0.4589E-02  0.6257E-01  0.6257E-01
    -12.190  0.7765E-02  0.7765E-02  0.6341E-01  0.6341E-01
    -12.080  0.4444E-02  0.4444E-02  0.6390E-01  0.6390E-01
    -11.971  0.3536E-02  0.3536E-02  0.6429E-01  0.6429E-01
    -11.862  0.3711E-02  0.3711E-02  0.6469E-01  0.6469E-01
    -11.753  0.3696E-02  0.3696E-02  0.6510E-01  0.6510E-01
    -11.644  0.5991E-02  0.5991E-02  0.6575E-01  0.6575E-01
    -11.534  0.6661E-02  0.6661E-02  0.6648E-01  0.6648E-01
    -11.425  0.2689E-02  0.2689E-02  0.6677E-01  0.6677E-01
    -11.316  0.2400E-02  0.2400E-02  0.6703E-01  0.6703E-01
    -11.207  0.6467E-02  0.6467E-02  0.6774E-01  0.6774E-01
    -11.098  0.8482E-02  0.8482E-02  0.6867E-01  0.6867E-01
    -10.988  0.4659E-02  0.4659E-02  0.6917E-01  0.6917E-01
    -10.879  0.5453E-02  0.5453E-02  0.6977E-01  0.6977E-01
    -10.770  0.4526E-02  0.4526E-02  0.7026E-01  0.7026E-01
    -10.661  0.3336E-02  0.3336E-02  0.7063E-01  0.7063E-01
    -10.552  0.6668E-02  0.6668E-02  0.7136E-01  0.7136E-01
    -10.442  0.1199E-01  0.1199E-01  0.7267E-01  0.7267E-01
    -10.333  0.1794E-01  0.1794E-01  0.7462E-01  0.7462E-01
    -10.224  0.1317E-01  0.1317E-01  0.7606E-01  0.7606E-01
    -10.115  0.1312E-01  0.1312E-01  0.7750E-01  0.7750E-01
    -10.006  0.1808E-01  0.1808E-01  0.7947E-01  0.7947E-01
     -9.896  0.1608E-01  0.1608E-01  0.8123E-01  0.8123E-01
     -9.787  0.8250E-02  0.8250E-02  0.8213E-01  0.8213E-01
     -9.678  0.4779E-02  0.4779E-02  0.8265E-01  0.8265E-01
     -9.569  0.1667E-01  0.1667E-01  0.8447E-01  0.8447E-01
     -9.459  0.2181E-01  0.2181E-01  0.8685E-01  0.8685E-01
     -9.350  0.1268E-01  0.1268E-01  0.8824E-01  0.8824E-01
     -9.241  0.9100E-02  0.9100E-02  0.8923E-01  0.8923E-01
     -9.132  0.1341E-01  0.1341E-01  0.9069E-01  0.9069E-01
     -9.023  0.9537E-02  0.9537E-02  0.9174E-01  0.9174E-01
     -8.913  0.1133E-01  0.1133E-01  0.9297E-01  0.9297E-01
     -8.804  0.1693E-01  0.1693E-01  0.9482E-01  0.9482E-01
     -8.695  0.1673E-01  0.1673E-01  0.9665E-01  0.9665E-01
     -8.586  0.1855E-01  0.1855E-01  0.9867E-01  0.9867E-01
     -8.477  0.1203E-01  0.1203E-01  0.9999E-01  0.9999E-01
     -8.367  0.1122E-01  0.1122E-01  0.1012E+00  0.1012E+00
     -8.258  0.2132E-01  0.2132E-01  0.1035E+00  0.1035E+00
     -8.149  0.1992E-01  0.1992E-01  0.1057E+00  0.1057E+00
     -8.040  0.1207E-01  0.1207E-01  0.1070E+00  0.1070E+00
     -7.931  0.1679E-01  0.1679E-01  0.1089E+00  0.1089E+00
     -7.821  0.1949E-01  0.1949E-01  0.1110E+00  0.1110E+00
     -7.712  0.2212E-01  0.2212E-01  0.1134E+00  0.1134E+00
     -7.603  0.1975E-01  0.1975E-01  0.1156E+00  0.1156E+00
     -7.494  0.1799E-01  0.1799E-01  0.1175E+00  0.1175E+00
     -7.385  0.1699E-01  0.1699E-01  0.1194E+00  0.1194E+00
     -7.275  0.1480E-01  0.1480E-01  0.1210E+00  0.1210E+00
     -7.166  0.1434E-01  0.1434E-01  0.1226E+00  0.1226E+00
     -7.057  0.1461E-01  0.1461E-01  0.1242E+00  0.1242E+00
     -6.948  0.1561E-01  0.1561E-01  0.1259E+00  0.1259E+00
     -6.839  0.1409E-01  0.1409E-01  0.1274E+00  0.1274E+00
     -6.729  0.1701E-01  0.1701E-01  0.1293E+00  0.1293E+00
     -6.620  0.2616E-01  0.2616E-01  0.1321E+00  0.1321E+00
     -6.511  0.1755E-01  0.1755E-01  0.1340E+00  0.1340E+00
     -6.402  0.1644E-01  0.1644E-01  0.1358E+00  0.1358E+00
     -6.292  0.1751E-01  0.1751E-01  0.1377E+00  0.1377E+00
     -6.183  0.1333E-01  0.1333E-01  0.1392E+00  0.1392E+00
     -6.074  0.2376E-01  0.2376E-01  0.1418E+00  0.1418E+00
     -5.965  0.2360E-01  0.2360E-01  0.1444E+00  0.1444E+00
     -5.856  0.2094E-01  0.2094E-01  0.1467E+00  0.1467E+00
     -5.746  0.2212E-01  0.2212E-01  0.1491E+00  0.1491E+00
     -5.637  0.2457E-01  0.2457E-01  0.1518E+00  0.1518E+00
     -5.528  0.2128E-01  0.2128E-01  0.1541E+00  0.1541E+00
     -5.419  0.2358E-01  0.2358E-01  0.1567E+00  0.1567E+00
     -5.310  0.2338E-01  0.2338E-01  0.1592E+00  0.1592E+00
     -5.200  0.3151E-01  0.3151E-01  0.1627E+00  0.1627E+00
     -5.091  0.2954E-01  0.2954E-01  0.1659E+00  0.1659E+00
     -4.982  0.1216E-01  0.1216E-01  0.1672E+00  0.1672E+00
     -4.873  0.8487E-02  0.8487E-02  0.1681E+00  0.1681E+00
     -4.764  0.1313E-01  0.1313E-01  0.1696E+00  0.1696E+00
     -4.654  0.1364E-01  0.1364E-01  0.1711E+00  0.1711E+00
     -4.545  0.1316E-01  0.1316E-01  0.1725E+00  0.1725E+00
     -4.436  0.8480E-02  0.8480E-02  0.1734E+00  0.1734E+00
     -4.327  0.7437E-02  0.7437E-02  0.1742E+00  0.1742E+00
     -4.218  0.1316E-01  0.1316E-01  0.1757E+00  0.1757E+00
     -4.108  0.1679E-01  0.1679E-01  0.1775E+00  0.1775E+00
     -3.999  0.1970E-01  0.1970E-01  0.1797E+00  0.1797E+00
     -3.890  0.2522E-01  0.2522E-01  0.1824E+00  0.1824E+00
     -3.781  0.2733E-01  0.2733E-01  0.1854E+00  0.1854E+00
     -3.672  0.2262E-01  0.2262E-01  0.1879E+00  0.1879E+00
     -3.562  0.1659E-01  0.1659E-01  0.1897E+00  0.1897E+00
     -3.453  0.1544E-01  0.1544E-01  0.1914E+00  0.1914E+00
     -3.344  0.1606E-01  0.1606E-01  0.1931E+00  0.1931E+00
     -3.235  0.1893E-01  0.1893E-01  0.1952E+00  0.1952E+00
     -3.125  0.1587E-01  0.1587E-01  0.1969E+00  0.1969E+00
     -3.016  0.1718E-01  0.1718E-01  0.1988E+00  0.1988E+00
     -2.907  0.1601E-01  0.1601E-01  0.2005E+00  0.2005E+00
     -2.798  0.1163E-01  0.1163E-01  0.2018E+00  0.2018E+00
     -2.689  0.1215E-01  0.1215E-01  0.2031E+00  0.2031E+00
     -2.579  0.8214E-02  0.8214E-02  0.2040E+00  0.2040E+00
     -2.470  0.1503E-01  0.1503E-01  0.2057E+00  0.2057E+00
     -2.361  0.1896E-01  0.1896E-01  0.2077E+00  0.2077E+00
     -2.252  0.8537E-02  0.8537E-02  0.2087E+00  0.2087E+00
     -2.143  0.3403E-02  0.3403E-02  0.2091E+00  0.2091E+00
     -2.033  0.5895E-02  0.5895E-02  0.2097E+00  0.2097E+00
     -1.924  0.1081E-01  0.1081E-01  0.2109E+00  0.2109E+00
     -1.815  0.1058E-01  0.1058E-01  0.2120E+00  0.2120E+00
     -1.706  0.1119E-01  0.1119E-01  0.2133E+00  0.2133E+00
     -1.597  0.1098E-01  0.1098E-01  0.2145E+00  0.2145E+00
     -1.487  0.7476E-02  0.7476E-02  0.2153E+00  0.2153E+00
     -1.378  0.6648E-02  0.6648E-02  0.2160E+00  0.2160E+00
     -1.269  0.4214E-02  0.4214E-02  0.2165E+00  0.2165E+00
     -1.160  0.3643E-02  0.3643E-02  0.2169E+00  0.2169E+00
     -1.051  0.3891E-02  0.3891E-02  0.2173E+00  0.2173E+00
     -0.941  0.4612E-02  0.4612E-02  0.2178E+00  0.2178E+00
     -0.832  0.5504E-02  0.5504E-02  0.2184E+00  0.2184E+00
     -0.723  0.1968E-02  0.1968E-02  0.2186E+00  0.2186E+00
     -0.614  0.3669E-03  0.3669E-03  0.2186E+00  0.2186E+00
     -0.505  0.2453E-04  0.2453E-04  0.2186E+00  0.2186E+00
     -0.395  0.1952E-05  0.1952E-05  0.2186E+00  0.2186E+00
     -0.286  0.1069E-03  0.1069E-03  0.2187E+00  0.2187E+00
     -0.177  0.8276E-03  0.8276E-03  0.2187E+00  0.2187E+00
     -0.068  0.9065E-03  0.9065E-03  0.2188E+00  0.2188E+00
      0.042  0.1415E-03  0.1415E-03  0.2189E+00  0.2189E+00
      0.151  0.2804E-05  0.2804E-05  0.2189E+00  0.2189E+00
      0.260  0.1792E-06  0.1792E-06  0.2189E+00  0.2189E+00
      0.369  0.3940E-04  0.3940E-04  0.2189E+00  0.2189E+00
      0.478  0.1008E-02  0.1008E-02  0.2190E+00  0.2190E+00
      0.588  0.3305E-02  0.3305E-02  0.2193E+00  0.2193E+00
      0.697  0.1598E-02  0.1598E-02  0.2195E+00  0.2195E+00
      0.806  0.1275E-02  0.1275E-02  0.2196E+00  0.2196E+00
      0.915  0.3900E-02  0.3901E-02  0.2201E+00  0.2201E+00
      1.024  0.5519E-02  0.5519E-02  0.2207E+00  0.2207E+00
      1.134  0.1092E-01  0.1092E-01  0.2219E+00  0.2219E+00
      1.243  0.2666E-01  0.2666E-01  0.2248E+00  0.2248E+00
      1.352  0.1725E-01  0.1725E-01  0.2267E+00  0.2267E+00
      1.461  0.3883E-02  0.3883E-02  0.2271E+00  0.2271E+00
      1.570  0.4362E-02  0.4362E-02  0.2276E+00  0.2276E+00
      1.680  0.8338E-02  0.8338E-02  0.2285E+00  0.2285E+00
      1.789  0.1389E-01  0.1389E-01  0.2300E+00  0.2300E+00
      1.898  0.1916E-01  0.1916E-01  0.2321E+00  0.2321E+00
      2.007  0.1214E-01  0.1214E-01  0.2334E+00  0.2334E+00
      2.116  0.6854E-02  0.6854E-02  0.2342E+00  0.2342E+00
      2.226  0.9514E-02  0.9514E-02  0.2352E+00  0.2352E+00
      2.335  0.1068E-01  0.1068E-01  0.2364E+00  0.2364E+00
      2.444  0.6991E-02  0.6991E-02  0.2371E+00  0.2371E+00
      2.553  0.8655E-02  0.8655E-02  0.2381E+00  0.2381E+00
      2.662  0.7163E-02  0.7163E-02  0.2389E+00  0.2389E+00
      2.772  0.8649E-02  0.8649E-02  0.2398E+00  0.2398E+00
      2.881  0.1055E-01  0.1055E-01  0.2410E+00  0.2410E+00
      2.990  0.9027E-02  0.9027E-02  0.2419E+00  0.2419E+00
      3.099  0.8107E-02  0.8107E-02  0.2428E+00  0.2428E+00
      3.209  0.1064E-01  0.1064E-01  0.2440E+00  0.2440E+00
      3.318  0.9587E-02  0.9587E-02  0.2450E+00  0.2450E+00
      3.427  0.9432E-02  0.9432E-02  0.2461E+00  0.2461E+00
      3.536  0.9632E-02  0.9632E-02  0.2471E+00  0.2471E+00
      3.645  0.1011E-01  0.1011E-01  0.2482E+00  0.2482E+00
      3.755  0.9965E-02  0.9965E-02  0.2493E+00  0.2493E+00
      3.864  0.1900E-01  0.1900E-01  0.2514E+00  0.2514E+00
      3.973  0.1877E-01  0.1877E-01  0.2534E+00  0.2534E+00
      4.082  0.1272E-01  0.1272E-01  0.2548E+00  0.2548E+00
      4.191  0.1246E-01  0.1246E-01  0.2562E+00  0.2562E+00
      4.301  0.1395E-01  0.1395E-01  0.2577E+00  0.2577E+00
      4.410  0.2317E-01  0.2317E-01  0.2602E+00  0.2602E+00
      4.519  0.2532E-01  0.2532E-01  0.2630E+00  0.2630E+00
      4.628  0.1885E-01  0.1885E-01  0.2651E+00  0.2651E+00
      4.737  0.1953E-01  0.1953E-01  0.2672E+00  0.2672E+00
      4.847  0.2682E-01  0.2682E-01  0.2701E+00  0.2701E+00
      4.956  0.2801E-01  0.2801E-01  0.2732E+00  0.2732E+00
      5.065  0.2566E-01  0.2566E-01  0.2760E+00  0.2760E+00
      5.174  0.3001E-01  0.3001E-01  0.2793E+00  0.2793E+00
      5.283  0.2411E-01  0.2411E-01  0.2819E+00  0.2819E+00
      5.393  0.2612E-01  0.2613E-01  0.2847E+00  0.2847E+00
      5.502  0.2619E-01  0.2619E-01  0.2876E+00  0.2876E+00
      5.611  0.1783E-01  0.1783E-01  0.2896E+00  0.2896E+00
      5.720  0.1920E-01  0.1920E-01  0.2916E+00  0.2916E+00
      5.829  0.2474E-01  0.2474E-01  0.2943E+00  0.2943E+00
      5.939  0.2147E-01  0.2147E-01  0.2967E+00  0.2967E+00
      6.048  0.1957E-01  0.1957E-01  0.2988E+00  0.2988E+00
      6.157  0.1968E-01  0.1968E-01  0.3010E+00  0.3010E+00
      6.266  0.2128E-01  0.2128E-01  0.3033E+00  0.3033E+00
      6.376  0.2076E-01  0.2076E-01  0.3056E+00  0.3056E+00
      6.485  0.2199E-01  0.2198E-01  0.3080E+00  0.3080E+00
      6.594  0.1770E-01  0.1770E-01  0.3099E+00  0.3099E+00
      6.703  0.1795E-01  0.1795E-01  0.3119E+00  0.3119E+00
      6.812  0.2507E-01  0.2507E-01  0.3146E+00  0.3146E+00
      6.922  0.2831E-01  0.2831E-01  0.3177E+00  0.3177E+00
      7.031  0.2259E-01  0.2259E-01  0.3202E+00  0.3202E+00
      7.140  0.2860E-01  0.2860E-01  0.3233E+00  0.3233E+00
      7.249  0.3072E-01  0.3072E-01  0.3266E+00  0.3266E+00
      7.358  0.1814E-01  0.1814E-01  0.3286E+00  0.3286E+00
      7.468  0.1784E-01  0.1784E-01  0.3306E+00  0.3306E+00
      7.577  0.2375E-01  0.2375E-01  0.3332E+00  0.3332E+00
      7.686  0.2509E-01  0.2509E-01  0.3359E+00  0.3359E+00
      7.795  0.2276E-01  0.2276E-01  0.3384E+00  0.3384E+00
      7.904  0.2320E-01  0.2320E-01  0.3409E+00  0.3409E+00
      8.014  0.1849E-01  0.1849E-01  0.3429E+00  0.3429E+00
      8.123  0.2109E-01  0.2109E-01  0.3452E+00  0.3452E+00
      8.232  0.3025E-01  0.3025E-01  0.3485E+00  0.3485E+00
      8.341  0.2923E-01  0.2923E-01  0.3517E+00  0.3517E+00
      8.450  0.3263E-01  0.3263E-01  0.3553E+00  0.3553E+00
      8.560  0.3310E-01  0.3310E-01  0.3589E+00  0.3589E+00
      8.669  0.3332E-01  0.3333E-01  0.3626E+00  0.3626E+00
      8.778  0.3381E-01  0.3381E-01  0.3662E+00  0.3663E+00
      8.887  0.2353E-01  0.2353E-01  0.3688E+00  0.3688E+00
      8.996  0.1868E-01  0.1868E-01  0.3709E+00  0.3709E+00
      9.106  0.1935E-01  0.1935E-01  0.3730E+00  0.3730E+00
      9.215  0.1230E-01  0.1230E-01  0.3743E+00  0.3743E+00
      9.324  0.5264E-02  0.5264E-02  0.3749E+00  0.3749E+00
      9.433  0.9728E-03  0.9728E-03  0.3750E+00  0.3750E+00
      9.543  0.3026E-04  0.3026E-04  0.3750E+00  0.3750E+00
      9.652  0.1124E-06  0.1123E-06  0.3750E+00  0.3750E+00
      9.761  0.4381E-10  0.4381E-10  0.3750E+00  0.3750E+00
      9.870  0.1697E-14  0.1697E-14  0.3750E+00  0.3750E+00
      9.979  0.0000E+00  0.0000E+00  0.3750E+00  0.3750E+00
     10.089  0.0000E+00  0.0000E+00  0.3750E+00  0.3750E+00
     10.198  0.0000E+00  0.0000E+00  0.3750E+00  0.3750E+00
     10.307  0.0000E+00  0.0000E+00  0.3750E+00  0.3750E+00
     10.416  0.0000E+00  0.0000E+00  0.3750E+00  0.3750E+00
     10.525  0.0000E+00  0.0000E+00  0.3750E+00  0.3750E+00
     10.635  0.0000E+00  0.0000E+00  0.3750E+00  0.3750E+00
     10.744  0.0000E+00  0.0000E+00  0.3750E+00  0.3750E+00
