Lattice                                 
           1
     4.122281    2.380000    0.000000
    -4.122281    2.380000    0.000000
     0.000000    0.000000   15.000000
   B    C 
   4  11
Direct configuration=     1
   0.00415361  0.00267210  0.12034134
   0.35695335  0.00285503  0.09748893
   0.00423858  0.35550699  0.09749256
   0.65142295  0.65006557  0.09747688
   0.32808646  0.32671938  0.10030508
   0.68027775  0.00278085  0.10027562
   0.00416530  0.67883808  0.10026559
   0.99999933  0.49999967  0.33373333
   0.16666633  0.33333267  0.33373333
   0.99999933  0.99999967  0.33373333
   0.16666633  0.83333267  0.33373333
   0.49999933  0.49999967  0.33373333
   0.66666633  0.33333267  0.33373333
   0.49999933  0.99999967  0.33373333
   0.66666633  0.83333267  0.33373333
Direct configuration=     2
   0.00418643  0.00277059  0.11986125
   0.35646573  0.00300855  0.09765985
   0.00396427  0.35481323  0.09766229
   0.65210910  0.65049987  0.09765086
   0.32652681  0.32482781  0.10027733
   0.68212705  0.00308987  0.10025424
   0.00390904  0.68042167  0.10024609
   0.00012783  0.49998970  0.33373876
   0.16689712  0.33396574  0.33379110
   0.99999836  0.99999292  0.33362365
   0.16706027  0.83310025  0.33379390
   0.50002593  0.50015019  0.33374159
   0.66666578  0.33333787  0.33368247
   0.49986417  0.99987089  0.33373836
   0.66603280  0.83292817  0.33379093
Direct configuration=     3
   0.00416605  0.00270942  0.12015942
   0.35676858  0.00291320  0.09755370
   0.00413463  0.35524411  0.09755688
   0.65168295  0.65023014  0.09754280
   0.32749548  0.32600262  0.10029456
   0.68097849  0.00289795  0.10026752
   0.00406820  0.67943814  0.10025820
   0.00004802  0.49999589  0.33373539
   0.16675378  0.33357255  0.33375522
   0.99999896  0.99999711  0.33369177
   0.16681560  0.83324460  0.33375628
   0.50000941  0.50005670  0.33373646
   0.66666612  0.33333464  0.33371406
   0.49994812  0.99995087  0.33373524
   0.66642627  0.83317940  0.33375516
Direct configuration=     4
   0.00418316  0.00277564  0.11976092
   0.35700349  0.00300271  0.09770833
   0.00394887  0.35535806  0.09771020
   0.65158587  0.64995935  0.09770054
   0.32745861  0.32575517  0.10025505
   0.68119981  0.00307841  0.10023455
   0.00390375  0.67949889  0.10022685
  -0.00009021  0.49999451  0.33374891
   0.16664129  0.33321237  0.33379692
   0.99999995  0.00000257  0.33360884
   0.16657962  0.83336413  0.33380035
   0.50000229  0.49991471  0.33375236
   0.66666906  0.33333232  0.33366381
   0.50008270  0.00009038  0.33374838
   0.66679241  0.83342812  0.33379667
Direct configuration=     5
   0.00418369  0.00277767  0.11974872
   0.35701068  0.00300545  0.09771307
   0.00394319  0.35536155  0.09771489
   0.65158290  0.64995106  0.09770537
   0.32745749  0.32574759  0.10025384
   0.68120659  0.00308393  0.10023354
   0.00389871  0.67950075  0.10022589
  -0.00009444  0.49999447  0.33374932
   0.16663784  0.33320134  0.33379820
   0.99999998  0.00000273  0.33360630
   0.16657239  0.83336779  0.33380170
   0.50000207  0.49991036  0.33375285
   0.66666915  0.33333225  0.33366227
   0.50008681  0.00009465  0.33374878
   0.66680361  0.83343573  0.33379794
Direct configuration=     6
   0.00418821  0.00279737  0.11958421
   0.35711523  0.00302497  0.09777058
   0.00389395  0.35543841  0.09777189
   0.65151475  0.64983548  0.09776405
   0.32751718  0.32575604  0.10024375
   0.68119070  0.00312343  0.10022610
   0.00385854  0.67944914  0.10021906
  -0.00006268  0.49999714  0.33375611
   0.16664145  0.33323967  0.33381082
   0.00000155  0.00000272  0.33358078
   0.16660505  0.83336361  0.33381511
   0.50000248  0.49993995  0.33376044
   0.66666895  0.33333302  0.33364387
   0.50006014  0.00006463  0.33375543
   0.66676517  0.83340175  0.33381048
Direct configuration=     7
   0.00420179  0.00285645  0.11909070
   0.35742889  0.00308354  0.09794312
   0.00374623  0.35566899  0.09794289
   0.65131031  0.64948876  0.09794007
   0.32769625  0.32578138  0.10021350
   0.68114305  0.00324194  0.10020376
   0.00373802  0.67929431  0.10019854
   0.00003257  0.50000514  0.33377649
   0.16665229  0.33335466  0.33384867
   0.00000625  0.00000267  0.33350422
   0.16670303  0.83335109  0.33385534
   0.50000370  0.50002869  0.33378320
   0.66666833  0.33333536  0.33358868
   0.49998010 -0.00002543  0.33377537
   0.66664986  0.83329979  0.33384810
Direct configuration=     8
   0.00422894  0.00297463  0.11810367
   0.35805620  0.00320067  0.09828820
   0.00345079  0.35613015  0.09828490
   0.65090143  0.64879531  0.09829212
   0.32805441  0.32583205  0.10015298
   0.68104774  0.00347894  0.10015910
   0.00349699  0.67898467  0.10015752
   0.00022308  0.50002115  0.33381724
   0.16667395  0.33358463  0.33392438
   0.00001565  0.00000256  0.33335110
   0.16689899  0.83332605  0.33393581
   0.50000613  0.50020618  0.33382874
   0.66666711  0.33334002  0.33347831
   0.49982003 -0.00020555  0.33381526
   0.66641923  0.83309589  0.33392334
Direct configuration=     9
   0.00421342  0.00290710  0.11866770
   0.35769773  0.00313373  0.09809100
   0.00361962  0.35586662  0.09808946
   0.65113508  0.64919158  0.09809094
   0.32784974  0.32580309  0.10018756
   0.68110220  0.00334351  0.10018462
   0.00363473  0.67916161  0.10018096
   0.00011421  0.50001201  0.33379395
   0.16666157  0.33345321  0.33388112
   0.00001028  0.00000262  0.33343860
   0.16678701  0.83334036  0.33388982
   0.50000474  0.50010475  0.33380272
   0.66666781  0.33333735  0.33354138
   0.49991150 -0.00010262  0.33379247
   0.66655102  0.83321241  0.33388034
Direct configuration=    10
   0.00421208  0.00290481  0.11836615
   0.35768010  0.00309130  0.09815166
   0.00366699  0.35589910  0.09814961
   0.65111238  0.64920677  0.09815261
   0.32787719  0.32590754  0.10021482
   0.68099913  0.00325761  0.10021558
   0.00369581  0.67913420  0.10021259
   0.00004299  0.50001862  0.33380733
   0.16673039  0.33349747  0.33388005
   0.00000452  0.00000235  0.33344224
   0.16677612  0.83328079  0.33388902
   0.49999371  0.50003164  0.33381634
   0.66667376  0.33333831  0.33352979
   0.49998014 -0.00003611  0.33380567
   0.66651536  0.83323293  0.33387918
Direct configuration=    11
   0.00420806  0.00289793  0.11746148
   0.35762722  0.00296401  0.09833365
   0.00380909  0.35599652  0.09833008
   0.65104429  0.64925235  0.09833763
   0.32795952  0.32622088  0.10029659
   0.68068993  0.00299994  0.10030846
   0.00387904  0.67905197  0.10030747
  -0.00017070  0.50003845  0.33384745
   0.16693683  0.33363023  0.33387683
  -0.00001278  0.00000154  0.33345317
   0.16674346  0.83310210  0.33388661
   0.49996061  0.49981230  0.33385721
   0.66669161  0.33334119  0.33349503
   0.50018608  0.00016344  0.33384530
   0.66640838  0.83329449  0.33387569
Direct configuration=    12
   0.00420579  0.00288566  0.11717033
   0.35759121  0.00292037  0.09837508
   0.00387925  0.35601399  0.09837140
   0.65102143  0.64929278  0.09837939
   0.32794863  0.32630171  0.10033988
   0.68061095  0.00291337  0.10035433
   0.00395082  0.67904967  0.10035375
  -0.00009379  0.50000355  0.33385397
   0.16681506  0.33354459  0.33387066
   0.00000317  0.00000479  0.33347686
   0.16675539  0.83321014  0.33388006
   0.50001127  0.49991415  0.33386330
   0.66668076  0.33334054  0.33350245
   0.50010042  0.00010343  0.33385171
   0.66648029  0.83326859  0.33386950
Direct configuration=    13
   0.00420174  0.00286378  0.11665153
   0.35752705  0.00284262  0.09844890
   0.00400426  0.35604513  0.09844504
   0.65098070  0.64936483  0.09845380
   0.32792923  0.32644574  0.10041702
   0.68047022  0.00275911  0.10043605
   0.00407872  0.67904556  0.10043620
   0.00004326  0.49994136  0.33386558
   0.16659807  0.33339200  0.33385966
   0.00003158  0.00001059  0.33351908
   0.16677666  0.83340267  0.33386840
   0.50010154  0.50009562  0.33387414
   0.66666142  0.33333940  0.33351566
   0.49994778 -0.00000351  0.33386313
   0.66660843  0.83322244  0.33385847
Direct configuration=    14
   0.00419807  0.00284624  0.11644882
   0.35757007  0.00283881  0.09846679
   0.00403777  0.35609532  0.09846334
   0.65090776  0.64933075  0.09847123
   0.32792690  0.32646586  0.10045710
   0.68045040  0.00275660  0.10047648
   0.00409350  0.67902824  0.10047662
   0.00007688  0.50000050  0.33385822
   0.16665056  0.33339130  0.33385584
   0.00001720  0.00000882  0.33355217
   0.16675199  0.83336809  0.33386371
   0.50002733  0.50008138  0.33386584
   0.66667782  0.33334255  0.33354599
   0.49994603 -0.00005225  0.33385583
   0.66662837  0.83326513  0.33385469
Direct configuration=    15
   0.00419223  0.00281829  0.11612576
   0.35763863  0.00283275  0.09849529
   0.00409118  0.35617529  0.09849251
   0.65079151  0.64927643  0.09849902
   0.32792319  0.32649793  0.10052097
   0.68041882  0.00275259  0.10054091
   0.00411704  0.67900065  0.10054104
   0.00013047  0.50009474  0.33384649
   0.16673422  0.33339019  0.33384974
  -0.00000571  0.00000599  0.33360490
   0.16671269  0.83331297  0.33385623
   0.49990907  0.50005869  0.33385262
   0.66670395  0.33334758  0.33359432
   0.49994324 -0.00012994  0.33384420
   0.66666016  0.83333317  0.33384867
Direct configuration=    16
   0.00418057  0.00278698  0.11591798
   0.35776668  0.00286462  0.09851445
   0.00408287  0.35627099  0.09851244
   0.65066645  0.64916104  0.09851717
   0.32795280  0.32648154  0.10055899
   0.68043965  0.00282452  0.10057766
   0.00407411  0.67895801  0.10057755
   0.00005007  0.50003776  0.33382972
   0.16673774  0.33344797  0.33384901
   0.00001646  0.00000964  0.33364921
   0.16672948  0.83328787  0.33385423
   0.49999293  0.50001981  0.33383439
   0.66668225  0.33334479  0.33364419
   0.50000994 -0.00002288  0.33382758
   0.66657866  0.83329468  0.33384809
Direct configuration=    17
   0.00417529  0.00277278  0.11582373
   0.35782476  0.00287908  0.09852314
   0.00407911  0.35631440  0.09852148
   0.65060973  0.64910869  0.09852541
   0.32796623  0.32647410  0.10057623
   0.68044910  0.00285715  0.10059433
   0.00405463  0.67893867  0.10059410
   0.00001360  0.50001192  0.33382211
   0.16673934  0.33347418  0.33384868
   0.00002651  0.00001130  0.33366931
   0.16673710  0.83327649  0.33385332
   0.50003097  0.50000217  0.33382613
   0.66667241  0.33334353  0.33366682
   0.50004019  0.00002568  0.33382005
   0.66654170  0.83327721  0.33384783
Direct configuration=    18
   0.00416574  0.00275668  0.11576371
   0.35789031  0.00291104  0.09853765
   0.00404026  0.35634566  0.09853638
   0.65057506  0.64904680  0.09853922
   0.32798532  0.32643380  0.10057550
   0.68049403  0.00291994  0.10059170
   0.00400311  0.67892756  0.10059116
   0.00001630  0.49998691  0.33381577
   0.16670920  0.33344956  0.33385088
   0.00001351  0.00000990  0.33368631
   0.16676982  0.83332397  0.33385514
   0.50004054  0.50004050  0.33381929
   0.66668765  0.33334583  0.33368593
   0.49998663  0.00000785  0.33381387
   0.66658319  0.83326133  0.33385015
Direct configuration=    19
   0.00416267  0.00275151  0.11574442
   0.35791137  0.00292130  0.09854231
   0.00402778  0.35635571  0.09854117
   0.65056392  0.64902691  0.09854366
   0.32799145  0.32642085  0.10057527
   0.68050846  0.00294011  0.10059086
   0.00398656  0.67892400  0.10059022
   0.00001717  0.49997888  0.33381374
   0.16669951  0.33344165  0.33385158
   0.00000933  0.00000945  0.33369178
   0.16678034  0.83333923  0.33385573
   0.50004361  0.50005282  0.33381709
   0.66669254  0.33334656  0.33369207
   0.49996942  0.00000212  0.33381188
   0.66659652  0.83325623  0.33385089
Direct configuration=    20
   0.00415741  0.00274542  0.11570722
   0.35794937  0.00295021  0.09855865
   0.00398771  0.35636138  0.09855788
   0.65055825  0.64898888  0.09855918
   0.32800270  0.32638120  0.10056482
   0.68054901  0.00299011  0.10057786
   0.00394259  0.67891980  0.10057681
   0.00005080  0.50001739  0.33381190
   0.16671084  0.33343126  0.33385421
   0.00001817  0.00001102  0.33370442
   0.16674369  0.83331915  0.33385821
   0.50001568  0.50004170  0.33381499
   0.66668494  0.33334611  0.33370269
   0.49999035 -0.00002085  0.33381020
   0.66659917  0.83328454  0.33385364
Direct configuration=    21
   0.00415619  0.00274400  0.11569852
   0.35795825  0.00295697  0.09856246
   0.00397835  0.35636270  0.09856178
   0.65055692  0.64897999  0.09856280
   0.32800532  0.32637194  0.10056237
   0.68055849  0.00300179  0.10057483
   0.00393232  0.67891882  0.10057367
   0.00005865  0.50002639  0.33381147
   0.16671348  0.33342883  0.33385482
   0.00002023  0.00001139  0.33370738
   0.16673513  0.83331446  0.33385879
   0.50000915  0.50003910  0.33381450
   0.66668316  0.33334600  0.33370517
   0.49999523 -0.00002621  0.33380981
   0.66659978  0.83329116  0.33385428
Direct configuration=    22
   0.00415840  0.00275034  0.11567982
   0.35795859  0.00296534  0.09857316
   0.00396478  0.35635248  0.09857274
   0.65056666  0.64897637  0.09857276
   0.32800761  0.32636520  0.10055222
   0.68056110  0.00300888  0.10056243
   0.00392424  0.67891468  0.10056088
   0.00003669  0.50001458  0.33381421
   0.16672199  0.33344676  0.33385696
   0.00001953  0.00001163  0.33371371
   0.16674754  0.83330825  0.33386100
   0.50002072  0.50003021  0.33381723
   0.66668463  0.33334635  0.33370640
   0.50000435 -0.00000475  0.33381266
   0.66658384  0.83328101  0.33385650
Direct configuration=    23
   0.00416001  0.00275495  0.11566622
   0.35795885  0.00297143  0.09858093
   0.00395491  0.35634504  0.09858071
   0.65057374  0.64897374  0.09858000
   0.32800927  0.32636031  0.10054483
   0.68056300  0.00301403  0.10055342
   0.00391837  0.67891167  0.10055158
   0.00002072  0.50000599  0.33381620
   0.16672817  0.33345980  0.33385851
   0.00001902  0.00001181  0.33371832
   0.16675657  0.83330373  0.33386260
   0.50002913  0.50002374  0.33381922
   0.66668569  0.33334660  0.33370730
   0.50001098  0.00001085  0.33381473
   0.66657225  0.83327363  0.33385811
Direct configuration=    24
   0.00416335  0.00276349  0.11564493
   0.35794739  0.00296783  0.09858900
   0.00395404  0.35633651  0.09858905
   0.65058327  0.64898002  0.09858719
   0.32801178  0.32637451  0.10053521
   0.68054455  0.00299841  0.10054092
   0.00392748  0.67890623  0.10053852
   0.00003142  0.50000412  0.33382166
   0.16671537  0.33344747  0.33386241
   0.00001885  0.00001215  0.33372373
   0.16676042  0.83331943  0.33386666
   0.50003065  0.50003737  0.33382479
   0.66668777  0.33334733  0.33370619
   0.49999684 -0.00000001  0.33382032
   0.66658748  0.83327248  0.33386209
Direct configuration=    25
   0.00416495  0.00276756  0.11563477
   0.35794193  0.00296612  0.09859286
   0.00395363  0.35633243  0.09859304
   0.65058782  0.64898302  0.09859063
   0.32801298  0.32638128  0.10053062
   0.68053575  0.00299095  0.10053495
   0.00393183  0.67890363  0.10053229
   0.00003653  0.50000323  0.33382427
   0.16670926  0.33344159  0.33386427
   0.00001877  0.00001231  0.33372631
   0.16676225  0.83332692  0.33386860
   0.50003138  0.50004388  0.33382744
   0.66668876  0.33334767  0.33370565
   0.49999010 -0.00000519  0.33382298
   0.66659475  0.83327193  0.33386398
Direct configuration=    26
   0.00416488  0.00276999  0.11561110
   0.35793113  0.00295276  0.09859395
   0.00396232  0.35633583  0.09859433
   0.65058761  0.64898963  0.09859098
   0.32801186  0.32640173  0.10052629
   0.68051438  0.00296432  0.10052777
   0.00394907  0.67890561  0.10052453
   0.00004954  0.50002293  0.33383039
   0.16671922  0.33343907  0.33387041
   0.00002321  0.00001353  0.33372981
   0.16674413  0.83331399  0.33387490
   0.50001749  0.50003489  0.33383372
   0.66668614  0.33334790  0.33370512
   0.50000480 -0.00001243  0.33382919
   0.66659490  0.83328759  0.33387016
Direct configuration=    27
   0.00416486  0.00277052  0.11560593
   0.35792877  0.00294984  0.09859419
   0.00396422  0.35633657  0.09859462
   0.65058756  0.64899108  0.09859106
   0.32801162  0.32640620  0.10052534
   0.68050970  0.00295849  0.10052620
   0.00395284  0.67890604  0.10052284
   0.00005239  0.50002724  0.33383173
   0.16672140  0.33343852  0.33387175
   0.00002419  0.00001379  0.33373058
   0.16674017  0.83331117  0.33387627
   0.50001445  0.50003293  0.33383509
   0.66668557  0.33334795  0.33370500
   0.50000801 -0.00001402  0.33383055
   0.66659493  0.83329101  0.33387152
Direct configuration=    28
   0.00416361  0.00277012  0.11558583
   0.35792457  0.00293940  0.09859176
   0.00397129  0.35634326  0.09859232
   0.65058263  0.64899287  0.09858814
   0.32800802  0.32641639  0.10052439
   0.68049907  0.00294163  0.10052314
   0.00396365  0.67891057  0.10051936
   0.00004690  0.50002418  0.33383657
   0.16672491  0.33344376  0.33387751
   0.00002362  0.00001415  0.33373295
   0.16674551  0.83331059  0.33388214
   0.50001740  0.50003179  0.33384005
   0.66668772  0.33334868  0.33370576
   0.50000920 -0.00000868  0.33383545
   0.66659256  0.83328862  0.33387730
Direct configuration=    29
   0.00415985  0.00276890  0.11552556
   0.35791199  0.00290810  0.09858446
   0.00399251  0.35636333  0.09858541
   0.65056784  0.64899823  0.09857939
   0.32799722  0.32644696  0.10052154
   0.68046717  0.00289105  0.10051396
   0.00399610  0.67892415  0.10050892
   0.00003043  0.50001501  0.33385108
   0.16673543  0.33345945  0.33389479
   0.00002194  0.00001523  0.33374008
   0.16676153  0.83330886  0.33389974
   0.50002624  0.50002837  0.33385494
   0.66669419  0.33335089  0.33370805
   0.50001277  0.00000734  0.33385013
   0.66658545  0.83328146  0.33389464
Direct configuration=    30
   0.00415957  0.00276981  0.11549759
   0.35791929  0.00290733  0.09857872
   0.00399135  0.35636982  0.09857982
   0.65055720  0.64898877  0.09857320
   0.32799358  0.32643937  0.10052149
   0.68047040  0.00289605  0.10051168
   0.00399144  0.67892302  0.10050622
   0.00004024  0.50001075  0.33385729
   0.16672122  0.33345073  0.33390244
   0.00002633  0.00001643  0.33374470
   0.16676356  0.83332226  0.33390741
   0.50003563  0.50004060  0.33386125
   0.66669250  0.33335129  0.33371220
   0.50000537  0.00000296  0.33385637
   0.66659298  0.83327812  0.33390228
Direct configuration=    31
   0.00415901  0.00277164  0.11544120
   0.35793404  0.00290580  0.09856715
   0.00398902  0.35638291  0.09856855
   0.65053573  0.64896968  0.09856071
   0.32798622  0.32642407  0.10052138
   0.68047691  0.00290616  0.10050709
   0.00398203  0.67892075  0.10050077
   0.00006003  0.50000218  0.33386981
   0.16669256  0.33343314  0.33391788
   0.00003520  0.00001885  0.33375403
   0.16676766  0.83334929  0.33392288
   0.50005457  0.50006527  0.33387398
   0.66668908  0.33335210  0.33372059
   0.49999044 -0.00000589  0.33386895
   0.66660817  0.83327139  0.33391771
Direct configuration=    32
   0.00415919  0.00277106  0.11545918
   0.35792934  0.00290629  0.09857084
   0.00398976  0.35637873  0.09857214
   0.65054258  0.64897577  0.09856470
   0.32798857  0.32642895  0.10052142
   0.68047483  0.00290293  0.10050855
   0.00398503  0.67892147  0.10050251
   0.00005372  0.50000491  0.33386582
   0.16670170  0.33343875  0.33391295
   0.00003237  0.00001808  0.33375106
   0.16676636  0.83334067  0.33391794
   0.50004853  0.50005741  0.33386992
   0.66669017  0.33335184  0.33371792
   0.49999520 -0.00000307  0.33386494
   0.66660333  0.83327354  0.33391279
Direct configuration=    33
   0.00415846  0.00277063  0.11543907
   0.35793754  0.00290982  0.09856644
   0.00398516  0.35638212  0.09856782
   0.65053478  0.64896613  0.09856010
   0.32798959  0.32642055  0.10052075
   0.68048035  0.00291404  0.10050665
   0.00397572  0.67891683  0.10050037
   0.00005593  0.50001030  0.33387036
   0.16670683  0.33343817  0.33391819
   0.00003235  0.00001861  0.33375546
   0.16676368  0.83333810  0.33392313
   0.50004366  0.50005524  0.33387450
   0.66669215  0.33335265  0.33372234
   0.49999786 -0.00000478  0.33386949
   0.66660661  0.83327893  0.33391800
Direct configuration=    34
   0.00415626  0.00276933  0.11537876
   0.35796216  0.00292041  0.09855326
   0.00397135  0.35639229  0.09855487
   0.65051137  0.64893723  0.09854630
   0.32799267  0.32639535  0.10051875
   0.68049691  0.00294734  0.10050095
   0.00394780  0.67890288  0.10049395
   0.00006255  0.50002645  0.33388398
   0.16672224  0.33343644  0.33393388
   0.00003226  0.00002021  0.33376867
   0.16675567  0.83333039  0.33393870
   0.50002907  0.50004872  0.33388825
   0.66669808  0.33335508  0.33373562
   0.50000583 -0.00000991  0.33388312
   0.66661644  0.83329512  0.33393364
Direct configuration=    35
   0.00415581  0.00276907  0.11536637
   0.35796722  0.00292259  0.09855055
   0.00396852  0.35639438  0.09855221
   0.65050656  0.64893129  0.09854346
   0.32799330  0.32639018  0.10051834
   0.68050031  0.00295419  0.10049977
   0.00394206  0.67890001  0.10049263
   0.00006392  0.50002977  0.33388678
   0.16672541  0.33343608  0.33393710
   0.00003224  0.00002054  0.33377138
   0.16675402  0.83332880  0.33394189
   0.50002607  0.50004739  0.33389107
   0.66669930  0.33335558  0.33373835
   0.50000747 -0.00001097  0.33388592
   0.66661846  0.83329844  0.33393685
Direct configuration=    36
   0.00415491  0.00276853  0.11534158
   0.35797733  0.00292694  0.09854513
   0.00396285  0.35639856  0.09854688
   0.65049694  0.64891941  0.09853779
   0.32799457  0.32637982  0.10051752
   0.68050712  0.00296787  0.10049743
   0.00393059  0.67889428  0.10049000
   0.00006664  0.50003641  0.33389238
   0.16673174  0.33343537  0.33394355
   0.00003220  0.00002120  0.33377681
   0.16675072  0.83332563  0.33394829
   0.50002007  0.50004471  0.33389672
   0.66670174  0.33335658  0.33374380
   0.50001075 -0.00001307  0.33389152
   0.66662250  0.83330509  0.33394327
Direct configuration=    37
   0.00414990  0.00276150  0.11530357
   0.35798759  0.00293408  0.09853835
   0.00395251  0.35640129  0.09854011
   0.65048837  0.64890631  0.09853093
   0.32800659  0.32637602  0.10051160
   0.68051041  0.00298467  0.10049020
   0.00391330  0.67888119  0.10048251
   0.00005657  0.50002947  0.33390197
   0.16673835  0.33345034  0.33395274
   0.00003412  0.00002243  0.33378836
   0.16676094  0.83332176  0.33395730
   0.50003068  0.50004213  0.33390630
   0.66670338  0.33335779  0.33375525
   0.50001757  0.00000051  0.33390108
   0.66661039  0.83329785  0.33395240
Direct configuration=    38
   0.00414687  0.00275725  0.11528057
   0.35799380  0.00293840  0.09853424
   0.00394626  0.35640295  0.09853601
   0.65048318  0.64889838  0.09852678
   0.32801386  0.32637373  0.10050802
   0.68051239  0.00299482  0.10048582
   0.00390285  0.67887327  0.10047798
   0.00005048  0.50002527  0.33390778
   0.16674234  0.33345940  0.33395830
   0.00003528  0.00002318  0.33379534
   0.16676712  0.83331942  0.33396275
   0.50003711  0.50004057  0.33391210
   0.66670438  0.33335852  0.33376218
   0.50002170  0.00000873  0.33390686
   0.66660306  0.83329347  0.33395792
Direct configuration=    39
   0.00414080  0.00274874  0.11523457
   0.35800621  0.00294703  0.09852603
   0.00393375  0.35640625  0.09852781
   0.65047280  0.64888253  0.09851848
   0.32802840  0.32636913  0.10050086
   0.68051637  0.00301514  0.10047708
   0.00388194  0.67885744  0.10046893
   0.00003829  0.50001687  0.33391940
   0.16675034  0.33347751  0.33396942
   0.00003761  0.00002467  0.33380931
   0.16677948  0.83331473  0.33397365
   0.50004995  0.50003744  0.33392370
   0.66670637  0.33335998  0.33377604
   0.50002995  0.00002516  0.33391842
   0.66658840  0.83328470  0.33396896
Direct configuration=    40
   0.00414520  0.00275491  0.11526793
   0.35799721  0.00294077  0.09853199
   0.00394282  0.35640385  0.09853375
   0.65048032  0.64889402  0.09852450
   0.32801785  0.32637247  0.10050605
   0.68051349  0.00300041  0.10048342
   0.00389710  0.67886892  0.10047550
   0.00004713  0.50002296  0.33391097
   0.16674454  0.33346437  0.33396136
   0.00003592  0.00002359  0.33379918
   0.16677051  0.83331813  0.33396575
   0.50004064  0.50003971  0.33391529
   0.66670493  0.33335892  0.33376599
   0.50002397  0.00001324  0.33391004
   0.66659903  0.83329106  0.33396096
Direct configuration=    41
   0.00414038  0.00274767  0.11524833
   0.35799082  0.00293980  0.09853088
   0.00394206  0.35640006  0.09853250
   0.65048447  0.64889931  0.09852371
   0.32802375  0.32638423  0.10049642
   0.68050330  0.00299235  0.10047443
   0.00389878  0.67886501  0.10046663
   0.00005119  0.50001800  0.33391728
   0.16673525  0.33346015  0.33396567
   0.00003920  0.00002471  0.33380860
   0.16677455  0.83332820  0.33396989
   0.50004959  0.50004785  0.33392150
   0.66670441  0.33335947  0.33377534
   0.50001946  0.00001337  0.33391627
   0.66660347  0.83328715  0.33396521
Direct configuration=    42
   0.00412925  0.00273097  0.11520315
   0.35797608  0.00293756  0.09852832
   0.00394030  0.35639130  0.09852961
   0.65049402  0.64891151  0.09852187
   0.32803734  0.32641138  0.10047419
   0.68047982  0.00297376  0.10045370
   0.00390265  0.67885599  0.10044618
   0.00006055  0.50000656  0.33393184
   0.16671383  0.33345041  0.33397563
   0.00004677  0.00002729  0.33383032
   0.16678385  0.83335142  0.33397944
   0.50007024  0.50006661  0.33393583
   0.66670321  0.33336075  0.33379691
   0.50000905  0.00001367  0.33393066
   0.66661371  0.83327815  0.33397503
Direct configuration=    43
   0.00412770  0.00272892  0.11519042
   0.35797135  0.00293634  0.09852771
   0.00394131  0.35638831  0.09852889
   0.65049606  0.64891528  0.09852153
   0.32803600  0.32641695  0.10046678
   0.68047294  0.00296621  0.10044707
   0.00390669  0.67885557  0.10043970
   0.00006237  0.50001233  0.33393612
   0.16671973  0.33345037  0.33397870
   0.00004627  0.00002774  0.33383667
   0.16678150  0.83334838  0.33398240
   0.50006452  0.50006390  0.33394004
   0.66670556  0.33336159  0.33380369
   0.50001182  0.00001184  0.33393488
   0.66661685  0.83328360  0.33397807
Direct configuration=    44
   0.00412305  0.00272280  0.11515224
   0.35795717  0.00293268  0.09852588
   0.00394435  0.35637936  0.09852675
   0.65050218  0.64892657  0.09852050
   0.32803198  0.32643365  0.10044455
   0.68045232  0.00294354  0.10042718
   0.00391881  0.67885431  0.10042026
   0.00006781  0.50002966  0.33394895
   0.16673743  0.33345023  0.33398792
   0.00004477  0.00002909  0.33385572
   0.16677446  0.83333928  0.33399129
   0.50004737  0.50005576  0.33395266
   0.66671258  0.33336412  0.33382403
   0.50002011  0.00000633  0.33394755
   0.66662627  0.83329995  0.33398718
Direct configuration=    45
   0.00412620  0.00272837  0.11515104
   0.35796036  0.00293258  0.09852480
   0.00394525  0.35638118  0.09852567
   0.65049715  0.64892218  0.09851949
   0.32802372  0.32642676  0.10044333
   0.68045477  0.00294390  0.10042649
   0.00392072  0.67885682  0.10041968
   0.00006548  0.50003006  0.33394952
   0.16674129  0.33345546  0.33398924
   0.00004522  0.00002926  0.33385572
   0.16677501  0.83333493  0.33399264
   0.50004791  0.50005286  0.33395322
   0.66671242  0.33336421  0.33382521
   0.50002429  0.00000948  0.33394811
   0.66662087  0.83329928  0.33398851
Direct configuration=    46
   0.00413435  0.00274278  0.11514793
   0.35796860  0.00293231  0.09852202
   0.00394759  0.35638590  0.09852288
   0.65048414  0.64891083  0.09851687
   0.32800236  0.32640896  0.10044015
   0.68046110  0.00294483  0.10042471
   0.00392568  0.67886330  0.10041818
   0.00005945  0.50003110  0.33395098
   0.16675129  0.33346899  0.33399265
   0.00004638  0.00002971  0.33385573
   0.16677642  0.83332367  0.33399612
   0.50004929  0.50004536  0.33395468
   0.66671202  0.33336443  0.33382829
   0.50003509  0.00001761  0.33394955
   0.66660689  0.83329754  0.33399193
Direct configuration=    47
   0.00413718  0.00274828  0.11514691
   0.35797294  0.00293096  0.09851977
   0.00394805  0.35639007  0.09852061
   0.65047714  0.64890442  0.09851476
   0.32799436  0.32640202  0.10043817
   0.68046392  0.00294489  0.10042377
   0.00392739  0.67886632  0.10041744
   0.00005964  0.50002965  0.33395209
   0.16674973  0.33346814  0.33399482
   0.00004648  0.00002989  0.33385558
   0.16677835  0.83332637  0.33399835
   0.50005093  0.50004737  0.33395579
   0.66671267  0.33336470  0.33382983
   0.50003317  0.00001769  0.33395066
   0.66660871  0.83329656  0.33399412
Direct configuration=    48
   0.00414335  0.00276030  0.11514470
   0.35798240  0.00292802  0.09851485
   0.00394906  0.35639919  0.09851565
   0.65046187  0.64889039  0.09851016
   0.32797688  0.32638687  0.10043383
   0.68047007  0.00294501  0.10042171
   0.00393113  0.67887290  0.10041583
   0.00006004  0.50002647  0.33395451
   0.16674632  0.33346629  0.33399957
   0.00004670  0.00003030  0.33385523
   0.16678258  0.83333228  0.33400323
   0.50005450  0.50005175  0.33395822
   0.66671409  0.33336529  0.33383321
   0.50002899  0.00001785  0.33395308
   0.66661269  0.83329444  0.33399890
Direct configuration=    49
   0.00413908  0.00275457  0.11514440
   0.35798114  0.00292471  0.09851218
   0.00394697  0.35640210  0.09851289
   0.65046246  0.64889028  0.09850773
   0.32798485  0.32639346  0.10043143
   0.68046804  0.00294292  0.10042054
   0.00392906  0.67887245  0.10041489
   0.00006479  0.50002886  0.33395643
   0.16674321  0.33345965  0.33400129
   0.00004734  0.00003060  0.33385591
   0.16677986  0.83333637  0.33400502
   0.50005272  0.50005415  0.33396012
   0.66671439  0.33336560  0.33383420
   0.50002673  0.00001376  0.33395500
   0.66662001  0.83329784  0.33400063
Direct configuration=    50
   0.00413211  0.00274523  0.11514392
   0.35797908  0.00291932  0.09850782
   0.00394357  0.35640685  0.09850839
   0.65046344  0.64889009  0.09850377
   0.32799787  0.32640422  0.10042751
   0.68046471  0.00293951  0.10041864
   0.00392567  0.67887171  0.10041337
   0.00007255  0.50003277  0.33395955
   0.16673814  0.33344883  0.33400409
   0.00004839  0.00003110  0.33385702
   0.16677543  0.83334305  0.33400794
   0.50004980  0.50005807  0.33396324