       N       E                     dE             d eps       ncg     rms          rms(c)
DAV:   1     0.187635060003E+03    0.18764E+03   -0.25490E+04  1824   0.858E+02
DAV:   2    -0.123591496834E+03   -0.31123E+03   -0.31046E+03  2832   0.160E+02
DAV:   3    -0.133718306391E+03   -0.10127E+02   -0.10071E+02  3120   0.380E+01
DAV:   4    -0.133744709030E+03   -0.26403E-01   -0.26402E-01  2784   0.181E+00
DAV:   5    -0.133744749527E+03   -0.40497E-04   -0.40497E-04  2784   0.774E-02    0.157E+01
DAV:   6    -0.126840406449E+03    0.69043E+01   -0.69275E+00  2928   0.773E+00    0.917E+00
DAV:   7    -0.124149974314E+03    0.26904E+01   -0.84831E+00  3552   0.850E+00    0.202E+00
DAV:   8    -0.124091683169E+03    0.58291E-01   -0.16620E-01  2736   0.130E+00    0.355E-01
DAV:   9    -0.124076837200E+03    0.14846E-01   -0.11060E-02  3024   0.364E-01    0.214E-01
DAV:  10    -0.124064697082E+03    0.12140E-01   -0.91834E-03  2832   0.220E-01    0.977E-02
DAV:  11    -0.124058188315E+03    0.65088E-02   -0.94321E-03  2880   0.208E-01    0.835E-02
DAV:  12    -0.124059080802E+03   -0.89249E-03   -0.22756E-03  1968   0.108E-01    0.399E-02
DAV:  13    -0.124061312041E+03   -0.22312E-02   -0.18654E-04  2784   0.368E-02    0.208E-02
DAV:  14    -0.124064278356E+03   -0.29663E-02   -0.47584E-04  2640   0.463E-02    0.128E-02
DAV:  15    -0.124064886655E+03   -0.60830E-03   -0.90239E-05  2160   0.188E-02    0.463E-03
DAV:  16    -0.124065032609E+03   -0.14595E-03   -0.11869E-05  2736   0.651E-03    0.140E-03
DAV:  17    -0.124065068529E+03   -0.35920E-04   -0.34744E-06  2112   0.333E-03    0.477E-04
DAV:  18    -0.124065073969E+03   -0.54394E-05   -0.33112E-07  2448   0.108E-03    0.269E-04
DAV:  19    -0.124065076939E+03   -0.29702E-05   -0.32406E-07  1872   0.874E-04    0.205E-04
DAV:  20    -0.124065077400E+03   -0.46093E-06   -0.31581E-08  2928   0.338E-04
   1 F= -.12591800E+03 E0= -.12591530E+03  d E =-.125918E+03
       N       E                     dE             d eps       ncg     rms          rms(c)
DAV:   1    -0.124067446810E+03   -0.23699E-02   -0.39965E-01  1872   0.161E+00    0.214E-01
DAV:   2    -0.124065429531E+03    0.20173E-02   -0.95768E-03  2832   0.247E-01    0.946E-02
DAV:   3    -0.124065113567E+03    0.31596E-03   -0.15132E-03  2592   0.871E-02    0.261E-02
DAV:   4    -0.124065102617E+03    0.10950E-04   -0.12223E-04  2928   0.273E-02    0.895E-03
DAV:   5    -0.124065102381E+03    0.23640E-06   -0.62021E-06  2928   0.612E-03
   2 F= -.12591828E+03 E0= -.12591582E+03  d E =-.275279E-03
       N       E                     dE             d eps       ncg     rms          rms(c)
DAV:   1    -0.124066871933E+03   -0.17693E-02   -0.88221E-02  1872   0.758E-01    0.101E-01
DAV:   2    -0.124066426305E+03    0.44563E-03   -0.21303E-03  2928   0.116E-01    0.444E-02
DAV:   3    -0.124066358090E+03    0.68215E-04   -0.33096E-04  2256   0.406E-02    0.122E-02
DAV:   4    -0.124066356515E+03    0.15746E-05   -0.27618E-05  2304   0.130E-02    0.415E-03
DAV:   5    -0.124066356804E+03   -0.28937E-06   -0.13367E-06  2448   0.293E-03
   3 F= -.12591942E+03 E0= -.12591685E+03  d E =-.141227E-02
       N       E                     dE             d eps       ncg     rms          rms(c)
DAV:   1    -0.124066356235E+03    0.28052E-06   -0.13508E-06  2400   0.339E-03    0.613E-04
DAV:   2    -0.124066356262E+03   -0.26991E-07   -0.63851E-08  2880   0.539E-04
   4 F= -.12591942E+03 E0= -.12591685E+03  d E =-.141234E-02
       N       E                     dE             d eps       ncg     rms          rms(c)
DAV:   1    -0.124066356631E+03   -0.39663E-06   -0.66289E-07  2112   0.203E-03    0.240E-04
DAV:   2    -0.124066356656E+03   -0.25352E-07   -0.17223E-08  2496   0.340E-04
   5 F= -.12591942E+03 E0= -.12591685E+03  d E =-.141244E-02
       N       E                     dE             d eps       ncg     rms          rms(c)
DAV:   1    -0.124066356849E+03   -0.21767E-06   -0.13778E-07  2112   0.979E-04    0.154E-04
DAV:   2    -0.124066356857E+03   -0.82955E-08   -0.34191E-09  3168   0.147E-04
   6 F= -.12591942E+03 E0= -.12591685E+03  d E =-.141248E-02
       N       E                     dE             d eps       ncg     rms          rms(c)
DAV:   1    -0.124066356945E+03   -0.96383E-07   -0.32793E-08  2160   0.478E-04    0.774E-05
DAV:   2    -0.124066356947E+03   -0.17508E-08   -0.74985E-10  3216   0.690E-05
   7 F= -.12591942E+03 E0= -.12591685E+03  d E =-.141249E-02
       N       E                     dE             d eps       ncg     rms          rms(c)
DAV:   1    -0.124066356989E+03   -0.43769E-07   -0.82528E-09  2064   0.239E-04    0.386E-05
DAV:   2    -0.124066356990E+03   -0.64119E-09   -0.17444E-10  3120   0.345E-05
   8 F= -.12591942E+03 E0= -.12591685E+03  d E =-.141249E-02
       N       E                     dE             d eps       ncg     rms          rms(c)
DAV:   1    -0.124066357011E+03   -0.21619E-07   -0.20665E-09  2064   0.120E-04    0.192E-05
DAV:   2    -0.124066357011E+03   -0.36562E-09   -0.34880E-11  1200   0.173E-05
   9 F= -.12591942E+03 E0= -.12591685E+03  d E =-.141250E-02
       N       E                     dE             d eps       ncg     rms          rms(c)
DAV:   1    -0.124066357021E+03   -0.10825E-07   -0.49701E-10  1824   0.596E-05    0.918E-06
DAV:   2    -0.124066357022E+03   -0.23829E-09   -0.36202E-12  1104   0.980E-06
  10 F= -.12591942E+03 E0= -.12591685E+03  d E =-.141250E-02
       N       E                     dE             d eps       ncg     rms          rms(c)
DAV:   1    -0.124066357027E+03   -0.55352E-08   -0.12058E-10  1776   0.303E-05    0.449E-06
DAV:   2    -0.124066357027E+03   -0.12642E-09    0.78829E-12  1200   0.521E-06
  11 F= -.12591942E+03 E0= -.12591685E+03  d E =-.141250E-02
       N       E                     dE             d eps       ncg     rms          rms(c)
DAV:   1    -0.124066357030E+03   -0.28149E-08   -0.23808E-11  1392   0.154E-05    0.219E-06
DAV:   2    -0.124066357030E+03   -0.77307E-10    0.92799E-12  1200   0.303E-06
  12 F= -.12591942E+03 E0= -.12591685E+03  d E =-.141250E-02
       N       E                     dE             d eps       ncg     rms          rms(c)
DAV:   1    -0.124066357031E+03   -0.14516E-08    0.15904E-12  1344   0.795E-06    0.105E-06
DAV:   2    -0.124066357031E+03   -0.60027E-10    0.11965E-11  1200   0.174E-06
  13 F= -.12591942E+03 E0= -.12591685E+03  d E =-.141250E-02
       N       E                     dE             d eps       ncg     rms          rms(c)
DAV:   1    -0.124066357032E+03   -0.82673E-09    0.10362E-11  1152   0.423E-06    0.499E-07
DAV:   2    -0.124066357032E+03   -0.10914E-10    0.12748E-11  1344   0.101E-06
  14 F= -.12591942E+03 E0= -.12591685E+03  d E =-.141250E-02
       N       E                     dE             d eps       ncg     rms          rms(c)
DAV:   1    -0.124066357032E+03   -0.33469E-09    0.90281E-12  1056   0.229E-06    0.234E-07
DAV:   2    -0.124066357032E+03    0.15461E-10    0.12643E-11  1200   0.580E-07
  15 F= -.12591942E+03 E0= -.12591685E+03  d E =-.141250E-02
       N       E                     dE             d eps       ncg     rms          rms(c)
DAV:   1    -0.124066357033E+03   -0.14279E-09    0.10151E-11  1008   0.123E-06    0.118E-07
DAV:   2    -0.124066357033E+03    0.10914E-10    0.86406E-12  1200   0.322E-07
  16 F= -.12591942E+03 E0= -.12591685E+03  d E =-.141250E-02
       N       E                     dE             d eps       ncg     rms          rms(c)
DAV:   1    -0.124066357033E+03   -0.10004E-10    0.11065E-11  1008   0.623E-07    0.613E-08
DAV:   2    -0.124066357033E+03   -0.24556E-10    0.12916E-11  1056   0.166E-07
  17 F= -.12591942E+03 E0= -.12591685E+03  d E =-.141250E-02
       N       E                     dE             d eps       ncg     rms          rms(c)
DAV:   1    -0.124066357033E+03   -0.60936E-10    0.10945E-11   960   0.322E-07    0.301E-08
DAV:   2    -0.124066357033E+03    0.63665E-11    0.11787E-11  1056   0.877E-08
  18 F= -.12591942E+03 E0= -.12591685E+03  d E =-.141250E-02
       N       E                     dE             d eps       ncg     rms          rms(c)
DAV:   1    -0.124066357033E+03   -0.10823E-09    0.14229E-11   960   0.168E-07    0.149E-08
DAV:   2    -0.124066357033E+03   -0.81855E-11    0.12059E-11  1056   0.458E-08
  19 F= -.12591942E+03 E0= -.12591685E+03  d E =-.141250E-02
       N       E                     dE             d eps       ncg     rms          rms(c)
DAV:   1    -0.124065733680E+03    0.62335E-03   -0.11161E-01  1872   0.852E-01    0.113E-01
DAV:   2    -0.124065168411E+03    0.56527E-03   -0.26053E-03  2976   0.128E-01    0.502E-02
DAV:   3    -0.124065079352E+03    0.89059E-04   -0.43173E-04  2832   0.461E-02    0.133E-02
DAV:   4    -0.124065076897E+03    0.24545E-05   -0.30110E-05  2640   0.138E-02    0.463E-03
DAV:   5    -0.124065076954E+03   -0.57129E-07   -0.14658E-06  2640   0.307E-03
  20 F= -.12591800E+03 E0= -.12591530E+03  d E =0.445625E-06
