   8   8   0  16
  0.4131256E+02  0.5044000E-09  0.5044000E-09  0.1500000E-08  0.5000000E-15
  1.000000000000000E-004
  CAR 
 SC                                      
     76.25402604    -24.71978444  301     -3.29212679      1.00000000
    -24.720  0.0000E+00  0.0000E+00
    -24.383  0.0000E+00  0.0000E+00
    -24.047  0.0000E+00  0.0000E+00
    -23.710  0.0000E+00  0.0000E+00
    -23.373  0.0000E+00  0.0000E+00
    -23.037  0.0000E+00  0.0000E+00
    -22.700  0.0000E+00  0.0000E+00
    -22.364  0.0000E+00  0.0000E+00
    -22.027  0.0000E+00  0.0000E+00
    -21.691  0.0000E+00  0.0000E+00
    -21.354  0.0000E+00  0.0000E+00
    -21.017  0.0000E+00  0.0000E+00
    -20.681  0.1518E-15  0.5109E-16
    -20.344  0.1247E-03  0.4197E-04
    -20.008  0.6516E+00  0.2193E+00
    -19.671  0.2115E+01  0.9311E+00
    -19.335  0.3090E+01  0.1971E+01
    -18.998  0.8604E-01  0.2000E+01
    -18.661  0.1302E-08  0.2000E+01
    -18.325  0.2595E-14  0.2000E+01
    -17.988  0.5538E-03  0.2000E+01
    -17.652  0.1151E+01  0.2388E+01
    -17.315  0.2402E+01  0.3196E+01
    -16.978  0.1741E+01  0.3782E+01
    -16.642  0.2192E+01  0.4520E+01
    -16.305  0.2797E+01  0.5461E+01
    -15.969  0.1469E+01  0.5956E+01
    -15.632  0.1310E+00  0.6000E+01
    -15.296  0.1425E-06  0.6000E+01
    -14.959  0.0000E+00  0.6000E+01
    -14.622  0.4130E-06  0.6000E+01
    -14.286  0.2110E+00  0.6071E+01
    -13.949  0.2046E+01  0.6760E+01
    -13.613  0.2790E+01  0.7699E+01
    -13.276  0.1464E+01  0.8192E+01
    -12.940  0.1231E+01  0.8606E+01
    -12.603  0.1535E+01  0.9123E+01
    -12.266  0.1651E+01  0.9678E+01
    -11.930  0.1341E+01  0.1013E+02
    -11.593  0.8591E+00  0.1042E+02
    -11.257  0.5357E+00  0.1060E+02
    -10.920  0.9457E+00  0.1092E+02
    -10.583  0.1404E+01  0.1139E+02
    -10.247  0.2074E+01  0.1209E+02
     -9.910  0.1329E+01  0.1254E+02
     -9.574  0.2260E+01  0.1330E+02
     -9.237  0.2027E+01  0.1398E+02
     -8.901  0.1951E+01  0.1463E+02
     -8.564  0.3407E+01  0.1578E+02
     -8.227  0.2644E+01  0.1667E+02
     -7.891  0.2441E+01  0.1749E+02
     -7.554  0.4115E+01  0.1888E+02
     -7.218  0.1738E+01  0.1946E+02
     -6.881  0.1726E+01  0.2004E+02
     -6.544  0.2622E+01  0.2093E+02
     -6.208  0.5660E+01  0.2283E+02
     -5.871  0.4120E+01  0.2422E+02
     -5.535  0.2236E+01  0.2497E+02
     -5.198  0.2516E+01  0.2582E+02
     -4.862  0.3305E+01  0.2693E+02
     -4.525  0.4437E+01  0.2842E+02
     -4.188  0.2387E+01  0.2923E+02
     -3.852  0.1172E+01  0.2962E+02
     -3.515  0.9921E+00  0.2996E+02
     -3.179  0.1447E+00  0.3000E+02
     -2.842  0.1005E+01  0.3034E+02
     -2.506  0.2056E+01  0.3103E+02
     -2.169  0.1684E+01  0.3160E+02
     -1.832  0.7560E+00  0.3186E+02
     -1.496  0.3032E+00  0.3196E+02
     -1.159  0.1245E+00  0.3200E+02
     -0.823  0.1028E+00  0.3203E+02
     -0.486  0.2460E+00  0.3212E+02
     -0.149  0.5298E+00  0.3230E+02
      0.187  0.2006E+01  0.3297E+02
      0.524  0.1966E+01  0.3363E+02
      0.860  0.1354E+01  0.3409E+02
      1.197  0.1971E+01  0.3475E+02
      1.533  0.1837E+01  0.3537E+02
      1.870  0.2031E+01  0.3605E+02
      2.207  0.2952E+01  0.3705E+02
      2.543  0.3408E+01  0.3819E+02
      2.880  0.3838E+01  0.3949E+02
      3.216  0.3629E+01  0.4071E+02
      3.553  0.3665E+01  0.4194E+02
      3.889  0.3670E+01  0.4318E+02
      4.226  0.3591E+01  0.4439E+02
      4.563  0.4379E+01  0.4586E+02
      4.899  0.4371E+01  0.4733E+02
      5.236  0.4903E+01  0.4898E+02
      5.572  0.5711E+01  0.5090E+02
      5.909  0.5273E+01  0.5268E+02
      6.246  0.6876E+01  0.5499E+02
      6.582  0.6933E+01  0.5733E+02
      6.919  0.7229E+01  0.5976E+02
      7.255  0.6889E+01  0.6208E+02
      7.592  0.7881E+01  0.6473E+02
      7.928  0.8498E+01  0.6759E+02
      8.265  0.9431E+01  0.7076E+02
      8.602  0.8816E+01  0.7373E+02
      8.938  0.8641E+01  0.7664E+02
      9.275  0.7548E+01  0.7918E+02
      9.611  0.8296E+01  0.8197E+02
      9.948  0.8484E+01  0.8483E+02
     10.284  0.8738E+01  0.8777E+02
     10.621  0.9139E+01  0.9085E+02
     10.958  0.7061E+01  0.9322E+02
     11.294  0.9821E+01  0.9653E+02
     11.631  0.1080E+02  0.1002E+03
     11.967  0.8670E+01  0.1031E+03
     12.304  0.7995E+01  0.1058E+03
     12.641  0.7614E+01  0.1083E+03
     12.977  0.6523E+01  0.1105E+03
     13.314  0.8047E+01  0.1132E+03
     13.650  0.7790E+01  0.1159E+03
     13.987  0.1001E+02  0.1192E+03
     14.323  0.1064E+02  0.1228E+03
     14.660  0.1055E+02  0.1264E+03
     14.997  0.1048E+02  0.1299E+03
     15.333  0.9123E+01  0.1330E+03
     15.670  0.8279E+01  0.1357E+03
     16.006  0.1017E+02  0.1392E+03
     16.343  0.1013E+02  0.1426E+03
     16.679  0.8657E+01  0.1455E+03
     17.016  0.1027E+02  0.1489E+03
     17.353  0.1088E+02  0.1526E+03
     17.689  0.9814E+01  0.1559E+03
     18.026  0.9195E+01  0.1590E+03
     18.362  0.8828E+01  0.1620E+03
     18.699  0.1102E+02  0.1657E+03
     19.036  0.1044E+02  0.1692E+03
     19.372  0.1211E+02  0.1733E+03
     19.709  0.1076E+02  0.1769E+03
     20.045  0.1067E+02  0.1805E+03
     20.382  0.1080E+02  0.1841E+03
     20.718  0.1139E+02  0.1880E+03
     21.055  0.1073E+02  0.1916E+03
     21.392  0.1001E+02  0.1949E+03
     21.728  0.1253E+02  0.1992E+03
     22.065  0.1314E+02  0.2036E+03
     22.401  0.1096E+02  0.2073E+03
     22.738  0.1137E+02  0.2111E+03
     23.074  0.1143E+02  0.2149E+03
     23.411  0.1255E+02  0.2192E+03
     23.748  0.1230E+02  0.2233E+03
     24.084  0.1325E+02  0.2278E+03
     24.421  0.1303E+02  0.2321E+03
     24.757  0.1333E+02  0.2366E+03
     25.094  0.1240E+02  0.2408E+03
     25.431  0.1167E+02  0.2447E+03
     25.767  0.1168E+02  0.2487E+03
     26.104  0.1064E+02  0.2522E+03
     26.440  0.1136E+02  0.2561E+03
     26.777  0.1143E+02  0.2599E+03
     27.113  0.1274E+02  0.2642E+03
     27.450  0.1193E+02  0.2682E+03
     27.787  0.1102E+02  0.2719E+03
     28.123  0.1052E+02  0.2755E+03
     28.460  0.1068E+02  0.2791E+03
     28.796  0.1350E+02  0.2836E+03
     29.133  0.1166E+02  0.2875E+03
     29.469  0.1099E+02  0.2912E+03
     29.806  0.1238E+02  0.2954E+03
     30.143  0.1323E+02  0.2998E+03
     30.479  0.1329E+02  0.3043E+03
     30.816  0.1097E+02  0.3080E+03
     31.152  0.1121E+02  0.3118E+03
     31.489  0.1301E+02  0.3162E+03
     31.826  0.1414E+02  0.3209E+03
     32.162  0.1489E+02  0.3259E+03
     32.499  0.1312E+02  0.3304E+03
     32.835  0.1409E+02  0.3351E+03
     33.172  0.1049E+02  0.3386E+03
     33.508  0.1194E+02  0.3426E+03
     33.845  0.1189E+02  0.3466E+03
     34.182  0.1453E+02  0.3515E+03
     34.518  0.1175E+02  0.3555E+03
     34.855  0.1434E+02  0.3603E+03
     35.191  0.1435E+02  0.3651E+03
     35.528  0.1380E+02  0.3698E+03
     35.865  0.1551E+02  0.3750E+03
     36.201  0.1336E+02  0.3795E+03
     36.538  0.1298E+02  0.3839E+03
     36.874  0.1395E+02  0.3886E+03
     37.211  0.1307E+02  0.3930E+03
     37.547  0.1250E+02  0.3972E+03
     37.884  0.1381E+02  0.4018E+03
     38.221  0.1257E+02  0.4061E+03
     38.557  0.1484E+02  0.4111E+03
     38.894  0.1532E+02  0.4162E+03
     39.230  0.1395E+02  0.4209E+03
     39.567  0.1353E+02  0.4255E+03
     39.903  0.1594E+02  0.4308E+03
     40.240  0.1728E+02  0.4366E+03
     40.577  0.1569E+02  0.4419E+03
     40.913  0.1718E+02  0.4477E+03
     41.250  0.1505E+02  0.4528E+03
     41.586  0.1533E+02  0.4579E+03
     41.923  0.1566E+02  0.4632E+03
     42.260  0.1507E+02  0.4683E+03
     42.596  0.1660E+02  0.4739E+03
     42.933  0.1477E+02  0.4788E+03
     43.269  0.1564E+02  0.4841E+03
     43.606  0.1599E+02  0.4895E+03
     43.942  0.1588E+02  0.4948E+03
     44.279  0.1468E+02  0.4998E+03
     44.616  0.1502E+02  0.5048E+03
     44.952  0.1411E+02  0.5096E+03
     45.289  0.1544E+02  0.5148E+03
     45.625  0.1664E+02  0.5204E+03
     45.962  0.1625E+02  0.5258E+03
     46.298  0.1438E+02  0.5307E+03
     46.635  0.1539E+02  0.5359E+03
     46.972  0.1631E+02  0.5413E+03
     47.308  0.1820E+02  0.5475E+03
     47.645  0.1512E+02  0.5526E+03
     47.981  0.1563E+02  0.5578E+03
     48.318  0.1525E+02  0.5630E+03
     48.655  0.1508E+02  0.5680E+03
     48.991  0.1372E+02  0.5726E+03
     49.328  0.1605E+02  0.5781E+03
     49.664  0.1593E+02  0.5834E+03
     50.001  0.1637E+02  0.5889E+03
     50.337  0.1596E+02  0.5943E+03
     50.674  0.1595E+02  0.5997E+03
     51.011  0.1527E+02  0.6048E+03
     51.347  0.1507E+02  0.6099E+03
     51.684  0.1500E+02  0.6149E+03
     52.020  0.1796E+02  0.6210E+03
     52.357  0.1659E+02  0.6266E+03
     52.693  0.1653E+02  0.6321E+03
     53.030  0.1664E+02  0.6377E+03
     53.367  0.1746E+02  0.6436E+03
     53.703  0.1768E+02  0.6495E+03
     54.040  0.1884E+02  0.6559E+03
     54.376  0.1730E+02  0.6617E+03
     54.713  0.1612E+02  0.6671E+03
     55.050  0.1608E+02  0.6725E+03
     55.386  0.1847E+02  0.6788E+03
     55.723  0.1893E+02  0.6851E+03
     56.059  0.1759E+02  0.6911E+03
     56.396  0.1697E+02  0.6968E+03
     56.732  0.1873E+02  0.7031E+03
     57.069  0.1645E+02  0.7086E+03
     57.406  0.1713E+02  0.7144E+03
     57.742  0.1889E+02  0.7207E+03
     58.079  0.1769E+02  0.7267E+03
     58.415  0.1707E+02  0.7324E+03
     58.752  0.1892E+02  0.7388E+03
     59.088  0.1773E+02  0.7448E+03
     59.425  0.1577E+02  0.7501E+03
     59.762  0.1723E+02  0.7559E+03
     60.098  0.1848E+02  0.7621E+03
     60.435  0.1748E+02  0.7680E+03
     60.771  0.1721E+02  0.7738E+03
     61.108  0.1790E+02  0.7798E+03
     61.445  0.1851E+02  0.7860E+03
     61.781  0.1751E+02  0.7919E+03
     62.118  0.1977E+02  0.7986E+03
     62.454  0.1695E+02  0.8043E+03
     62.791  0.1907E+02  0.8107E+03
     63.127  0.1807E+02  0.8168E+03
     63.464  0.1596E+02  0.8221E+03
     63.801  0.1877E+02  0.8285E+03
     64.137  0.1788E+02  0.8345E+03
     64.474  0.1738E+02  0.8403E+03
     64.810  0.1856E+02  0.8466E+03
     65.147  0.1851E+02  0.8528E+03
     65.483  0.1933E+02  0.8593E+03
     65.820  0.1764E+02  0.8653E+03
     66.157  0.1806E+02  0.8713E+03
     66.493  0.2043E+02  0.8782E+03
     66.830  0.2006E+02  0.8850E+03
     67.166  0.1851E+02  0.8912E+03
     67.503  0.1895E+02  0.8976E+03
     67.840  0.1768E+02  0.9035E+03
     68.176  0.1992E+02  0.9102E+03
     68.513  0.1865E+02  0.9165E+03
     68.849  0.1884E+02  0.9228E+03
     69.186  0.2084E+02  0.9299E+03
     69.522  0.1954E+02  0.9364E+03
     69.859  0.1755E+02  0.9423E+03
     70.196  0.1613E+02  0.9478E+03
     70.532  0.1326E+02  0.9522E+03
     70.869  0.1143E+02  0.9561E+03
     71.205  0.7631E+01  0.9587E+03
     71.542  0.3261E+01  0.9598E+03
     71.878  0.7411E+00  0.9600E+03
     72.215  0.4035E-03  0.9600E+03
     72.552  0.0000E+00  0.9600E+03
     72.888  0.0000E+00  0.9600E+03
     73.225  0.0000E+00  0.9600E+03
     73.561  0.0000E+00  0.9600E+03
     73.898  0.0000E+00  0.9600E+03
     74.235  0.0000E+00  0.9600E+03
     74.571  0.0000E+00  0.9600E+03
     74.908  0.0000E+00  0.9600E+03
     75.244  0.0000E+00  0.9600E+03
     75.581  0.0000E+00  0.9600E+03
     75.917  0.0000E+00  0.9600E+03
     76.254  0.0000E+00  0.9600E+03
