SC                                      
           1
     4.368232    2.522000    0.000000
    -4.368232    2.522000    0.000000
     0.000000    0.000000   15.000000
   B    C 
     2     6
Direct configuration=     1
   0.33820333  0.66909866  0.11338162
   0.67153862  0.33576677  0.11306610
   0.16449216  0.32167612  0.11307387
   0.32403867  0.16201592  0.11308012
   0.16449215  0.84280962  0.11307420
   0.84528269  0.16201453  0.11307046
   0.68562040  0.84280692  0.11306551
   0.84528326  0.68326195  0.11307087
