   7   7   1  16
  0.4081967E+02  0.4690000E-09  0.4690000E-09  0.1500000E-08  0.5000000E-15
  1.000000000000000E-004
  CAR 
 PDOS                                    
     14.81129333    -21.38194052  301     -2.43704468      1.00000000
    -21.382  0.0000E+00  0.0000E+00
    -21.261  0.0000E+00  0.0000E+00
    -21.141  0.0000E+00  0.0000E+00
    -21.020  0.0000E+00  0.0000E+00
    -20.899  0.0000E+00  0.0000E+00
    -20.779  0.0000E+00  0.0000E+00
    -20.658  0.0000E+00  0.0000E+00
    -20.537  0.0000E+00  0.0000E+00
    -20.417  0.0000E+00  0.0000E+00
    -20.296  0.1749E-15  0.2110E-16
    -20.175  0.4513E-10  0.5445E-11
    -20.055  0.6899E-06  0.8324E-07
    -19.934  0.7524E-03  0.9086E-04
    -19.814  0.6778E-01  0.8268E-02
    -19.693  0.7013E+00  0.9287E-01
    -19.572  0.1576E+01  0.2830E+00
    -19.452  0.1894E+01  0.5115E+00
    -19.331  0.2149E+01  0.7708E+00
    -19.210  0.2774E+01  0.1105E+01
    -19.090  0.4022E+01  0.1591E+01
    -18.969  0.2897E+01  0.1940E+01
    -18.848  0.4843E+00  0.1999E+01
    -18.728  0.1149E-01  0.2000E+01
    -18.607  0.2643E-04  0.2000E+01
    -18.486  0.4378E-08  0.2000E+01
    -18.366  0.4472E-13  0.2000E+01
    -18.245  0.0000E+00  0.2000E+01
    -18.125  0.0000E+00  0.2000E+01
    -18.004  0.0000E+00  0.2000E+01
    -17.883  0.0000E+00  0.2000E+01
    -17.763  0.0000E+00  0.2000E+01
    -17.642  0.2934E-13  0.2000E+01
    -17.521  0.3574E-08  0.2000E+01
    -17.401  0.2560E-04  0.2000E+01
    -17.280  0.1146E-01  0.2001E+01
    -17.159  0.3825E+00  0.2048E+01
    -17.039  0.1733E+01  0.2257E+01
    -16.918  0.2896E+01  0.2606E+01
    -16.797  0.2909E+01  0.2957E+01
    -16.677  0.1803E+01  0.3174E+01
    -16.556  0.1781E+01  0.3389E+01
    -16.436  0.1677E+01  0.3592E+01
    -16.315  0.1427E+01  0.3764E+01
    -16.194  0.2466E+01  0.4061E+01
    -16.074  0.1901E+01  0.4291E+01
    -15.953  0.2637E+01  0.4609E+01
    -15.832  0.3873E+01  0.5076E+01
    -15.712  0.3180E+01  0.5460E+01
    -15.591  0.2628E+01  0.5777E+01
    -15.470  0.1526E+01  0.5961E+01
    -15.350  0.3135E+00  0.5999E+01
    -15.229  0.1087E-01  0.6000E+01
    -15.108  0.3510E-04  0.6000E+01
    -14.988  0.8190E-08  0.6000E+01
    -14.867  0.1230E-12  0.6000E+01
    -14.747  0.0000E+00  0.6000E+01
    -14.626  0.0000E+00  0.6000E+01
    -14.505  0.0000E+00  0.6000E+01
    -14.385  0.0000E+00  0.6000E+01
    -14.264  0.0000E+00  0.6000E+01
    -14.143  0.0000E+00  0.6000E+01
    -14.023  0.0000E+00  0.6000E+01
    -13.902  0.0000E+00  0.6000E+01
    -13.781  0.0000E+00  0.6000E+01
    -13.661  0.0000E+00  0.6000E+01
    -13.540  0.0000E+00  0.6000E+01
    -13.419  0.0000E+00  0.6000E+01
    -13.299  0.1825E-14  0.6000E+01
    -13.178  0.3468E-09  0.6000E+01
    -13.057  0.3869E-05  0.6000E+01
    -12.937  0.2656E-02  0.6000E+01
    -12.816  0.1294E+00  0.6016E+01
    -12.696  0.7095E+00  0.6102E+01
    -12.575  0.1515E+01  0.6284E+01
    -12.454  0.2527E+01  0.6589E+01
    -12.334  0.2303E+01  0.6867E+01
    -12.213  0.1897E+01  0.7096E+01
    -12.092  0.2378E+01  0.7383E+01
    -11.972  0.2465E+01  0.7680E+01
    -11.851  0.1007E+01  0.7802E+01
    -11.730  0.1012E+01  0.7924E+01
    -11.610  0.2740E+01  0.8254E+01
    -11.489  0.2042E+01  0.8501E+01
    -11.368  0.8114E+00  0.8599E+01
    -11.248  0.9899E+00  0.8718E+01
    -11.127  0.2974E+01  0.9077E+01
    -11.007  0.2359E+01  0.9361E+01
    -10.886  0.1544E+01  0.9548E+01
    -10.765  0.6981E+00  0.9632E+01
    -10.645  0.1720E+01  0.9839E+01
    -10.524  0.3342E+01  0.1024E+02
    -10.403  0.1343E+01  0.1040E+02
    -10.283  0.5489E+00  0.1047E+02
    -10.162  0.1757E+01  0.1068E+02
    -10.041  0.2019E+01  0.1093E+02
     -9.921  0.1167E+01  0.1107E+02
     -9.800  0.1357E+01  0.1123E+02
     -9.679  0.3351E+01  0.1164E+02
     -9.559  0.2320E+01  0.1192E+02
     -9.438  0.1417E+01  0.1209E+02
     -9.318  0.2403E+00  0.1212E+02
     -9.197  0.2376E-01  0.1212E+02
     -9.076  0.4044E+00  0.1217E+02
     -8.956  0.1308E+01  0.1232E+02
     -8.835  0.1484E+01  0.1250E+02
     -8.714  0.1389E+01  0.1267E+02
     -8.594  0.1358E+01  0.1284E+02
     -8.473  0.8445E+00  0.1294E+02
     -8.352  0.1565E+01  0.1313E+02
     -8.232  0.2280E+01  0.1340E+02
     -8.111  0.1547E+01  0.1359E+02
     -7.990  0.3221E+01  0.1398E+02
     -7.870  0.3803E+01  0.1443E+02
     -7.749  0.3819E+01  0.1490E+02
     -7.629  0.4351E+01  0.1542E+02
     -7.508  0.3098E+01  0.1579E+02
     -7.387  0.2027E+01  0.1604E+02
     -7.267  0.2774E+01  0.1637E+02
     -7.146  0.4551E+01  0.1692E+02
     -7.025  0.1412E+01  0.1709E+02
     -6.905  0.8590E+00  0.1720E+02
     -6.784  0.1230E+01  0.1735E+02
     -6.663  0.3441E+00  0.1739E+02
     -6.543  0.1631E-01  0.1739E+02
     -6.422  0.1107E+00  0.1740E+02
     -6.301  0.8949E+00  0.1751E+02
     -6.181  0.2317E+01  0.1779E+02
     -6.060  0.4148E+01  0.1829E+02
     -5.939  0.4861E+01  0.1888E+02
     -5.819  0.4056E+01  0.1937E+02
     -5.698  0.3424E+01  0.1978E+02
     -5.578  0.1730E+01  0.1999E+02
     -5.457  0.2543E+01  0.2029E+02
     -5.336  0.2634E+01  0.2061E+02
     -5.216  0.1477E+01  0.2079E+02
     -5.095  0.2089E+01  0.2104E+02
     -4.974  0.1568E+01  0.2123E+02
     -4.854  0.1391E+01  0.2140E+02
     -4.733  0.2523E+01  0.2170E+02
     -4.612  0.2009E+01  0.2195E+02
     -4.492  0.1070E+01  0.2208E+02
     -4.371  0.8980E+00  0.2218E+02
     -4.250  0.2118E+01  0.2244E+02
     -4.130  0.1879E+01  0.2267E+02
     -4.009  0.1582E+01  0.2286E+02
     -3.889  0.1836E+01  0.2308E+02
     -3.768  0.1221E+01  0.2323E+02
     -3.647  0.1827E+01  0.2345E+02
     -3.527  0.9702E+00  0.2356E+02
     -3.406  0.3276E+00  0.2360E+02
     -3.285  0.1038E+01  0.2373E+02
     -3.165  0.8187E+00  0.2383E+02
     -3.044  0.6137E+00  0.2390E+02
     -2.923  0.5240E+00  0.2396E+02
     -2.803  0.2394E+00  0.2399E+02
     -2.682  0.6094E-01  0.2400E+02
     -2.561  0.1907E-02  0.2400E+02
     -2.441  0.4267E-05  0.2400E+02
     -2.320  0.5932E-09  0.2400E+02
     -2.200  0.4837E-14  0.2400E+02
     -2.079  0.0000E+00  0.2400E+02
     -1.958  0.0000E+00  0.2400E+02
     -1.838  0.0000E+00  0.2400E+02
     -1.717  0.1409E-12  0.2400E+02
     -1.596  0.1055E-07  0.2400E+02
     -1.476  0.4750E-04  0.2400E+02
     -1.355  0.1425E-01  0.2400E+02
     -1.234  0.3570E+00  0.2404E+02
     -1.114  0.1153E+01  0.2418E+02
     -0.993  0.1258E+01  0.2434E+02
     -0.872  0.2614E+01  0.2465E+02
     -0.752  0.3932E+01  0.2513E+02
     -0.631  0.1650E+01  0.2532E+02
     -0.511  0.6520E+00  0.2540E+02
     -0.390  0.6462E+00  0.2548E+02
     -0.269  0.1462E+01  0.2566E+02
     -0.149  0.2646E+01  0.2598E+02
     -0.028  0.1276E+01  0.2613E+02
      0.093  0.5343E+00  0.2620E+02
      0.213  0.5752E+00  0.2626E+02
      0.334  0.1762E+01  0.2648E+02
      0.455  0.1864E+01  0.2670E+02
      0.575  0.1187E+01  0.2685E+02
      0.696  0.5849E+00  0.2692E+02
      0.817  0.3684E+00  0.2696E+02
      0.937  0.1410E+01  0.2713E+02
      1.058  0.1536E+01  0.2732E+02
      1.179  0.1628E+01  0.2751E+02
      1.299  0.1462E+01  0.2769E+02
      1.420  0.1745E+01  0.2790E+02
      1.540  0.2026E+01  0.2814E+02
      1.661  0.2019E+01  0.2839E+02
      1.782  0.2226E+01  0.2866E+02
      1.902  0.2590E+01  0.2897E+02
      2.023  0.4140E+01  0.2947E+02
      2.144  0.3626E+01  0.2990E+02
      2.264  0.1631E+01  0.3010E+02
      2.385  0.2807E+01  0.3044E+02
      2.506  0.2733E+01  0.3077E+02
      2.626  0.3167E+01  0.3115E+02
      2.747  0.4606E+01  0.3171E+02
      2.868  0.4222E+01  0.3222E+02
      2.988  0.4743E+01  0.3279E+02
      3.109  0.5756E+01  0.3348E+02
      3.229  0.7382E+01  0.3437E+02
      3.350  0.6540E+01  0.3516E+02
      3.471  0.6077E+01  0.3590E+02
      3.591  0.6227E+01  0.3665E+02
      3.712  0.4291E+01  0.3717E+02
      3.833  0.3922E+01  0.3764E+02
      3.953  0.2840E+01  0.3798E+02
      4.074  0.4086E+01  0.3847E+02
      4.195  0.5578E+01  0.3915E+02
      4.315  0.5399E+01  0.3980E+02
      4.436  0.5036E+01  0.4041E+02
      4.557  0.5578E+01  0.4108E+02
      4.677  0.7492E+01  0.4198E+02
      4.798  0.5886E+01  0.4269E+02
      4.918  0.4851E+01  0.4328E+02
      5.039  0.6648E+01  0.4408E+02
      5.160  0.5965E+01  0.4480E+02
      5.280  0.5588E+01  0.4547E+02
      5.401  0.5561E+01  0.4614E+02
      5.522  0.5041E+01  0.4675E+02
      5.642  0.4245E+01  0.4727E+02
      5.763  0.4780E+01  0.4784E+02
      5.884  0.6450E+01  0.4862E+02
      6.004  0.7365E+01  0.4951E+02
      6.125  0.6836E+01  0.5033E+02
      6.246  0.5263E+01  0.5097E+02
      6.366  0.6473E+01  0.5175E+02
      6.487  0.5450E+01  0.5241E+02
      6.607  0.5932E+01  0.5312E+02
      6.728  0.8498E+01  0.5415E+02
      6.849  0.4855E+01  0.5473E+02
      6.969  0.3973E+01  0.5521E+02
      7.090  0.6516E+01  0.5600E+02
      7.211  0.7539E+01  0.5691E+02
      7.331  0.5675E+01  0.5759E+02
      7.452  0.6516E+01  0.5838E+02
      7.573  0.6063E+01  0.5911E+02
      7.693  0.4713E+01  0.5968E+02
      7.814  0.5433E+01  0.6034E+02
      7.935  0.6079E+01  0.6107E+02
      8.055  0.6838E+01  0.6189E+02
      8.176  0.4377E+01  0.6242E+02
      8.297  0.4732E+01  0.6299E+02
      8.417  0.4838E+01  0.6358E+02
      8.538  0.5446E+01  0.6423E+02
      8.658  0.7379E+01  0.6512E+02
      8.779  0.9602E+01  0.6628E+02
      8.900  0.9609E+01  0.6744E+02
      9.020  0.7278E+01  0.6832E+02
      9.141  0.7161E+01  0.6918E+02
      9.262  0.8351E+01  0.7019E+02
      9.382  0.6170E+01  0.7093E+02
      9.503  0.6707E+01  0.7174E+02
      9.624  0.7212E+01  0.7261E+02
      9.744  0.5902E+01  0.7333E+02
      9.865  0.6421E+01  0.7410E+02
      9.986  0.5304E+01  0.7474E+02
     10.106  0.5727E+01  0.7543E+02
     10.227  0.6817E+01  0.7625E+02
     10.347  0.6145E+01  0.7700E+02
     10.468  0.8867E+01  0.7806E+02
     10.589  0.7703E+01  0.7899E+02
     10.709  0.7135E+01  0.7985E+02
     10.830  0.8598E+01  0.8089E+02
     10.951  0.6182E+01  0.8164E+02
     11.071  0.7599E+01  0.8255E+02
     11.192  0.6437E+01  0.8333E+02
     11.313  0.4689E+01  0.8390E+02
     11.433  0.6346E+01  0.8466E+02
     11.554  0.7302E+01  0.8554E+02
     11.675  0.8319E+01  0.8655E+02
     11.795  0.9065E+01  0.8764E+02
     11.916  0.7835E+01  0.8859E+02
     12.036  0.7000E+01  0.8943E+02
     12.157  0.5779E+01  0.9013E+02
     12.278  0.6422E+01  0.9090E+02
     12.398  0.6972E+01  0.9174E+02
     12.519  0.5916E+01  0.9246E+02
     12.640  0.7421E+01  0.9335E+02
     12.760  0.8063E+01  0.9433E+02
     12.881  0.3818E+01  0.9479E+02
     13.002  0.5380E+01  0.9544E+02
     13.122  0.3130E+01  0.9581E+02
     13.243  0.1318E+01  0.9597E+02
     13.364  0.2279E+00  0.9600E+02
     13.484  0.4206E-02  0.9600E+02
     13.605  0.5425E-05  0.9600E+02
     13.725  0.4289E-09  0.9600E+02
     13.846  0.1977E-14  0.9600E+02
     13.967  0.0000E+00  0.9600E+02
     14.087  0.0000E+00  0.9600E+02
     14.208  0.0000E+00  0.9600E+02
     14.329  0.0000E+00  0.9600E+02
     14.449  0.0000E+00  0.9600E+02
     14.570  0.0000E+00  0.9600E+02
     14.691  0.0000E+00  0.9600E+02
     14.811  0.0000E+00  0.9600E+02
     14.81129333    -21.38194052  301     -2.43704468      1.00000000
    -21.382  0.0000E+00  0.0000E+00  0.0000E+00  0.0000E+00  0.0000E+00  0.0000E+00  0.0000E+00  0.0000E+00  0.0000E+00
    -21.261  0.0000E+00  0.0000E+00  0.0000E+00  0.0000E+00  0.0000E+00  0.0000E+00  0.0000E+00  0.0000E+00  0.0000E+00
    -21.141  0.0000E+00  0.0000E+00  0.0000E+00  0.0000E+00  0.0000E+00  0.0000E+00  0.0000E+00  0.0000E+00  0.0000E+00
    -21.020  0.0000E+00  0.0000E+00  0.0000E+00  0.0000E+00  0.0000E+00  0.0000E+00  0.0000E+00  0.0000E+00  0.0000E+00
    -20.899  0.0000E+00  0.0000E+00  0.0000E+00  0.0000E+00  0.0000E+00  0.0000E+00  0.0000E+00  0.0000E+00  0.0000E+00
    -20.779  0.0000E+00  0.0000E+00  0.0000E+00  0.0000E+00  0.0000E+00  0.0000E+00  0.0000E+00  0.0000E+00  0.0000E+00
    -20.658  0.0000E+00  0.0000E+00  0.0000E+00  0.0000E+00  0.0000E+00  0.0000E+00  0.0000E+00  0.0000E+00  0.0000E+00
    -20.537  0.0000E+00  0.0000E+00  0.0000E+00  0.0000E+00  0.0000E+00  0.0000E+00  0.0000E+00  0.0000E+00  0.0000E+00
    -20.417  0.0000E+00  0.0000E+00  0.0000E+00  0.0000E+00  0.0000E+00  0.0000E+00  0.0000E+00  0.0000E+00  0.0000E+00
    -20.296  0.3368E-16  0.7997E-26  0.1202E-17  0.4519E-26  0.0000E+00  0.0000E+00  0.0000E+00  0.0000E+00  0.0000E+00
    -20.175  0.8702E-11  0.9276E-15  0.3107E-12  0.9277E-15  0.0000E+00  0.0000E+00  0.0000E+00  0.0000E+00  0.0000E+00
    -20.055  0.1332E-06  0.2744E-10  0.4758E-08  0.2744E-10  0.0000E+00  0.0000E+00  0.0000E+00  0.0000E+00  0.0000E+00
    -19.934  0.1455E-03  0.5044E-07  0.5202E-05  0.5044E-07  0.0000E+00  0.0000E+00  0.0000E+00  0.0000E+00  0.0000E+00
    -19.814  0.1314E-01  0.7153E-05  0.4703E-03  0.7154E-05  0.0000E+00  0.0000E+00  0.0000E+00  0.0000E+00  0.0000E+00
    -19.693  0.1368E+00  0.1318E-03  0.4909E-02  0.1318E-03  0.0000E+00  0.0000E+00  0.0000E+00  0.0000E+00  0.0000E+00
    -19.572  0.3124E+00  0.5665E-03  0.1127E-01  0.5666E-03  0.0000E+00  0.0000E+00  0.0000E+00  0.0000E+00  0.0000E+00
    -19.452  0.3869E+00  0.1127E-02  0.1409E-01  0.1127E-02  0.0000E+00  0.0000E+00  0.0000E+00  0.0000E+00  0.0000E+00
    -19.331  0.4573E+00  0.1540E-02  0.1683E-01  0.1540E-02  0.0000E+00  0.0000E+00  0.0000E+00  0.0000E+00  0.0000E+00
    -19.210  0.6204E+00  0.1722E-02  0.2309E-01  0.1722E-02  0.0000E+00  0.0000E+00  0.0000E+00  0.0000E+00  0.0000E+00
    -19.090  0.9470E+00  0.1412E-02  0.3558E-01  0.1412E-02  0.0000E+00  0.0000E+00  0.0000E+00  0.0000E+00  0.0000E+00
    -18.969  0.7021E+00  0.5185E-03  0.2651E-01  0.5185E-03  0.0000E+00  0.0000E+00  0.0000E+00  0.0000E+00  0.0000E+00
    -18.848  0.1191E+00  0.5281E-04  0.4512E-02  0.5282E-04  0.0000E+00  0.0000E+00  0.0000E+00  0.0000E+00  0.0000E+00
    -18.728  0.2854E-02  0.7665E-06  0.1082E-03  0.7666E-06  0.0000E+00  0.0000E+00  0.0000E+00  0.0000E+00  0.0000E+00
    -18.607  0.6594E-05  0.1102E-08  0.2504E-06  0.1102E-08  0.0000E+00  0.0000E+00  0.0000E+00  0.0000E+00  0.0000E+00
    -18.486  0.1094E-08  0.1394E-12  0.4154E-10  0.1394E-12  0.0000E+00  0.0000E+00  0.0000E+00  0.0000E+00  0.0000E+00
    -18.366  0.1118E-13  0.1291E-17  0.4246E-15  0.1291E-17  0.0000E+00  0.0000E+00  0.0000E+00  0.0000E+00  0.0000E+00
    -18.245  0.0000E+00  0.0000E+00  0.0000E+00  0.0000E+00  0.0000E+00  0.0000E+00  0.0000E+00  0.0000E+00  0.0000E+00
    -18.125  0.0000E+00  0.0000E+00  0.0000E+00  0.0000E+00  0.0000E+00  0.0000E+00  0.0000E+00  0.0000E+00  0.0000E+00
    -18.004  0.0000E+00  0.0000E+00  0.0000E+00  0.0000E+00  0.0000E+00  0.0000E+00  0.0000E+00  0.0000E+00  0.0000E+00
    -17.883  0.0000E+00  0.0000E+00  0.0000E+00  0.0000E+00  0.0000E+00  0.0000E+00  0.0000E+00  0.0000E+00  0.0000E+00
    -17.763  0.0000E+00  0.0000E+00  0.0000E+00  0.0000E+00  0.0000E+00  0.0000E+00  0.0000E+00  0.0000E+00  0.0000E+00
    -17.642  0.2669E-16  0.1431E-14  0.1181E-17  0.1435E-14  0.0000E+00  0.0000E+00  0.0000E+00  0.0000E+00  0.0000E+00
    -17.521  0.3446E-11  0.1744E-09  0.1525E-12  0.1747E-09  0.0000E+00  0.0000E+00  0.0000E+00  0.0000E+00  0.0000E+00
    -17.401  0.2612E-07  0.1250E-05  0.1156E-08  0.1252E-05  0.0000E+00  0.0000E+00  0.0000E+00  0.0000E+00  0.0000E+00
    -17.280  0.1247E-04  0.5597E-03  0.5520E-06  0.5603E-03  0.0000E+00  0.0000E+00  0.0000E+00  0.0000E+00  0.0000E+00
    -17.159  0.5091E-03  0.1870E-01  0.2257E-04  0.1872E-01  0.0000E+00  0.0000E+00  0.0000E+00  0.0000E+00  0.0000E+00
    -17.039  0.4750E-02  0.8557E-01  0.2119E-03  0.8559E-01  0.0000E+00  0.0000E+00  0.0000E+00  0.0000E+00  0.0000E+00
    -16.918  0.1519E-01  0.1457E+00  0.6817E-03  0.1457E+00  0.0000E+00  0.0000E+00  0.0000E+00  0.0000E+00  0.0000E+00
    -16.797  0.2590E-01  0.1498E+00  0.1171E-02  0.1498E+00  0.0000E+00  0.0000E+00  0.0000E+00  0.0000E+00  0.0000E+00
    -16.677  0.2573E-01  0.9554E-01  0.1172E-02  0.9555E-01  0.0000E+00  0.0000E+00  0.0000E+00  0.0000E+00  0.0000E+00
    -16.556  0.2687E-01  0.9853E-01  0.1234E-02  0.9854E-01  0.0000E+00  0.0000E+00  0.0000E+00  0.0000E+00  0.0000E+00
    -16.436  0.2237E-01  0.9597E-01  0.1034E-02  0.9597E-01  0.0000E+00  0.0000E+00  0.0000E+00  0.0000E+00  0.0000E+00
    -16.315  0.1717E-01  0.8591E-01  0.8031E-03  0.8592E-01  0.0000E+00  0.0000E+00  0.0000E+00  0.0000E+00  0.0000E+00
    -16.194  0.2651E-01  0.1547E+00  0.1252E-02  0.1548E+00  0.0000E+00  0.0000E+00  0.0000E+00  0.0000E+00  0.0000E+00
    -16.074  0.1150E-01  0.1235E+00  0.5480E-03  0.1235E+00  0.0000E+00  0.0000E+00  0.0000E+00  0.0000E+00  0.0000E+00
    -15.953  0.1492E-01  0.1847E+00  0.7283E-03  0.1847E+00  0.0000E+00  0.0000E+00  0.0000E+00  0.0000E+00  0.0000E+00
    -15.832  0.1555E-01  0.2811E+00  0.7742E-03  0.2811E+00  0.0000E+00  0.0000E+00  0.0000E+00  0.0000E+00  0.0000E+00
    -15.712  0.6216E-02  0.2433E+00  0.3194E-03  0.2433E+00  0.0000E+00  0.0000E+00  0.0000E+00  0.0000E+00  0.0000E+00
    -15.591  0.4518E-02  0.2130E+00  0.2259E-03  0.2130E+00  0.0000E+00  0.0000E+00  0.0000E+00  0.0000E+00  0.0000E+00
    -15.470  0.1479E-02  0.1290E+00  0.7305E-04  0.1290E+00  0.0000E+00  0.0000E+00  0.0000E+00  0.0000E+00  0.0000E+00
    -15.350  0.4942E-04  0.2720E-01  0.2476E-05  0.2718E-01  0.0000E+00  0.0000E+00  0.0000E+00  0.0000E+00  0.0000E+00
    -15.229  0.1746E-06  0.9526E-03  0.9517E-08  0.9512E-03  0.0000E+00  0.0000E+00  0.0000E+00  0.0000E+00  0.0000E+00
    -15.108  0.1468E-09  0.3091E-05  0.8922E-11  0.3083E-05  0.0000E+00  0.0000E+00  0.0000E+00  0.0000E+00  0.0000E+00
    -14.988  0.1671E-13  0.7234E-09  0.1035E-14  0.7208E-09  0.0000E+00  0.0000E+00  0.0000E+00  0.0000E+00  0.0000E+00
    -14.867  0.1241E-18  0.1088E-13  0.7703E-20  0.1083E-13  0.0000E+00  0.0000E+00  0.0000E+00  0.0000E+00  0.0000E+00
    -14.747  0.0000E+00  0.0000E+00  0.0000E+00  0.0000E+00  0.0000E+00  0.0000E+00  0.0000E+00  0.0000E+00  0.0000E+00
    -14.626  0.0000E+00  0.0000E+00  0.0000E+00  0.0000E+00  0.0000E+00  0.0000E+00  0.0000E+00  0.0000E+00  0.0000E+00
    -14.505  0.0000E+00  0.0000E+00  0.0000E+00  0.0000E+00  0.0000E+00  0.0000E+00  0.0000E+00  0.0000E+00  0.0000E+00
    -14.385  0.0000E+00  0.0000E+00  0.0000E+00  0.0000E+00  0.0000E+00  0.0000E+00  0.0000E+00  0.0000E+00  0.0000E+00
    -14.264  0.0000E+00  0.0000E+00  0.0000E+00  0.0000E+00  0.0000E+00  0.0000E+00  0.0000E+00  0.0000E+00  0.0000E+00
    -14.143  0.0000E+00  0.0000E+00  0.0000E+00  0.0000E+00  0.0000E+00  0.0000E+00  0.0000E+00  0.0000E+00  0.0000E+00
    -14.023  0.0000E+00  0.0000E+00  0.0000E+00  0.0000E+00  0.0000E+00  0.0000E+00  0.0000E+00  0.0000E+00  0.0000E+00
    -13.902  0.0000E+00  0.0000E+00  0.0000E+00  0.0000E+00  0.0000E+00  0.0000E+00  0.0000E+00  0.0000E+00  0.0000E+00
    -13.781  0.0000E+00  0.0000E+00  0.0000E+00  0.0000E+00  0.0000E+00  0.0000E+00  0.0000E+00  0.0000E+00  0.0000E+00
    -13.661  0.0000E+00  0.0000E+00  0.0000E+00  0.0000E+00  0.0000E+00  0.0000E+00  0.0000E+00  0.0000E+00  0.0000E+00
    -13.540  0.0000E+00  0.0000E+00  0.0000E+00  0.0000E+00  0.0000E+00  0.0000E+00  0.0000E+00  0.0000E+00  0.0000E+00
    -13.419  0.0000E+00  0.0000E+00  0.0000E+00  0.0000E+00  0.0000E+00  0.0000E+00  0.0000E+00  0.0000E+00  0.0000E+00
    -13.299  0.6164E-16  0.2605E-16  0.3206E-17  0.2604E-16  0.0000E+00  0.0000E+00  0.0000E+00  0.0000E+00  0.0000E+00
    -13.178  0.1171E-10  0.4946E-11  0.6091E-12  0.4952E-11  0.0000E+00  0.0000E+00  0.0000E+00  0.0000E+00  0.0000E+00
    -13.057  0.1307E-06  0.5518E-07  0.6794E-08  0.5523E-07  0.0000E+00  0.0000E+00  0.0000E+00  0.0000E+00  0.0000E+00
    -12.937  0.8972E-04  0.3788E-04  0.4666E-05  0.3790E-04  0.0000E+00  0.0000E+00  0.0000E+00  0.0000E+00  0.0000E+00
    -12.816  0.4396E-02  0.1841E-02  0.2284E-03  0.1842E-02  0.0000E+00  0.0000E+00  0.0000E+00  0.0000E+00  0.0000E+00
    -12.696  0.2562E-01  0.1005E-01  0.1319E-02  0.1005E-01  0.0000E+00  0.0000E+00  0.0000E+00  0.0000E+00  0.0000E+00
    -12.575  0.6269E-01  0.2390E-01  0.3164E-02  0.2390E-01  0.0000E+00  0.0000E+00  0.0000E+00  0.0000E+00  0.0000E+00
    -12.454  0.1284E+00  0.4074E-01  0.6327E-02  0.4074E-01  0.0000E+00  0.0000E+00  0.0000E+00  0.0000E+00  0.0000E+00
    -12.334  0.1259E+00  0.3544E-01  0.6103E-02  0.3543E-01  0.0000E+00  0.0000E+00  0.0000E+00  0.0000E+00  0.0000E+00
    -12.213  0.1338E+00  0.2843E-01  0.6290E-02  0.2842E-01  0.0000E+00  0.0000E+00  0.0000E+00  0.0000E+00  0.0000E+00
    -12.092  0.1139E+00  0.5406E-01  0.5390E-02  0.5406E-01  0.0000E+00  0.0000E+00  0.0000E+00  0.0000E+00  0.0000E+00
    -11.972  0.4557E-01  0.8155E-01  0.2253E-02  0.8155E-01  0.0000E+00  0.0000E+00  0.0000E+00  0.0000E+00  0.0000E+00
    -11.851  0.8794E-02  0.3501E-01  0.4371E-03  0.3501E-01  0.0000E+00  0.0000E+00  0.0000E+00  0.0000E+00  0.0000E+00
    -11.730  0.2319E-01  0.2797E-01  0.9758E-03  0.2797E-01  0.0000E+00  0.0000E+00  0.0000E+00  0.0000E+00  0.0000E+00
    -11.610  0.9502E-01  0.8625E-01  0.4021E-02  0.8625E-01  0.0000E+00  0.0000E+00  0.0000E+00  0.0000E+00  0.0000E+00
    -11.489  0.4505E-01  0.7205E-01  0.1937E-02  0.7205E-01  0.0000E+00  0.0000E+00  0.0000E+00  0.0000E+00  0.0000E+00
    -11.368  0.5293E-02  0.2993E-01  0.2345E-03  0.2993E-01  0.0000E+00  0.0000E+00  0.0000E+00  0.0000E+00  0.0000E+00
    -11.248  0.2510E-01  0.3467E-01  0.9474E-03  0.3468E-01  0.0000E+00  0.0000E+00  0.0000E+00  0.0000E+00  0.0000E+00
    -11.127  0.9896E-01  0.1189E+00  0.3889E-02  0.1189E+00  0.0000E+00  0.0000E+00  0.0000E+00  0.0000E+00  0.0000E+00
    -11.007  0.6907E-01  0.9796E-01  0.2754E-02  0.9795E-01  0.0000E+00  0.0000E+00  0.0000E+00  0.0000E+00  0.0000E+00
    -10.886  0.7340E-02  0.6492E-01  0.2825E-03  0.6491E-01  0.0000E+00  0.0000E+00  0.0000E+00  0.0000E+00  0.0000E+00
    -10.765  0.1945E-02  0.3576E-01  0.6156E-04  0.3576E-01  0.0000E+00  0.0000E+00  0.0000E+00  0.0000E+00  0.0000E+00
    -10.645  0.2262E-01  0.1059E+00  0.6738E-03  0.1060E+00  0.0000E+00  0.0000E+00  0.0000E+00  0.0000E+00  0.0000E+00
    -10.524  0.4113E-01  0.1885E+00  0.1173E-02  0.1885E+00  0.0000E+00  0.0000E+00  0.0000E+00  0.0000E+00  0.0000E+00
    -10.403  0.1362E-01  0.7020E-01  0.3897E-03  0.7019E-01  0.0000E+00  0.0000E+00  0.0000E+00  0.0000E+00  0.0000E+00
    -10.283  0.1496E-02  0.4455E-01  0.3245E-04  0.4456E-01  0.0000E+00  0.0000E+00  0.0000E+00  0.0000E+00  0.0000E+00
    -10.162  0.7157E-02  0.1231E+00  0.8646E-04  0.1231E+00  0.0000E+00  0.0000E+00  0.0000E+00  0.0000E+00  0.0000E+00
    -10.041  0.1397E-01  0.9592E-01  0.2411E-03  0.9592E-01  0.0000E+00  0.0000E+00  0.0000E+00  0.0000E+00  0.0000E+00
     -9.921  0.2934E-01  0.2926E-01  0.1054E-02  0.2926E-01  0.0000E+00  0.0000E+00  0.0000E+00  0.0000E+00  0.0000E+00
     -9.800  0.3412E-01  0.4290E-01  0.1205E-02  0.4290E-01  0.0000E+00  0.0000E+00  0.0000E+00  0.0000E+00  0.0000E+00
     -9.679  0.6889E-01  0.1307E+00  0.2078E-02  0.1307E+00  0.0000E+00  0.0000E+00  0.0000E+00  0.0000E+00  0.0000E+00
     -9.559  0.5178E-01  0.7325E-01  0.1251E-02  0.7326E-01  0.0000E+00  0.0000E+00  0.0000E+00  0.0000E+00  0.0000E+00
     -9.438  0.2519E-01  0.2812E-01  0.3588E-03  0.2813E-01  0.0000E+00  0.0000E+00  0.0000E+00  0.0000E+00  0.0000E+00
     -9.318  0.3317E-02  0.3594E-02  0.5830E-04  0.3595E-02  0.0000E+00  0.0000E+00  0.0000E+00  0.0000E+00  0.0000E+00
     -9.197  0.2150E-03  0.5175E-04  0.1767E-02  0.5178E-04  0.0000E+00  0.0000E+00  0.0000E+00  0.0000E+00  0.0000E+00
     -9.076  0.2889E-02  0.4078E-03  0.2925E-01  0.4078E-03  0.0000E+00  0.0000E+00  0.0000E+00  0.0000E+00  0.0000E+00
     -8.956  0.8088E-02  0.1773E-02  0.8250E-01  0.1773E-02  0.0000E+00  0.0000E+00  0.0000E+00  0.0000E+00  0.0000E+00
     -8.835  0.1059E-01  0.1663E-02  0.1094E+00  0.1663E-02  0.0000E+00  0.0000E+00  0.0000E+00  0.0000E+00  0.0000E+00
     -8.714  0.9298E-02  0.2047E-02  0.9610E-01  0.2046E-02  0.0000E+00  0.0000E+00  0.0000E+00  0.0000E+00  0.0000E+00
     -8.594  0.1314E-01  0.4744E-03  0.1365E+00  0.4743E-03  0.0000E+00  0.0000E+00  0.0000E+00  0.0000E+00  0.0000E+00
     -8.473  0.9103E-02  0.7864E-04  0.9335E-01  0.7862E-04  0.0000E+00  0.0000E+00  0.0000E+00  0.0000E+00  0.0000E+00
     -8.352  0.1540E-01  0.1683E-02  0.1509E+00  0.1682E-02  0.0000E+00  0.0000E+00  0.0000E+00  0.0000E+00  0.0000E+00
     -8.232  0.1588E-01  0.5859E-02  0.1523E+00  0.5858E-02  0.0000E+00  0.0000E+00  0.0000E+00  0.0000E+00  0.0000E+00
     -8.111  0.1477E-01  0.3481E-02  0.1238E+00  0.3481E-02  0.0000E+00  0.0000E+00  0.0000E+00  0.0000E+00  0.0000E+00
     -7.990  0.3559E-01  0.8951E-02  0.2502E+00  0.8952E-02  0.0000E+00  0.0000E+00  0.0000E+00  0.0000E+00  0.0000E+00
     -7.870  0.4456E-01  0.1779E-01  0.2442E+00  0.1780E-01  0.0000E+00  0.0000E+00  0.0000E+00  0.0000E+00  0.0000E+00
     -7.749  0.4563E-01  0.2321E-01  0.2900E+00  0.2323E-01  0.0000E+00  0.0000E+00  0.0000E+00  0.0000E+00  0.0000E+00
     -7.629  0.2919E-01  0.3250E-01  0.2323E+00  0.3251E-01  0.0000E+00  0.0000E+00  0.0000E+00  0.0000E+00  0.0000E+00
     -7.508  0.2060E-01  0.2376E-01  0.8402E-01  0.2377E-01  0.0000E+00  0.0000E+00  0.0000E+00  0.0000E+00  0.0000E+00
     -7.387  0.1101E-01  0.2577E-01  0.1285E-01  0.2577E-01  0.0000E+00  0.0000E+00  0.0000E+00  0.0000E+00  0.0000E+00
     -7.267  0.1249E-01  0.5137E-01  0.5878E-02  0.5138E-01  0.0000E+00  0.0000E+00  0.0000E+00  0.0000E+00  0.0000E+00
     -7.146  0.3614E-01  0.7522E-01  0.1120E-01  0.7521E-01  0.0000E+00  0.0000E+00  0.0000E+00  0.0000E+00  0.0000E+00
     -7.025  0.1553E-01  0.1996E-01  0.4568E-02  0.1995E-01  0.0000E+00  0.0000E+00  0.0000E+00  0.0000E+00  0.0000E+00
     -6.905  0.8391E-02  0.9528E-02  0.4649E-03  0.9536E-02  0.0000E+00  0.0000E+00  0.0000E+00  0.0000E+00  0.0000E+00
     -6.784  0.1272E-01  0.1304E-01  0.4240E-03  0.1305E-01  0.0000E+00  0.0000E+00  0.0000E+00  0.0000E+00  0.0000E+00
     -6.663  0.3957E-02  0.3461E-02  0.1330E-03  0.3459E-02  0.0000E+00  0.0000E+00  0.0000E+00  0.0000E+00  0.0000E+00
     -6.543  0.1843E-03  0.1679E-03  0.5989E-05  0.1675E-03  0.0000E+00  0.0000E+00  0.0000E+00  0.0000E+00  0.0000E+00
     -6.422  0.4659E-03  0.1449E-02  0.2305E-05  0.1450E-02  0.0000E+00  0.0000E+00  0.0000E+00  0.0000E+00  0.0000E+00
     -6.301  0.3109E-02  0.7857E-02  0.3683E-04  0.7862E-02  0.0000E+00  0.0000E+00  0.0000E+00  0.0000E+00  0.0000E+00
     -6.181  0.7608E-02  0.1006E-01  0.1840E-03  0.1006E-01  0.0000E+00  0.0000E+00  0.0000E+00  0.0000E+00  0.0000E+00
     -6.060  0.1338E-01  0.2356E-01  0.1818E-02  0.2357E-01  0.0000E+00  0.0000E+00  0.0000E+00  0.0000E+00  0.0000E+00
     -5.939  0.1104E-01  0.3067E-01  0.4405E-02  0.3067E-01  0.0000E+00  0.0000E+00  0.0000E+00  0.0000E+00  0.0000E+00
     -5.819  0.6199E-02  0.2106E-01  0.1282E-01  0.2106E-01  0.0000E+00  0.0000E+00  0.0000E+00  0.0000E+00  0.0000E+00
     -5.698  0.4947E-02  0.1537E-01  0.2066E-01  0.1536E-01  0.0000E+00  0.0000E+00  0.0000E+00  0.0000E+00  0.0000E+00
     -5.578  0.5031E-02  0.1028E-01  0.1396E-01  0.1028E-01  0.0000E+00  0.0000E+00  0.0000E+00  0.0000E+00  0.0000E+00
     -5.457  0.6357E-02  0.2213E-01  0.3152E-01  0.2215E-01  0.0000E+00  0.0000E+00  0.0000E+00  0.0000E+00  0.0000E+00
     -5.336  0.6426E-02  0.2226E-01  0.2868E-01  0.2226E-01  0.0000E+00  0.0000E+00  0.0000E+00  0.0000E+00  0.0000E+00
     -5.216  0.3135E-02  0.1145E-01  0.8838E-02  0.1145E-01  0.0000E+00  0.0000E+00  0.0000E+00  0.0000E+00  0.0000E+00
     -5.095  0.4412E-02  0.1168E-01  0.2924E-01  0.1168E-01  0.0000E+00  0.0000E+00  0.0000E+00  0.0000E+00  0.0000E+00
     -4.974  0.2562E-02  0.1103E-01  0.1967E-01  0.1103E-01  0.0000E+00  0.0000E+00  0.0000E+00  0.0000E+00  0.0000E+00
     -4.854  0.3689E-02  0.9630E-02  0.2133E-01  0.9642E-02  0.0000E+00  0.0000E+00  0.0000E+00  0.0000E+00  0.0000E+00
     -4.733  0.4890E-02  0.1292E-01  0.2866E-01  0.1293E-01  0.0000E+00  0.0000E+00  0.0000E+00  0.0000E+00  0.0000E+00
     -4.612  0.2599E-02  0.7993E-02  0.1748E-01  0.7980E-02  0.0000E+00  0.0000E+00  0.0000E+00  0.0000E+00  0.0000E+00
     -4.492  0.9968E-03  0.3214E-02  0.5285E-02  0.3211E-02  0.0000E+00  0.0000E+00  0.0000E+00  0.0000E+00  0.0000E+00
     -4.371  0.3467E-02  0.1865E-02  0.2443E-01  0.1861E-02  0.0000E+00  0.0000E+00  0.0000E+00  0.0000E+00  0.0000E+00
     -4.250  0.5431E-02  0.4679E-02  0.3453E-01  0.4676E-02  0.0000E+00  0.0000E+00  0.0000E+00  0.0000E+00  0.0000E+00
     -4.130  0.2296E-02  0.4845E-02  0.9883E-02  0.4844E-02  0.0000E+00  0.0000E+00  0.0000E+00  0.0000E+00  0.0000E+00
     -4.009  0.1624E-02  0.4953E-02  0.6282E-02  0.4949E-02  0.0000E+00  0.0000E+00  0.0000E+00  0.0000E+00  0.0000E+00
     -3.889  0.2823E-02  0.5825E-02  0.1609E-01  0.5823E-02  0.0000E+00  0.0000E+00  0.0000E+00  0.0000E+00  0.0000E+00
     -3.768  0.1842E-02  0.3826E-02  0.1153E-01  0.3825E-02  0.0000E+00  0.0000E+00  0.0000E+00  0.0000E+00  0.0000E+00
     -3.647  0.2333E-02  0.6109E-02  0.1333E-01  0.6104E-02  0.0000E+00  0.0000E+00  0.0000E+00  0.0000E+00  0.0000E+00
     -3.527  0.1968E-02  0.3536E-02  0.1185E-01  0.3535E-02  0.0000E+00  0.0000E+00  0.0000E+00  0.0000E+00  0.0000E+00
     -3.406  0.2162E-03  0.1403E-02  0.1242E-02  0.1401E-02  0.0000E+00  0.0000E+00  0.0000E+00  0.0000E+00  0.0000E+00
     -3.285  0.2278E-03  0.4579E-02  0.1102E-02  0.4576E-02  0.0000E+00  0.0000E+00  0.0000E+00  0.0000E+00  0.0000E+00
     -3.165  0.1021E-02  0.4126E-02  0.6231E-02  0.4122E-02  0.0000E+00  0.0000E+00  0.0000E+00  0.0000E+00  0.0000E+00
     -3.044  0.7660E-03  0.3679E-02  0.4729E-02  0.3676E-02  0.0000E+00  0.0000E+00  0.0000E+00  0.0000E+00  0.0000E+00
     -2.923  0.7009E-04  0.3440E-02  0.4014E-03  0.3439E-02  0.0000E+00  0.0000E+00  0.0000E+00  0.0000E+00  0.0000E+00
     -2.803  0.2860E-05  0.1834E-02  0.1232E-04  0.1833E-02  0.0000E+00  0.0000E+00  0.0000E+00  0.0000E+00  0.0000E+00
     -2.682  0.3377E-07  0.4977E-03  0.1384E-06  0.4984E-03  0.0000E+00  0.0000E+00  0.0000E+00  0.0000E+00  0.0000E+00
     -2.561  0.2954E-10  0.1560E-04  0.1242E-09  0.1566E-04  0.0000E+00  0.0000E+00  0.0000E+00  0.0000E+00  0.0000E+00