<?xml version="1.0" encoding="ISO-8859-1"?>
<modeling>
 <generator>
  <i name="program" type="string">vasp </i>
  <i name="version" type="string">6.3.2  </i>
  <i name="subversion" type="string">27Jun22 (build Dec 22 2022 13:13:19) complex                          parallel </i>
  <i name="platform" type="string">LinuxIFC </i>
  <i name="date" type="string">2023 08 24 </i>
  <i name="time" type="string">19:32:39 </i>
 </generator>
 <incar>
  <i type="string" name="SYSTEM">Lattice</i>
  <i type="int" name="ISTART">     0</i>
  <i type="string" name="PREC">Accurate</i>
  <i type="string" name="ALGO">Normal</i>
  <i type="int" name="ISPIN">     2</i>
  <i type="int" name="ICHARG">     2</i>
  <i type="int" name="NELM">    64</i>
  <i type="int" name="IBRION">     2</i>
  <i name="EDIFF">      0.00000001</i>
  <i name="EDIFFG">     -0.00100000</i>
  <i type="int" name="NSW">   128</i>
  <i type="int" name="ISIF">     2</i>
  <i name="ENCUT">    450.00000000</i>
  <i name="POTIM">      0.50000000</i>
  <i type="int" name="ISMEAR">     0</i>
  <i name="SIGMA">      0.10000000</i>
  <i type="logical" name="LWAVE"> F  </i>
  <i type="logical" name="LCHARG"> F  </i>
  <i type="string" name="GGA">PE</i>
  <i type="int" name="IVDW">    12</i>
 </incar>
 <primitive_cell>
  <structure name="primitive_cell" >
   <crystal>
    <varray name="basis" >
     <v>       4.33878727       2.50500000       0.00000000 </v>
     <v>      -4.33878727       2.50500000       0.00000000 </v>
     <v>       0.00000000       0.00000000      15.00000000 </v>
    </varray>
    <i name="volume">    326.05986356 </i>
    <varray name="rec_basis" >
     <v>       0.11523957       0.19960080       0.00000000 </v>
     <v>      -0.11523957       0.19960080       0.00000000 </v>
     <v>       0.00000000       0.00000000       0.06666667 </v>
    </varray>
   </crystal>
   <varray name="positions" >
    <v>       0.66888689       0.00000000       0.10000000 </v>
    <v>       0.33111211       0.00000000       0.10000000 </v>
    <v>       0.00000000       0.33111211       0.10000000 </v>
    <v>       0.00000000       0.66888689       0.10000000 </v>
    <v>       0.33111211       0.33111211       0.10000000 </v>
    <v>       0.66888689       0.66888689       0.10000000 </v>
    <v>       0.66666600       0.33333300       0.09922189 </v>
    <v>       0.33333300       0.66666600       0.10077811 </v>
    <v>       0.24999933       0.24999967       0.46906667 </v>
    <v>       0.41666633       0.08333267       0.46906667 </v>
    <v>       0.24999933       0.74999967       0.46906667 </v>
    <v>       0.41666633       0.58333267       0.46906667 </v>
    <v>       0.74999933       0.24999967       0.46906667 </v>
    <v>       0.91666633       0.08333267       0.46906667 </v>
    <v>       0.74999933       0.74999967       0.46906667 </v>
    <v>       0.91666633       0.58333267       0.46906667 </v>
   </varray>
  </structure>
  <varray name="primitive_index" >
   <v type="int" >        1 </v>
   <v type="int" >        2 </v>
   <v type="int" >        3 </v>
   <v type="int" >        4 </v>
   <v type="int" >        5 </v>
   <v type="int" >        6 </v>
   <v type="int" >        7 </v>
   <v type="int" >        8 </v>
   <v type="int" >        9 </v>
   <v type="int" >       10 </v>
   <v type="int" >       11 </v>
   <v type="int" >       12 </v>
   <v type="int" >       13 </v>
   <v type="int" >       14 </v>
   <v type="int" >       15 </v>
   <v type="int" >       16 </v>
  </varray>
 </primitive_cell>
 <kpoints>
  <generation param="Gamma">
   <v type="int" name="divisions">      12       12        1 </v>
   <v name="usershift">      0.00000000       0.00000000       0.00000000 </v>
   <v name="genvec1">      0.08333333       0.00000000       0.00000000 </v>
   <v name="genvec2">      0.00000000       0.08333333       0.00000000 </v>
   <v name="genvec3">      0.00000000       0.00000000       1.00000000 </v>
   <v name="shift">      0.00000000       0.00000000       0.00000000 </v>
  </generation>
  <varray name="kpointlist" >
   <v>       0.00000000       0.00000000       0.00000000 </v>
   <v>       0.08333333       0.00000000       0.00000000 </v>
   <v>      -0.08333333       0.08333333       0.00000000 </v>
   <v>       0.16666667      -0.00000000       0.00000000 </v>
   <v>      -0.16666667       0.16666667       0.00000000 </v>
   <v>       0.25000000      -0.00000000       0.00000000 </v>
   <v>      -0.25000000       0.25000000       0.00000000 </v>
   <v>       0.33333333      -0.00000000       0.00000000 </v>
   <v>      -0.33333333       0.33333333       0.00000000 </v>
   <v>       0.41666667      -0.00000000       0.00000000 </v>
   <v>      -0.41666667       0.41666667       0.00000000 </v>
   <v>       0.50000000      -0.00000000       0.00000000 </v>
   <v>       0.50000000       0.50000000       0.00000000 </v>
   <v>       0.08333333       0.08333333       0.00000000 </v>
   <v>      -0.08333333       0.16666667       0.00000000 </v>
   <v>       0.16666667       0.08333333       0.00000000 </v>
   <v>      -0.08333333       0.25000000       0.00000000 </v>
   <v>      -0.25000000       0.16666667       0.00000000 </v>
   <v>       0.25000000       0.08333333       0.00000000 </v>
   <v>      -0.08333333       0.33333333       0.00000000 </v>
   <v>      -0.33333333       0.25000000       0.00000000 </v>
   <v>       0.33333333       0.08333333       0.00000000 </v>
   <v>      -0.08333333       0.41666667       0.00000000 </v>
   <v>      -0.41666667       0.33333333       0.00000000 </v>
   <v>       0.41666667       0.08333333       0.00000000 </v>
   <v>      -0.08333333       0.50000000       0.00000000 </v>
   <v>       0.50000000       0.41666667       0.00000000 </v>
   <v>       0.16666667       0.16666667       0.00000000 </v>
   <v>      -0.16666667       0.33333333       0.00000000 </v>
   <v>       0.25000000       0.16666667       0.00000000 </v>
   <v>      -0.16666667       0.41666667       0.00000000 </v>
   <v>      -0.41666667       0.25000000       0.00000000 </v>
   <v>       0.33333333       0.16666667       0.00000000 </v>
   <v>      -0.16666667       0.50000000       0.00000000 </v>
   <v>       0.50000000       0.33333333       0.00000000 </v>
   <v>       0.41666667       0.16666667       0.00000000 </v>
   <v>       0.41666667       0.41666667       0.00000000 </v>
   <v>       0.25000000       0.25000000       0.00000000 </v>
   <v>      -0.25000000       0.50000000       0.00000000 </v>
   <v>       0.33333333       0.25000000       0.00000000 </v>
   <v>      -0.25000000      -0.41666667       0.00000000 </v>
   <v>       0.41666667       0.33333333       0.00000000 </v>
   <v>       0.33333333       0.33333333       0.00000000 </v>
  </varray>
  <varray name="weights" >
   <v>       0.00694444 </v>
   <v>       0.02777778 </v>
   <v>       0.01388889 </v>
   <v>       0.02777778 </v>
   <v>       0.01388889 </v>
   <v>       0.02777778 </v>
   <v>       0.01388889 </v>
   <v>       0.02777778 </v>
   <v>       0.01388889 </v>
   <v>       0.02777778 </v>
   <v>       0.01388889 </v>
   <v>       0.01388889 </v>
   <v>       0.00694444 </v>
   <v>       0.01388889 </v>
   <v>       0.02777778 </v>
   <v>       0.02777778 </v>
   <v>       0.02777778 </v>
   <v>       0.02777778 </v>
   <v>       0.02777778 </v>
   <v>       0.02777778 </v>
   <v>       0.02777778 </v>
   <v>       0.02777778 </v>
   <v>       0.02777778 </v>
   <v>       0.02777778 </v>
   <v>       0.02777778 </v>
   <v>       0.02777778 </v>
   <v>       0.02777778 </v>
   <v>       0.01388889 </v>
   <v>       0.02777778 </v>
   <v>       0.02777778 </v>
   <v>       0.02777778 </v>
   <v>       0.02777778 </v>
   <v>       0.02777778 </v>
   <v>       0.02777778 </v>
   <v>       0.02777778 </v>
   <v>       0.02777778 </v>
   <v>       0.01388889 </v>
   <v>       0.01388889 </v>
   <v>       0.02777778 </v>
   <v>       0.02777778 </v>
   <v>       0.02777778 </v>
   <v>       0.02777778 </v>
   <v>       0.01388889 </v>
  </varray>
 </kpoints>
 <parameters>
  <separator name="general" >
   <i type="string" name="SYSTEM">Lattice</i>
   <i type="logical" name="LCOMPAT"> F  </i>
  </separator>
  <separator name="electronic" >
   <i type="string" name="PREC">accura</i>
   <i name="ENMAX">    450.00000000</i>
   <i name="ENAUG">    644.87300000</i>
   <i name="EDIFF">      0.00000001</i>
   <i type="int" name="IALGO">    38</i>
   <i type="int" name="IWAVPR">    11</i>
   <i type="int" name="NBANDS">    48</i>
   <i type="int" name="NBANDSLOW">    -1</i>
   <i type="int" name="NBANDSHIGH">    -1</i>
   <i name="NELECT">     56.00000000</i>
   <i type="int" name="TURBO">     0</i>
   <i type="int" name="IRESTART">     0</i>
   <i type="int" name="NREBOOT">     0</i>
   <i type="int" name="NMIN">     0</i>
   <i name="EREF">      0.00000000</i>
   <separator name="electronic smearing" >
    <i type="int" name="ISMEAR">     0</i>
    <i name="SIGMA">      0.10000000</i>
    <i name="KSPACING">      0.50000000</i>
    <i type="logical" name="KGAMMA"> T  </i>
    <i type="logical" name="KBLOWUP"> T  </i>
   </separator>
   <separator name="electronic projectors" >
    <i type="logical" name="LREAL"> F  </i>
    <v name="ROPT">      0.00000000      0.00000000</v>
    <i type="int" name="LMAXPAW">  -100</i>
    <i type="int" name="LMAXMIX">     2</i>
    <i type="logical" name="NLSPLINE"> F  </i>
   </separator>
   <separator name="electronic startup" >
    <i type="int" name="ISTART">     0</i>
    <i type="int" name="ICHARG">     2</i>
    <i type="int" name="INIWAV">     1</i>
   </separator>
   <separator name="electronic spin" >
    <i type="int" name="ISPIN">     2</i>
    <i type="logical" name="LNONCOLLINEAR"> F  </i>
    <v name="MAGMOM">      1.00000000      1.00000000      1.00000000      1.00000000      1.00000000      1.00000000      1.00000000      1.00000000      1.00000000      1.00000000      1.00000000      1.00000000      1.00000000      1.00000000      1.00000000      1.00000000</v>
    <i name="NUPDOWN">     -1.00000000</i>
    <i type="logical" name="LSORBIT"> F  </i>
    <v name="SAXIS">      0.00000000      0.00000000      1.00000000</v>
    <i type="logical" name="LSPIRAL"> F  </i>
    <v name="QSPIRAL">      0.00000000      0.00000000      0.00000000</v>
    <i type="logical" name="LZEROZ"> F  </i>
   </separator>
   <separator name="electronic exchange-correlation" >
    <i type="logical" name="LASPH"> F  </i>
    <i type="logical" name="LMETAGGA"> F  </i>
   </separator>
   <separator name="electronic convergence" >
    <i type="int" name="NELM">    64</i>
    <i type="int" name="NELMDL">    -5</i>
    <i type="int" name="NELMIN">     2</i>
    <i name="ENINI">    450.00000000</i>
    <separator name="electronic convergence detail" >
     <i type="logical" name="LDIAG"> T  </i>
     <i type="logical" name="LSUBROT"> F  </i>
     <i name="WEIMIN">      0.00100000</i>
     <i name="EBREAK">      0.00000000</i>
     <i name="DEPER">      0.30000000</i>
     <i type="int" name="NRMM">     4</i>
     <i name="TIME">      0.40000000</i>
    </separator>
   </separator>
   <separator name="electronic mixer" >
    <i name="AMIX">      0.40000000</i>
    <i name="BMIX">      1.00000000</i>
    <i name="AMIN">      0.10000000</i>
    <i name="AMIX_MAG">      1.60000000</i>
    <i name="BMIX_MAG">      1.00000000</i>
    <separator name="electronic mixer details" >
     <i type="int" name="IMIX">     4</i>
     <i type="logical" name="MIXFIRST"> F  </i>
     <i type="int" name="MAXMIX">   -45</i>
     <i name="WC">    100.00000000</i>
     <i type="int" name="INIMIX">     1</i>
     <i type="int" name="MIXPRE">     1</i>
     <i type="int" name="MREMOVE">     5</i>
    </separator>
   </separator>
   <separator name="electronic dipolcorrection" >
    <i type="logical" name="LDIPOL"> F  </i>
    <i type="logical" name="LMONO"> F  </i>
    <i type="int" name="IDIPOL">     0</i>
    <i name="EPSILON">      1.00000000</i>
    <v name="DIPOL">   -100.00000000   -100.00000000   -100.00000000</v>
    <i name="EFIELD">      0.00000000</i>
   </separator>
  </separator>
  <separator name="grids" >
   <i type="int" name="NGX">    36</i>
   <i type="int" name="NGY">    36</i>
   <i type="int" name="NGZ">   108</i>
   <i type="int" name="NGXF">    72</i>
   <i type="int" name="NGYF">    72</i>
   <i type="int" name="NGZF">   216</i>
   <i type="logical" name="ADDGRID"> F  </i>
  </separator>
  <separator name="ionic" >
   <i type="int" name="NSW">   128</i>
   <i type="int" name="IBRION">     2</i>
   <i type="int" name="MDALGO">     0</i>
   <i type="int" name="ISIF">     2</i>
   <i name="PSTRESS">      0.00000000</i>
   <i name="EDIFFG">     -0.00100000</i>
   <i type="int" name="NFREE">     1</i>
   <i name="POTIM">      0.50000000</i>
   <i name="SMASS">     -3.00000000</i>
   <i name="SCALEE">      1.00000000</i>
  </separator>
  <separator name="ionic md" >
   <i name="TEBEG">      0.00010000</i>
   <i name="TEEND">      0.00010000</i>
   <i type="int" name="NBLOCK">     1</i>
   <i type="int" name="KBLOCK">   128</i>
   <i type="int" name="NPACO">   256</i>
   <i name="APACO">     10.00000000</i>
  </separator>
  <separator name="symmetry" >
   <i type="int" name="ISYM">     2</i>
   <i name="SYMPREC">      0.00001000</i>
  </separator>
  <separator name="dos" >
   <i type="int" name="LORBIT">     0</i>
   <v name="RWIGS">     -1.00000000     -1.00000000</v>
   <i type="int" name="NEDOS">   301</i>
   <i name="EMIN">     10.00000000</i>
   <i name="EMAX">    -10.00000000</i>
   <i name="EFERMI">      0.00000000</i>
  </separator>
  <separator name="writing" >
   <i type="int" name="NWRITE">     2</i>
   <i type="logical" name="LWAVE"> F  </i>
   <i type="logical" name="LDOWNSAMPLE"> F  </i>
   <i type="logical" name="LCHARG"> F  </i>
   <i type="logical" name="LPARD"> F  </i>
   <i type="logical" name="LVTOT"> F  </i>
   <i type="logical" name="LVHAR"> F  </i>
   <i type="logical" name="LELF"> F  </i>
   <i type="logical" name="LOPTICS"> F  </i>
   <v name="STM">      0.00000000      0.00000000      0.00000000      0.00000000      0.00000000      0.00000000      0.00000000</v>
  </separator>
  <separator name="performance" >
   <i type="int" name="NPAR">    48</i>
   <i type="int" name="NSIM">     4</i>
   <i type="int" name="NBLK">    -1</i>
   <i type="logical" name="LPLANE"> T  </i>
   <i type="logical" name="LSCALAPACK"> T  </i>
   <i type="logical" name="LSCAAWARE"> F  </i>
   <i type="logical" name="LSCALU"> F  </i>
   <i type="logical" name="LASYNC"> F  </i>
   <i type="logical" name="LORBITALREAL"> F  </i>
  </separator>
  <separator name="miscellaneous" >
   <i type="int" name="IDIOT">     3</i>
   <i type="int" name="PHON_NSTRUCT">    -1</i>
   <i type="logical" name="LMUSIC"> F  </i>
   <v name="POMASS">     10.81100000     12.01100000</v>
   <v name="DARWINR">      0.00000000      0.00000000</v>
   <v name="DARWINV">      1.00000000      1.00000000</v>
   <i type="logical" name="LCORR"> T  </i>
  </separator>
  <i type="logical" name="GGA_COMPAT"> T  </i>
  <i type="logical" name="LBERRY"> F  </i>
  <i type="int" name="ICORELEVEL">     0</i>
  <i type="logical" name="LDAU"> F  </i>
  <i type="int" name="I_CONSTRAINED_M">     0</i>
  <separator name="electronic exchange-correlation" >
   <i type="string" name="GGA">PE</i>
   <i type="int" name="VOSKOWN">     0</i>
   <i type="logical" name="LHFCALC"> F  </i>
   <i type="string" name="PRECFOCK"></i>
   <i type="logical" name="LSYMGRAD"> F  </i>
   <i type="logical" name="LHFONE"> F  </i>
   <i type="logical" name="LRHFCALC"> F  </i>
   <i type="logical" name="LTHOMAS"> F  </i>
   <i type="logical" name="LMODELHF"> F  </i>
   <i type="logical" name="LFOCKACE"> F  </i>
   <i name="ENCUT4O">     -1.00000000</i>
   <i type="int" name="EXXOEP">     0</i>
   <i type="int" name="FOURORBIT">     0</i>
   <i name="AEXX">      0.00000000</i>
   <i name="HFALPHA">      0.00000000</i>
   <i name="MCALPHA">      0.00000000</i>
   <i name="ALDAX">      1.00000000</i>
   <i name="AGGAX">      1.00000000</i>
   <i name="ALDAC">      1.00000000</i>
   <i name="AGGAC">      1.00000000</i>
   <i type="int" name="NKREDX">     1</i>
   <i type="int" name="NKREDY">     1</i>
   <i type="int" name="NKREDZ">     1</i>
   <i type="logical" name="SHIFTRED"> F  </i>
   <i type="logical" name="ODDONLY"> F  </i>
   <i type="logical" name="EVENONLY"> F  </i>
   <i type="int" name="LMAXFOCK">     0</i>
   <i type="int" name="NMAXFOCKAE">     0</i>
   <i type="logical" name="LFOCKAEDFT"> F  </i>
   <i name="HFSCREEN">      0.00000000</i>
   <i name="HFSCREENC">      0.00000000</i>
   <i type="int" name="NBANDSGWLOW">     0</i>
  </separator>
  <separator name="vdW DFT" >
   <i type="logical" name="LUSE_VDW"> F  </i>
   <i name="Zab_VDW">     -0.84910000</i>
   <i name="PARAM1">      0.12340000</i>
   <i name="PARAM2">      1.00000000</i>
   <i name="PARAM3">      0.00000000</i>
  </separator>
  <separator name="model GW" >
   <i type="int" name="MODEL_GW">     0</i>
   <i name="MODEL_EPS0">     12.22724488</i>
   <i name="MODEL_ALPHA">      1.00000000</i>
  </separator>
  <separator name="linear response parameters" >
   <i type="logical" name="LEPSILON"> F  </i>
   <i type="logical" name="LRPA"> F  </i>
   <i type="logical" name="LNABLA"> F  </i>
   <i type="logical" name="LVEL"> F  </i>
   <i name="CSHIFT">      0.10000000</i>
   <i name="OMEGAMAX">     -1.00000000</i>
   <i name="DEG_THRESHOLD">      0.00200000</i>
   <i name="RTIME">     -0.10000000</i>
   <i name="WPLASMAI">      0.00000000</i>
   <v name="DFIELD">      0.00000000      0.00000000      0.00000000</v>
   <v name="WPLASMA">      0.00000000      0.00000000      0.00000000      0.00000000      0.00000000      0.00000000      0.00000000      0.00000000      0.00000000</v>
  </separator>
  <separator name="orbital magnetization" >
   <i type="logical" name="NUCIND"> F  </i>
   <v name="MAGPOS">      0.00000000      0.00000000      0.00000000</v>
   <i type="logical" name="LNICSALL"> T  </i>
   <i type="logical" name="ORBITALMAG"> F  </i>
   <i type="logical" name="LMAGBLOCH"> F  </i>
   <i type="logical" name="LCHIMAG"> F  </i>
   <i type="logical" name="LGAUGE"> T  </i>
   <i type="int" name="MAGATOM">     0</i>
   <v name="MAGDIPOL">      0.00000000      0.00000000      0.00000000</v>
   <v name="AVECCONST">      0.00000000      0.00000000      0.00000000</v>
  </separator>
  <separator name="response functions" >
   <i type="logical" name="LFINITE_TEMPERATURE"> F  </i>
   <i type="logical" name="LADDER"> F  </i>
   <i type="logical" name="LRPAFORCE"> F  </i>
   <i type="logical" name="LFXC"> F  </i>
   <i type="logical" name="LHARTREE"> T  </i>
   <i type="int" name="IBSE">     0</i>
   <v type="int" name="KPOINT">    -1     0     0     0</v>
   <i type="logical" name="LTCTC"> F  </i>
   <i type="logical" name="LTCTE"> F  </i>
   <i type="logical" name="LTETE"> F  </i>
   <i type="logical" name="LTRIPLET"> F  </i>
   <i type="logical" name="LFXCEPS"> F  </i>
   <i type="logical" name="LFXHEG"> F  </i>
   <i type="int" name="NATURALO">     2</i>
   <i type="logical" name="LHOLEGF"> F  </i>
   <i type="logical" name="L2ORDER"> F  </i>
   <i type="logical" name="LDMP1"> F  </i>
   <i type="logical" name="LMP2LT"> F  </i>
   <i type="logical" name="LSMP2LT"> F  </i>
   <i type="logical" name="LGWLF"> F  </i>
   <i name="ENCUTGW">     -2.00000000</i>
   <i name="ENCUTGWSOFT">     -2.00000000</i>
   <i name="ENCUTLF">     -1.00000000</i>
   <i type="logical" name="LESF_SPLINES"> F  </i>
   <i type="int" name="LMAXMP2">    -1</i>
   <i name="SCISSOR">      0.00000000</i>
   <i type="int" name="NOMEGA">     0</i>
   <i type="int" name="NOMEGAR">     0</i>
   <i type="int" name="NBANDSGW">    -1</i>
   <i type="int" name="NBANDSO">    -1</i>
   <i type="int" name="NBANDSV">    -1</i>
   <i type="int" name="NELMGW">     1</i>
   <i type="int" name="NELMHF">     1</i>
   <i type="int" name="DIM">     3</i>
   <i type="int" name="IESPILON">     4</i>
   <i type="int" name="ANTIRES">     0</i>
   <i name="OMEGAMAX">    -30.00000000</i>
   <i name="OMEGAMIN">    -30.00000000</i>
   <i name="OMEGATL">   -200.00000000</i>
   <i type="int" name="OMEGAGRID">     0</i>
   <i name="CSHIFT">     -0.10000000</i>
   <i type="logical" name="LSELFENERGY"> F  </i>
   <i type="logical" name="LSPECTRAL"> F  </i>
   <i type="logical" name="LSPECTRALGW"> F  </i>
   <i type="logical" name="LSINGLES"> F  </i>
   <i type="logical" name="LFERMIGW"> F  </i>
   <i type="logical" name="ODDONLYGW"> F  </i>
   <i type="logical" name="EVENONLYGW"> F  </i>
   <i type="int" name="NKREDLFX">     1</i>
   <i type="int" name="NKREDLFY">     1</i>
   <i type="int" name="NKREDLFZ">     1</i>
   <i type="int" name="MAXMEM">  2800</i>
   <i type="int" name="TELESCOPE">     0</i>
   <i type="int" name="NTAUPAR">    -1</i>
   <i type="int" name="NOMEGAPAR">    -1</i>
   <i name="DAMP_NEWTON">      0.80000001</i>
   <i name="LAMBDA">      1.00000000</i>
  </separator>
  <separator name="External order field" >
   <i name="OFIELD_KAPPA">      0.00000000</i>
   <v name="OFIELD_K">      0.00000000      0.00000000      0.00000000</v>
   <i name="OFIELD_Q6_NEAR">      0.00000000</i>
   <i name="OFIELD_Q6_FAR">      0.00000000</i>
   <i name="OFIELD_A">      0.00000000</i>
  </separator>
  <separator name="optional k-points parameters" >
   <i type="int" name="KPOINTS_OPT_MODE">     1</i>
   <i type="logical" name="LKPOINTS_OPT"> F  </i>
  </separator>
  <separator name="solvation model" >
   <i type="logical" name="LSOL"> F  </i>
  </separator>
 </parameters>
 <atominfo>
  <atoms>      16 </atoms>
  <types>       2 </types>
  <array name="atoms" >
   <dimension dim="1">ion</dimension>
   <field type="string">element</field>
   <field type="int">atomtype</field>
   <set>
    <rc><c>B </c><c>   1</c></rc>
    <rc><c>B </c><c>   1</c></rc>
    <rc><c>B </c><c>   1</c></rc>
    <rc><c>B </c><c>   1</c></rc>
    <rc><c>B </c><c>   1</c></rc>
    <rc><c>B </c><c>   1</c></rc>
    <rc><c>B </c><c>   1</c></rc>
    <rc><c>B </c><c>   1</c></rc>
    <rc><c>C </c><c>   2</c></rc>
    <rc><c>C </c><c>   2</c></rc>
    <rc><c>C </c><c>   2</c></rc>
    <rc><c>C </c><c>   2</c></rc>
    <rc><c>C </c><c>   2</c></rc>
    <rc><c>C </c><c>   2</c></rc>
    <rc><c>C </c><c>   2</c></rc>
    <rc><c>C </c><c>   2</c></rc>
   </set>
  </array>
  <array name="atomtypes" >
   <dimension dim="1">type</dimension>
   <field type="int">atomspertype</field>
   <field type="string">element</field>
   <field>mass</field>
   <field>valence</field>
   <field type="string">pseudopotential</field>
   <set>
    <rc><c>   8</c><c>B </c><c>     10.81100000</c><c>      3.00000000</c><c>  PAW_PBE B 06Sep2000                   </c></rc>
    <rc><c>   8</c><c>C </c><c>     12.01100000</c><c>      4.00000000</c><c>  PAW_PBE C 08Apr2002                   </c></rc>
   </set>
  </array>
 </atominfo>
 <structure name="initialpos" >
  <crystal>
   <varray name="basis" >
    <v>       4.33878727       2.50500000       0.00000000 </v>
    <v>      -4.33878727       2.50500000       0.00000000 </v>
    <v>       0.00000000       0.00000000      15.00000000 </v>
   </varray>
   <i name="volume">    326.05986356 </i>
   <varray name="rec_basis" >
    <v>       0.11523957       0.19960080       0.00000000 </v>
    <v>      -0.11523957       0.19960080       0.00000000 </v>
    <v>       0.00000000       0.00000000       0.06666667 </v>
   </varray>
  </crystal>
  <varray name="positions" >
   <v>       0.66888689       0.00000000       0.10000000 </v>
   <v>       0.33111211       0.00000000       0.10000000 </v>
   <v>       0.00000000       0.33111211       0.10000000 </v>
   <v>       0.00000000       0.66888689       0.10000000 </v>
   <v>       0.33111211       0.33111211       0.10000000 </v>
   <v>       0.66888689       0.66888689       0.10000000 </v>
   <v>       0.66666600       0.33333300       0.09922189 </v>
   <v>       0.33333300       0.66666600       0.10077811 </v>
   <v>       0.24999933       0.24999967       0.46906667 </v>
   <v>       0.41666633       0.08333267       0.46906667 </v>
   <v>       0.24999933       0.74999967       0.46906667 </v>
   <v>       0.41666633       0.58333267       0.46906667 </v>
   <v>       0.74999933       0.24999967       0.46906667 </v>
   <v>       0.91666633       0.08333267       0.46906667 </v>
   <v>       0.74999933       0.74999967       0.46906667 </v>
   <v>       0.91666633       0.58333267       0.46906667 </v>
  </varray>
 </structure>
 <calculation>
  <scstep>
   <time name="dav">    3.28    3.33</time>
   <time name="total">    3.33    3.38</time>
   <energy>
    <i name="alphaZ">     59.72471782 </i>
    <i name="ewald">   1832.03547079 </i>
    <i name="hartreedc">  -3250.85209658 </i>
    <i name="XCdc">    162.89424887 </i>
    <i name="pawpsdc">   1214.24570090 </i>
    <i name="pawaedc">  -1211.68112031 </i>
    <i name="eentropy">     -0.01927768 </i>
    <i name="bandstr">   -367.55310285 </i>
    <i name="atom">   1746.50554237 </i>
    <i name="e_fr_energy">    185.30008332 </i>
    <i name="e_wo_entrp">    185.31936100 </i>
    <i name="e_0_energy">    185.30972216 </i>
   </energy>
  </scstep>
  <scstep>
   <time name="dav">    5.36    5.42</time>
   <time name="total">    5.36    5.42</time>
   <energy>
    <i name="e_fr_energy">   -118.19038379 </i>
    <i name="e_wo_entrp">   -118.18040702 </i>
    <i name="e_0_energy">   -118.18539540 </i>
   </energy>
  </scstep>
  <scstep>
   <time name="dav">    5.93    5.98</time>
   <time name="total">    5.93    5.98</time>
   <energy>
    <i name="e_fr_energy">   -127.37337192 </i>
    <i name="e_wo_entrp">   -127.36073431 </i>
    <i name="e_0_energy">   -127.36705312 </i>
   </energy>
  </scstep>
  <scstep>
   <time name="dav">    5.41    5.45</time>
   <time name="total">    5.41    5.46</time>
   <energy>
    <i name="e_fr_energy">   -127.39701671 </i>
    <i name="e_wo_entrp">   -127.38427336 </i>
    <i name="e_0_energy">   -127.39064504 </i>
   </energy>
  </scstep>
  <scstep>
   <time name="dav">    5.36    5.40</time>
   <time name="total">    5.54    5.60</time>
   <energy>
    <i name="e_fr_energy">   -127.39704843 </i>
    <i name="e_wo_entrp">   -127.38430504 </i>
    <i name="e_0_energy">   -127.39067674 </i>
   </energy>
  </scstep>
  <scstep>
   <time name="dav">    4.40    4.44</time>
   <time name="total">    4.62    4.69</time>
   <energy>
    <i name="e_fr_energy">    -94.33796425 </i>
    <i name="e_wo_entrp">    -94.32797335 </i>
    <i name="e_0_energy">    -94.33296880 </i>
   </energy>
  </scstep>
  <scstep>
   <time name="dav">    5.20    5.24</time>
   <time name="total">    5.44    5.50</time>
   <energy>
    <i name="e_fr_energy">   -105.55047194 </i>
    <i name="e_wo_entrp">   -105.54097456 </i>
    <i name="e_0_energy">   -105.54572325 </i>
   </energy>
  </scstep>
  <scstep>
   <time name="dav">    5.08    5.12</time>
   <time name="total">    5.29    5.34</time>
   <energy>
    <i name="e_fr_energy">   -111.43036911 </i>
    <i name="e_wo_entrp">   -111.42082938 </i>
    <i name="e_0_energy">   -111.42559925 </i>
   </energy>
  </scstep>
  <scstep>
   <time name="dav">    4.42    4.46</time>
   <time name="total">    4.63    4.67</time>
   <energy>
    <i name="e_fr_energy">   -116.68846277 </i>
    <i name="e_wo_entrp">   -116.68553335 </i>
    <i name="e_0_energy">   -116.68699806 </i>
   </energy>
  </scstep>
  <scstep>
   <time name="dav">    4.84    4.88</time>
   <time name="total">    5.05    5.10</time>
   <energy>
    <i name="e_fr_energy">   -120.85939012 </i>
    <i name="e_wo_entrp">   -120.85463540 </i>
    <i name="e_0_energy">   -120.85701276 </i>
   </energy>
  </scstep>
  <scstep>
   <time name="dav">    4.85    4.88</time>
   <time name="total">    5.06    5.10</time>
   <energy>
    <i name="e_fr_energy">   -122.75369633 </i>
    <i name="e_wo_entrp">   -122.75045752 </i>
    <i name="e_0_energy">   -122.75207693 </i>
   </energy>
  </scstep>
  <scstep>
   <time name="dav">    5.64    5.68</time>
   <time name="total">    5.85    5.89</time>
   <energy>
    <i name="e_fr_energy">   -123.73903974 </i>
    <i name="e_wo_entrp">   -123.73461021 </i>
    <i name="e_0_energy">   -123.73682498 </i>
   </energy>
  </scstep>
  <scstep>
   <time name="dav">    4.88    4.92</time>
   <time name="total">    5.09    5.13</time>
   <energy>
    <i name="e_fr_energy">   -124.05157707 </i>
    <i name="e_wo_entrp">   -124.04558066 </i>
    <i name="e_0_energy">   -124.04857886 </i>
   </energy>
  </scstep>
  <scstep>
   <time name="dav">    4.36    4.38</time>
   <time name="total">    4.56    4.60</time>
   <energy>
    <i name="e_fr_energy">   -124.10669808 </i>
    <i name="e_wo_entrp">   -124.10058896 </i>
    <i name="e_0_energy">   -124.10364352 </i>
   </energy>
  </scstep>
  <scstep>
   <time name="dav">    3.99    4.02</time>
   <time name="total">    4.20    4.24</time>
   <energy>
    <i name="e_fr_energy">   -124.12951496 </i>
    <i name="e_wo_entrp">   -124.12341040 </i>
    <i name="e_0_energy">   -124.12646268 </i>
   </energy>
  </scstep>
  <scstep>
   <time name="dav">    4.03    4.06</time>
   <time name="total">    4.23    4.27</time>
   <energy>
    <i name="e_fr_energy">   -124.13114591 </i>
    <i name="e_wo_entrp">   -124.12508288 </i>
    <i name="e_0_energy">   -124.12811439 </i>
   </energy>
  </scstep>
  <scstep>
   <time name="dav">    3.70    3.72</time>
   <time name="total">    3.91    3.94</time>
   <energy>
    <i name="e_fr_energy">   -124.13190820 </i>
    <i name="e_wo_entrp">   -124.12586500 </i>
    <i name="e_0_energy">   -124.12888660 </i>
   </energy>
  </scstep>
  <scstep>
   <time name="dav">    3.62    3.64</time>
   <time name="total">    3.82    3.86</time>
   <energy>
    <i name="e_fr_energy">   -124.13192022 </i>
    <i name="e_wo_entrp">   -124.12586324 </i>
    <i name="e_0_energy">   -124.12889173 </i>
   </energy>
  </scstep>
  <scstep>
   <time name="dav">    3.56    3.59</time>
   <time name="total">    3.77    3.81</time>
   <energy>
    <i name="e_fr_energy">   -124.13196613 </i>
    <i name="e_wo_entrp">   -124.12590364 </i>
    <i name="e_0_energy">   -124.12893488 </i>
   </energy>
  </scstep>
  <scstep>
   <time name="dav">    3.53    3.55</time>
   <time name="total">    3.74    3.78</time>
   <energy>
    <i name="e_fr_energy">   -124.13199168 </i>
    <i name="e_wo_entrp">   -124.12593129 </i>
    <i name="e_0_energy">   -124.12896148 </i>
   </energy>
  </scstep>
  <scstep>
   <time name="dav">    3.48    3.50</time>
   <time name="total">    3.68    3.71</time>
   <energy>
    <i name="e_fr_energy">   -124.13203834 </i>
    <i name="e_wo_entrp">   -124.12597845 </i>
    <i name="e_0_energy">   -124.12900840 </i>
   </energy>
  </scstep>
  <scstep>
   <time name="dav">    4.06    4.09</time>
   <time name="total">    4.27    4.31</time>
   <energy>
    <i name="e_fr_energy">   -124.13206283 </i>
    <i name="e_wo_entrp">   -124.12600268 </i>
    <i name="e_0_energy">   -124.12903276 </i>
   </energy>
  </scstep>
  <scstep>
   <time name="dav">    4.60    4.63</time>
   <time name="total">    4.80    4.84</time>
   <energy>
    <i name="e_fr_energy">   -124.13206665 </i>
    <i name="e_wo_entrp">   -124.12600680 </i>
    <i name="e_0_energy">   -124.12903673 </i>
   </energy>
  </scstep>
  <scstep>
   <time name="dav">    4.99    5.01</time>
   <time name="total">    5.19    5.23</time>
   <energy>
    <i name="e_fr_energy">   -124.13206994 </i>
    <i name="e_wo_entrp">   -124.12601002 </i>
    <i name="e_0_energy">   -124.12903998 </i>
   </energy>
  </scstep>
  <scstep>
   <time name="dav">    4.26    4.29</time>
   <time name="total">    4.47    4.51</time>
   <energy>
    <i name="e_fr_energy">   -124.13207125 </i>
    <i name="e_wo_entrp">   -124.12601137 </i>
    <i name="e_0_energy">   -124.12904131 </i>
   </energy>
  </scstep>
  <scstep>
   <time name="dav">    6.09    6.13</time>
   <time name="total">    6.30    6.34</time>
   <energy>
    <i name="e_fr_energy">   -124.13207161 </i>
    <i name="e_wo_entrp">   -124.12601189 </i>
    <i name="e_0_energy">   -124.12904175 </i>
   </energy>
  </scstep>
  <scstep>
   <time name="dav">    4.55    4.57</time>
   <time name="total">    4.75    4.79</time>
   <energy>
    <i name="e_fr_energy">   -124.13207169 </i>
    <i name="e_wo_entrp">   -124.12601205 </i>
    <i name="e_0_energy">   -124.12904187 </i>
   </energy>
  </scstep>
  <scstep>
   <time name="dav">    5.24    5.27</time>
   <time name="total">    5.44    5.48</time>
   <energy>
    <i name="e_fr_energy">   -124.13207171 </i>
    <i name="e_wo_entrp">   -124.12601205 </i>
    <i name="e_0_energy">   -124.12904188 </i>
   </energy>
  </scstep>
  <scstep>
   <time name="dav">    6.10    6.13</time>
   <time name="total">    6.13    6.17</time>
   <energy>
    <i name="alphaZ">     59.72471782 </i>
    <i name="ewald">   1832.03547079 </i>
    <i name="hartreedc">  -3440.52809916 </i>
    <i name="XCdc">    167.55974706 </i>
    <i name="pawpsdc">   5629.44256917 </i>
    <i name="pawaedc">  -5628.74722447 </i>
    <i name="eentropy">     -0.00605968 </i>
    <i name="bandstr">   -490.11873561 </i>
    <i name="atom">   1746.50554237 </i>
    <i name="e_fr_energy">   -124.13207170 </i>
    <i name="e_wo_entrp">   -124.12601202 </i>
    <i name="e_0_energy">   -124.12904186 </i>
   </energy>
  </scstep>
  <structure>
   <crystal>
    <varray name="basis" >
     <v>       4.33878727       2.50500000       0.00000000 </v>
     <v>      -4.33878727       2.50500000       0.00000000 </v>
     <v>       0.00000000       0.00000000      15.00000000 </v>
    </varray>
    <i name="volume">    326.05986356 </i>
    <varray name="rec_basis" >
     <v>       0.11523957       0.19960080       0.00000000 </v>
     <v>      -0.11523957       0.19960080       0.00000000 </v>
     <v>       0.00000000       0.00000000       0.06666667 </v>
    </varray>
   </crystal>
   <varray name="positions" >
    <v>       0.66888689       0.00000000       0.10000000 </v>
    <v>       0.33111211       0.00000000       0.10000000 </v>
    <v>       0.00000000       0.33111211       0.10000000 </v>
    <v>       0.00000000       0.66888689       0.10000000 </v>
    <v>       0.33111211       0.33111211       0.10000000 </v>
    <v>       0.66888689       0.66888689       0.10000000 </v>
    <v>       0.66666600       0.33333300       0.09922189 </v>
    <v>       0.33333300       0.66666600       0.10077811 </v>
    <v>       0.24999933       0.24999967       0.46906667 </v>
    <v>       0.41666633       0.08333267       0.46906667 </v>
    <v>       0.24999933       0.74999967       0.46906667 </v>
    <v>       0.41666633       0.58333267       0.46906667 </v>
    <v>       0.74999933       0.24999967       0.46906667 </v>
    <v>       0.91666633       0.08333267       0.46906667 </v>
    <v>       0.74999933       0.74999967       0.46906667 </v>
    <v>       0.91666633       0.58333267       0.46906667 </v>
   </varray>
  </structure>
  <varray name="forces" >
   <v>       0.08321210       0.04802630       0.00814132 </v>
   <v>      -0.08316988      -0.04803569       0.00816836 </v>
   <v>       0.08321210      -0.04802630       0.00814132 </v>
   <v>      -0.08316988       0.04803569       0.00816836 </v>
   <v>       0.00000400      -0.09609041       0.00817252 </v>
   <v>       0.00000400       0.09609041       0.00817252 </v>
   <v>       0.00001321      -0.00000000       0.00960196 </v>
   <v>      -0.00008042      -0.00000000       0.00889524 </v>
   <v>       0.00004445      -0.00046173      -0.00834804 </v>
   <v>      -0.00043340      -0.00009220      -0.00851962 </v>
   <v>      -0.00007561      -0.00000000      -0.00864320 </v>
   <v>       0.00013284      -0.00000000      -0.00844423 </v>
   <v>       0.00051233      -0.00000000      -0.00840238 </v>
   <v>       0.00018310      -0.00000000      -0.00823645 </v>
   <v>       0.00004445       0.00046173      -0.00834804 </v>
   <v>      -0.00043340       0.00009220      -0.00851962 </v>
  </varray>
  <varray name="stress" >
   <v>     -25.44607644       0.00000000      -0.00071140 </v>
   <v>       0.00000000     -25.44546974       0.00000000 </v>
   <v>      -0.00071140       0.00000000      -3.59433106 </v>
  </varray>
  <energy>
   <i name="e_fr_energy">   -125.60868284 </i>
   <i name="e_wo_entrp">   -125.60262316 </i>
   <i name="e_0_energy">   -125.60565300 </i>
  </energy>
  <time name="totalsc">  142.98  144.31</time>
 </calculation>
 <calculation>
  <scstep>
   <time name="dav">    3.35    3.37</time>
   <time name="total">    3.56    3.59</time>
   <energy>
    <i name="alphaZ">     59.72471782 </i>
    <i name="ewald">   1831.80574831 </i>
    <i name="hartreedc">  -3440.68430606 </i>
    <i name="XCdc">    167.54024645 </i>
    <i name="pawpsdc">   5629.44215636 </i>
    <i name="pawaedc">  -5628.74681139 </i>
    <i name="eentropy">     -0.00612501 </i>
    <i name="bandstr">   -489.71444776 </i>
    <i name="atom">   1746.50554237 </i>
    <i name="e_fr_energy">   -124.13327892 </i>
    <i name="e_wo_entrp">   -124.12715391 </i>
    <i name="e_0_energy">   -124.13021642 </i>
   </energy>
  </scstep>
  <scstep>
   <time name="dav">    5.02    5.05</time>
   <time name="total">    5.23    5.28</time>
   <energy>
    <i name="e_fr_energy">   -124.13232766 </i>
    <i name="e_wo_entrp">   -124.12624450 </i>
    <i name="e_0_energy">   -124.12928608 </i>
   </energy>
  </scstep>
  <scstep>
   <time name="dav">    6.02    6.06</time>
   <time name="total">    6.23    6.29</time>
   <energy>
    <i name="e_fr_energy">   -124.13217248 </i>
    <i name="e_wo_entrp">   -124.12612754 </i>
    <i name="e_0_energy">   -124.12915001 </i>
   </energy>
  </scstep>
  <scstep>
   <time name="dav">    4.45    4.48</time>
   <time name="total">    4.65    4.70</time>
   <energy>
    <i name="e_fr_energy">   -124.13216686 </i>
    <i name="e_wo_entrp">   -124.12612554 </i>
    <i name="e_0_energy">   -124.12914620 </i>
   </energy>
  </scstep>
  <scstep>
   <time name="dav">    5.03    5.06</time>
   <time name="total">    5.23    5.27</time>
   <energy>
    <i name="e_fr_energy">   -124.13216684 </i>
    <i name="e_wo_entrp">   -124.12612550 </i>
    <i name="e_0_energy">   -124.12914617 </i>
   </energy>
  </scstep>
  <scstep>
   <time name="dav">    3.65    3.67</time>
   <time name="total">    3.85    3.89</time>
   <energy>
    <i name="e_fr_energy">   -124.13216714 </i>
    <i name="e_wo_entrp">   -124.12612527 </i>
    <i name="e_0_energy">   -124.12914621 </i>
   </energy>
  </scstep>
  <scstep>
   <time name="dav">    4.10    4.13</time>
   <time name="total">    4.31    4.34</time>
   <energy>
    <i name="e_fr_energy">   -124.13216762 </i>
    <i name="e_wo_entrp">   -124.12612658 </i>
    <i name="e_0_energy">   -124.12914710 </i>
   </energy>
  </scstep>
  <scstep>
   <time name="dav">    4.17    4.20</time>
   <time name="total">    4.37    4.41</time>
   <energy>
    <i name="e_fr_energy">   -124.13216798 </i>
    <i name="e_wo_entrp">   -124.12612726 </i>
    <i name="e_0_energy">   -124.12914762 </i>
   </energy>
  </scstep>
  <scstep>
   <time name="dav">    4.09    4.12</time>
   <time name="total">    4.29    4.33</time>
   <energy>
    <i name="e_fr_energy">   -124.13216831 </i>
    <i name="e_wo_entrp">   -124.12612757 </i>
    <i name="e_0_energy">   -124.12914794 </i>
   </energy>
  </scstep>
  <scstep>
   <time name="dav">    4.36    4.38</time>
   <time name="total">    4.56    4.60</time>
   <energy>
    <i name="e_fr_energy">   -124.13216849 </i>
    <i name="e_wo_entrp">   -124.12612777 </i>
    <i name="e_0_energy">   -124.12914813 </i>
   </energy>
  </scstep>
  <scstep>
   <time name="dav">    4.81    4.84</time>
   <time name="total">    5.02    5.06</time>
   <energy>
    <i name="e_fr_energy">   -124.13216855 </i>
    <i name="e_wo_entrp">   -124.12612786 </i>
    <i name="e_0_energy">   -124.12914820 </i>
   </energy>
  </scstep>
  <scstep>
   <time name="dav">    4.63    4.65</time>
   <time name="total">    4.83    4.87</time>
   <energy>
    <i name="e_fr_energy">   -124.13216857 </i>
    <i name="e_wo_entrp">   -124.12612789 </i>
    <i name="e_0_energy">   -124.12914823 </i>
   </energy>
  </scstep>
  <scstep>
   <time name="dav">    5.55    5.59</time>
   <time name="total">    5.58    5.62</time>
   <energy>
    <i name="alphaZ">     59.72471782 </i>
    <i name="ewald">   1831.80574831 </i>
    <i name="hartreedc">  -3440.33874637 </i>
    <i name="XCdc">    167.53354140 </i>
    <i name="pawpsdc">   5620.46482928 </i>
    <i name="pawaedc">  -5619.76665455 </i>
    <i name="eentropy">     -0.00604069 </i>
    <i name="bandstr">   -490.05510615 </i>
    <i name="atom">   1746.50554237 </i>
    <i name="e_fr_energy">   -124.13216857 </i>
    <i name="e_wo_entrp">   -124.12612789 </i>
    <i name="e_0_energy">   -124.12914823 </i>
   </energy>
  </scstep>
  <structure>
   <crystal>
    <varray name="basis" >
     <v>       4.33878727       2.50500000       0.00000000 </v>
     <v>      -4.33878727       2.50500000       0.00000000 </v>
     <v>       0.00000000       0.00000000      15.00000000 </v>
    </varray>
    <i name="volume">    326.05986356 </i>
    <varray name="rec_basis" >
     <v>       0.11523957       0.19960080       0.00000000 </v>
     <v>      -0.11523957       0.19960080       0.00000000 </v>
     <v>       0.00000000       0.00000000       0.06666667 </v>
    </varray>
   </crystal>
   <varray name="positions" >
    <v>       0.66981196      -0.00000016       0.10002618 </v>
    <v>       0.33018718      -0.00000017       0.10002627 </v>
    <v>       0.00000016       0.33018704       0.10002618 </v>
    <v>       0.00000017       0.66981182       0.10002627 </v>
    <v>       0.33018685       0.33018681       0.10002628 </v>
    <v>       0.66981219       0.66981215       0.10002628 </v>
    <v>       0.66666607       0.33333293       0.09925277 </v>
    <v>       0.33333255       0.66666645       0.10080672 </v>
    <v>       0.24999513       0.24999497       0.46903982 </v>
    <v>       0.41666304       0.08333419       0.46903927 </v>
    <v>       0.24999891       0.75000009       0.46903887 </v>
    <v>       0.41666707       0.58333193       0.46903951 </v>
    <v>       0.75000218       0.24999682       0.46903964 </v>
    <v>       0.91666735       0.08333165       0.46904018 </v>
    <v>       0.75000403       0.75000387       0.46903982 </v>
    <v>       0.91666481       0.58333596       0.46903927 </v>
   </varray>
  </structure>
  <varray name="forces" >
   <v>      -0.07033950      -0.04060240       0.00820443 </v>
   <v>       0.07033201       0.04062633       0.00822861 </v>
   <v>      -0.07033950       0.04060240       0.00820443 </v>
   <v>       0.07033201      -0.04062633       0.00822861 </v>
   <v>       0.00000138       0.08126609       0.00823217 </v>
   <v>       0.00000138      -0.08126609       0.00823217 </v>
   <v>      -0.00002204      -0.00000000       0.01054572 </v>
   <v>       0.00005925      -0.00000000       0.00761619 </v>
   <v>      -0.00023564       0.00111977      -0.00839078 </v>
   <v>       0.00118402       0.00019988      -0.00848378 </v>
   <v>       0.00002738      -0.00000000      -0.00853857 </v>
   <v>      -0.00022623      -0.00000000      -0.00844691 </v>
   <v>      -0.00141042      -0.00000000      -0.00841994 </v>
   <v>      -0.00031250      -0.00000000      -0.00833779 </v>
   <v>      -0.00023564      -0.00111977      -0.00839078 </v>
   <v>       0.00118402      -0.00019988      -0.00848378 </v>
  </varray>
  <varray name="stress" >
   <v>     -26.24352779       0.00000000      -0.00068990 </v>
   <v>       0.00000000     -26.24579342       0.00000000 </v>
   <v>      -0.00068990       0.00000000      -3.59395557 </v>
  </varray>
  <energy>
   <i name="e_fr_energy">   -125.60893701 </i>
   <i name="e_wo_entrp">   -125.60289632 </i>
   <i name="e_0_energy">   -125.60591666 </i>
  </energy>
  <time name="totalsc">   64.84   65.38</time>
 </calculation>
 <calculation>
  <scstep>
   <time name="dav">    3.35    3.37</time>
   <time name="total">    3.55    3.58</time>
   <energy>
    <i name="alphaZ">     59.72471782 </i>
    <i name="ewald">   1831.90530921 </i>
    <i name="hartreedc">  -3440.26542358 </i>
    <i name="XCdc">    167.54219925 </i>
    <i name="pawpsdc">   5620.46401112 </i>
    <i name="pawaedc">  -5619.76583614 </i>
    <i name="eentropy">     -0.00598426 </i>
    <i name="bandstr">   -490.23749165 </i>
    <i name="atom">   1746.50554237 </i>
    <i name="e_fr_energy">   -124.13295586 </i>
    <i name="e_wo_entrp">   -124.12697160 </i>
    <i name="e_0_energy">   -124.12996373 </i>
   </energy>
  </scstep>
  <scstep>
   <time name="dav">    5.11    5.13</time>
   <time name="total">    5.32    5.36</time>
   <energy>
    <i name="e_fr_energy">   -124.13276631 </i>
    <i name="e_wo_entrp">   -124.12675002 </i>
    <i name="e_0_energy">   -124.12975816 </i>
   </energy>
  </scstep>
  <scstep>
   <time name="dav">    5.89    5.92</time>
   <time name="total">    6.09    6.13</time>
   <energy>
    <i name="e_fr_energy">   -124.13273531 </i>
    <i name="e_wo_entrp">   -124.12669857 </i>
    <i name="e_0_energy">   -124.12971694 </i>
   </energy>
  </scstep>
  <scstep>
   <time name="dav">    5.36    5.40</time>
   <time name="total">    5.57    5.62</time>
   <energy>
    <i name="e_fr_energy">   -124.13273431 </i>
    <i name="e_wo_entrp">   -124.12669629 </i>
    <i name="e_0_energy">   -124.12971530 </i>
   </energy>
  </scstep>
  <scstep>
   <time name="dav">    5.75    5.78</time>
   <time name="total">    5.95    6.00</time>
   <energy>
    <i name="e_fr_energy">   -124.13273436 </i>
    <i name="e_wo_entrp">   -124.12669609 </i>
    <i name="e_0_energy">   -124.12971522 </i>
   </energy>
  </scstep>
  <scstep>
   <time name="dav">    3.85    3.88</time>
   <time name="total">    4.06    4.09</time>
   <energy>
    <i name="e_fr_energy">   -124.13273439 </i>
    <i name="e_wo_entrp">   -124.12669639 </i>
    <i name="e_0_energy">   -124.12971539 </i>
   </energy>
  </scstep>
  <scstep>
   <time name="dav">    3.93    3.97</time>
   <time name="total">    4.14    4.18</time>
   <energy>
    <i name="e_fr_energy">   -124.13273447 </i>
    <i name="e_wo_entrp">   -124.12669603 </i>
    <i name="e_0_energy">   -124.12971525 </i>
   </energy>
  </scstep>
  <scstep>
   <time name="dav">    4.38    4.41</time>
   <time name="total">    4.59    4.63</time>
   <energy>
    <i name="e_fr_energy">   -124.13273452 </i>
    <i name="e_wo_entrp">   -124.12669597 </i>
    <i name="e_0_energy">   -124.12971524 </i>
   </energy>
  </scstep>
  <scstep>
   <time name="dav">    4.07    4.10</time>
   <time name="total">    4.28    4.31</time>
   <energy>
    <i name="e_fr_energy">   -124.13273456 </i>
    <i name="e_wo_entrp">   -124.12669602 </i>
    <i name="e_0_energy">   -124.12971529 </i>
   </energy>
  </scstep>
  <scstep>
   <time name="dav">    4.29    4.32</time>
   <time name="total">    4.50    4.54</time>
   <energy>
    <i name="e_fr_energy">   -124.13273459 </i>
    <i name="e_wo_entrp">   -124.12669604 </i>
    <i name="e_0_energy">   -124.12971531 </i>
   </energy>
  </scstep>
  <scstep>
   <time name="dav">    4.27    4.30</time>
   <time name="total">    4.31    4.33</time>
   <energy>
    <i name="alphaZ">     59.72471782 </i>
    <i name="ewald">   1831.90530921 </i>
    <i name="hartreedc">  -3440.41992283 </i>
    <i name="XCdc">    167.54517572 </i>
    <i name="pawpsdc">   5624.44628310 </i>
    <i name="pawaedc">  -5623.74935005 </i>
    <i name="eentropy">     -0.00603856 </i>
    <i name="bandstr">   -490.08445137 </i>
    <i name="atom">   1746.50554237 </i>
    <i name="e_fr_energy">   -124.13273460 </i>
    <i name="e_wo_entrp">   -124.12669603 </i>
    <i name="e_0_energy">   -124.12971531 </i>
   </energy>
  </scstep>
  <structure>
   <crystal>
    <varray name="basis" >
     <v>       4.33878727       2.50500000       0.00000000 </v>
     <v>      -4.33878727       2.50500000       0.00000000 </v>
     <v>       0.00000000       0.00000000      15.00000000 </v>
    </varray>
    <i name="volume">    326.05986356 </i>
    <varray name="rec_basis" >
     <v>       0.11523957       0.19960080       0.00000000 </v>
     <v>      -0.11523957       0.19960080       0.00000000 </v>
     <v>       0.00000000       0.00000000       0.06666667 </v>
    </varray>
   </crystal>
   <varray name="positions" >
    <v>       0.66939647      -0.00000009       0.10001442 </v>
    <v>       0.33060261      -0.00000009       0.10001447 </v>
    <v>       0.00000009       0.33060253       0.10001442 </v>
    <v>       0.00000009       0.66939639       0.10001447 </v>
    <v>       0.33060243       0.33060241       0.10001448 </v>
    <v>       0.66939659       0.66939657       0.10001448 </v>
    <v>       0.66666604       0.33333296       0.09923890 </v>
    <v>       0.33333275       0.66666625       0.10079387 </v>
    <v>       0.24999702       0.24999708       0.46905188 </v>
    <v>       0.41666452       0.08333350       0.46905157 </v>
    <v>       0.24999910       0.74999990       0.46905135 </v>
    <v>       0.41666674       0.58333226       0.46905171 </v>
    <v>       0.75000090       0.24999810       0.46905178 </v>
    <v>       0.91666689       0.08333211       0.46905207 </v>
    <v>       0.75000192       0.75000198       0.46905188 </v>
    <v>       0.91666550       0.58333448       0.46905157 </v>
   </varray>
  </structure>
  <varray name="forces" >
   <v>      -0.00158016      -0.00091530       0.00817536 </v>
   <v>       0.00159504       0.00092419       0.00820086 </v>
   <v>      -0.00158016       0.00091530       0.00817536 </v>
   <v>       0.00159504      -0.00092419       0.00820086 </v>
   <v>       0.00000238       0.00184759       0.00820466 </v>
   <v>       0.00000238      -0.00184759       0.00820466 </v>
   <v>      -0.00000631      -0.00000000       0.01013472 </v>
   <v>      -0.00000311      -0.00000000       0.00817737 </v>
   <v>      -0.00011007       0.00040938      -0.00837100 </v>
   <v>       0.00045773       0.00006867      -0.00849930 </v>
   <v>      -0.00001914      -0.00000000      -0.00858499 </v>
   <v>      -0.00006468      -0.00000000      -0.00844509 </v>
   <v>      -0.00054696      -0.00000000      -0.00841145 </v>
   <v>      -0.00008964      -0.00000000      -0.00829170 </v>
   <v>      -0.00011007      -0.00040938      -0.00837100 </v>
   <v>       0.00045773      -0.00006867      -0.00849930 </v>
  </varray>
  <varray name="stress" >
   <v>     -25.89658368       0.00000000      -0.00069949 </v>
   <v>       0.00000000     -25.89756824       0.00000000 </v>
   <v>      -0.00069947       0.00000000      -3.59366349 </v>
  </varray>
  <energy>
   <i name="e_fr_energy">   -125.60943271 </i>
   <i name="e_wo_entrp">   -125.60339414 </i>
   <i name="e_0_energy">   -125.60641342 </i>
  </energy>
  <time name="totalsc">   55.47   55.93</time>
 </calculation>
 <calculation>
  <scstep>
   <time name="dav">    3.34    3.36</time>
   <time name="total">    3.55    3.59</time>
   <energy>
    <i name="alphaZ">     59.72471782 </i>
    <i name="ewald">   1832.53765331 </i>
    <i name="hartreedc">  -3441.05241022 </i>
    <i name="XCdc">    167.54518528 </i>
    <i name="pawpsdc">   5624.44635970 </i>
    <i name="pawaedc">  -5623.74942662 </i>
    <i name="eentropy">     -0.00603848 </i>
    <i name="bandstr">   -490.08432446 </i>
    <i name="atom">   1746.50554237 </i>
    <i name="e_fr_energy">   -124.13274131 </i>
    <i name="e_wo_entrp">   -124.12670283 </i>
    <i name="e_0_energy">   -124.12972207 </i>
   </energy>
  </scstep>
  <scstep>
   <time name="dav">    3.71    3.74</time>
   <time name="total">    3.92    3.96</time>
   <energy>
    <i name="e_fr_energy">   -124.13274058 </i>
    <i name="e_wo_entrp">   -124.12670174 </i>
    <i name="e_0_energy">   -124.12972116 </i>
   </energy>
  </scstep>
  <scstep>
   <time name="dav">    3.75    3.77</time>
   <time name="total">    3.95    3.98</time>
   <energy>
    <i name="e_fr_energy">   -124.13273994 </i>
    <i name="e_wo_entrp">   -124.12670136 </i>
    <i name="e_0_energy">   -124.12972065 </i>
   </energy>
  </scstep>
  <scstep>
   <time name="dav">    5.56    5.59</time>
   <time name="total">    5.77    5.82</time>
   <energy>
    <i name="e_fr_energy">   -124.13273998 </i>
    <i name="e_wo_entrp">   -124.12670150 </i>
    <i name="e_0_energy">   -124.12972074 </i>
   </energy>
  </scstep>
  <scstep>
   <time name="dav">    4.83    4.87</time>
   <time name="total">    4.86    4.90</time>
   <energy>
    <i name="alphaZ">     59.72471782 </i>
    <i name="ewald">   1832.53765331 </i>
    <i name="hartreedc">  -3441.05645105 </i>
    <i name="XCdc">    167.54519669 </i>
    <i name="pawpsdc">   5624.44718797 </i>
    <i name="pawaedc">  -5623.75025468 </i>
    <i name="eentropy">     -0.00603846 </i>
    <i name="bandstr">   -490.08029395 </i>
    <i name="atom">   1746.50554237 </i>
    <i name="e_fr_energy">   -124.13273998 </i>
    <i name="e_wo_entrp">   -124.12670152 </i>
    <i name="e_0_energy">   -124.12972075 </i>
   </energy>
  </scstep>
  <structure>
   <crystal>
    <varray name="basis" >
     <v>       4.33878727       2.50500000       0.00000000 </v>
     <v>      -4.33878727       2.50500000       0.00000000 </v>
     <v>       0.00000000       0.00000000      15.00000000 </v>
    </varray>
    <i name="volume">    326.05986356 </i>
    <varray name="rec_basis" >
     <v>       0.11523957       0.19960080       0.00000000 </v>
     <v>      -0.11523957       0.19960080       0.00000000 </v>
     <v>       0.00000000       0.00000000       0.06666667 </v>
    </varray>
   </crystal>
   <varray name="positions" >
    <v>       0.66939659      -0.00000012       0.10003881 </v>
    <v>       0.33060264      -0.00000007       0.10003894 </v>
    <v>       0.00000012       0.33060241       0.10003881 </v>
    <v>       0.00000007       0.66939636       0.10003894 </v>
    <v>       0.33060249       0.33060244       0.10003895 </v>
    <v>       0.66939656       0.66939651       0.10003895 </v>
    <v>       0.66666601       0.33333299       0.09926910 </v>
    <v>       0.33333273       0.66666627       0.10081831 </v>
    <v>       0.24999998       0.25000114       0.46902690 </v>
    <v>       0.41666738       0.08333182       0.46902622 </v>
    <v>       0.24999900       0.75000000       0.46902574 </v>
    <v>       0.41666643       0.58333257       0.46902651 </v>
    <v>       0.74999818       0.25000082       0.46902669 </v>
    <v>       0.91666646       0.08333254       0.46902734 </v>
    <v>       0.74999786       0.74999902       0.46902690 </v>
    <v>       0.91666718       0.58333162       0.46902622 </v>
   </varray>
  </structure>
  <varray name="forces" >
   <v>      -0.00159270      -0.00092914       0.00818334 </v>
   <v>       0.00160421       0.00091397       0.00820669 </v>
   <v>      -0.00159270       0.00092914       0.00818334 </v>
   <v>       0.00160421      -0.00091397       0.00820669 </v>
   <v>      -0.00000361       0.00184138       0.00820972 </v>
   <v>      -0.00000361      -0.00184138       0.00820972 </v>
   <v>       0.00000998      -0.00000000       0.01005754 </v>
   <v>      -0.00000062      -0.00000000       0.00810958 </v>
   <v>       0.00038034      -0.00084671      -0.00838606 </v>
   <v>      -0.00114065      -0.00012274      -0.00845605 </v>
   <v>       0.00021814      -0.00000000      -0.00849998 </v>
   <v>      -0.00003009      -0.00000000      -0.00842936 </v>
   <v>       0.00131676      -0.00000000      -0.00841047 </v>
   <v>      -0.00000935      -0.00000000      -0.00834258 </v>
   <v>       0.00038034       0.00084671      -0.00838606 </v>
   <v>      -0.00114065       0.00012274      -0.00845605 </v>
  </varray>
  <varray name="stress" >
   <v>     -25.89862568       0.00000000      -0.00070217 </v>
   <v>       0.00000000     -25.89552745       0.00000000 </v>
   <v>      -0.00070217       0.00000000      -3.59549616 </v>
  </varray>
  <energy>
   <i name="e_fr_energy">   -125.60948374 </i>
   <i name="e_wo_entrp">   -125.60344528 </i>
   <i name="e_0_energy">   -125.60646451 </i>
  </energy>
  <time name="totalsc">   25.16   25.37</time>
 </calculation>
 <calculation>
  <scstep>
   <time name="dav">    3.26    3.29</time>
   <time name="total">    3.47    3.50</time>
   <energy>
    <i name="alphaZ">     59.72471782 </i>
    <i name="ewald">   1834.43613823 </i>
    <i name="hartreedc">  -3442.95393073 </i>
    <i name="XCdc">    167.54521892 </i>
    <i name="pawpsdc">   5624.44704892 </i>
    <i name="pawaedc">  -5623.75011588 </i>
    <i name="eentropy">     -0.00603818 </i>
    <i name="bandstr">   -490.08134811 </i>
    <i name="atom">   1746.50554237 </i>
    <i name="e_fr_energy">   -124.13276665 </i>
    <i name="e_wo_entrp">   -124.12672847 </i>
    <i name="e_0_energy">   -124.12974756 </i>
   </energy>
  </scstep>
  <scstep>
   <time name="dav">    3.53    3.55</time>
   <time name="total">    3.73    3.76</time>
   <energy>
    <i name="e_fr_energy">   -124.13276039 </i>
    <i name="e_wo_entrp">   -124.12672113 </i>
    <i name="e_0_energy">   -124.12974076 </i>
   </energy>
  </scstep>
  <scstep>
   <time name="dav">    4.31    4.33</time>
   <time name="total">    4.51    4.55</time>
   <energy>
    <i name="e_fr_energy">   -124.13275431 </i>
    <i name="e_wo_entrp">   -124.12671578 </i>
    <i name="e_0_energy">   -124.12973505 </i>
   </energy>
  </scstep>
  <scstep>
   <time name="dav">    3.71    3.73</time>
   <time name="total">    3.91    3.94</time>
   <energy>
    <i name="e_fr_energy">   -124.13275487 </i>
    <i name="e_wo_entrp">   -124.12671665 </i>
    <i name="e_0_energy">   -124.12973576 </i>
   </energy>
  </scstep>
  <scstep>
   <time name="dav">    3.66    3.69</time>
   <time name="total">    3.86    3.90</time>
   <energy>
    <i name="e_fr_energy">   -124.13275500 </i>
    <i name="e_wo_entrp">   -124.12671686 </i>
    <i name="e_0_energy">   -124.12973593 </i>
   </energy>
  </scstep>
  <scstep>
   <time name="dav">    6.10    6.13</time>
   <time name="total">    6.13    6.17</time>
   <energy>
    <i name="alphaZ">     59.72471782 </i>
    <i name="ewald">   1834.43613823 </i>
    <i name="hartreedc">  -3442.96072263 </i>
    <i name="XCdc">    167.54525039 </i>
    <i name="pawpsdc">   5624.44534427 </i>
    <i name="pawaedc">  -5623.74841084 </i>
    <i name="eentropy">     -0.00603817 </i>
    <i name="bandstr">   -490.07457644 </i>
    <i name="atom">   1746.50554237 </i>
    <i name="e_fr_energy">   -124.13275499 </i>
    <i name="e_wo_entrp">   -124.12671682 </i>
    <i name="e_0_energy">   -124.12973591 </i>
   </energy>
  </scstep>
  <structure>
   <crystal>
    <varray name="basis" >
     <v>       4.33878727       2.50500000       0.00000000 </v>
     <v>      -4.33878727       2.50500000       0.00000000 </v>
     <v>       0.00000000       0.00000000      15.00000000 </v>
    </varray>
    <i name="volume">    326.05986356 </i>
    <varray name="rec_basis" >
     <v>       0.11523957       0.19960080       0.00000000 </v>
     <v>      -0.11523957       0.19960080       0.00000000 </v>
     <v>       0.00000000       0.00000000       0.06666667 </v>
    </varray>
   </crystal>
   <varray name="positions" >
    <v>       0.66939698      -0.00000020       0.10011198 </v>
    <v>       0.33060272       0.00000001       0.10011233 </v>
    <v>       0.00000020       0.33060202       0.10011198 </v>
    <v>      -0.00000001       0.66939628       0.10011233 </v>
    <v>       0.33060266       0.33060253       0.10011238 </v>
    <v>       0.66939647       0.66939634       0.10011238 </v>
    <v>       0.66666592       0.33333308       0.09935972 </v>
    <v>       0.33333266       0.66666634       0.10089162 </v>
    <v>       0.25000885       0.25001333       0.46895199 </v>
    <v>       0.41667596       0.08332675       0.46895014 </v>
    <v>       0.24999869       0.75000031       0.46894889 </v>
    <v>       0.41666548       0.58333352       0.46895093 </v>
    <v>       0.74999003       0.25000897       0.46895140 </v>
    <v>       0.91666515       0.08333385       0.46895314 </v>
    <v>       0.74998567       0.74999015       0.46895199 </v>
    <v>       0.91667225       0.58332304       0.46895014 </v>
   </varray>
  </structure>
  <varray name="forces" >
   <v>      -0.00162575      -0.00096408       0.00829532 </v>
   <v>       0.00162379       0.00088239       0.00831246 </v>
   <v>      -0.00162575       0.00096408       0.00829532 </v>
   <v>       0.00162379      -0.00088239       0.00831246 </v>
   <v>      -0.00001795       0.00181536       0.00831333 </v>
   <v>      -0.00001795      -0.00181536       0.00831333 </v>
   <v>       0.00005856       0.00000000       0.00988527 </v>
   <v>       0.00000641       0.00000000       0.00796119 </v>
   <v>       0.00184835      -0.00462464      -0.00851054 </v>
   <v>      -0.00593609      -0.00070244      -0.00840745 </v>
   <v>       0.00092103       0.00000000      -0.00832725 </v>
   <v>       0.00007785       0.00000000      -0.00846241 </v>
   <v>       0.00690746       0.00000000      -0.00848755 </v>
   <v>       0.00024398       0.00000000      -0.00857549 </v>
   <v>       0.00184835       0.00462464      -0.00851054 </v>
   <v>      -0.00593609       0.00070244      -0.00840745 </v>
  </varray>
  <varray name="stress" >
   <v>     -25.90462419       0.00000000      -0.00070766 </v>
   <v>       0.00000000     -25.88954935       0.00000000 </v>
   <v>      -0.00070766       0.00000000      -3.60087331 </v>
  </varray>
  <energy>
   <i name="e_fr_energy">   -125.60963591 </i>
   <i name="e_wo_entrp">   -125.60359774 </i>
   <i name="e_0_energy">   -125.60661683 </i>
  </energy>
  <time name="totalsc">   28.71   28.94</time>
 </calculation>
 <calculation>
  <scstep>
   <time name="dav">    3.25    3.27</time>
   <time name="total">    3.46    3.48</time>
   <energy>
    <i name="alphaZ">     59.72471782 </i>
    <i name="ewald">   1838.23964491 </i>
    <i name="hartreedc">  -3446.76054805 </i>
    <i name="XCdc">    167.54528542 </i>
    <i name="pawpsdc">   5624.44800513 </i>
    <i name="pawaedc">  -5623.75107175 </i>
    <i name="eentropy">     -0.00603753 </i>
    <i name="bandstr">   -490.07836629 </i>
    <i name="atom">   1746.50554237 </i>
    <i name="e_fr_energy">   -124.13282796 </i>
    <i name="e_wo_entrp">   -124.12679043 </i>
    <i name="e_0_energy">   -124.12980920 </i>
   </energy>
  </scstep>
  <scstep>
   <time name="dav">    3.89    3.91</time>
   <time name="total">    4.09    4.12</time>
   <energy>
    <i name="e_fr_energy">   -124.13280548 </i>
    <i name="e_wo_entrp">   -124.12676586 </i>
    <i name="e_0_energy">   -124.12978567 </i>
   </energy>
  </scstep>
  <scstep>
   <time name="dav">    4.31    4.34</time>
   <time name="total">    4.52    4.55</time>
   <energy>
    <i name="e_fr_energy">   -124.13277751 </i>
    <i name="e_wo_entrp">   -124.12673929 </i>
    <i name="e_0_energy">   -124.12975840 </i>
   </energy>
  </scstep>
  <scstep>
   <time name="dav">    3.97    4.00</time>
   <time name="total">    4.18    4.21</time>
   <energy>
    <i name="e_fr_energy">   -124.13277916 </i>
    <i name="e_wo_entrp">   -124.12674159 </i>
    <i name="e_0_energy">   -124.12976038 </i>
   </energy>
  </scstep>
  <scstep>
   <time name="dav">    3.57    3.60</time>
   <time name="total">    3.78    3.81</time>
   <energy>
    <i name="e_fr_energy">   -124.13278004 </i>
    <i name="e_wo_entrp">   -124.12674260 </i>
    <i name="e_0_energy">   -124.12976132 </i>
   </energy>
  </scstep>
  <scstep>
   <time name="dav">    5.29    5.32</time>
   <time name="total">    5.50    5.54</time>
   <energy>
    <i name="e_fr_energy">   -124.13278009 </i>
    <i name="e_wo_entrp">   -124.12674260 </i>
    <i name="e_0_energy">   -124.12976134 </i>
   </energy>
  </scstep>
  <scstep>
   <time name="dav">    3.89    3.92</time>
   <time name="total">    4.10    4.13</time>
   <energy>
    <i name="e_fr_energy">   -124.13278029 </i>
    <i name="e_wo_entrp">   -124.12674280 </i>
    <i name="e_0_energy">   -124.12976155 </i>
   </energy>
  </scstep>
  <scstep>
   <time name="dav">    3.98    4.01</time>
   <time name="total">    4.19    4.22</time>
   <energy>
    <i name="e_fr_energy">   -124.13278080 </i>
    <i name="e_wo_entrp">   -124.12674336 </i>
    <i name="e_0_energy">   -124.12976208 </i>
   </energy>
  </scstep>
  <scstep>
   <time name="dav">    4.41    4.43</time>
   <time name="total">    4.61    4.65</time>
   <energy>
    <i name="e_fr_energy">   -124.13278116 </i>
    <i name="e_wo_entrp">   -124.12674374 </i>
    <i name="e_0_energy">   -124.12976245 </i>
   </energy>
  </scstep>
  <scstep>
   <time name="dav">    4.09    4.12</time>
   <time name="total">    4.31    4.35</time>
   <energy>
    <i name="e_fr_energy">   -124.13278148 </i>
    <i name="e_wo_entrp">   -124.12674404 </i>
    <i name="e_0_energy">   -124.12976276 </i>
   </energy>
  </scstep>
  <scstep>
   <time name="dav">    5.09    5.12</time>
   <time name="total">    5.30    5.34</time>
   <energy>
    <i name="e_fr_energy">   -124.13278152 </i>
    <i name="e_wo_entrp">   -124.12674407 </i>
    <i name="e_0_energy">   -124.12976279 </i>
   </energy>
  </scstep>
  <scstep>
   <time name="dav">    4.41    4.44</time>
   <time name="total">    4.62    4.65</time>
   <energy>
    <i name="e_fr_energy">   -124.13278154 </i>
    <i name="e_wo_entrp">   -124.12674409 </i>
    <i name="e_0_energy">   -124.12976281 </i>
   </energy>
  </scstep>
  <scstep>
   <time name="dav">    5.15    5.18</time>
   <time name="total">    5.18    5.21</time>
   <energy>
    <i name="alphaZ">     59.72471782 </i>
    <i name="ewald">   1838.23964491 </i>
    <i name="hartreedc">  -3446.75279816 </i>
    <i name="XCdc">    167.54520459 </i>
    <i name="pawpsdc">   5624.45642047 </i>
    <i name="pawaedc">  -5623.75949033 </i>
    <i name="eentropy">     -0.00603745 </i>
    <i name="bandstr">   -490.08598577 </i>
    <i name="atom">   1746.50554237 </i>
    <i name="e_fr_energy">   -124.13278154 </i>
    <i name="e_wo_entrp">   -124.12674410 </i>
    <i name="e_0_energy">   -124.12976282 </i>
   </energy>
  </scstep>
  <structure>
   <crystal>
    <varray name="basis" >
     <v>       4.33878727       2.50500000       0.00000000 </v>
     <v>      -4.33878727       2.50500000       0.00000000 </v>
     <v>       0.00000000       0.00000000      15.00000000 </v>
    </varray>
    <i name="volume">    326.05986356 </i>
    <varray name="rec_basis" >
     <v>       0.11523957       0.19960080       0.00000000 </v>
     <v>      -0.11523957       0.19960080       0.00000000 </v>
     <v>       0.00000000       0.00000000       0.06666667 </v>
    </varray>
   </crystal>
   <varray name="positions" >
    <v>       0.66939775      -0.00000038       0.10025831 </v>
    <v>       0.33060289       0.00000017       0.10025912 </v>
    <v>       0.00000038       0.33060125       0.10025831 </v>
    <v>      -0.00000017       0.66939611       0.10025912 </v>
    <v>       0.33060299       0.33060272       0.10025924 </v>
    <v>       0.66939628       0.66939601       0.10025924 </v>
    <v>       0.66666573       0.33333327       0.09954096 </v>
    <v>       0.33333252       0.66666648       0.10103824 </v>
    <v>       0.25002660       0.25003771       0.46880215 </v>
    <v>       0.41669312       0.08331663       0.46879799 </v>
    <v>       0.24999806       0.75000094       0.46879520 </v>
    <v>       0.41666360       0.58333540       0.46879976 </v>
    <v>       0.74997372       0.25002528       0.46880084 </v>
    <v>       0.91666254       0.08333646       0.46880473 </v>
    <v>       0.74996129       0.74997240       0.46880215 </v>
    <v>       0.91668237       0.58330588       0.46879799 </v>
   </varray>
  </structure>
  <varray name="forces" >
   <v>      -0.00169770      -0.00104073       0.00848499 </v>
   <v>       0.00167204       0.00082145       0.00848986 </v>
   <v>      -0.00169770       0.00104073       0.00848499 </v>
   <v>       0.00167204      -0.00082145       0.00848986 </v>
   <v>      -0.00004956       0.00177240       0.00848624 </v>
   <v>      -0.00004956      -0.00177240       0.00848624 </v>
   <v>       0.00015557       0.00000000       0.00950921 </v>
   <v>       0.00002087       0.00000000       0.00762787 </v>
   <v>       0.00477407      -0.01216531      -0.00872558 </v>
   <v>      -0.01550922      -0.00185504      -0.00827586 </v>
   <v>       0.00232947       0.00000000      -0.00794812 </v>
   <v>       0.00029615       0.00000000      -0.00849495 </v>
   <v>       0.01807193       0.00000000      -0.00860653 </v>
   <v>       0.00074675       0.00000000      -0.00900679 </v>
   <v>       0.00477407       0.01216531      -0.00872558 </v>
   <v>      -0.01550922       0.00185504      -0.00827586 </v>
  </varray>
  <varray name="stress" >
   <v>     -25.91656692       0.00000000      -0.00071600 </v>
   <v>       0.00000000     -25.87798910       0.00000000 </v>
   <v>      -0.00071600       0.00000000      -3.60407235 </v>
  </varray>
  <energy>
   <i name="e_fr_energy">   -125.60993784 </i>
   <i name="e_wo_entrp">   -125.60390039 </i>
   <i name="e_0_energy">   -125.60691911 </i>
  </energy>
  <time name="totalsc">   60.90   61.40</time>
 </calculation>
 <calculation>
  <scstep>
   <time name="dav">    3.26    3.28</time>
   <time name="total">    3.47    3.50</time>
   <energy>
    <i name="alphaZ">     59.72471782 </i>
    <i name="ewald">   1845.87280459 </i>
    <i name="hartreedc">  -3454.38153238 </i>
    <i name="XCdc">    167.54526370 </i>
    <i name="pawpsdc">   5624.45671434 </i>
    <i name="pawaedc">  -5623.75978425 </i>
    <i name="eentropy">     -0.00603586 </i>
    <i name="bandstr">   -490.09069451 </i>
    <i name="atom">   1746.50554237 </i>
    <i name="e_fr_energy">   -124.13300419 </i>
    <i name="e_wo_entrp">   -124.12696833 </i>
    <i name="e_0_energy">   -124.12998626 </i>
   </energy>
  </scstep>
  <scstep>
   <time name="dav">    3.79    3.82</time>
   <time name="total">    4.00    4.04</time>
   <energy>
    <i name="e_fr_energy">   -124.13292649 </i>
    <i name="e_wo_entrp">   -124.12688661 </i>
    <i name="e_0_energy">   -124.12990655 </i>
   </energy>
  </scstep>
  <scstep>
   <time name="dav">    5.10    5.12</time>
   <time name="total">    5.30    5.34</time>
   <energy>
    <i name="e_fr_energy">   -124.13281067 </i>
    <i name="e_wo_entrp">   -124.12677325 </i>
    <i name="e_0_energy">   -124.12979196 </i>
   </energy>
  </scstep>
  <scstep>
   <time name="dav">    4.49    4.51</time>
   <time name="total">    4.69    4.73</time>
   <energy>
    <i name="e_fr_energy">   -124.13281417 </i>
    <i name="e_wo_entrp">   -124.12677813 </i>
    <i name="e_0_energy">   -124.12979615 </i>
   </energy>
  </scstep>
  <scstep>
   <time name="dav">    4.14    4.16</time>
   <time name="total">    4.34    4.37</time>
   <energy>
    <i name="e_fr_energy">   -124.13281368 </i>
    <i name="e_wo_entrp">   -124.12677802 </i>
    <i name="e_0_energy">   -124.12979585 </i>
   </energy>
  </scstep>
  <scstep>
   <time name="dav">    5.51    5.54</time>
   <time name="total">    5.71    5.76</time>
   <energy>
    <i name="e_fr_energy">   -124.13281309 </i>
    <i name="e_wo_entrp">   -124.12677727 </i>
    <i name="e_0_energy">   -124.12979518 </i>
   </energy>
  </scstep>
  <scstep>
   <time name="dav">    3.95    3.98</time>
   <time name="total">    4.16    4.19</time>
   <energy>
    <i name="e_fr_energy">   -124.13281359 </i>
    <i name="e_wo_entrp">   -124.12677778 </i>
    <i name="e_0_energy">   -124.12979568 </i>
   </energy>
  </scstep>
  <scstep>
   <time name="dav">    4.10    4.13</time>
   <time name="total">    4.31    4.34</time>
   <energy>
    <i name="e_fr_energy">   -124.13281483 </i>
    <i name="e_wo_entrp">   -124.12677908 </i>
    <i name="e_0_energy">   -124.12979696 </i>
   </energy>
  </scstep>
  <scstep>
   <time name="dav">    4.02    4.04</time>
   <time name="total">    4.22    4.26</time>
   <energy>
    <i name="e_fr_energy">   -124.13281636 </i>
    <i name="e_wo_entrp">   -124.12678067 </i>
    <i name="e_0_energy">   -124.12979852 </i>
   </energy>
  </scstep>
  <scstep>
   <time name="dav">    4.05    4.07</time>
   <time name="total">    4.25    4.29</time>
   <energy>
    <i name="e_fr_energy">   -124.13281798 </i>
    <i name="e_wo_entrp">   -124.12678227 </i>
    <i name="e_0_energy">   -124.12980013 </i>
   </energy>
  </scstep>
  <scstep>
   <time name="dav">    5.22    5.25</time>
   <time name="total">    5.43    5.47</time>
   <energy>
    <i name="e_fr_energy">   -124.13281817 </i>
    <i name="e_wo_entrp">   -124.12678244 </i>
    <i name="e_0_energy">   -124.12980031 </i>
   </energy>
  </scstep>
  <scstep>
   <time name="dav">    4.31    4.34</time>
   <time name="total">    4.52    4.55</time>
   <energy>
    <i name="e_fr_energy">   -124.13281825 </i>
    <i name="e_wo_entrp">   -124.12678250 </i>
    <i name="e_0_energy">   -124.12980038 </i>
   </energy>
  </scstep>
  <scstep>
   <time name="dav">    5.73    5.77</time>
   <time name="total">    5.78    5.81</time>
   <energy>
    <i name="alphaZ">     59.72471782 </i>
    <i name="ewald">   1845.87280459 </i>
    <i name="hartreedc">  -3454.38335481 </i>
    <i name="XCdc">    167.54522928 </i>
    <i name="pawpsdc">   5624.46874969 </i>
    <i name="pawaedc">  -5623.77182305 </i>
    <i name="eentropy">     -0.00603574 </i>
    <i name="bandstr">   -490.08864841 </i>
    <i name="atom">   1746.50554237 </i>
    <i name="e_fr_energy">   -124.13281826 </i>
    <i name="e_wo_entrp">   -124.12678252 </i>
    <i name="e_0_energy">   -124.12980039 </i>
   </energy>
  </scstep>
  <structure>
   <crystal>
    <varray name="basis" >
     <v>       4.33878727       2.50500000       0.00000000 </v>
     <v>      -4.33878727       2.50500000       0.00000000 </v>
     <v>       0.00000000       0.00000000      15.00000000 </v>
    </varray>
    <i name="volume">    326.05986356 </i>
    <varray name="rec_basis" >
     <v>       0.11523957       0.19960080       0.00000000 </v>
     <v>      -0.11523957       0.19960080       0.00000000 </v>
     <v>       0.00000000       0.00000000       0.06666667 </v>
    </varray>
   </crystal>
   <varray name="positions" >
    <v>       0.66939928      -0.00000072       0.10055097 </v>
    <v>       0.33060322       0.00000048       0.10055269 </v>
    <v>       0.00000072       0.33059972       0.10055097 </v>
    <v>      -0.00000048       0.66939578       0.10055269 </v>
    <v>       0.33060367       0.33060309       0.10055295 </v>
    <v>       0.66939591       0.66939533       0.10055295 </v>
    <v>       0.66666537       0.33333363       0.09990343 </v>
    <v>       0.33333224       0.66666676       0.10133148 </v>
    <v>       0.25006209       0.25008647       0.46850248 </v>
    <v>       0.41672745       0.08329637       0.46849370 </v>
    <v>       0.24999681       0.75000219       0.46848781 </v>
    <v>       0.41665982       0.58333918       0.46849742 </v>
    <v>       0.74994111       0.25005789       0.46849971 </v>
    <v>       0.91665731       0.08334169       0.46850792 </v>
    <v>       0.74991253       0.74993691       0.46850248 </v>
    <v>       0.91670263       0.58327155       0.46849370 </v>
   </varray>
  </structure>
  <varray name="forces" >
   <v>      -0.00184189      -0.00118618       0.00885113 </v>
   <v>       0.00176120       0.00070345       0.00883088 </v>
   <v>      -0.00184189       0.00118618       0.00885113 </v>
   <v>       0.00176120      -0.00070345       0.00883088 </v>
   <v>      -0.00010580       0.00168249       0.00881884 </v>
   <v>      -0.00010580      -0.00168249       0.00881884 </v>
   <v>       0.00034984      -0.00000000       0.00875355 </v>
   <v>       0.00004952      -0.00000000       0.00696328 </v>
   <v>       0.01063226      -0.02726271      -0.00914635 </v>
   <v>      -0.03466880      -0.00417516      -0.00800180 </v>
   <v>       0.00514784      -0.00000000      -0.00717793 </v>
   <v>       0.00072126      -0.00000000      -0.00854984 </v>
   <v>       0.04042316      -0.00000000      -0.00883405 </v>
   <v>       0.00175443      -0.00000000      -0.00986041 </v>
   <v>       0.01063226       0.02726271      -0.00914635 </v>
   <v>      -0.03466880       0.00417516      -0.00800180 </v>
  </varray>
  <varray name="stress" >
   <v>     -25.94041553       0.00000000      -0.00074240 </v>
   <v>       0.00000000     -25.85416719       0.00000000 </v>
   <v>      -0.00074238       0.00000000      -3.61592937 </v>
  </varray>
  <energy>
   <i name="e_fr_energy">   -125.61052900 </i>
   <i name="e_wo_entrp">   -125.60449326 </i>
   <i name="e_0_energy">   -125.60751113 </i>
  </energy>
  <time name="totalsc">   63.27   63.79</time>
 </calculation>
 <calculation>
  <scstep>
   <time name="dav">    3.26    3.28</time>
   <time name="total">    3.47    3.50</time>
   <energy>
    <i name="alphaZ">     59.72471782 </i>
    <i name="ewald">   1861.24371563 </i>
    <i name="hartreedc">  -3469.73811110 </i>
    <i name="XCdc">    167.54529318 </i>
    <i name="pawpsdc">   5624.46915834 </i>
    <i name="pawaedc">  -5623.77223182 </i>
    <i name="eentropy">     -0.00603134 </i>
    <i name="bandstr">   -490.10561040 </i>
    <i name="atom">   1746.50554237 </i>
    <i name="e_fr_energy">   -124.13355731 </i>
    <i name="e_wo_entrp">   -124.12752597 </i>
    <i name="e_0_energy">   -124.13054164 </i>
   </energy>
  </scstep>
  <scstep>
   <time name="dav">    4.34    4.36</time>
   <time name="total">    4.55    4.58</time>
   <energy>
    <i name="e_fr_energy">   -124.13326373 </i>
    <i name="e_wo_entrp">   -124.12722517 </i>
    <i name="e_0_energy">   -124.13024445 </i>
   </energy>
  </scstep>
  <scstep>
   <time name="dav">    4.66    4.69</time>
   <time name="total">    4.87    4.90</time>
   <energy>
    <i name="e_fr_energy">   -124.13280203 </i>
    <i name="e_wo_entrp">   -124.12676714 </i>
    <i name="e_0_energy">   -124.12978458 </i>
   </energy>
  </scstep>
  <scstep>
   <time name="dav">    6.22    6.26</time>
   <time name="total">    6.42    6.47</time>
   <energy>
    <i name="e_fr_energy">   -124.13281080 </i>
    <i name="e_wo_entrp">   -124.12677891 </i>
    <i name="e_0_energy">   -124.12979485 </i>
   </energy>
  </scstep>
  <scstep>
   <time name="dav">    3.98    4.01</time>
   <time name="total">    4.19    4.23</time>
   <energy>
    <i name="e_fr_energy">   -124.13280536 </i>
    <i name="e_wo_entrp">   -124.12677450 </i>
    <i name="e_0_energy">   -124.12978993 </i>
   </energy>
  </scstep>
  <scstep>
   <time name="dav">    5.79    5.82</time>
   <time name="total">    5.99    6.04</time>
   <energy>
    <i name="e_fr_energy">   -124.13280412 </i>
    <i name="e_wo_entrp">   -124.12677294 </i>
    <i name="e_0_energy">   -124.12978853 </i>
   </energy>
  </scstep>
  <scstep>
   <time name="dav">    3.89    3.91</time>
   <time name="total">    4.10    4.13</time>
   <energy>
    <i name="e_fr_energy">   -124.13280588 </i>
    <i name="e_wo_entrp">   -124.12677464 </i>
    <i name="e_0_energy">   -124.12979026 </i>
   </energy>
  </scstep>
  <scstep>
   <time name="dav">    4.44    4.46</time>
   <time name="total">    4.66    4.70</time>
   <energy>
    <i name="e_fr_energy">   -124.13280820 </i>
    <i name="e_wo_entrp">   -124.12677710 </i>
[...]
   <v>       0.11558758      -1.05001615      -0.08062979 </v>
   <v>      -1.02521052      -0.19023123       0.05753863 </v>
   <v>      -0.16389989      -0.00000000       0.13107148 </v>
   <v>       0.35424277      -0.00000000      -0.00403707 </v>
   <v>       1.22616216       0.00000000      -0.02957107 </v>
   <v>       0.39248918       0.00000000      -0.17118685 </v>
   <v>       0.11558758       1.05001615      -0.08062979 </v>
   <v>      -1.02521052       0.19023123       0.05753863 </v>
  </varray>
  <varray name="stress" >
   <v>     -29.47579682       0.00000000      -0.05585412 </v>
   <v>       0.00000000     -26.95940133       0.00000000 </v>
   <v>      -0.05585410       0.00000000      -4.02626955 </v>
  </varray>
  <energy>
   <i name="e_fr_energy">   -125.80542117 </i>
   <i name="e_wo_entrp">   -125.79964818 </i>
   <i name="e_0_energy">   -125.80253468 </i>
  </energy>
  <time name="totalsc">  113.44  114.32</time>
 </calculation>
 <calculation>
  <scstep>
   <time name="dav">    3.27    3.29</time>
   <time name="total">    3.47    3.51</time>
   <energy>
    <i name="alphaZ">     59.72471782 </i>
    <i name="ewald">   4327.43563053 </i>
    <i name="hartreedc">  -5934.02802513 </i>
    <i name="XCdc">    167.70935509 </i>
    <i name="pawpsdc">   5603.50550791 </i>
    <i name="pawaedc">  -5602.80266132 </i>
    <i name="eentropy">     -0.00555728 </i>
    <i name="bandstr">   -492.05905359 </i>
    <i name="atom">   1746.50554237 </i>
    <i name="e_fr_energy">   -124.01454361 </i>
    <i name="e_wo_entrp">   -124.00898633 </i>
    <i name="e_0_energy">   -124.01176497 </i>
   </energy>
  </scstep>
  <scstep>
   <time name="dav">    4.24    4.26</time>
   <time name="total">    4.44    4.47</time>
   <energy>
    <i name="e_fr_energy">   -124.00580870 </i>
    <i name="e_wo_entrp">   -123.99998482 </i>
    <i name="e_0_energy">   -124.00289676 </i>
   </energy>
  </scstep>
  <scstep>
   <time name="dav">    6.35    6.38</time>
   <time name="total">    6.55    6.60</time>
   <energy>
    <i name="e_fr_energy">   -123.97537431 </i>
    <i name="e_wo_entrp">   -123.96948498 </i>
    <i name="e_0_energy">   -123.97242965 </i>
   </energy>
  </scstep>
  <scstep>
   <time name="dav">    6.04    6.07</time>
   <time name="total">    6.25    6.29</time>
   <energy>
    <i name="e_fr_energy">   -123.97554015 </i>
    <i name="e_wo_entrp">   -123.96971289 </i>
    <i name="e_0_energy">   -123.97262652 </i>
   </energy>
  </scstep>
  <scstep>
   <time name="dav">    6.49    6.52</time>
   <time name="total">    6.69    6.73</time>
   <energy>
    <i name="e_fr_energy">   -123.97513729 </i>
    <i name="e_wo_entrp">   -123.96932974 </i>
    <i name="e_0_energy">   -123.97223351 </i>
   </energy>
  </scstep>
  <scstep>
   <time name="dav">    4.48    4.51</time>
   <time name="total">    4.68    4.72</time>
   <energy>
    <i name="e_fr_energy">   -123.97509156 </i>
    <i name="e_wo_entrp">   -123.96928648 </i>
    <i name="e_0_energy">   -123.97218902 </i>
   </energy>
  </scstep>
  <scstep>
   <time name="dav">    4.92    4.95</time>
   <time name="total">    5.13    5.16</time>
   <energy>
    <i name="e_fr_energy">   -123.97514770 </i>
    <i name="e_wo_entrp">   -123.96934543 </i>
    <i name="e_0_energy">   -123.97224656 </i>
   </energy>
  </scstep>
  <scstep>
   <time name="dav">    4.47    4.49</time>
   <time name="total">    4.68    4.72</time>
   <energy>
    <i name="e_fr_energy">   -123.97519944 </i>
    <i name="e_wo_entrp">   -123.96939992 </i>
    <i name="e_0_energy">   -123.97229968 </i>
   </energy>
  </scstep>
  <scstep>
   <time name="dav">    4.99    5.02</time>
   <time name="total">    5.19    5.23</time>
   <energy>
    <i name="e_fr_energy">   -123.97524662 </i>
    <i name="e_wo_entrp">   -123.96944755 </i>
    <i name="e_0_energy">   -123.97234708 </i>
   </energy>
  </scstep>
  <scstep>
   <time name="dav">    5.48    5.52</time>
   <time name="total">    5.69    5.73</time>
   <energy>
    <i name="e_fr_energy">   -123.97526175 </i>
    <i name="e_wo_entrp">   -123.96946260 </i>
    <i name="e_0_energy">   -123.97236218 </i>
   </energy>
  </scstep>
  <scstep>
   <time name="dav">    4.97    5.00</time>
   <time name="total">    5.18    5.22</time>
   <energy>
    <i name="e_fr_energy">   -123.97527553 </i>
    <i name="e_wo_entrp">   -123.96947625 </i>
    <i name="e_0_energy">   -123.97237589 </i>
   </energy>
  </scstep>
  <scstep>
   <time name="dav">    5.48    5.51</time>
   <time name="total">    5.68    5.72</time>
   <energy>
    <i name="e_fr_energy">   -123.97528044 </i>
    <i name="e_wo_entrp">   -123.96948107 </i>
    <i name="e_0_energy">   -123.97238075 </i>
   </energy>
  </scstep>
  <scstep>
   <time name="dav">    5.39    5.42</time>
   <time name="total">    5.59    5.64</time>
   <energy>
    <i name="e_fr_energy">   -123.97528249 </i>
    <i name="e_wo_entrp">   -123.96948300 </i>
    <i name="e_0_energy">   -123.97238275 </i>
   </energy>
  </scstep>
  <scstep>
   <time name="dav">    5.64    5.67</time>
   <time name="total">    5.84    5.88</time>
   <energy>
    <i name="e_fr_energy">   -123.97528298 </i>
    <i name="e_wo_entrp">   -123.96948348 </i>
    <i name="e_0_energy">   -123.97238323 </i>
   </energy>
  </scstep>
  <scstep>
   <time name="dav">    5.69    5.72</time>
   <time name="total">    5.89    5.95</time>
   <energy>
    <i name="e_fr_energy">   -123.97528324 </i>
    <i name="e_wo_entrp">   -123.96948373 </i>
    <i name="e_0_energy">   -123.97238348 </i>
   </energy>
  </scstep>
  <scstep>
   <time name="dav">    5.12    5.15</time>
   <time name="total">    5.32    5.36</time>
   <energy>
    <i name="e_fr_energy">   -123.97528353 </i>
    <i name="e_wo_entrp">   -123.96948401 </i>
    <i name="e_0_energy">   -123.97238377 </i>
   </energy>
  </scstep>
  <scstep>
   <time name="dav">    5.43    5.46</time>
   <time name="total">    5.63    5.68</time>
   <energy>
    <i name="e_fr_energy">   -123.97528359 </i>
    <i name="e_wo_entrp">   -123.96948408 </i>
    <i name="e_0_energy">   -123.97238383 </i>
   </energy>
  </scstep>
  <scstep>
   <time name="dav">    5.23    5.26</time>
   <time name="total">    5.44    5.48</time>
   <energy>
    <i name="e_fr_energy">   -123.97528361 </i>
    <i name="e_wo_entrp">   -123.96948409 </i>
    <i name="e_0_energy">   -123.97238385 </i>
   </energy>
  </scstep>
  <scstep>
   <time name="dav">    5.25    5.28</time>
   <time name="total">    5.45    5.49</time>
   <energy>
    <i name="e_fr_energy">   -123.97528362 </i>
    <i name="e_wo_entrp">   -123.96948410 </i>
    <i name="e_0_energy">   -123.97238386 </i>
   </energy>
  </scstep>
  <scstep>
   <time name="dav">    5.13    5.17</time>
   <time name="total">    5.17    5.21</time>
   <energy>
    <i name="alphaZ">     59.72471782 </i>
    <i name="ewald">   4327.43563053 </i>
    <i name="hartreedc">  -5934.64114085 </i>
    <i name="XCdc">    167.66491382 </i>
    <i name="pawpsdc">   5600.26747938 </i>
    <i name="pawaedc">  -5599.56378597 </i>
    <i name="eentropy">     -0.00579952 </i>
    <i name="bandstr">   -491.36284120 </i>
    <i name="atom">   1746.50554237 </i>
    <i name="e_fr_energy">   -123.97528363 </i>
    <i name="e_wo_entrp">   -123.96948411 </i>
    <i name="e_0_energy">   -123.97238387 </i>
   </energy>
  </scstep>
  <structure>
   <crystal>
    <varray name="basis" >
     <v>       4.33878727       2.50500000       0.00000000 </v>
     <v>      -4.33878727       2.50500000       0.00000000 </v>
     <v>       0.00000000       0.00000000      15.00000000 </v>
    </varray>
    <i name="volume">    326.05986356 </i>
    <varray name="rec_basis" >
     <v>       0.11523957       0.19960080       0.00000000 </v>
     <v>      -0.11523957       0.19960080       0.00000000 </v>
     <v>       0.00000000       0.00000000       0.06666667 </v>
    </varray>
   </crystal>
   <varray name="positions" >
    <v>       0.66962012      -0.00005677       0.16414281 </v>
    <v>       0.33071390       0.00004418       0.16433934 </v>
    <v>       0.00005677       0.33037888       0.16414281 </v>
    <v>      -0.00004418       0.66928510       0.16433934 </v>
    <v>       0.33076506       0.33068093       0.16436820 </v>
    <v>       0.66931807       0.66923394       0.16436820 </v>
    <v>       0.66663071       0.33336829       0.17850110 </v>
    <v>       0.33327719       0.66672181       0.16490955 </v>
    <v>       0.25302460       0.25321501       0.40338079 </v>
    <v>       0.41873628       0.08234884       0.40246293 </v>
    <v>       0.25039835       0.74960065       0.40185119 </v>
    <v>       0.41589895       0.58410005       0.40284533 </v>
    <v>       0.74807885       0.25192015       0.40308989 </v>
    <v>       0.91575083       0.08424817       0.40394812 </v>
    <v>       0.74678399       0.74697440       0.40338079 </v>
    <v>       0.91765016       0.58126272       0.40246293 </v>
   </varray>
  </structure>
  <varray name="forces" >
   <v>      -0.17488648       0.03268998       0.06474468 </v>
   <v>       0.05064855       0.16343605       0.06342983 </v>
   <v>      -0.17488648      -0.03268998       0.06474468 </v>
   <v>       0.05064855      -0.16343605       0.06342983 </v>
   <v>       0.15219736       0.09053300       0.08340353 </v>
   <v>       0.15219736      -0.09053300       0.08340353 </v>
   <v>      -0.00948206       0.00000000      -0.25591510 </v>
   <v>      -0.02943752       0.00000000      -0.16486255 </v>
   <v>       0.10745588      -1.10266178      -0.07384008 </v>
   <v>      -1.06743650      -0.20143982       0.08220695 </v>
   <v>      -0.19015519       0.00000000       0.15390368 </v>
   <v>       0.39125637       0.00000000       0.01457955 </v>
   <v>       1.27515906      -0.00000000      -0.01103822 </v>
   <v>       0.42670172       0.00000000      -0.17655717 </v>
   <v>       0.10745588       1.10266178      -0.07384008 </v>
   <v>      -1.06743650       0.20143982       0.08220695 </v>
  </varray>
  <varray name="stress" >
   <v>     -30.16667855       0.00000000      -0.16290558 </v>
   <v>       0.00000000     -27.59109916       0.00000000 </v>
   <v>      -0.16290562       0.00000000      -1.93561984 </v>
  </varray>
  <energy>
   <i name="e_fr_energy">   -125.80684994 </i>
   <i name="e_wo_entrp">   -125.80105043 </i>
   <i name="e_0_energy">   -125.80395018 </i>
  </energy>
  <time name="totalsc">  111.06  111.94</time>
 </calculation>
 <calculation>
  <scstep>
   <time name="dav">    4.91    4.94</time>
   <time name="total">    5.12    5.16</time>
   <energy>
    <i name="alphaZ">     59.72471782 </i>
    <i name="ewald">   2091.07890077 </i>
    <i name="hartreedc">  -3600.51572075 </i>
    <i name="XCdc">    165.83280574 </i>
    <i name="pawpsdc">   5600.26752554 </i>
    <i name="pawaedc">  -5599.56383212 </i>
    <i name="eentropy">     -0.00295391 </i>
    <i name="bandstr">   -582.56463065 </i>
    <i name="atom">   1746.50554237 </i>
    <i name="e_fr_energy">   -119.23764519 </i>
    <i name="e_wo_entrp">   -119.23469128 </i>
    <i name="e_0_energy">   -119.23616823 </i>
   </energy>
  </scstep>
  <scstep>
   <time name="dav">    3.86    3.88</time>
   <time name="total">    4.06    4.10</time>
   <energy>
    <i name="e_fr_energy">   -127.78772821 </i>
    <i name="e_wo_entrp">   -127.78234515 </i>
    <i name="e_0_energy">   -127.78503668 </i>
   </energy>
  </scstep>
  <scstep>
   <time name="dav">    6.22    6.25</time>
   <time name="total">    6.42    6.47</time>
   <energy>
    <i name="e_fr_energy">   -125.13266058 </i>
    <i name="e_wo_entrp">   -125.12782770 </i>
    <i name="e_0_energy">   -125.13024414 </i>
   </energy>
  </scstep>
  <scstep>
   <time name="dav">    5.42    5.46</time>
   <time name="total">    5.62    5.67</time>
   <energy>
    <i name="e_fr_energy">   -124.10576958 </i>
    <i name="e_wo_entrp">   -124.10025425 </i>
    <i name="e_0_energy">   -124.10301191 </i>
   </energy>
  </scstep>
  <scstep>
   <time name="dav">    4.78    4.80</time>
   <time name="total">    4.98    5.02</time>
   <energy>
    <i name="e_fr_energy">   -124.11396436 </i>
    <i name="e_wo_entrp">   -124.10842695 </i>
    <i name="e_0_energy">   -124.11119565 </i>
   </energy>
  </scstep>
  <scstep>
   <time name="dav">    5.96    6.00</time>
   <time name="total">    6.16    6.22</time>
   <energy>
    <i name="e_fr_energy">   -124.12203490 </i>
    <i name="e_wo_entrp">   -124.11633381 </i>
    <i name="e_0_energy">   -124.11918436 </i>
   </energy>
  </scstep>
  <scstep>
   <time name="dav">    5.18    5.21</time>
   <time name="total">    5.38    5.42</time>
   <energy>
    <i name="e_fr_energy">   -124.12159050 </i>
    <i name="e_wo_entrp">   -124.11581544 </i>
    <i name="e_0_energy">   -124.11870297 </i>
   </energy>
  </scstep>
  <scstep>
   <time name="dav">    5.15    5.18</time>
   <time name="total">    5.36    5.40</time>
   <energy>
    <i name="e_fr_energy">   -124.12135526 </i>
    <i name="e_wo_entrp">   -124.11551620 </i>
    <i name="e_0_energy">   -124.11843573 </i>
   </energy>
  </scstep>
  <scstep>
   <time name="dav">    3.92    3.95</time>
   <time name="total">    4.13    4.16</time>
   <energy>
    <i name="e_fr_energy">   -124.12189114 </i>
    <i name="e_wo_entrp">   -124.11605370 </i>
    <i name="e_0_energy">   -124.11897242 </i>
   </energy>
  </scstep>
  <scstep>
   <time name="dav">    4.23    4.26</time>
   <time name="total">    4.44    4.48</time>
   <energy>
    <i name="e_fr_energy">   -124.12258275 </i>
    <i name="e_wo_entrp">   -124.11675658 </i>
    <i name="e_0_energy">   -124.11966966 </i>
   </energy>
  </scstep>
  <scstep>
   <time name="dav">    5.00    5.04</time>
   <time name="total">    5.21    5.26</time>
   <energy>
    <i name="e_fr_energy">   -124.12277284 </i>
    <i name="e_wo_entrp">   -124.11694987 </i>
    <i name="e_0_energy">   -124.11986135 </i>
   </energy>
  </scstep>
  <scstep>
   <time name="dav">    4.58    4.61</time>
   <time name="total">    4.79    4.83</time>
   <energy>
    <i name="e_fr_energy">   -124.12296848 </i>
    <i name="e_wo_entrp">   -124.11714655 </i>
    <i name="e_0_energy">   -124.12005752 </i>
   </energy>
  </scstep>
  <scstep>
   <time name="dav">    5.53    5.56</time>
   <time name="total">    5.73    5.77</time>
   <energy>
    <i name="e_fr_energy">   -124.12298715 </i>
    <i name="e_wo_entrp">   -124.11716304 </i>
    <i name="e_0_energy">   -124.12007510 </i>
   </energy>
  </scstep>
  <scstep>
   <time name="dav">    4.64    4.67</time>
   <time name="total">    4.84    4.88</time>
   <energy>
    <i name="e_fr_energy">   -124.12299591 </i>
    <i name="e_wo_entrp">   -124.11717189 </i>
    <i name="e_0_energy">   -124.12008390 </i>
   </energy>
  </scstep>
  <scstep>
   <time name="dav">    4.88    4.91</time>
   <time name="total">    5.08    5.12</time>
   <energy>
    <i name="e_fr_energy">   -124.12299838 </i>
    <i name="e_wo_entrp">   -124.11717491 </i>
    <i name="e_0_energy">   -124.12008665 </i>
   </energy>
  </scstep>
  <scstep>
   <time name="dav">    4.64    4.67</time>
   <time name="total">    4.85    4.89</time>
   <energy>
    <i name="e_fr_energy">   -124.12299934 </i>
    <i name="e_wo_entrp">   -124.11717633 </i>
    <i name="e_0_energy">   -124.12008784 </i>
   </energy>
  </scstep>
  <scstep>
   <time name="dav">    4.86    4.89</time>
   <time name="total">    5.07    5.10</time>
   <energy>
    <i name="e_fr_energy">   -124.12299962 </i>
    <i name="e_wo_entrp">   -124.11717659 </i>
    <i name="e_0_energy">   -124.12008811 </i>
   </energy>
  </scstep>
  <scstep>
   <time name="dav">    5.73    5.76</time>
   <time name="total">    5.94    5.99</time>
   <energy>
    <i name="e_fr_energy">   -124.12299967 </i>
    <i name="e_wo_entrp">   -124.11717656 </i>
    <i name="e_0_energy">   -124.12008812 </i>
   </energy>
  </scstep>
  <scstep>
   <time name="dav">    4.61    4.64</time>
   <time name="total">    4.81    4.85</time>
   <energy>
    <i name="e_fr_energy">   -124.12299969 </i>
    <i name="e_wo_entrp">   -124.11717659 </i>
    <i name="e_0_energy">   -124.12008814 </i>
   </energy>
  </scstep>
  <scstep>
   <time name="dav">    5.09    5.12</time>
   <time name="total">    5.12    5.15</time>
   <energy>
    <i name="alphaZ">     59.72471782 </i>
    <i name="ewald">   2091.07890077 </i>
    <i name="hartreedc">  -3699.49024940 </i>
    <i name="XCdc">    167.54543707 </i>
    <i name="pawpsdc">   5624.67058277 </i>
    <i name="pawaedc">  -5623.97380574 </i>
    <i name="eentropy">     -0.00582307 </i>
    <i name="bandstr">   -490.17830228 </i>
    <i name="atom">   1746.50554237 </i>
    <i name="e_fr_energy">   -124.12299969 </i>
    <i name="e_wo_entrp">   -124.11717662 </i>
    <i name="e_0_energy">   -124.12008816 </i>
   </energy>
  </scstep>
  <structure>
   <crystal>
    <varray name="basis" >
     <v>       4.33878727       2.50500000       0.00000000 </v>
     <v>      -4.33878727       2.50500000       0.00000000 </v>
     <v>       0.00000000       0.00000000      15.00000000 </v>
    </varray>
    <i name="volume">    326.05986356 </i>
    <varray name="rec_basis" >
     <v>       0.11523957       0.19960080       0.00000000 </v>
     <v>      -0.11523957       0.19960080       0.00000000 </v>
     <v>       0.00000000       0.00000000       0.06666667 </v>
    </varray>
   </crystal>
   <varray name="positions" >
    <v>       0.66944533      -0.00001116       0.10933082 </v>
    <v>       0.33061323       0.00000980       0.10935996 </v>
    <v>       0.00001116       0.33055367       0.10933082 </v>
    <v>      -0.00000980       0.66938577       0.10935996 </v>
    <v>       0.33062386       0.33061434       0.10936431 </v>
    <v>       0.66938466       0.66937514       0.10936431 </v>
    <v>       0.66665433       0.33334467       0.11077760 </v>
    <v>       0.33332376       0.66667524       0.11012869 </v>
    <v>       0.25112684       0.25154913       0.45951228 </v>
    <v>       0.41775722       0.08268879       0.45936483 </v>
    <v>       0.24995931       0.75003969       0.45926614 </v>
    <v>       0.41654663       0.58345237       0.45942720 </v>
    <v>       0.74896265       0.25103635       0.45946578 </v>
    <v>       0.91650040       0.08349860       0.45960354 </v>
    <v>       0.74844987       0.74887216       0.45951228 </v>
    <v>       0.91731021       0.58224178       0.45936483 </v>
   </varray>
  </structure>
  <varray name="forces" >
   <v>      -0.00899962      -0.00366210       0.01995966 </v>
   <v>       0.00424316       0.00057456       0.01914276 </v>
   <v>      -0.00899962       0.00366210       0.01995966 </v>
   <v>       0.00424316      -0.00057456       0.01914276 </v>
   <v>       0.00128490       0.00046618       0.01890902 </v>
   <v>       0.00128490      -0.00046618       0.01890902 </v>
   <v>       0.00617108       0.00000000      -0.01382560 </v>
   <v>       0.00085167       0.00000000      -0.01295183 </v>
   <v>       0.18536117      -0.48101983      -0.02193576 </v>
   <v>      -0.60738338      -0.07862138       0.00026994 </v>
   <v>       0.09196154       0.00000000       0.01571348 </v>
   <v>       0.00790973       0.00000000      -0.01050087 </v>
   <v>       0.71286572       0.00000000      -0.01528182 </v>
   <v>       0.03122780       0.00000000      -0.03584462 </v>
   <v>       0.18536117       0.48101983      -0.02193576 </v>
   <v>      -0.60738338       0.07862138       0.00026994 </v>
  </varray>
  <varray name="stress" >
   <v>     -26.64061454       0.00000000       0.00838313 </v>
   <v>       0.00000000     -25.03657532       0.00000000 </v>
   <v>       0.00838312       0.00000000      -4.01264294 </v>
  </varray>
  <energy>
   <i name="e_fr_energy">   -125.61985106 </i>
   <i name="e_wo_entrp">   -125.61402799 </i>
   <i name="e_0_energy">   -125.61693952 </i>
  </energy>
