  16  16   0   4
  0.2086978E+02  0.5070000E-09  0.5070000E-09  0.1500000E-08  0.5000000E-15
  1.000000000000000E-004
  CAR 
 Lattice                                 
      9.63937793    -21.23233499  301     -1.02098153      1.00000000
    -21.232  0.0000E+00  0.0000E+00  0.0000E+00  0.0000E+00
    -21.129  0.0000E+00  0.0000E+00  0.0000E+00  0.0000E+00
    -21.027  0.0000E+00  0.0000E+00  0.0000E+00  0.0000E+00
    -20.924  0.0000E+00  0.0000E+00  0.0000E+00  0.0000E+00
    -20.821  0.0000E+00  0.0000E+00  0.0000E+00  0.0000E+00
    -20.718  0.0000E+00  0.0000E+00  0.0000E+00  0.0000E+00
    -20.615  0.0000E+00  0.0000E+00  0.0000E+00  0.0000E+00
    -20.512  0.0000E+00  0.0000E+00  0.0000E+00  0.0000E+00
    -20.409  0.5853E-19  0.5853E-19  0.6023E-20  0.6023E-20
    -20.306  0.4425E-14  0.4425E-14  0.4553E-15  0.4553E-15
    -20.203  0.3992E-10  0.3992E-10  0.4108E-11  0.4108E-11
    -20.100  0.5087E-07  0.5087E-07  0.5239E-08  0.5239E-08
    -19.997  0.9879E-05  0.9879E-05  0.1022E-05  0.1022E-05
    -19.895  0.3219E-03  0.3219E-03  0.3414E-04  0.3414E-04
    -19.792  0.2150E-02  0.2150E-02  0.2554E-03  0.2554E-03
    -19.689  0.4439E-02  0.4439E-02  0.7123E-03  0.7123E-03
    -19.586  0.4958E-02  0.4958E-02  0.1222E-02  0.1222E-02
    -19.483  0.5201E-02  0.5201E-02  0.1758E-02  0.1758E-02
    -19.380  0.4718E-02  0.4718E-02  0.2243E-02  0.2243E-02
    -19.277  0.5703E-02  0.5703E-02  0.2830E-02  0.2830E-02
    -19.174  0.4313E-02  0.4313E-02  0.3274E-02  0.3274E-02
    -19.071  0.5370E-02  0.5370E-02  0.3826E-02  0.3826E-02
    -18.968  0.5882E-02  0.5882E-02  0.4432E-02  0.4432E-02
    -18.866  0.3706E-02  0.3706E-02  0.4813E-02  0.4813E-02
    -18.763  0.5469E-02  0.5469E-02  0.5376E-02  0.5376E-02
    -18.660  0.6366E-02  0.6366E-02  0.6031E-02  0.6031E-02
    -18.557  0.4361E-02  0.4361E-02  0.6480E-02  0.6480E-02
    -18.454  0.3562E-02  0.3562E-02  0.6846E-02  0.6846E-02
    -18.351  0.6907E-02  0.6907E-02  0.7557E-02  0.7557E-02
    -18.248  0.5901E-02  0.5901E-02  0.8164E-02  0.8164E-02
    -18.145  0.4243E-02  0.4243E-02  0.8601E-02  0.8601E-02
    -18.042  0.3598E-02  0.3598E-02  0.8971E-02  0.8971E-02
    -17.939  0.8291E-02  0.8291E-02  0.9824E-02  0.9824E-02
    -17.836  0.1287E-01  0.1287E-01  0.1115E-01  0.1115E-01
    -17.734  0.1152E-01  0.1152E-01  0.1233E-01  0.1233E-01
    -17.631  0.1169E-01  0.1169E-01  0.1354E-01  0.1354E-01
    -17.528  0.1374E-01  0.1374E-01  0.1495E-01  0.1495E-01
    -17.425  0.1830E-01  0.1830E-01  0.1683E-01  0.1683E-01
    -17.322  0.2211E-01  0.2211E-01  0.1911E-01  0.1911E-01
    -17.219  0.1760E-01  0.1760E-01  0.2092E-01  0.2092E-01
    -17.116  0.6455E-02  0.6455E-02  0.2159E-01  0.2159E-01
    -17.013  0.4961E-02  0.4961E-02  0.2210E-01  0.2210E-01
    -16.910  0.7386E-02  0.7386E-02  0.2286E-01  0.2286E-01
    -16.807  0.6709E-02  0.6709E-02  0.2355E-01  0.2355E-01
    -16.704  0.5454E-02  0.5454E-02  0.2411E-01  0.2411E-01
    -16.602  0.4497E-02  0.4497E-02  0.2457E-01  0.2457E-01
    -16.499  0.2552E-02  0.2552E-02  0.2483E-01  0.2483E-01
    -16.396  0.5269E-02  0.5269E-02  0.2537E-01  0.2537E-01
    -16.293  0.9302E-02  0.9302E-02  0.2633E-01  0.2633E-01
    -16.190  0.5936E-02  0.5936E-02  0.2694E-01  0.2694E-01
    -16.087  0.4790E-02  0.4790E-02  0.2744E-01  0.2744E-01
    -15.984  0.4386E-02  0.4386E-02  0.2789E-01  0.2789E-01
    -15.881  0.4020E-02  0.4020E-02  0.2830E-01  0.2830E-01
    -15.778  0.4399E-02  0.4399E-02  0.2875E-01  0.2875E-01
    -15.675  0.1036E-01  0.1036E-01  0.2982E-01  0.2982E-01
    -15.573  0.1331E-01  0.1331E-01  0.3119E-01  0.3119E-01
    -15.470  0.1460E-01  0.1460E-01  0.3269E-01  0.3269E-01
    -15.367  0.1665E-01  0.1665E-01  0.3440E-01  0.3440E-01
    -15.264  0.1400E-01  0.1400E-01  0.3584E-01  0.3584E-01
    -15.161  0.1230E-01  0.1230E-01  0.3711E-01  0.3711E-01
    -15.058  0.1595E-01  0.1595E-01  0.3875E-01  0.3875E-01
    -14.955  0.1859E-01  0.1859E-01  0.4066E-01  0.4066E-01
    -14.852  0.1501E-01  0.1501E-01  0.4221E-01  0.4221E-01
    -14.749  0.1237E-01  0.1237E-01  0.4348E-01  0.4348E-01
    -14.646  0.9490E-02  0.9490E-02  0.4446E-01  0.4446E-01
    -14.543  0.1188E-01  0.1188E-01  0.4568E-01  0.4568E-01
    -14.441  0.1827E-01  0.1827E-01  0.4756E-01  0.4756E-01
    -14.338  0.1978E-01  0.1978E-01  0.4960E-01  0.4960E-01
    -14.235  0.1267E-01  0.1267E-01  0.5090E-01  0.5090E-01
    -14.132  0.8892E-02  0.8892E-02  0.5182E-01  0.5182E-01
    -14.029  0.7792E-02  0.7792E-02  0.5262E-01  0.5262E-01
    -13.926  0.8356E-02  0.8356E-02  0.5348E-01  0.5348E-01
    -13.823  0.7132E-02  0.7132E-02  0.5421E-01  0.5421E-01
    -13.720  0.3763E-02  0.3763E-02  0.5460E-01  0.5460E-01
    -13.617  0.2597E-02  0.2597E-02  0.5487E-01  0.5487E-01
    -13.514  0.4659E-02  0.4659E-02  0.5534E-01  0.5534E-01
    -13.412  0.4743E-02  0.4743E-02  0.5583E-01  0.5583E-01
    -13.309  0.6523E-02  0.6523E-02  0.5650E-01  0.5650E-01
    -13.206  0.5877E-02  0.5877E-02  0.5711E-01  0.5711E-01
    -13.103  0.6718E-02  0.6718E-02  0.5780E-01  0.5780E-01
    -13.000  0.8584E-02  0.8584E-02  0.5868E-01  0.5868E-01
    -12.897  0.8087E-02  0.8087E-02  0.5952E-01  0.5952E-01
    -12.794  0.7727E-02  0.7726E-02  0.6031E-01  0.6031E-01
    -12.691  0.5940E-02  0.5940E-02  0.6092E-01  0.6092E-01
    -12.588  0.7267E-02  0.7267E-02  0.6167E-01  0.6167E-01
    -12.485  0.4619E-02  0.4619E-02  0.6215E-01  0.6215E-01
    -12.382  0.5064E-02  0.5064E-02  0.6267E-01  0.6267E-01
    -12.280  0.8378E-02  0.8378E-02  0.6353E-01  0.6353E-01
    -12.177  0.6178E-02  0.6178E-02  0.6416E-01  0.6416E-01
    -12.074  0.7355E-02  0.7355E-02  0.6492E-01  0.6492E-01
    -11.971  0.1304E-01  0.1304E-01  0.6626E-01  0.6626E-01
    -11.868  0.1638E-01  0.1638E-01  0.6795E-01  0.6795E-01
    -11.765  0.1449E-01  0.1449E-01  0.6944E-01  0.6944E-01
    -11.662  0.1489E-01  0.1489E-01  0.7097E-01  0.7097E-01
    -11.559  0.1755E-01  0.1755E-01  0.7278E-01  0.7278E-01
    -11.456  0.1438E-01  0.1438E-01  0.7426E-01  0.7426E-01
    -11.353  0.8298E-02  0.8298E-02  0.7511E-01  0.7511E-01
    -11.250  0.1010E-01  0.1010E-01  0.7615E-01  0.7615E-01
    -11.148  0.1169E-01  0.1169E-01  0.7735E-01  0.7735E-01
    -11.045  0.1089E-01  0.1089E-01  0.7847E-01  0.7847E-01
    -10.942  0.5527E-02  0.5527E-02  0.7904E-01  0.7904E-01
    -10.839  0.6846E-02  0.6846E-02  0.7975E-01  0.7975E-01
    -10.736  0.1546E-01  0.1546E-01  0.8134E-01  0.8134E-01
    -10.633  0.1763E-01  0.1763E-01  0.8315E-01  0.8315E-01
    -10.530  0.7673E-02  0.7673E-02  0.8394E-01  0.8394E-01
    -10.427  0.6810E-02  0.6810E-02  0.8464E-01  0.8464E-01
    -10.324  0.1372E-01  0.1372E-01  0.8605E-01  0.8605E-01
    -10.221  0.1863E-01  0.1863E-01  0.8797E-01  0.8797E-01
    -10.119  0.1445E-01  0.1445E-01  0.8946E-01  0.8946E-01
    -10.016  0.8972E-02  0.8972E-02  0.9038E-01  0.9038E-01
     -9.913  0.9041E-02  0.9041E-02  0.9131E-01  0.9131E-01
     -9.810  0.1234E-01  0.1234E-01  0.9258E-01  0.9258E-01
     -9.707  0.1008E-01  0.1008E-01  0.9362E-01  0.9362E-01
     -9.604  0.7171E-02  0.7171E-02  0.9436E-01  0.9436E-01
     -9.501  0.1033E-01  0.1033E-01  0.9542E-01  0.9542E-01
     -9.398  0.1155E-01  0.1155E-01  0.9661E-01  0.9661E-01
     -9.295  0.1035E-01  0.1035E-01  0.9767E-01  0.9767E-01
     -9.192  0.7942E-02  0.7942E-02  0.9849E-01  0.9849E-01
     -9.089  0.2931E-02  0.2931E-02  0.9879E-01  0.9879E-01
     -8.987  0.4985E-02  0.4985E-02  0.9931E-01  0.9931E-01
     -8.884  0.1375E-01  0.1375E-01  0.1007E+00  0.1007E+00
     -8.781  0.1931E-01  0.1931E-01  0.1027E+00  0.1027E+00
     -8.678  0.1573E-01  0.1573E-01  0.1043E+00  0.1043E+00
     -8.575  0.9246E-02  0.9246E-02  0.1053E+00  0.1053E+00
     -8.472  0.7838E-02  0.7838E-02  0.1061E+00  0.1061E+00
     -8.369  0.1052E-01  0.1052E-01  0.1072E+00  0.1072E+00
     -8.266  0.1868E-01  0.1868E-01  0.1091E+00  0.1091E+00
     -8.163  0.2196E-01  0.2196E-01  0.1114E+00  0.1114E+00
     -8.060  0.2235E-01  0.2235E-01  0.1136E+00  0.1136E+00
     -7.957  0.1681E-01  0.1681E-01  0.1154E+00  0.1154E+00
     -7.855  0.1368E-01  0.1368E-01  0.1168E+00  0.1168E+00
     -7.752  0.1470E-01  0.1470E-01  0.1183E+00  0.1183E+00
     -7.649  0.2432E-01  0.2432E-01  0.1208E+00  0.1208E+00
     -7.546  0.2912E-01  0.2912E-01  0.1238E+00  0.1238E+00
     -7.443  0.2232E-01  0.2232E-01  0.1261E+00  0.1261E+00
     -7.340  0.2017E-01  0.2017E-01  0.1282E+00  0.1282E+00
     -7.237  0.2415E-01  0.2415E-01  0.1307E+00  0.1307E+00
     -7.134  0.2564E-01  0.2564E-01  0.1333E+00  0.1333E+00
     -7.031  0.2592E-01  0.2592E-01  0.1360E+00  0.1360E+00
     -6.928  0.2146E-01  0.2146E-01  0.1382E+00  0.1382E+00
     -6.826  0.2165E-01  0.2165E-01  0.1404E+00  0.1404E+00
     -6.723  0.2950E-01  0.2950E-01  0.1434E+00  0.1434E+00
     -6.620  0.2097E-01  0.2097E-01  0.1456E+00  0.1456E+00
     -6.517  0.1958E-01  0.1958E-01  0.1476E+00  0.1476E+00
     -6.414  0.2651E-01  0.2651E-01  0.1503E+00  0.1503E+00
     -6.311  0.2458E-01  0.2458E-01  0.1529E+00  0.1529E+00
     -6.208  0.2272E-01  0.2272E-01  0.1552E+00  0.1552E+00
     -6.105  0.1727E-01  0.1727E-01  0.1570E+00  0.1570E+00
     -6.002  0.1574E-01  0.1574E-01  0.1586E+00  0.1586E+00
     -5.899  0.2304E-01  0.2304E-01  0.1610E+00  0.1610E+00
     -5.796  0.2780E-01  0.2780E-01  0.1638E+00  0.1638E+00
     -5.694  0.2145E-01  0.2145E-01  0.1660E+00  0.1660E+00
     -5.591  0.1866E-01  0.1866E-01  0.1680E+00  0.1680E+00
     -5.488  0.2112E-01  0.2112E-01  0.1701E+00  0.1701E+00
     -5.385  0.2883E-01  0.2883E-01  0.1731E+00  0.1731E+00
     -5.282  0.2724E-01  0.2724E-01  0.1759E+00  0.1759E+00
     -5.179  0.1529E-01  0.1529E-01  0.1775E+00  0.1775E+00
     -5.076  0.1464E-01  0.1464E-01  0.1790E+00  0.1790E+00
     -4.973  0.1891E-01  0.1891E-01  0.1809E+00  0.1809E+00
     -4.870  0.1776E-01  0.1776E-01  0.1828E+00  0.1828E+00
     -4.767  0.1669E-01  0.1669E-01  0.1845E+00  0.1845E+00
     -4.665  0.1743E-01  0.1743E-01  0.1863E+00  0.1863E+00
     -4.562  0.1663E-01  0.1663E-01  0.1880E+00  0.1880E+00
     -4.459  0.1771E-01  0.1771E-01  0.1898E+00  0.1898E+00
     -4.356  0.1935E-01  0.1935E-01  0.1918E+00  0.1918E+00
     -4.253  0.2641E-01  0.2641E-01  0.1945E+00  0.1945E+00
     -4.150  0.4039E-01  0.4039E-01  0.1987E+00  0.1987E+00
     -4.047  0.3788E-01  0.3788E-01  0.2026E+00  0.2026E+00
     -3.944  0.2644E-01  0.2644E-01  0.2053E+00  0.2053E+00
     -3.841  0.1921E-01  0.1921E-01  0.2073E+00  0.2073E+00
     -3.738  0.1238E-01  0.1238E-01  0.2085E+00  0.2085E+00
     -3.635  0.1370E-01  0.1370E-01  0.2099E+00  0.2099E+00
     -3.533  0.1895E-01  0.1895E-01  0.2119E+00  0.2119E+00
     -3.430  0.2264E-01  0.2264E-01  0.2142E+00  0.2142E+00
     -3.327  0.1669E-01  0.1669E-01  0.2159E+00  0.2159E+00
     -3.224  0.1333E-01  0.1333E-01  0.2173E+00  0.2173E+00
     -3.121  0.1665E-01  0.1665E-01  0.2190E+00  0.2190E+00
     -3.018  0.2112E-01  0.2112E-01  0.2212E+00  0.2212E+00
     -2.915  0.2589E-01  0.2589E-01  0.2239E+00  0.2239E+00
     -2.812  0.1692E-01  0.1692E-01  0.2256E+00  0.2256E+00
     -2.709  0.1211E-01  0.1211E-01  0.2269E+00  0.2269E+00
     -2.606  0.1969E-01  0.1969E-01  0.2289E+00  0.2289E+00
     -2.503  0.2070E-01  0.2070E-01  0.2310E+00  0.2310E+00
     -2.401  0.1882E-01  0.1882E-01  0.2329E+00  0.2329E+00
     -2.298  0.2435E-01  0.2435E-01  0.2355E+00  0.2355E+00
     -2.195  0.1938E-01  0.1938E-01  0.2374E+00  0.2374E+00
     -2.092  0.6170E-02  0.6170E-02  0.2381E+00  0.2381E+00
     -1.989  0.4831E-02  0.4831E-02  0.2386E+00  0.2386E+00
     -1.886  0.8335E-02  0.8335E-02  0.2394E+00  0.2394E+00
     -1.783  0.5192E-02  0.5192E-02  0.2400E+00  0.2400E+00
     -1.680  0.4836E-02  0.4836E-02  0.2405E+00  0.2405E+00
     -1.577  0.7715E-02  0.7715E-02  0.2413E+00  0.2413E+00
     -1.474  0.5317E-02  0.5317E-02  0.2418E+00  0.2418E+00
     -1.372  0.2181E-02  0.2181E-02  0.2420E+00  0.2420E+00
     -1.269  0.4235E-03  0.4235E-03  0.2421E+00  0.2421E+00
     -1.166  0.4848E-04  0.4848E-04  0.2421E+00  0.2421E+00
     -1.063  0.4540E-03  0.4540E-03  0.2421E+00  0.2421E+00
     -0.960  0.1995E-02  0.1995E-02  0.2423E+00  0.2423E+00
     -0.857  0.3437E-02  0.3437E-02  0.2427E+00  0.2427E+00
     -0.754  0.4053E-02  0.4053E-02  0.2431E+00  0.2431E+00
     -0.651  0.8234E-02  0.8234E-02  0.2440E+00  0.2440E+00
     -0.548  0.1098E-01  0.1098E-01  0.2451E+00  0.2451E+00
     -0.445  0.9952E-02  0.9952E-02  0.2461E+00  0.2461E+00
     -0.342  0.1215E-01  0.1215E-01  0.2474E+00  0.2474E+00
     -0.240  0.1157E-01  0.1157E-01  0.2485E+00  0.2485E+00
     -0.137  0.8422E-02  0.8422E-02  0.2494E+00  0.2494E+00
     -0.034  0.3661E-02  0.3661E-02  0.2498E+00  0.2498E+00
      0.069  0.1721E-02  0.1721E-02  0.2500E+00  0.2500E+00
      0.172  0.2563E-02  0.2563E-02  0.2502E+00  0.2502E+00
      0.275  0.7213E-02  0.7213E-02  0.2510E+00  0.2510E+00
      0.378  0.9601E-02  0.9601E-02  0.2520E+00  0.2520E+00
      0.481  0.7088E-02  0.7088E-02  0.2527E+00  0.2527E+00
      0.584  0.4395E-02  0.4395E-02  0.2531E+00  0.2531E+00
      0.687  0.8686E-02  0.8686E-02  0.2540E+00  0.2540E+00
      0.789  0.1208E-01  0.1208E-01  0.2553E+00  0.2553E+00
      0.892  0.1275E-01  0.1275E-01  0.2566E+00  0.2566E+00
      0.995  0.9511E-02  0.9511E-02  0.2576E+00  0.2576E+00
      1.098  0.4765E-02  0.4765E-02  0.2581E+00  0.2581E+00
      1.201  0.5223E-02  0.5223E-02  0.2586E+00  0.2586E+00
      1.304  0.5274E-02  0.5274E-02  0.2591E+00  0.2591E+00
      1.407  0.4906E-02  0.4906E-02  0.2596E+00  0.2596E+00
      1.510  0.6615E-02  0.6615E-02  0.2603E+00  0.2603E+00
      1.613  0.1211E-01  0.1211E-01  0.2616E+00  0.2616E+00
      1.716  0.7834E-02  0.7834E-02  0.2624E+00  0.2624E+00
      1.819  0.3099E-02  0.3099E-02  0.2627E+00  0.2627E+00
      1.921  0.3626E-02  0.3626E-02  0.2631E+00  0.2631E+00
      2.024  0.7163E-02  0.7163E-02  0.2638E+00  0.2638E+00
      2.127  0.1457E-01  0.1457E-01  0.2653E+00  0.2653E+00
      2.230  0.1512E-01  0.1512E-01  0.2669E+00  0.2669E+00
      2.333  0.1181E-01  0.1181E-01  0.2681E+00  0.2681E+00
      2.436  0.1249E-01  0.1249E-01  0.2694E+00  0.2694E+00
      2.539  0.1248E-01  0.1248E-01  0.2706E+00  0.2706E+00
      2.642  0.1008E-01  0.1008E-01  0.2717E+00  0.2717E+00
      2.745  0.7144E-02  0.7145E-02  0.2724E+00  0.2724E+00
      2.848  0.7215E-02  0.7220E-02  0.2732E+00  0.2732E+00
      2.951  0.1169E-01  0.1170E-01  0.2744E+00  0.2744E+00
      3.053  0.1489E-01  0.1489E-01  0.2759E+00  0.2759E+00
      3.156  0.1388E-01  0.1388E-01  0.2773E+00  0.2773E+00
      3.259  0.1121E-01  0.1121E-01  0.2785E+00  0.2785E+00
      3.362  0.7592E-02  0.7588E-02  0.2793E+00  0.2793E+00
      3.465  0.9566E-02  0.9573E-02  0.2802E+00  0.2802E+00
      3.568  0.1439E-01  0.1439E-01  0.2817E+00  0.2817E+00
      3.671  0.9159E-02  0.9157E-02  0.2827E+00  0.2827E+00
      3.774  0.9582E-02  0.9589E-02  0.2837E+00  0.2837E+00
      3.877  0.1753E-01  0.1754E-01  0.2855E+00  0.2855E+00
      3.980  0.1883E-01  0.1883E-01  0.2874E+00  0.2874E+00
      4.082  0.1561E-01  0.1560E-01  0.2890E+00  0.2890E+00
      4.185  0.1262E-01  0.1262E-01  0.2903E+00  0.2903E+00
      4.288  0.1433E-01  0.1433E-01  0.2918E+00  0.2918E+00
      4.391  0.1396E-01  0.1396E-01  0.2932E+00  0.2932E+00
      4.494  0.1715E-01  0.1714E-01  0.2950E+00  0.2950E+00
      4.597  0.1424E-01  0.1423E-01  0.2964E+00  0.2964E+00
      4.700  0.1148E-01  0.1149E-01  0.2976E+00  0.2976E+00
      4.803  0.1654E-01  0.1655E-01  0.2993E+00  0.2993E+00
      4.906  0.2127E-01  0.2128E-01  0.3015E+00  0.3015E+00
      5.009  0.1919E-01  0.1917E-01  0.3035E+00  0.3035E+00
      5.112  0.1637E-01  0.1637E-01  0.3052E+00  0.3052E+00
      5.214  0.1549E-01  0.1549E-01  0.3068E+00  0.3068E+00
      5.317  0.1395E-01  0.1396E-01  0.3082E+00  0.3082E+00
      5.420  0.1900E-01  0.1902E-01  0.3102E+00  0.3102E+00
      5.523  0.2068E-01  0.2067E-01  0.3123E+00  0.3123E+00
      5.626  0.1716E-01  0.1715E-01  0.3141E+00  0.3141E+00
      5.729  0.2090E-01  0.2091E-01  0.3162E+00  0.3162E+00
      5.832  0.2844E-01  0.2845E-01  0.3191E+00  0.3191E+00
      5.935  0.2428E-01  0.2427E-01  0.3216E+00  0.3216E+00
      6.038  0.2251E-01  0.2252E-01  0.3239E+00  0.3240E+00
      6.141  0.2591E-01  0.2592E-01  0.3266E+00  0.3266E+00
      6.243  0.2788E-01  0.2788E-01  0.3295E+00  0.3295E+00
      6.346  0.2786E-01  0.2784E-01  0.3324E+00  0.3324E+00
      6.449  0.2062E-01  0.2061E-01  0.3345E+00  0.3345E+00
      6.552  0.2008E-01  0.2010E-01  0.3365E+00  0.3365E+00
      6.655  0.3094E-01  0.3096E-01  0.3397E+00  0.3397E+00
      6.758  0.3162E-01  0.3161E-01  0.3430E+00  0.3430E+00
      6.861  0.3117E-01  0.3117E-01  0.3462E+00  0.3462E+00
      6.964  0.3366E-01  0.3366E-01  0.3496E+00  0.3497E+00
      7.067  0.3035E-01  0.3035E-01  0.3528E+00  0.3528E+00
      7.170  0.3160E-01  0.3160E-01  0.3560E+00  0.3560E+00
      7.273  0.3631E-01  0.3632E-01  0.3598E+00  0.3598E+00
      7.375  0.2999E-01  0.2998E-01  0.3628E+00  0.3628E+00
      7.478  0.2139E-01  0.2139E-01  0.3650E+00  0.3650E+00
      7.581  0.2165E-01  0.2168E-01  0.3673E+00  0.3673E+00
      7.684  0.2534E-01  0.2534E-01  0.3699E+00  0.3699E+00
      7.787  0.2088E-01  0.2085E-01  0.3720E+00  0.3720E+00
      7.890  0.1341E-01  0.1340E-01  0.3734E+00  0.3734E+00
      7.993  0.8697E-02  0.8688E-02  0.3743E+00  0.3743E+00
      8.096  0.3259E-02  0.3253E-02  0.3746E+00  0.3746E+00
      8.199  0.1266E-02  0.1266E-02  0.3748E+00  0.3748E+00
      8.302  0.1667E-02  0.1667E-02  0.3749E+00  0.3749E+00
      8.405  0.5289E-03  0.5279E-03  0.3750E+00  0.3750E+00
      8.507  0.2665E-04  0.2656E-04  0.3750E+00  0.3750E+00
      8.610  0.1924E-06  0.1914E-06  0.3750E+00  0.3750E+00
      8.713  0.1853E-09  0.1840E-09  0.3750E+00  0.3750E+00
      8.816  0.2288E-13  0.2268E-13  0.3750E+00  0.3750E+00
      8.919  0.3512E-18  0.3512E-18  0.3750E+00  0.3750E+00
      9.022  0.0000E+00  0.0000E+00  0.3750E+00  0.3750E+00
      9.125  0.0000E+00  0.0000E+00  0.3750E+00  0.3750E+00
      9.228  0.0000E+00  0.0000E+00  0.3750E+00  0.3750E+00
      9.331  0.0000E+00  0.0000E+00  0.3750E+00  0.3750E+00
      9.434  0.0000E+00  0.0000E+00  0.3750E+00  0.3750E+00
      9.536  0.0000E+00  0.0000E+00  0.3750E+00  0.3750E+00
      9.639  0.0000E+00  0.0000E+00  0.3750E+00  0.3750E+00
