       N       E                     dE             d eps       ncg     rms          rms(c)
DAV:   1     0.258083005331E+03    0.25808E+03   -0.28508E+04 14208   0.963E+02
DAV:   2    -0.129111867975E+03   -0.38719E+03   -0.38673E+03 21648   0.179E+02
DAV:   3    -0.145241532650E+03   -0.16130E+02   -0.16108E+02 25680   0.503E+01
DAV:   4    -0.145289735461E+03   -0.48203E-01   -0.48178E-01 22128   0.253E+00
DAV:   5    -0.145289814821E+03   -0.79360E-04   -0.79359E-04 24000   0.107E-01    0.247E+01
DAV:   6    -0.107038203463E+03    0.38252E+02   -0.68774E+01 23760   0.266E+01    0.143E+01
DAV:   7    -0.114373125682E+03   -0.73349E+01   -0.97864E+00 22656   0.108E+01    0.849E+00
DAV:   8    -0.123605383866E+03   -0.92323E+01   -0.82324E+00 25104   0.904E+00    0.456E+00
DAV:   9    -0.131170821090E+03   -0.75654E+01   -0.40293E+00 17664   0.690E+00    0.303E+00
DAV:  10    -0.138527527075E+03   -0.73567E+01   -0.10102E+01 21840   0.793E+00    0.172E+00
DAV:  11    -0.140036290711E+03   -0.15088E+01   -0.18289E+00 21360   0.364E+00    0.114E+00
DAV:  12    -0.140282459188E+03   -0.24617E+00   -0.28429E-01 18912   0.152E+00    0.480E-01
DAV:  13    -0.140334108322E+03   -0.51649E-01   -0.45013E-02 17040   0.819E-01    0.199E-01
DAV:  14    -0.140359605995E+03   -0.25498E-01   -0.81704E-03 20112   0.329E-01    0.934E-02
DAV:  15    -0.140368408785E+03   -0.88028E-02   -0.48267E-03 18000   0.179E-01    0.467E-02
DAV:  16    -0.140369868718E+03   -0.14599E-02   -0.53001E-04 14592   0.915E-02    0.262E-02
DAV:  17    -0.140371565357E+03   -0.16966E-02   -0.23303E-04 14784   0.628E-02    0.171E-02
DAV:  18    -0.140372590025E+03   -0.10247E-02   -0.12061E-04 15840   0.465E-02    0.120E-02
DAV:  19    -0.140373095311E+03   -0.50529E-03   -0.72870E-05 19296   0.380E-02    0.761E-03
DAV:  20    -0.140373258656E+03   -0.16334E-03   -0.25202E-05 15840   0.239E-02    0.446E-03
DAV:  21    -0.140373304785E+03   -0.46129E-04   -0.10351E-05 19152   0.142E-02    0.260E-03
DAV:  22    -0.140373310056E+03   -0.52709E-05   -0.33458E-06 23136   0.804E-03    0.188E-03
DAV:  23    -0.140373315185E+03   -0.51286E-05   -0.13088E-06 21408   0.460E-03    0.867E-04
DAV:  24    -0.140373318768E+03   -0.35832E-05   -0.40212E-07 21600   0.239E-03    0.505E-04
DAV:  25    -0.140373320382E+03   -0.16142E-05   -0.97049E-08 21744   0.113E-03    0.255E-04
DAV:  26    -0.140373321414E+03   -0.10318E-05   -0.71620E-08 18912   0.855E-04    0.130E-04
DAV:  27    -0.140373321721E+03   -0.30653E-06   -0.21267E-08 18384   0.491E-04
   1 F= -.14224909E+03 E0= -.14224810E+03  d E =-.142249E+03  mag=     0.0000
       N       E                     dE             d eps       ncg     rms          rms(c)
DAV:   1    -0.140348770009E+03    0.24551E-01   -0.94965E+00 14208   0.106E+01    0.869E-01
DAV:   2    -0.140327165999E+03    0.21604E-01   -0.16486E-01 25872   0.145E+00    0.422E-01
DAV:   3    -0.140324938814E+03    0.22272E-02   -0.22379E-02 22224   0.472E-01    0.178E-01
DAV:   4    -0.140324907287E+03    0.31527E-04   -0.26056E-03 17616   0.157E-01    0.709E-02
DAV:   5    -0.140324909978E+03   -0.26912E-05   -0.18024E-04 18816   0.509E-02    0.181E-02
DAV:   6    -0.140324914052E+03   -0.40741E-05   -0.19257E-05 23472   0.159E-02    0.101E-02
DAV:   7    -0.140324920100E+03   -0.60478E-05   -0.96598E-06 21312   0.100E-02    0.239E-03
DAV:   8    -0.140324926802E+03   -0.67018E-05   -0.11351E-06 22320   0.350E-03    0.127E-03
DAV:   9    -0.140324936822E+03   -0.10020E-04   -0.94830E-07 19344   0.199E-03    0.759E-04
DAV:  10    -0.140324941710E+03   -0.48877E-05   -0.35998E-07 19632   0.117E-03    0.505E-04
DAV:  11    -0.140324945612E+03   -0.39019E-05   -0.35131E-07 16320   0.101E-03    0.269E-04
DAV:  12    -0.140324946936E+03   -0.13242E-05   -0.11365E-07 16848   0.531E-04    0.188E-04
DAV:  13    -0.140324947265E+03   -0.32942E-06   -0.14556E-08 20544   0.222E-04
   2 F= -.14220390E+03 E0= -.14220257E+03  d E =0.451927E-01  mag=    -0.0000
       N       E                     dE             d eps       ncg     rms          rms(c)
DAV:   1    -0.140392656388E+03   -0.67709E-01   -0.48638E+00 14208   0.754E+00    0.622E-01
DAV:   2    -0.140381978697E+03    0.10678E-01   -0.82780E-02 23520   0.104E+00    0.302E-01
DAV:   3    -0.140380738242E+03    0.12405E-02   -0.13490E-02 24816   0.355E-01    0.122E-01
DAV:   4    -0.140380683474E+03    0.54768E-04   -0.14652E-03 18720   0.119E-01    0.547E-02
DAV:   5    -0.140380677694E+03    0.57798E-05   -0.12213E-04 16176   0.423E-02    0.969E-03
DAV:   6    -0.140380675953E+03    0.17416E-05   -0.21371E-05 25392   0.166E-02    0.566E-03
DAV:   7    -0.140380677599E+03   -0.16460E-05   -0.25564E-06 19152   0.563E-03    0.179E-03
DAV:   8    -0.140380680179E+03   -0.25805E-05   -0.40828E-07 23712   0.212E-03    0.101E-03
DAV:   9    -0.140380685344E+03   -0.51649E-05   -0.31788E-07 17040   0.131E-03    0.547E-04
DAV:  10    -0.140380689322E+03   -0.39781E-05   -0.24936E-07 17616   0.101E-03    0.415E-04
DAV:  11    -0.140380692184E+03   -0.28620E-05   -0.19100E-07 14208   0.728E-04    0.189E-04
DAV:  12    -0.140380692641E+03   -0.45710E-06   -0.13611E-08 24384   0.204E-04
   3 F= -.14225752E+03 E0= -.14225642E+03  d E =-.842657E-02  mag=    -0.0000
       N       E                     dE             d eps       ncg     rms          rms(c)
DAV:   1    -0.140380880893E+03   -0.18871E-03   -0.16911E-02 14208   0.565E-01    0.245E-02
DAV:   2    -0.140380884227E+03   -0.33344E-05   -0.12858E-04 25824   0.498E-02    0.162E-02
DAV:   3    -0.140380887481E+03   -0.32539E-05   -0.16924E-05 15168   0.163E-02    0.348E-03
DAV:   4    -0.140380887399E+03    0.82166E-07   -0.29638E-06 23040   0.689E-03
   4 F= -.14225766E+03 E0= -.14225657E+03  d E =-.145330E-03  mag=    -0.0000
       N       E                     dE             d eps       ncg     rms          rms(c)
DAV:   1    -0.140380913313E+03   -0.25831E-04   -0.19075E-03 14880   0.190E-01    0.845E-03
DAV:   2    -0.140380913441E+03   -0.12816E-06   -0.14655E-05 23520   0.169E-02    0.563E-03
DAV:   3    -0.140380914226E+03   -0.78513E-06   -0.19380E-06 15072   0.561E-03
   5 F= -.14225767E+03 E0= -.14225659E+03  d E =-.155574E-03  mag=     0.0000
       N       E                     dE             d eps       ncg     rms          rms(c)
DAV:   1    -0.140380936469E+03   -0.23028E-04   -0.18470E-02 14688   0.607E-01    0.300E-02
DAV:   2    -0.140380937897E+03   -0.14281E-05   -0.24745E-04 15168   0.712E-02    0.189E-02
DAV:   3    -0.140380937381E+03    0.51576E-06   -0.37212E-05 16176   0.257E-02    0.702E-03
DAV:   4    -0.140380937439E+03   -0.57429E-07   -0.79151E-06 21408   0.106E-02
   6 F= -.14225763E+03 E0= -.14225655E+03  d E =0.439520E-04  mag=     0.0000
       N       E                     dE             d eps       ncg     rms          rms(c)
DAV:   1    -0.140380964804E+03   -0.27423E-04   -0.72454E-03 17472   0.380E-01    0.192E-02
DAV:   2    -0.140380963704E+03    0.11003E-05   -0.95554E-05 14208   0.443E-02    0.119E-02
DAV:   3    -0.140380963425E+03    0.27914E-06   -0.14733E-05 15840   0.161E-02    0.432E-03
DAV:   4    -0.140380963590E+03   -0.16570E-06   -0.30508E-06 20352   0.656E-03
   7 F= -.14225770E+03 E0= -.14225662E+03  d E =-.241467E-04  mag=     0.0000
       N       E                     dE             d eps       ncg     rms          rms(c)
DAV:   1    -0.140381020261E+03   -0.56836E-04   -0.29808E-03 14784   0.242E-01    0.117E-02
DAV:   2    -0.140381020392E+03   -0.13096E-06   -0.41183E-05 14208   0.282E-02    0.754E-03
DAV:   3    -0.140381020622E+03   -0.23035E-06   -0.48012E-06 20544   0.904E-03
   8 F= -.14225770E+03 E0= -.14225662E+03  d E =-.453216E-05  mag=    -0.0000
       N       E                     dE             d eps       ncg     rms          rms(c)
DAV:   1    -0.140381002267E+03    0.18125E-04   -0.50877E-04 14592   0.100E-01    0.403E-03
DAV:   2    -0.140381002454E+03   -0.18681E-06   -0.70827E-06 15456   0.115E-02
   9 F= -.14225771E+03 E0= -.14225662E+03  d E =-.825616E-05  mag=    -0.0000
       N       E                     dE             d eps       ncg     rms          rms(c)
DAV:   1    -0.140381072494E+03   -0.70227E-04   -0.20205E-03 14208   0.200E-01    0.828E-03
DAV:   2    -0.140381072793E+03   -0.29863E-06   -0.19022E-05 14208   0.193E-02    0.541E-03
DAV:   3    -0.140381073043E+03   -0.24963E-06   -0.16532E-06 19632   0.517E-03
  10 F= -.14225772E+03 E0= -.14225663E+03  d E =-.109221E-04  mag=    -0.0000
       N       E                     dE             d eps       ncg     rms          rms(c)
DAV:   1    -0.140381103721E+03   -0.30928E-04   -0.48372E-04 14688   0.980E-02    0.455E-03
DAV:   2    -0.140381103662E+03    0.59514E-07   -0.45508E-06 14928   0.946E-03
  11 F= -.14225772E+03 E0= -.14225664E+03  d E =-.123937E-04  mag=     0.0000
       N       E                     dE             d eps       ncg     rms          rms(c)
DAV:   1    -0.140381177316E+03   -0.73595E-04   -0.17330E-03 14208   0.185E-01    0.850E-03
DAV:   2    -0.140381177470E+03   -0.15411E-06   -0.17733E-05 14208   0.187E-02    0.554E-03
DAV:   3    -0.140381177639E+03   -0.16829E-06   -0.15637E-06 16320   0.521E-03
  12 F= -.14225773E+03 E0= -.14225664E+03  d E =-.909903E-05  mag=    -0.0000
       N       E                     dE             d eps       ncg     rms          rms(c)
DAV:   1    -0.140381225042E+03   -0.47571E-04   -0.85959E-04 14208   0.130E-01    0.602E-03
DAV:   2    -0.140381225106E+03   -0.64126E-07   -0.86547E-06 14400   0.131E-02
  13 F= -.14225773E+03 E0= -.14225665E+03  d E =-.110635E-04  mag=    -0.0000
       N       E                     dE             d eps       ncg     rms          rms(c)
DAV:   1    -0.140381295046E+03   -0.70005E-04   -0.11137E-03 14208   0.149E-01    0.722E-03
DAV:   2    -0.140381295181E+03   -0.13498E-06   -0.11563E-05 14400   0.147E-02    0.485E-03
DAV:   3    -0.140381295419E+03   -0.23784E-06   -0.87112E-07 18240   0.380E-03
  14 F= -.14225774E+03 E0= -.14225665E+03  d E =-.860706E-05  mag=     0.0000
       N       E                     dE             d eps       ncg     rms          rms(c)
DAV:   1    -0.140381498694E+03   -0.20351E-03   -0.10143E-02 14208   0.448E-01    0.197E-02
DAV:   2    -0.140381501128E+03   -0.24339E-05   -0.10216E-04 14208   0.436E-02    0.131E-02
DAV:   3    -0.140381501491E+03   -0.36367E-06   -0.70664E-06 15936   0.107E-02
  15 F= -.14225776E+03 E0= -.14225667E+03  d E =-.295910E-04  mag=     0.0000
       N       E                     dE             d eps       ncg     rms          rms(c)
DAV:   1    -0.140381882905E+03   -0.38178E-03   -0.40575E-02 14208   0.897E-01    0.397E-02
DAV:   2    -0.140381895580E+03   -0.12675E-04   -0.40646E-04 14208   0.869E-02    0.264E-02
DAV:   3    -0.140381894288E+03    0.12917E-05   -0.28379E-05 16608   0.214E-02    0.729E-03
DAV:   4    -0.140381895111E+03   -0.82295E-06   -0.34099E-06 16128   0.696E-03
  16 F= -.14225778E+03 E0= -.14225669E+03  d E =-.532485E-04  mag=    -0.0000
       N       E                     dE             d eps       ncg     rms          rms(c)
DAV:   1    -0.140381970145E+03   -0.75857E-04   -0.12349E-03 14496   0.156E-01    0.698E-03
DAV:   2    -0.140381970488E+03   -0.34284E-06   -0.13318E-05 15552   0.157E-02    0.471E-03
DAV:   3    -0.140381970590E+03   -0.10250E-06   -0.84639E-07 18720   0.373E-03
  17 F= -.14225779E+03 E0= -.14225670E+03  d E =-.107906E-04  mag=     0.0000
       N       E                     dE             d eps       ncg     rms          rms(c)
DAV:   1    -0.140382190637E+03   -0.22015E-03   -0.11015E-02 14208   0.466E-01    0.208E-02
DAV:   2    -0.140382193590E+03   -0.29523E-05   -0.11141E-04 14208   0.455E-02    0.139E-02
DAV:   3    -0.140382193786E+03   -0.19631E-06   -0.75192E-06 14784   0.111E-02
  18 F= -.14225782E+03 E0= -.14225673E+03  d E =-.398628E-04  mag=     0.0000
       N       E                     dE             d eps       ncg     rms          rms(c)
DAV:   1    -0.140382614166E+03   -0.42058E-03   -0.44084E-02 14208   0.932E-01    0.418E-02
DAV:   2    -0.140382628655E+03   -0.14489E-04   -0.44526E-04 14208   0.908E-02    0.279E-02
DAV:   3    -0.140382627339E+03    0.13157E-05   -0.30020E-05 15648   0.222E-02    0.763E-03
DAV:   4    -0.140382628127E+03   -0.78745E-06   -0.35859E-06 15264   0.721E-03
  19 F= -.14225787E+03 E0= -.14225677E+03  d E =-.861426E-04  mag=    -0.0000
       N       E                     dE             d eps       ncg     rms          rms(c)
DAV:   1    -0.140383394408E+03   -0.76707E-03   -0.17632E-01 14208   0.186E+00    0.827E-02
DAV:   2    -0.140383452438E+03   -0.58030E-04   -0.17771E-03 14208   0.181E-01    0.550E-02
DAV:   3    -0.140383443472E+03    0.89663E-05   -0.12046E-04 16128   0.441E-02    0.153E-02
DAV:   4    -0.140383445594E+03   -0.21214E-05   -0.14055E-05 14880   0.143E-02    0.503E-03
DAV:   5    -0.140383445863E+03   -0.26904E-06   -0.13859E-06 17856   0.457E-03
  20 F= -.14225791E+03 E0= -.14225680E+03  d E =-.128470E-03  mag=     0.0000
       N       E                     dE             d eps       ncg     rms          rms(c)
DAV:   1    -0.140383518605E+03   -0.73012E-04   -0.12248E-03 14784   0.156E-01    0.672E-03
DAV:   2    -0.140383518984E+03   -0.37857E-06   -0.12829E-05 15936   0.155E-02    0.450E-03
DAV:   3    -0.140383519065E+03   -0.81703E-07   -0.80010E-07 17280   0.368E-03
  21 F= -.14225792E+03 E0= -.14225681E+03  d E =-.879198E-05  mag=    -0.0000
       N       E                     dE             d eps       ncg     rms          rms(c)
DAV:   1    -0.140383733272E+03   -0.21429E-03   -0.11005E-02 14208   0.467E-01    0.205E-02
DAV:   2    -0.140383736543E+03   -0.32707E-05   -0.11104E-04 16944   0.454E-02    0.138E-02
DAV:   3    -0.140383736633E+03   -0.90965E-07   -0.68262E-06 14400   0.104E-02
  22 F= -.14225794E+03 E0= -.14225683E+03  d E =-.331723E-04  mag=     0.0000
       N       E                     dE             d eps       ncg     rms          rms(c)
DAV:   1    -0.140384147892E+03   -0.41135E-03   -0.44048E-02 14208   0.934E-01    0.412E-02
DAV:   2    -0.140384162794E+03   -0.14902E-04   -0.43975E-04 14400   0.907E-02    0.277E-02
DAV:   3    -0.140384161393E+03    0.14006E-05   -0.28883E-05 14208   0.219E-02    0.765E-03
DAV:   4    -0.140384162225E+03   -0.83109E-06   -0.36491E-06 14784   0.739E-03
  23 F= -.14225798E+03 E0= -.14225686E+03  d E =-.726010E-04  mag=     0.0000
       N       E                     dE             d eps       ncg     rms          rms(c)
DAV:   1    -0.140384922684E+03   -0.76129E-03   -0.17618E-01 14208   0.187E+00    0.816E-02
DAV:   2    -0.140384983057E+03   -0.60373E-04   -0.17560E-03 14208   0.181E-01    0.545E-02
DAV:   3    -0.140384973548E+03    0.95090E-05   -0.11551E-04 15360   0.435E-02    0.153E-02
DAV:   4    -0.140384975729E+03   -0.21802E-05   -0.14026E-05 14304   0.144E-02    0.490E-03
DAV:   5    -0.140384975976E+03   -0.24764E-06   -0.14729E-06 15456   0.496E-03
  24 F= -.14225803E+03 E0= -.14225690E+03  d E =-.114688E-03  mag=    -0.0000
       N       E                     dE             d eps       ncg     rms          rms(c)
DAV:   1    -0.140385269072E+03   -0.29334E-03   -0.26382E-02 14208   0.723E-01    0.314E-02
DAV:   2    -0.140385277574E+03   -0.85024E-05   -0.26713E-04 14400   0.709E-02    0.210E-02
DAV:   3    -0.140385276922E+03    0.65213E-06   -0.17442E-05 17664   0.169E-02    0.604E-03
DAV:   4    -0.140385277463E+03   -0.54152E-06   -0.20614E-06 14976   0.562E-03
  25 F= -.14225803E+03 E0= -.14225690E+03  d E =-.117719E-03  mag=     0.0000
       N       E                     dE             d eps       ncg     rms          rms(c)
DAV:   1    -0.140385535500E+03   -0.25858E-03   -0.17319E-02 14208   0.588E-01    0.252E-02
DAV:   2    -0.140385541374E+03   -0.58739E-05   -0.17537E-04 16176   0.575E-02    0.171E-02
DAV:   3    -0.140385541075E+03    0.29885E-06   -0.10787E-05 14304   0.133E-02    0.495E-03
DAV:   4    -0.140385541454E+03   -0.37896E-06   -0.15785E-06 14208   0.516E-03
  26 F= -.14225806E+03 E0= -.14225692E+03  d E =-.277828E-04  mag=     0.0000
       N       E                     dE             d eps       ncg     rms          rms(c)
DAV:   1    -0.140386241165E+03   -0.70009E-03   -0.15566E-01 14208   0.176E+00    0.755E-02
DAV:   2    -0.140386295728E+03   -0.54564E-04   -0.15321E-03 14208   0.170E-01    0.507E-02
DAV:   3    -0.140386286650E+03    0.90779E-05   -0.10115E-04 14976   0.411E-02    0.147E-02
DAV:   4    -0.140386288485E+03   -0.18342E-05   -0.12798E-05 14640   0.138E-02    0.490E-03
DAV:   5    -0.140386288721E+03   -0.23636E-06   -0.14024E-06 14976   0.465E-03
  27 F= -.14225810E+03 E0= -.14225696E+03  d E =-.669519E-04  mag=     0.0000
       N       E                     dE             d eps       ncg     rms          rms(c)
DAV:   1    -0.140386441162E+03   -0.15268E-03   -0.64676E-03 14208   0.361E-01    0.149E-02
DAV:   2    -0.140386443574E+03   -0.24117E-05   -0.64971E-05 16128   0.351E-02    0.103E-02
DAV:   3    -0.140386443716E+03   -0.14209E-06   -0.37056E-06 14784   0.809E-03
  28 F= -.14225812E+03 E0= -.14225698E+03  d E =-.243538E-04  mag=     0.0000
       N       E                     dE             d eps       ncg     rms          rms(c)
DAV:   1    -0.140386852316E+03   -0.40874E-03   -0.58206E-02 14208   0.108E+00    0.453E-02
DAV:   2    -0.140386876466E+03   -0.24150E-04   -0.57314E-04 14208   0.104E-01    0.312E-02
DAV:   3    -0.140386874304E+03    0.21622E-05   -0.34338E-05 14208   0.246E-02    0.866E-03
DAV:   4    -0.140386875241E+03   -0.93677E-06   -0.44754E-06 14400   0.851E-03
  29 F= -.14225816E+03 E0= -.14225701E+03  d E =-.640952E-04  mag=     0.0000
       N       E                     dE             d eps       ncg     rms          rms(c)
DAV:   1    -0.140387042936E+03   -0.16863E-03   -0.97807E-03 14208   0.444E-01    0.185E-02
DAV:   2    -0.140387047119E+03   -0.41827E-05   -0.10043E-04 22176   0.439E-02    0.130E-02
DAV:   3    -0.140387047145E+03   -0.26459E-07   -0.51506E-06 14208   0.963E-03
  30 F= -.14225819E+03 E0= -.14225704E+03  d E =-.288126E-04  mag=    -0.0000
       N       E                     dE             d eps       ncg     rms          rms(c)
DAV:   1    -0.140387173795E+03   -0.12668E-03   -0.69935E-03 14208   0.376E-01    0.161E-02
DAV:   2    -0.140387176642E+03   -0.28469E-05   -0.69851E-05 14688   0.371E-02    0.112E-02
DAV:   3    -0.140387176884E+03   -0.24193E-06   -0.45859E-06 15696   0.969E-03
  31 F= -.14225820E+03 E0= -.14225705E+03  d E =-.374285E-04  mag=     0.0000
       N       E                     dE             d eps       ncg     rms          rms(c)
DAV:   1    -0.140387342832E+03   -0.16619E-03   -0.13067E-02 14208   0.515E-01    0.215E-02
DAV:   2    -0.140387348288E+03   -0.54564E-05   -0.12001E-04 14400   0.485E-02    0.151E-02
DAV:   3    -0.140387348482E+03   -0.19354E-06   -0.68338E-06 15312   0.118E-02
  32 F= -.14225822E+03 E0= -.14225708E+03  d E =-.253937E-04  mag=     0.0000
       N       E                     dE             d eps       ncg     rms          rms(c)
DAV:   1    -0.140387549394E+03   -0.20111E-03   -0.23765E-02 14208   0.694E-01    0.287E-02
DAV:   2    -0.140387559967E+03   -0.10573E-04   -0.21820E-04 14208   0.652E-02    0.202E-02
DAV:   3    -0.140387559899E+03    0.67291E-07   -0.12180E-05 14304   0.157E-02    0.575E-03
DAV:   4    -0.140387560255E+03   -0.35557E-06   -0.21007E-06 15168   0.752E-03
  33 F= -.14225824E+03 E0= -.14225709E+03  d E =-.399775E-04  mag=    -0.0000
       N       E                     dE             d eps       ncg     rms          rms(c)
DAV:   1    -0.140387678363E+03   -0.11846E-03   -0.77875E-03 14208   0.398E-01    0.165E-02
DAV:   2    -0.140387681717E+03   -0.33541E-05   -0.72673E-05 14496   0.377E-02    0.117E-02
DAV:   3    -0.140387681868E+03   -0.15045E-06   -0.43210E-06 14208   0.937E-03
  34 F= -.14225826E+03 E0= -.14225711E+03  d E =-.243445E-04  mag=    -0.0000
       N       E                     dE             d eps       ncg     rms          rms(c)
DAV:   1    -0.140387948955E+03   -0.26724E-03   -0.55485E-02 14208   0.106E+00    0.440E-02
DAV:   2    -0.140387973622E+03   -0.24667E-04   -0.49499E-04 14208   0.983E-02    0.307E-02
DAV:   3    -0.140387971135E+03    0.24874E-05   -0.29467E-05 14208   0.233E-02    0.843E-03
DAV:   4    -0.140387971879E+03   -0.74377E-06   -0.40622E-06 14304   0.921E-03
  35 F= -.14225829E+03 E0= -.14225714E+03  d E =-.545469E-04  mag=     0.0000
       N       E                     dE             d eps       ncg     rms          rms(c)
DAV:   1    -0.140388110772E+03   -0.13964E-03   -0.14367E-02 14208   0.540E-01    0.225E-02
DAV:   2    -0.140388116574E+03   -0.58021E-05   -0.12390E-04 14208   0.495E-02    0.156E-02
DAV:   3    -0.140388116202E+03    0.37192E-06   -0.76509E-06 14304   0.127E-02
  36 F= -.14225832E+03 E0= -.14225717E+03  d E =-.311755E-04  mag=    -0.0000
       N       E                     dE             d eps       ncg     rms          rms(c)
DAV:   1    -0.140388477240E+03   -0.36067E-03   -0.12896E-01 14208   0.162E+00    0.675E-02
DAV:   2    -0.140388529733E+03   -0.52493E-04   -0.10724E-03 14208   0.145E-01    0.465E-02
DAV:   3    -0.140388521861E+03    0.78719E-05   -0.64210E-05 14208   0.341E-02    0.122E-02
DAV:   4    -0.140388523211E+03   -0.13497E-05   -0.81889E-06 14208   0.135E-02    0.374E-03
DAV:   5    -0.140388522959E+03    0.25148E-06   -0.23588E-06 14496   0.851E-03
  37 F= -.14225839E+03 E0= -.14225723E+03  d E =-.985585E-04  mag=    -0.0000
       N       E                     dE             d eps       ncg     rms          rms(c)
DAV:   1    -0.140389034850E+03   -0.51164E-03   -0.51601E-01 14208   0.323E+00    0.134E-01
DAV:   2    -0.140389249620E+03   -0.21477E-03   -0.43662E-03 16512   0.290E-01    0.928E-02
DAV:   3    -0.140389211255E+03    0.38365E-04   -0.25260E-04 14880   0.650E-02    0.237E-02
DAV:   4    -0.140389215112E+03   -0.38577E-05   -0.28160E-05 15888   0.207E-02    0.713E-03
DAV:   5    -0.140389214874E+03    0.23872E-06   -0.38222E-06 14784   0.796E-03
  38 F= -.14225840E+03 E0= -.14225723E+03  d E =-.112655E-03  mag=    -0.0000
       N       E                     dE             d eps       ncg     rms          rms(c)
DAV:   1    -0.140388921271E+03    0.29384E-03   -0.87292E-02 14208   0.133E+00    0.554E-02
DAV:   2    -0.140388954585E+03   -0.33314E-04   -0.72707E-04 14736   0.119E-01    0.382E-02
DAV:   3    -0.140388949592E+03    0.49928E-05   -0.44379E-05 17568   0.279E-02    0.995E-03
DAV:   4    -0.140388950440E+03   -0.84756E-06   -0.49928E-06 14208   0.103E-02
  39 F= -.14225842E+03 E0= -.14225725E+03  d E =-.126903E-03  mag=    -0.0000
       N       E                     dE             d eps       ncg     rms          rms(c)
DAV:   1    -0.140389024623E+03   -0.75031E-04   -0.37150E-03 14208   0.275E-01    0.111E-02
DAV:   2    -0.140389026076E+03   -0.14521E-05   -0.32367E-05 14304   0.258E-02    0.779E-03
DAV:   3    -0.140389025639E+03    0.43621E-06   -0.27050E-06 14352   0.864E-03
  40 F= -.14225843E+03 E0= -.14225727E+03  d E =-.155085E-04  mag=     0.0000
       N       E                     dE             d eps       ncg     rms          rms(c)
DAV:   1    -0.140389237100E+03   -0.21102E-03   -0.33681E-02 14208   0.826E-01    0.346E-02
DAV:   2    -0.140389251092E+03   -0.13992E-04   -0.28413E-04 14400   0.742E-02    0.242E-02
DAV:   3    -0.140389249696E+03    0.13968E-05   -0.17595E-05 14400   0.187E-02    0.590E-03
DAV:   4    -0.140389250104E+03   -0.40814E-06   -0.33575E-06 14208   0.100E-02
  41 F= -.14225848E+03 E0= -.14225731E+03  d E =-.609590E-04  mag=     0.0000
       N       E                     dE             d eps       ncg     rms          rms(c)
DAV:   1    -0.140389637745E+03   -0.38805E-03   -0.13494E-01 14208   0.165E+00    0.694E-02
DAV:   2    -0.140389693869E+03   -0.56124E-04   -0.11266E-03 14784   0.147E-01    0.482E-02
DAV:   3    -0.140389686309E+03    0.75605E-05   -0.67747E-05 14496   0.347E-02    0.114E-02
DAV:   4    -0.140389687462E+03   -0.11532E-05   -0.84261E-06 14208   0.139E-02    0.367E-03
DAV:   5    -0.140389687274E+03    0.18804E-06   -0.25079E-06 14304   0.873E-03
  42 F= -.14225856E+03 E0= -.14225739E+03  d E =-.140392E-03  mag=     0.0000
       N       E                     dE             d eps       ncg     rms          rms(c)
DAV:   1    -0.140390317552E+03   -0.63009E-03   -0.53939E-01 14208   0.330E+00    0.138E-01
DAV:   2    -0.140390548237E+03   -0.23068E-03   -0.45428E-03 16704   0.294E-01    0.962E-02
DAV:   3    -0.140390510505E+03    0.37732E-04   -0.26650E-04 14544   0.664E-02    0.220E-02
DAV:   4    -0.140390513930E+03   -0.34254E-05   -0.28133E-05 16944   0.209E-02    0.702E-03
DAV:   5    -0.140390513734E+03    0.19609E-06   -0.38699E-06 14592   0.805E-03
  43 F= -.14225867E+03 E0= -.14225749E+03  d E =-.252240E-03  mag=     0.0000
       N       E                     dE             d eps       ncg     rms          rms(c)
DAV:   1    -0.140391238888E+03   -0.72496E-03   -0.21577E+00 14208   0.661E+00    0.277E-01
DAV:   2    -0.140392139485E+03   -0.90060E-03   -0.17681E-02 15168   0.583E-01    0.191E-01
DAV:   3    -0.140391965908E+03    0.17358E-03   -0.10690E-03 15648   0.134E-01    0.452E-02
DAV:   4    -0.140391976696E+03   -0.10788E-04   -0.10713E-04 18240   0.409E-02    0.141E-02
DAV:   5    -0.140391975606E+03    0.10905E-05   -0.15192E-05 15216   0.155E-02    0.449E-03
DAV:   6    -0.140391975797E+03   -0.19098E-06   -0.28254E-06 14784   0.929E-03
  44 F= -.14225871E+03 E0= -.14225752E+03  d E =-.289309E-03  mag=     0.0000
       N       E                     dE             d eps       ncg     rms          rms(c)
DAV:   1    -0.140391406919E+03    0.56869E-03   -0.25831E-01 14208   0.229E+00    0.958E-02
DAV:   2    -0.140391516675E+03   -0.10976E-03   -0.21714E-03 17472   0.203E-01    0.670E-02
DAV:   3    -0.140391497288E+03    0.19387E-04   -0.12133E-04 14208   0.439E-02    0.145E-02
DAV:   4    -0.140391498846E+03   -0.15577E-05   -0.13650E-05 14400   0.142E-02    0.473E-03
DAV:   5    -0.140391498953E+03   -0.10772E-06   -0.15810E-06 15648   0.500E-03
  45 F= -.14225872E+03 E0= -.14225754E+03  d E =-.304902E-03  mag=    -0.0000
       N       E                     dE             d eps       ncg     rms          rms(c)
DAV:   1    -0.140391875844E+03   -0.37700E-03   -0.14979E-01 14208   0.174E+00    0.732E-02
DAV:   2    -0.140391935889E+03   -0.60045E-04   -0.12272E-03 14208   0.154E-01    0.507E-02
DAV:   3    -0.140391927176E+03    0.87128E-05   -0.72834E-05 14208   0.356E-02    0.123E-02
DAV:   4    -0.140391928593E+03   -0.14169E-05   -0.73020E-06 15264   0.112E-02    0.379E-03
DAV:   5    -0.140391928469E+03    0.12448E-06   -0.12351E-06 15840   0.523E-03
  46 F= -.14225881E+03 E0= -.14225761E+03  d E =-.829300E-04  mag=     0.0000
       N       E                     dE             d eps       ncg     rms          rms(c)
DAV:   1    -0.140392132810E+03   -0.20422E-03   -0.55885E-02 14208   0.106E+00    0.446E-02
DAV:   2    -0.140392156103E+03   -0.23292E-04   -0.47043E-04 14592   0.951E-02    0.310E-02
DAV:   3    -0.140392153532E+03    0.25712E-05   -0.27492E-05 14208   0.221E-02    0.762E-03
DAV:   4    -0.140392154143E+03   -0.61110E-06   -0.29370E-06 14592   0.755E-03
  47 F= -.14225882E+03 E0= -.14225762E+03  d E =-.970846E-04  mag=     0.0000
       N       E                     dE             d eps       ncg     rms          rms(c)
DAV:   1    -0.140392410177E+03   -0.25665E-03   -0.83066E-02 14208   0.130E+00    0.538E-02
DAV:   2    -0.140392446479E+03   -0.36301E-04   -0.66980E-04 14208   0.114E-01    0.376E-02
DAV:   3    -0.140392442462E+03    0.40170E-05   -0.36891E-05 14208   0.262E-02    0.937E-03
DAV:   4    -0.140392443289E+03   -0.82718E-06   -0.43693E-06 14208   0.101E-02
  48 F= -.14225889E+03 E0= -.14225769E+03  d E =-.710671E-04  mag=     0.0000
       N       E                     dE             d eps       ncg     rms          rms(c)
DAV:   1    -0.140392579612E+03   -0.13715E-03   -0.26408E-02 14208   0.733E-01    0.305E-02
DAV:   2    -0.140392591359E+03   -0.11746E-04   -0.21648E-04 14208   0.653E-02    0.213E-02
DAV:   3    -0.140392590512E+03    0.84671E-06   -0.12715E-05 14400   0.169E-02    0.551E-03
DAV:   4    -0.140392590842E+03   -0.32995E-06   -0.32172E-06 14208   0.102E-02
  49 F= -.14225892E+03 E0= -.14225771E+03  d E =-.958057E-04  mag=     0.0000
       N       E                     dE             d eps       ncg     rms          rms(c)
DAV:   1    -0.140392810769E+03   -0.22026E-03   -0.10539E-01 14208   0.146E+00    0.605E-02
DAV:   2    -0.140392857677E+03   -0.46909E-04   -0.85082E-04 14400   0.128E-01    0.423E-02
DAV:   3    -0.140392852399E+03    0.52782E-05   -0.46503E-05 14304   0.295E-02    0.106E-02
DAV:   4    -0.140392853357E+03   -0.95821E-06   -0.56103E-06 14592   0.116E-02
  50 F= -.14225893E+03 E0= -.14225772E+03  d E =-.112851E-03  mag=     0.0000
       N       E                     dE             d eps       ncg     rms          rms(c)
DAV:   1    -0.140393047132E+03   -0.19473E-03   -0.86409E-02 14208   0.133E+00    0.544E-02
DAV:   2    -0.140393087494E+03   -0.40362E-04   -0.68673E-04 14400   0.116E-01    0.383E-02
DAV:   3    -0.140393082854E+03    0.46395E-05   -0.37922E-05 14400   0.284E-02    0.100E-02
DAV:   4    -0.140393083362E+03   -0.50754E-06   -0.71894E-06 14208   0.147E-02
  51 F= -.14225898E+03 E0= -.14225776E+03  d E =-.443930E-04  mag=     0.0000
       N       E                     dE             d eps       ncg     rms          rms(c)
DAV:   1    -0.140393094013E+03   -0.11158E-04   -0.28431E-04 14208   0.771E-02    0.368E-03
DAV:   2    -0.140393094302E+03   -0.28964E-06   -0.42454E-06 14592   0.117E-02
  52 F= -.14225898E+03 E0= -.14225776E+03  d E =-.448534E-04  mag=     0.0000
       N       E                     dE             d eps       ncg     rms          rms(c)
DAV:   1    -0.140393104989E+03   -0.10976E-04   -0.31214E-03 14208   0.255E-01    0.112E-02
DAV:   2    -0.140393105908E+03   -0.91915E-06   -0.24404E-05 14208   0.229E-02    0.774E-03
DAV:   3    -0.140393105943E+03   -0.34403E-07   -0.29890E-06 14688   0.968E-03
  53 F= -.14225900E+03 E0= -.14225778E+03  d E =-.230984E-04  mag=    -0.0000
       N       E                     dE             d eps       ncg     rms          rms(c)
DAV:   1    -0.140393094802E+03    0.11106E-04   -0.15831E-02 14208   0.575E-01    0.232E-02
DAV:   2    -0.140393100465E+03   -0.56632E-05   -0.11909E-04 14208   0.486E-02    0.161E-02
DAV:   3    -0.140393100582E+03   -0.11651E-06   -0.82134E-06 15072   0.143E-02
  54 F= -.14225902E+03 E0= -.14225780E+03  d E =-.435408E-04  mag=     0.0000
       N       E                     dE             d eps       ncg     rms          rms(c)
DAV:   1    -0.140393079716E+03    0.20749E-04   -0.22033E-03 14208   0.211E-01    0.926E-03
DAV:   2    -0.140393080622E+03   -0.90530E-06   -0.20330E-05 14208   0.214E-02    0.637E-03
DAV:   3    -0.140393080385E+03    0.23623E-06   -0.27888E-06 16128   0.952E-03
  55 F= -.14225904E+03 E0= -.14225782E+03  d E =-.168050E-04  mag=    -0.0000
       N       E                     dE             d eps       ncg     rms          rms(c)
DAV:   1    -0.140392993895E+03    0.86727E-04   -0.19834E-02 14208   0.634E-01    0.272E-02
DAV:   2    -0.140393001168E+03   -0.72735E-05   -0.17110E-04 14208   0.582E-02    0.186E-02
DAV:   3    -0.140393000307E+03    0.86143E-06   -0.12448E-05 15264   0.167E-02    0.499E-03
DAV:   4    -0.140393000637E+03   -0.33025E-06   -0.38053E-06 14208   0.111E-02
  56 F= -.14225907E+03 E0= -.14225785E+03  d E =-.481074E-04  mag=    -0.0000
       N       E                     dE             d eps       ncg     rms          rms(c)
DAV:   1    -0.140392970460E+03    0.29847E-04   -0.41869E-03 14208   0.290E-01    0.130E-02
DAV:   2    -0.140392971910E+03   -0.14495E-05   -0.38397E-05 14208   0.282E-02    0.879E-03
DAV:   3    -0.140392971515E+03    0.39492E-06   -0.43834E-06 15648   0.108E-02
  57 F= -.14225911E+03 E0= -.14225789E+03  d E =-.355402E-04  mag=     0.0000
       N       E                     dE             d eps       ncg     rms          rms(c)
DAV:   1    -0.140392838577E+03    0.13333E-03   -0.37576E-02 14208   0.869E-01    0.387E-02
DAV:   2    -0.140392849987E+03   -0.11410E-04   -0.33028E-04 14592   0.803E-02    0.260E-02
DAV:   3    -0.140392849128E+03    0.85821E-06   -0.27699E-05 14928   0.228E-02    0.586E-03
DAV:   4    -0.140392849530E+03   -0.40131E-06   -0.64757E-06 14784   0.139E-02
  58 F= -.14225918E+03 E0= -.14225796E+03  d E =-.107648E-03  mag=     0.0000
       N       E                     dE             d eps       ncg     rms          rms(c)
DAV:   1    -0.140392404996E+03    0.44413E-03   -0.15036E-01 14208   0.174E+00    0.774E-02
DAV:   2    -0.140392454674E+03   -0.49678E-04   -0.13151E-03 17136   0.159E-01    0.521E-02
DAV:   3    -0.140392444802E+03    0.98720E-05   -0.10031E-04 16032   0.399E-02    0.111E-02
DAV:   4    -0.140392445972E+03   -0.11704E-05   -0.15321E-05 15456   0.195E-02    0.457E-03
DAV:   5    -0.140392446000E+03   -0.28220E-07   -0.62070E-06 15168   0.142E-02
  59 F= -.14225916E+03 E0= -.14225795E+03  d E =-.928186E-04  mag=     0.0000
       N       E                     dE             d eps       ncg     rms          rms(c)
DAV:   1    -0.140392691884E+03   -0.24591E-03   -0.50447E-02 14208   0.101E+00    0.444E-02
DAV:   2    -0.140392708283E+03   -0.16399E-04   -0.44976E-04 16848   0.928E-02    0.301E-02
DAV:   3    -0.140392705933E+03    0.23501E-05   -0.34709E-05 15168   0.232E-02    0.635E-03
DAV:   4    -0.140392706422E+03   -0.48873E-06   -0.45838E-06 15648   0.100E-02
  60 F= -.14225920E+03 E0= -.14225798E+03  d E =-.127812E-03  mag=    -0.0000
       N       E                     dE             d eps       ncg     rms          rms(c)
DAV:   1    -0.140392682583E+03    0.23349E-04   -0.12810E-03 15168   0.161E-01    0.687E-03
DAV:   2    -0.140392683103E+03   -0.51926E-06   -0.12185E-05 14688   0.168E-02    0.456E-03
DAV:   3    -0.140392682821E+03    0.28134E-06   -0.24719E-06 14304   0.874E-03
  61 F= -.14225921E+03 E0= -.14225800E+03  d E =-.138124E-04  mag=     0.0000
       N       E                     dE             d eps       ncg     rms          rms(c)
DAV:   1    -0.140392603124E+03    0.79979E-04   -0.11614E-02 14256   0.483E-01    0.213E-02
DAV:   2    -0.140392606398E+03   -0.32738E-05   -0.10367E-04 15456   0.451E-02    0.144E-02
DAV:   3    -0.140392606162E+03    0.23510E-06   -0.91882E-06 14976   0.136E-02
  62 F= -.14225925E+03 E0= -.14225803E+03  d E =-.494289E-04  mag=    -0.0000
       N       E                     dE             d eps       ncg     rms          rms(c)
DAV:   1    -0.140392412238E+03    0.19416E-03   -0.46511E-02 14208   0.965E-01    0.430E-02
DAV:   2    -0.140392426405E+03   -0.14167E-04   -0.40991E-04 15312   0.891E-02    0.289E-02
DAV:   3    -0.140392425189E+03    0.12159E-05   -0.33773E-05 14976   0.245E-02    0.631E-03
DAV:   4    -0.140392425621E+03   -0.43253E-06   -0.69504E-06 14208   0.140E-02
  63 F= -.14225929E+03 E0= -.14225808E+03  d E =-.936422E-04  mag=    -0.0000
       N       E                     dE             d eps       ncg     rms          rms(c)
DAV:   1    -0.140391908791E+03    0.51640E-03   -0.18606E-01 14208   0.193E+00    0.857E-02
DAV:   2    -0.140391969104E+03   -0.60314E-04   -0.16343E-03 17328   0.177E-01    0.575E-02
DAV:   3    -0.140391955819E+03    0.13286E-04   -0.12768E-04 16224   0.445E-02    0.121E-02
DAV:   4    -0.140391957005E+03   -0.11867E-05   -0.19143E-05 15360   0.214E-02    0.504E-03
DAV:   5    -0.140391957017E+03   -0.11612E-07   -0.73289E-06 14976   0.153E-02
  64 F= -.14225927E+03 E0= -.14225806E+03  d E =-.751523E-04  mag=    -0.0000
       N       E                     dE             d eps       ncg     rms          rms(c)
DAV:   1    -0.140392256974E+03   -0.29997E-03   -0.78617E-02 14208   0.126E+00    0.551E-02
DAV:   2    -0.140392281713E+03   -0.24739E-04   -0.70396E-04 16944   0.116E-01    0.372E-02
DAV:   3    -0.140392277757E+03    0.39565E-05   -0.55341E-05 15264   0.288E-02    0.778E-03
DAV:   4    -0.140392278478E+03   -0.72167E-06   -0.69620E-06 15840   0.118E-02
  65 F= -.14225930E+03 E0= -.14225809E+03  d E =-.103734E-03  mag=     0.0000
       N       E                     dE             d eps       ncg     rms          rms(c)
DAV:   1    -0.140392242989E+03    0.34768E-04   -0.36072E-03 15792   0.268E-01    0.117E-02
DAV:   2    -0.140392243726E+03   -0.73677E-06   -0.32162E-05 14880   0.261E-02    0.762E-03
DAV:   3    -0.140392243429E+03    0.29679E-06   -0.48201E-06 14304   0.115E-02
  66 F= -.14225934E+03 E0= -.14225812E+03  d E =-.348608E-04  mag=    -0.0000
       N       E                     dE             d eps       ncg     rms          rms(c)
DAV:   1    -0.140392103572E+03    0.14015E-03   -0.32687E-02 14208   0.806E-01    0.359E-02
DAV:   2    -0.140392112673E+03   -0.91007E-05   -0.29847E-04 16032   0.765E-02    0.239E-02
DAV:   3    -0.140392111080E+03    0.15933E-05   -0.25999E-05 14880   0.220E-02    0.566E-03
DAV:   4    -0.140392111612E+03   -0.53250E-06   -0.66309E-06 14208   0.139E-02
  67 F= -.14225941E+03 E0= -.14225820E+03  d E =-.112880E-03  mag=    -0.0000
       N       E                     dE             d eps       ncg     rms          rms(c)
DAV:   1    -0.140391697277E+03    0.41380E-03   -0.13083E-01 14208   0.161E+00    0.718E-02
DAV:   2    -0.140391734487E+03   -0.37210E-04   -0.11784E-03 17424   0.151E-01    0.476E-02
DAV:   3    -0.140391724512E+03    0.99755E-05   -0.96083E-05 15936   0.387E-02    0.107E-02
DAV:   4    -0.140391725576E+03   -0.10640E-05   -0.15338E-05 15072   0.189E-02    0.446E-03
DAV:   5    -0.140391725691E+03   -0.11532E-06   -0.57280E-06 14976   0.135E-02
  68 F= -.14225945E+03 E0= -.14225824E+03  d E =-.147120E-03  mag=     0.0000
       N       E                     dE             d eps       ncg     rms          rms(c)
DAV:   1    -0.140391853880E+03   -0.12830E-03   -0.11305E-02 14256   0.474E-01    0.209E-02
DAV:   2    -0.140391856709E+03   -0.28291E-05   -0.10499E-04 16320   0.452E-02    0.139E-02
DAV:   3    -0.140391856280E+03    0.42914E-06   -0.91163E-06 14976   0.127E-02
  69 F= -.14225946E+03 E0= -.14225825E+03  d E =-.153993E-03  mag=    -0.0000
       N       E                     dE             d eps       ncg     rms          rms(c)
DAV:   1    -0.140391804479E+03    0.52230E-04   -0.50831E-03 14448   0.318E-01    0.137E-02
DAV:   2    -0.140391805613E+03   -0.11333E-05   -0.49383E-05 14208   0.313E-02    0.901E-03
DAV:   3    -0.140391805194E+03    0.41874E-06   -0.48814E-06 14208   0.104E-02
  70 F= -.14225950E+03 E0= -.14225828E+03  d E =-.395733E-04  mag=     0.0000
       N       E                     dE             d eps       ncg     rms          rms(c)
DAV:   1    -0.140391596752E+03    0.20886E-03   -0.45906E-02 14208   0.956E-01    0.430E-02
DAV:   2    -0.140391609796E+03   -0.13044E-04   -0.42671E-04 15648   0.908E-02    0.286E-02
DAV:   3    -0.140391607698E+03    0.20978E-05   -0.34329E-05 15072   0.243E-02    0.696E-03
DAV:   4    -0.140391608364E+03   -0.66536E-06   -0.69065E-06 14208   0.137E-02
  71 F= -.14225957E+03 E0= -.14225836E+03  d E =-.114922E-03  mag=     0.0000
       N       E                     dE             d eps       ncg     rms          rms(c)
DAV:   1    -0.140390973354E+03    0.63434E-03   -0.18368E-01 14208   0.191E+00    0.858E-02
DAV:   2    -0.140391027538E+03   -0.54184E-04   -0.16992E-03 17520   0.180E-01    0.569E-02
DAV:   3    -0.140391015112E+03    0.12426E-04   -0.12826E-04 15744   0.444E-02    0.135E-02
DAV:   4    -0.140391016897E+03   -0.17847E-05   -0.19966E-05 16320   0.211E-02    0.525E-03
DAV:   5    -0.140391017114E+03   -0.21721E-06   -0.61781E-06 14784   0.140E-02
  72 F= -.14225952E+03 E0= -.14225831E+03  d E =-.686508E-04  mag=    -0.0000
       N       E                     dE             d eps       ncg     rms          rms(c)
DAV:   1    -0.140391431182E+03   -0.41429E-03   -0.87065E-02 14208   0.132E+00    0.586E-02
DAV:   2    -0.140391456374E+03   -0.25191E-04   -0.81957E-04 16656   0.125E-01    0.390E-02
DAV:   3    -0.140391451870E+03    0.45040E-05   -0.62962E-05 14928   0.310E-02    0.934E-03
DAV:   4    -0.140391453008E+03   -0.11384E-05   -0.86042E-06 16032   0.129E-02    0.362E-03
DAV:   5    -0.140391453027E+03   -0.18492E-07   -0.21867E-06 15168   0.816E-03
  73 F= -.14225958E+03 E0= -.14225837E+03  d E =-.128964E-03  mag=     0.0000
       N       E                     dE             d eps       ncg     rms          rms(c)
DAV:   1    -0.140391403334E+03    0.49674E-04   -0.27043E-03 14688   0.230E-01    0.108E-02
DAV:   2    -0.140391404035E+03   -0.70097E-06   -0.28604E-05 14784   0.237E-02    0.718E-03
DAV:   3    -0.140391403678E+03    0.35765E-06   -0.30629E-06 14304   0.837E-03
  74 F= -.14225961E+03 E0= -.14225840E+03  d E =-.279841E-04  mag=    -0.0000
       N       E                     dE             d eps       ncg     rms          rms(c)
DAV:   1    -0.140391239344E+03    0.16469E-03   -0.16719E-02 14208   0.572E-01    0.271E-02
DAV:   2    -0.140391244114E+03   -0.47701E-05   -0.17575E-04 14208   0.581E-02    0.181E-02
DAV:   3    -0.140391243296E+03    0.81778E-06   -0.15915E-05 14208   0.175E-02    0.439E-03
DAV:   4    -0.140391243638E+03   -0.34153E-06   -0.39372E-06 14208   0.107E-02
  75 F= -.14225964E+03 E0= -.14225843E+03  d E =-.601339E-04  mag=    -0.0000
       N       E                     dE             d eps       ncg     rms          rms(c)
DAV:   1    -0.140391193206E+03    0.50090E-04   -0.22658E-03 14208   0.213E-01    0.957E-03
DAV:   2    -0.140391194048E+03   -0.84172E-06   -0.25148E-05 14208   0.232E-02    0.632E-03
DAV:   3    -0.140391193732E+03    0.31648E-06   -0.30758E-06 14208   0.932E-03
  76 F= -.14225967E+03 E0= -.14225846E+03  d E =-.231893E-04  mag=     0.0000
       N       E                     dE             d eps       ncg     rms          rms(c)
DAV:   1    -0.140391065138E+03    0.12891E-03   -0.89423E-03 14208   0.424E-01    0.188E-02
DAV:   2    -0.140391067894E+03   -0.27564E-05   -0.93140E-05 14208   0.432E-02    0.124E-02
DAV:   3    -0.140391067543E+03    0.35136E-06   -0.84394E-06 14208   0.140E-02
  77 F= -.14225969E+03 E0= -.14225848E+03  d E =-.424795E-04  mag=    -0.0000
       N       E                     dE             d eps       ncg     rms          rms(c)
DAV:   1    -0.140390975246E+03    0.92648E-04   -0.42556E-03 14208   0.293E-01    0.131E-02
DAV:   2    -0.140390976844E+03   -0.15977E-05   -0.47100E-05 14208   0.317E-02    0.871E-03
DAV:   3    -0.140390976647E+03    0.19687E-06   -0.53342E-06 14496   0.124E-02
  78 F= -.14225971E+03 E0= -.14225850E+03  d E =-.201647E-04  mag=     0.0000
       N       E                     dE             d eps       ncg     rms          rms(c)
DAV:   1    -0.140390915759E+03    0.61085E-04   -0.14139E-03 14208   0.169E-01    0.769E-03
DAV:   2    -0.140390916404E+03   -0.64524E-06   -0.17481E-05 14208   0.209E-02    0.513E-03
DAV:   3    -0.140390916243E+03    0.16118E-06   -0.37715E-06 14496   0.112E-02
  79 F= -.14225971E+03 E0= -.14225850E+03  d E =-.236887E-04  mag=    -0.0000
       N       E                     dE             d eps       ncg     rms          rms(c)
DAV:   1    -0.140390827068E+03    0.89336E-04   -0.25970E-03 14208   0.229E-01    0.979E-03
DAV:   2    -0.140390828375E+03   -0.13066E-05   -0.34385E-05 14640   0.270E-02    0.682E-03
DAV:   3    -0.140390828012E+03    0.36314E-06   -0.41286E-06 14496   0.106E-02
  80 F= -.14225973E+03 E0= -.14225852E+03  d E =-.154925E-04  mag=     0.0000
       N       E                     dE             d eps       ncg     rms          rms(c)
DAV:   1    -0.140390726399E+03    0.10198E-03   -0.27481E-03 14208   0.235E-01    0.104E-02
DAV:   2    -0.140390727780E+03   -0.13806E-05   -0.36548E-05 14304   0.281E-02    0.725E-03
DAV:   3    -0.140390727423E+03    0.35622E-06   -0.48393E-06 14304   0.116E-02
  81 F= -.14225973E+03 E0= -.14225852E+03  d E =-.214442E-04  mag=    -0.0000
       N       E                     dE             d eps       ncg     rms          rms(c)
DAV:   1    -0.140390653352E+03    0.74428E-04   -0.15532E-03 14208   0.175E-01    0.792E-03
DAV:   2    -0.140390654151E+03   -0.79939E-06   -0.19986E-05 14304   0.215E-02    0.543E-03
DAV:   3    -0.140390653910E+03    0.24143E-06   -0.32668E-06 14352   0.104E-02
  82 F= -.14225975E+03 E0= -.14225854E+03  d E =-.141549E-04  mag=     0.0000
       N       E                     dE             d eps       ncg     rms          rms(c)
DAV:   1    -0.140390418748E+03    0.23540E-03   -0.13914E-02 14208   0.523E-01    0.224E-02
DAV:   2    -0.140390424734E+03   -0.59860E-05   -0.16187E-04 14592   0.557E-02    0.152E-02
DAV:   3    -0.140390424316E+03    0.41817E-06   -0.11107E-05 14400   0.163E-02    0.502E-03
DAV:   4    -0.140390424507E+03   -0.19099E-06   -0.54450E-06 15264   0.134E-02
  83 F= -.14225978E+03 E0= -.14225857E+03  d E =-.478237E-04  mag=     0.0000
       N       E                     dE             d eps       ncg     rms          rms(c)
DAV:   1    -0.140389904683E+03    0.51963E-03   -0.55704E-02 14208   0.105E+00    0.447E-02
DAV:   2    -0.140389927611E+03   -0.22928E-04   -0.64173E-04 17472   0.108E-01    0.304E-02
DAV:   3    -0.140389925888E+03    0.17230E-05   -0.34662E-05 15120   0.246E-02    0.957E-03
DAV:   4    -0.140389926099E+03   -0.21138E-06   -0.71650E-06 18000   0.131E-02
  84 F= -.14225981E+03 E0= -.14225860E+03  d E =-.757792E-04  mag=     0.0000
       N       E                     dE             d eps       ncg     rms          rms(c)
DAV:   1    -0.140389843369E+03    0.82519E-04   -0.18169E-03 14592   0.189E-01    0.837E-03
DAV:   2    -0.140389844646E+03   -0.12768E-05   -0.24533E-05 14304   0.231E-02    0.573E-03
DAV:   3    -0.140389844211E+03    0.43457E-06   -0.31177E-06 14592   0.996E-03
  85 F= -.14225982E+03 E0= -.14225862E+03  d E =-.139721E-04  mag=    -0.0000
       N       E                     dE             d eps       ncg     rms          rms(c)
DAV:   1    -0.140389579818E+03    0.26483E-03   -0.16199E-02 14208   0.563E-01    0.245E-02
DAV:   2    -0.140389587339E+03   -0.75215E-05   -0.19600E-04 16128   0.610E-02    0.167E-02
DAV:   3    -0.140389586327E+03    0.10126E-05   -0.12651E-05 15024   0.167E-02    0.554E-03
DAV:   4    -0.140389586410E+03   -0.83407E-07   -0.55004E-06 15072   0.132E-02
  86 F= -.14225985E+03 E0= -.14225865E+03  d E =-.437974E-04  mag=    -0.0000
       N       E                     dE             d eps       ncg     rms          rms(c)
DAV:   1    -0.140388990367E+03    0.59596E-03   -0.64853E-02 14208   0.113E+00    0.489E-02
DAV:   2    -0.140389017585E+03   -0.27218E-04   -0.77313E-04 17952   0.119E-01    0.333E-02
DAV:   3    -0.140389013998E+03    0.35872E-05   -0.42540E-05 15216   0.267E-02    0.106E-02
DAV:   4    -0.140389014460E+03   -0.46292E-06   -0.81650E-06 18576   0.131E-02
  87 F= -.14225986E+03 E0= -.14225866E+03  d E =-.473749E-04  mag=    -0.0000
       N       E                     dE             d eps       ncg     rms          rms(c)
DAV:   1    -0.140389293974E+03   -0.27998E-03   -0.15017E-02 14208   0.542E-01    0.231E-02
DAV:   2    -0.140389300282E+03   -0.63080E-05   -0.18361E-04 14784   0.588E-02    0.157E-02
DAV:   3    -0.140389299732E+03    0.54937E-06   -0.12292E-05 14976   0.163E-02    0.542E-03
DAV:   4    -0.140389299802E+03   -0.70024E-07   -0.45667E-06 14784   0.121E-02
  88 F= -.14225986E+03 E0= -.14225866E+03  d E =-.551826E-04  mag=    -0.0000
       N       E                     dE             d eps       ncg     rms          rms(c)
DAV:   1    -0.140389155174E+03    0.14456E-03   -0.53044E-03 14304   0.322E-01    0.133E-02
DAV:   2    -0.140389157609E+03   -0.24352E-05   -0.65051E-05 15648   0.349E-02    0.913E-03
DAV:   3    -0.140389157139E+03    0.47016E-06   -0.40663E-06 14688   0.935E-03
  89 F= -.14225989E+03 E0= -.14225869E+03  d E =-.252570E-04  mag=     0.0000
       N       E                     dE             d eps       ncg     rms          rms(c)
DAV:   1    -0.140388702929E+03    0.45468E-03   -0.47879E-02 14208   0.966E-01    0.419E-02
DAV:   2    -0.140388723982E+03   -0.21053E-04   -0.56676E-04 16368   0.102E-01    0.286E-02
DAV:   3    -0.140388721835E+03    0.21476E-05   -0.32254E-05 15072   0.240E-02    0.891E-03
DAV:   4    -0.140388722016E+03   -0.18081E-06   -0.70293E-06 15552   0.135E-02
  90 F= -.14225996E+03 E0= -.14225876E+03  d E =-.940909E-04  mag=     0.0000
       N       E                     dE             d eps       ncg     rms          rms(c)
DAV:   1    -0.140387755479E+03    0.96636E-03   -0.19163E-01 14208   0.193E+00    0.836E-02
DAV:   2    -0.140387836717E+03   -0.81239E-04   -0.22240E-03 18144   0.201E-01    0.569E-02
DAV:   3    -0.140387825281E+03    0.11436E-04   -0.12026E-04 15216   0.438E-02    0.173E-02
DAV:   4    -0.140387826212E+03   -0.93105E-06   -0.20138E-05 19968   0.187E-02    0.536E-03
DAV:   5    -0.140387826106E+03    0.10535E-06   -0.24549E-06 17328   0.827E-03
  91 F= -.14226007E+03 E0= -.14225888E+03  d E =-.207128E-03  mag=    -0.0000
       N       E                     dE             d eps       ncg     rms          rms(c)
DAV:   1    -0.140385660641E+03    0.21656E-02   -0.76614E-01 14208   0.386E+00    0.166E-01
DAV:   2    -0.140385991996E+03   -0.33136E-03   -0.88269E-03 19296   0.397E-01    0.113E-01
DAV:   3    -0.140385924553E+03    0.67443E-04   -0.47252E-04 15312   0.851E-02    0.338E-02
DAV:   4    -0.140385929537E+03   -0.49843E-05   -0.76582E-05 21168   0.324E-02    0.100E-02
DAV:   5    -0.140385929485E+03    0.52150E-07   -0.50102E-06 20256   0.839E-03
  92 F= -.14226020E+03 E0= -.14225902E+03  d E =-.332416E-03  mag=    -0.0000
       N       E                     dE             d eps       ncg     rms          rms(c)
DAV:   1    -0.140385548519E+03    0.38102E-03   -0.36242E-02 14208   0.842E-01    0.357E-02
DAV:   2    -0.140385564114E+03   -0.15595E-04   -0.42285E-04 17952   0.876E-02    0.242E-02
DAV:   3    -0.140385562265E+03    0.18488E-05   -0.22762E-05 15264   0.192E-02    0.788E-03
DAV:   4    -0.140385562498E+03   -0.23264E-06   -0.38362E-06 18720   0.830E-03
  93 F= -.14226027E+03 E0= -.14225910E+03  d E =-.711207E-04  mag=     0.0000
       N       E                     dE             d eps       ncg     rms          rms(c)
DAV:   1    -0.140384440490E+03    0.11218E-02   -0.24015E-01 14208   0.217E+00    0.935E-02
DAV:   2    -0.140384534983E+03   -0.94493E-04   -0.27086E-03 18720   0.222E-01    0.632E-02
DAV:   3    -0.140384517185E+03    0.17798E-04   -0.15442E-04 15264   0.492E-02    0.189E-02
DAV:   4    -0.140384518781E+03   -0.15957E-05   -0.24760E-05 21216   0.185E-02    0.585E-03
DAV:   5    -0.140384518849E+03   -0.67752E-07   -0.16044E-06 18288   0.501E-03
  94 F= -.14226035E+03 E0= -.14225918E+03  d E =-.155988E-03  mag=    -0.0000
       N       E                     dE             d eps       ncg     rms          rms(c)
DAV:   1    -0.140384063922E+03    0.45486E-03   -0.47321E-02 14208   0.964E-01    0.408E-02
DAV:   2    -0.140384082659E+03   -0.18737E-04   -0.53582E-04 18192   0.987E-02    0.277E-02
DAV:   3    -0.140384080393E+03    0.22663E-05   -0.30044E-05 15360   0.218E-02    0.856E-03
DAV:   4    -0.140384080699E+03   -0.30546E-06   -0.46994E-06 20448   0.832E-03
  95 F= -.14226041E+03 E0= -.14225924E+03  d E =-.572680E-04  mag=     0.0000
       N       E                     dE             d eps       ncg     rms          rms(c)
DAV:   1    -0.140382968332E+03    0.11121E-02   -0.23063E-01 14208   0.213E+00    0.911E-02
DAV:   2    -0.140383058838E+03   -0.90506E-04   -0.25697E-03 18624   0.216E-01    0.616E-02
DAV:   3    -0.140383042747E+03    0.16091E-04   -0.14744E-04 15408   0.482E-02    0.182E-02
DAV:   4    -0.140383044319E+03   -0.15716E-05   -0.23435E-05 20736   0.180E-02    0.573E-03
DAV:   5    -0.140383044382E+03   -0.63773E-07   -0.14233E-06 18576   0.452E-03
  96 F= -.14226047E+03 E0= -.14225930E+03  d E =-.115567E-03  mag=    -0.0000
       N       E                     dE             d eps       ncg     rms          rms(c)
DAV:   1    -0.140382480732E+03    0.56359E-03   -0.75660E-02 14208   0.122E+00    0.519E-02
DAV:   2    -0.140382511218E+03   -0.30486E-04   -0.86497E-04 18288   0.125E-01    0.354E-02
DAV:   3    -0.140382507791E+03    0.34273E-05   -0.47370E-05 15312   0.274E-02    0.108E-02
DAV:   4    -0.140382508357E+03   -0.56602E-06   -0.73203E-06 19920   0.101E-02
  97 F= -.14226054E+03 E0= -.14225938E+03  d E =-.727553E-04  mag=    -0.0000
       N       E                     dE             d eps       ncg     rms          rms(c)
DAV:   1    -0.140381830267E+03    0.67752E-03   -0.92922E-02 14208   0.135E+00    0.582E-02
DAV:   2    -0.140381868505E+03   -0.38238E-04   -0.10635E-03 18192   0.139E-01    0.397E-02
DAV:   3    -0.140381864270E+03    0.42352E-05   -0.58466E-05 15456   0.305E-02    0.118E-02
DAV:   4    -0.140381864968E+03   -0.69785E-06   -0.91086E-06 20112   0.113E-02
  98 F= -.14226057E+03 E0= -.14225942E+03  d E =-.104374E-03  mag=    -0.0000
       N       E                     dE             d eps       ncg     rms          rms(c)
DAV:   1    -0.140381416695E+03    0.44757E-03   -0.48479E-02 14208   0.975E-01    0.425E-02
DAV:   2    -0.140381437249E+03   -0.20554E-04   -0.55948E-04 17568   0.101E-01    0.290E-02
DAV:   3    -0.140381435194E+03    0.20554E-05   -0.31199E-05 15168   0.226E-02    0.900E-03
DAV:   4    -0.140381435548E+03   -0.35353E-06   -0.49951E-06 18768   0.842E-03
  99 F= -.14226061E+03 E0= -.14225946E+03  d E =-.411467E-04  mag=    -0.0000
       N       E                     dE             d eps       ncg     rms          rms(c)
DAV:   1    -0.140381368994E+03    0.66200E-04   -0.99551E-04 17088   0.140E-01    0.678E-03
DAV:   2    -0.140381369468E+03   -0.47315E-06   -0.10468E-05 15648   0.138E-02    0.453E-03
DAV:   3    -0.140381369551E+03   -0.83352E-07   -0.66193E-07 14784   0.345E-03
 100 F= -.14226061E+03 E0= -.14225946E+03  d E =-.423476E-04  mag=    -0.0000
       N       E                     dE             d eps       ncg     rms          rms(c)
DAV:   1    -0.140381121975E+03    0.24749E-03   -0.17728E-02 14208   0.593E-01    0.250E-02
DAV:   2    -0.140381129519E+03   -0.75441E-05   -0.18985E-04 17040   0.594E-02    0.171E-02
DAV:   3    -0.140381128618E+03    0.90139E-06   -0.10487E-05 15168   0.133E-02    0.526E-03
DAV:   4    -0.140381128933E+03   -0.31547E-06   -0.15408E-06 14976   0.474E-03
 101 F= -.14226064E+03 E0= -.14225949E+03  d E =-.293219E-04  mag=     0.0000
       N       E                     dE             d eps       ncg     rms          rms(c)
DAV:   1    -0.140380855083E+03    0.27353E-03   -0.18764E-02 14208   0.610E-01    0.258E-02
DAV:   2    -0.140380862957E+03   -0.78740E-05   -0.20274E-04 16320   0.614E-02    0.176E-02
DAV:   3    -0.140380862087E+03    0.86965E-06   -0.11448E-05 15120   0.140E-02    0.549E-03
DAV:   4    -0.140380862438E+03   -0.35089E-06   -0.16228E-06 14880   0.489E-03
 102 F= -.14226065E+03 E0= -.14225950E+03  d E =-.404808E-04  mag=     0.0000
       N       E                     dE             d eps       ncg     rms          rms(c)
DAV:   1    -0.140380601487E+03    0.26060E-03   -0.22785E-02 14208   0.677E-01    0.281E-02
DAV:   2    -0.140380611762E+03   -0.10275E-04   -0.23976E-04 15744   0.672E-02    0.194E-02
DAV:   3    -0.140380610637E+03    0.11251E-05   -0.13573E-05 14976   0.153E-02    0.592E-03
DAV:   4    -0.140380610962E+03   -0.32472E-06   -0.19195E-06 15120   0.542E-03
 103 F= -.14226068E+03 E0= -.14225953E+03  d E =-.285227E-04  mag=    -0.0000
       N       E                     dE             d eps       ncg     rms          rms(c)
DAV:   1    -0.140380489628E+03    0.12101E-03   -0.43990E-03 14208   0.297E-01    0.124E-02
DAV:   2    -0.140380491623E+03   -0.19947E-05   -0.47431E-05 14784   0.300E-02    0.863E-03
DAV:   3    -0.140380491590E+03    0.33254E-07   -0.26453E-06 14592   0.690E-03
 104 F= -.14226069E+03 E0= -.14225954E+03  d E =-.321027E-04  mag=     0.0000
       N       E                     dE             d eps       ncg     rms          rms(c)
DAV:   1    -0.140380312950E+03    0.17867E-03   -0.14760E-02 14208   0.547E-01    0.230E-02
DAV:   2    -0.140380319950E+03   -0.70006E-05   -0.15341E-04 15168   0.543E-02    0.160E-02
DAV:   3    -0.140380319072E+03    0.87784E-06   -0.89845E-06 14880   0.127E-02
 105 F= -.14226070E+03 E0= -.14225956E+03  d E =-.181058E-04  mag=    -0.0000
       N       E                     dE             d eps       ncg     rms          rms(c)
DAV:   1    -0.140380318200E+03    0.17507E-05   -0.18245E-06 15648   0.581E-03    0.173E-03
DAV:   2    -0.140380318280E+03   -0.80807E-07   -0.11927E-07 16992   0.166E-03
 106 F= -.14226071E+03 E0= -.14225956E+03  d E =-.184119E-04  mag=    -0.0000
       N       E                     dE             d eps       ncg     rms          rms(c)
DAV:   1    -0.140380246878E+03    0.71322E-04   -0.48589E-03 14208   0.314E-01    0.131E-02
DAV:   2    -0.140380248972E+03   -0.20946E-05   -0.44115E-05 15264   0.293E-02    0.914E-03
DAV:   3    -0.140380248882E+03    0.89792E-07   -0.22789E-06 14784   0.655E-03
 107 F= -.14226072E+03 E0= -.14225958E+03  d E =-.164983E-04  mag=     0.0000
       N       E                     dE             d eps       ncg     rms          rms(c)
DAV:   1    -0.140380111539E+03    0.13743E-03   -0.13564E-02 14208   0.525E-01    0.216E-02
DAV:   2    -0.140380117864E+03   -0.63248E-05   -0.12231E-04 14880   0.488E-02    0.151E-02
DAV:   3    -0.140380117332E+03    0.53229E-06   -0.61500E-06 14784   0.107E-02
 108 F= -.14226073E+03 E0= -.14225959E+03  d E =-.285388E-04  mag=    -0.0000
       N       E                     dE             d eps       ncg     rms          rms(c)
DAV:   1    -0.140380071635E+03    0.46229E-04   -0.23139E-03 14208   0.217E-01    0.940E-03
DAV:   2    -0.140380072820E+03   -0.11857E-05   -0.20697E-05 14208   0.201E-02    0.662E-03
DAV:   3    -0.140380072787E+03    0.33134E-07   -0.10044E-06 14208   0.463E-03
 109 F= -.14226075E+03 E0= -.14225960E+03  d E =-.112314E-04  mag=    -0.0000
       N       E                     dE             d eps       ncg     rms          rms(c)
DAV:   1    -0.140379948705E+03    0.12412E-03   -0.12309E-02 14208   0.501E-01    0.206E-02
DAV:   2    -0.140379954686E+03   -0.59812E-05   -0.10937E-04 14496   0.460E-02    0.145E-02
DAV:   3    -0.140379954106E+03    0.58016E-06   -0.52055E-06 14496   0.100E-02
 110 F= -.14226075E+03 E0= -.14225961E+03  d E =-.210447E-04  mag=     0.0000
       N       E                     dE             d eps       ncg     rms          rms(c)
DAV:   1    -0.140379897059E+03    0.57627E-04   -0.44833E-03 14208   0.302E-01    0.126E-02
DAV:   2    -0.140379899474E+03   -0.24150E-05   -0.37956E-05 14208   0.270E-02    0.903E-03
DAV:   3    -0.140379899245E+03    0.22950E-06   -0.17552E-06 14208   0.620E-03
 111 F= -.14226077E+03 E0= -.14225962E+03  d E =-.132620E-04  mag=     0.0000
       N       E                     dE             d eps       ncg     rms          rms(c)
DAV:   1    -0.140379701922E+03    0.19755E-03   -0.40450E-02 14208   0.908E-01    0.368E-02
DAV:   2    -0.140379722882E+03   -0.20961E-04   -0.33998E-04 14640   0.805E-02    0.263E-02
DAV:   3    -0.140379720232E+03    0.26505E-05   -0.15518E-05 14688   0.173E-02    0.766E-03
DAV:   4    -0.140379720461E+03   -0.22887E-06   -0.19127E-06 14496   0.632E-03
 112 F= -.14226079E+03 E0= -.14225965E+03  d E =-.388185E-04  mag=    -0.0000
       N       E                     dE             d eps       ncg     rms          rms(c)
DAV:   1    -0.140379681117E+03    0.39114E-04   -0.94151E-03 14208   0.439E-01    0.180E-02
DAV:   2    -0.140379685924E+03   -0.48068E-05   -0.78369E-05 14400   0.392E-02    0.126E-02
DAV:   3    -0.140379685191E+03    0.73298E-06   -0.37168E-06 14448   0.881E-03
 113 F= -.14226082E+03 E0= -.14225968E+03  d E =-.298627E-04  mag=    -0.0000
       N       E                     dE             d eps       ncg     rms          rms(c)
DAV:   1    -0.140379596341E+03    0.89584E-04   -0.20404E-02 14208   0.646E-01    0.264E-02
DAV:   2    -0.140379606715E+03   -0.10374E-04   -0.16826E-04 14304   0.574E-02    0.185E-02
DAV:   3    -0.140379605187E+03    0.15278E-05   -0.77888E-06 14208   0.126E-02    0.604E-03
DAV:   4    -0.140379605314E+03   -0.12695E-06   -0.12268E-06 14208   0.548E-03
 114 F= -.14226084E+03 E0= -.14225969E+03  d E =-.461368E-04  mag=     0.0000
       N       E                     dE             d eps       ncg     rms          rms(c)
DAV:   1    -0.140379574483E+03    0.30704E-04   -0.55287E-03 14208   0.336E-01    0.136E-02
DAV:   2    -0.140379577384E+03   -0.29008E-05   -0.43852E-05 14640   0.292E-02    0.966E-03
DAV:   3    -0.140379576944E+03    0.43991E-06   -0.19716E-06 14208   0.673E-03
 115 F= -.14226085E+03 E0= -.14225971E+03  d E =-.148926E-04  mag=     0.0000
       N       E                     dE             d eps       ncg     rms          rms(c)
DAV:   1    -0.140379451544E+03    0.12584E-03   -0.49575E-02 14208   0.101E+00    0.402E-02
DAV:   2    -0.140379476429E+03   -0.24885E-04   -0.38689E-04 14928   0.864E-02    0.286E-02
DAV:   3    -0.140379472839E+03    0.35894E-05   -0.16632E-05 14928   0.181E-02    0.849E-03
DAV:   4    -0.140379473106E+03   -0.26673E-06   -0.21982E-06 14208   0.713E-03
 116 F= -.14226088E+03 E0= -.14225974E+03  d E =-.409269E-04  mag=    -0.0000
       N       E                     dE             d eps       ncg     rms          rms(c)
DAV:   1    -0.140379463006E+03    0.98330E-05   -0.36166E-03 14208   0.272E-01    0.120E-02
DAV:   2    -0.140379464930E+03   -0.19238E-05   -0.33616E-05 14208   0.257E-02    0.825E-03
DAV:   3    -0.140379464464E+03    0.46634E-06   -0.18697E-06 14208   0.671E-03
 117 F= -.14226091E+03 E0= -.14225976E+03  d E =-.256042E-04  mag=    -0.0000
       N       E                     dE             d eps       ncg     rms          rms(c)
DAV:   1    -0.140379433230E+03    0.31700E-04   -0.46046E-03 14208   0.307E-01    0.135E-02
DAV:   2    -0.140379435615E+03   -0.23852E-05   -0.42270E-05 14208   0.288E-02    0.927E-03
DAV:   3    -0.140379435050E+03    0.56565E-06   -0.23600E-06 14208   0.758E-03
 118 F= -.14226092E+03 E0= -.14225977E+03  d E =-.349875E-04  mag=     0.0000
       N       E                     dE             d eps       ncg     rms          rms(c)
DAV:   1    -0.140379427996E+03    0.76197E-05   -0.36351E-03 14208   0.273E-01    0.116E-02
DAV:   2    -0.140379429881E+03   -0.18857E-05   -0.29781E-05 14400   0.244E-02    0.816E-03
DAV:   3    -0.140379429364E+03    0.51723E-06   -0.18801E-06 14304   0.741E-03
 119 F= -.14226093E+03 E0= -.14225979E+03  d E =-.185217E-04  mag=    -0.0000
       N       E                     dE             d eps       ncg     rms          rms(c)
DAV:   1    -0.140379389701E+03    0.40181E-04   -0.14977E-02 14208   0.554E-01    0.229E-02
DAV:   2    -0.140379396898E+03   -0.71972E-05   -0.12130E-04 15504   0.483E-02    0.162E-02
DAV:   3    -0.140379395700E+03    0.11976E-05   -0.62005E-06 14880   0.122E-02    0.469E-03
DAV:   4    -0.140379395920E+03   -0.21957E-06   -0.17255E-06 14208   0.762E-03
 120 F= -.14226095E+03 E0= -.14225980E+03  d E =-.341292E-04  mag=    -0.0000
       N       E                     dE             d eps       ncg     rms          rms(c)
DAV:   1    -0.140379425341E+03   -0.29641E-04   -0.67801E-03 14592   0.372E-01    0.156E-02
DAV:   2    -0.140379428127E+03   -0.27862E-05   -0.53711E-05 15216   0.327E-02    0.107E-02
DAV:   3    -0.140379427479E+03    0.64847E-06   -0.31332E-06 14256   0.833E-03
 121 F= -.14226098E+03 E0= -.14225983E+03  d E =-.260809E-04  mag=     0.0000
       N       E                     dE             d eps       ncg     rms          rms(c)
DAV:   1    -0.140379436320E+03   -0.81930E-05   -0.39625E-03 14208   0.285E-01    0.120E-02
DAV:   2    -0.140379438176E+03   -0.18561E-05   -0.31910E-05 14592   0.256E-02    0.824E-03
DAV:   3    -0.140379437765E+03    0.41131E-06   -0.19573E-06 14304   0.710E-03
 122 F= -.14226098E+03 E0= -.14225983E+03  d E =-.321708E-04  mag=    -0.0000
       N       E                     dE             d eps       ncg     rms          rms(c)
DAV:   1    -0.140379484543E+03   -0.46366E-04   -0.59802E-03 14208   0.349E-01    0.150E-02
DAV:   2    -0.140379487112E+03   -0.25692E-05   -0.52157E-05 15072   0.323E-02    0.101E-02
DAV:   3    -0.140379486452E+03    0.65924E-06   -0.30745E-06 14208   0.857E-03
 123 F= -.14226100E+03 E0= -.14225985E+03  d E =-.203780E-04  mag=     0.0000
       N       E                     dE             d eps       ncg     rms          rms(c)
DAV:   1    -0.140379506177E+03   -0.19065E-04   -0.21747E-03 14208   0.210E-01    0.929E-03
DAV:   2    -0.140379507277E+03   -0.10997E-05   -0.19147E-05 14208   0.203E-02    0.624E-03
DAV:   3    -0.140379506911E+03    0.36593E-06   -0.15743E-06 14208   0.690E-03
 124 F= -.14226101E+03 E0= -.14225986E+03  d E =-.237155E-04  mag=    -0.0000
       N       E                     dE             d eps       ncg     rms          rms(c)
DAV:   1    -0.140379552949E+03   -0.45673E-04   -0.59435E-03 14208   0.351E-01    0.144E-02
DAV:   2    -0.140379556127E+03   -0.31781E-05   -0.49072E-05 14208   0.315E-02    0.102E-02
DAV:   3    -0.140379555454E+03    0.67324E-06   -0.33923E-06 14256   0.980E-03
 125 F= -.14226103E+03 E0= -.14225988E+03  d E =-.225703E-04  mag=     0.0000
       N       E                     dE             d eps       ncg     rms          rms(c)
DAV:   1    -0.140379604078E+03   -0.47951E-04   -0.14986E-02 14208   0.557E-01    0.226E-02
DAV:   2    -0.140379612091E+03   -0.80130E-05   -0.12240E-04 14400   0.491E-02    0.161E-02
DAV:   3    -0.140379610895E+03    0.11958E-05   -0.71672E-06 14352   0.134E-02    0.499E-03
DAV:   4    -0.140379611087E+03   -0.19237E-06   -0.24605E-06 14208   0.889E-03
 126 F= -.14226104E+03 E0= -.14225989E+03  d E =-.369331E-04  mag=     0.0000
       N       E                     dE             d eps       ncg     rms          rms(c)
DAV:   1    -0.140379645633E+03   -0.34737E-04   -0.27507E-03 14208   0.237E-01    0.980E-03
DAV:   2    -0.140379647148E+03   -0.15159E-05   -0.23105E-05 15072   0.220E-02    0.689E-03
DAV:   3    -0.140379646796E+03    0.35220E-06   -0.15956E-06 14400   0.715E-03
 127 F= -.14226106E+03 E0= -.14225991E+03  d E =-.167125E-04  mag=    -0.0000
       N       E                     dE             d eps       ncg     rms          rms(c)
DAV:   1    -0.140379718154E+03   -0.71006E-04   -0.24670E-02 14208   0.711E-01    0.292E-02
DAV:   2    -0.140379730149E+03   -0.11995E-04   -0.19958E-04 14400   0.622E-02    0.205E-02
DAV:   3    -0.140379728506E+03    0.16435E-05   -0.94864E-06 14400   0.151E-02    0.668E-03
DAV:   4    -0.140379728648E+03   -0.14244E-06   -0.26256E-06 14208   0.930E-03
 128 F= -.14226108E+03 E0= -.14225993E+03  d E =-.415545E-04  mag=    -0.0000
