<?xml version="1.0" encoding="ISO-8859-1"?>
<modeling>
 <generator>
  <i name="program" type="string">vasp </i>
  <i name="version" type="string">6.3.2  </i>
  <i name="subversion" type="string">27Jun22 (build Dec 22 2022 13:13:19) complex                          parallel </i>
  <i name="platform" type="string">LinuxIFC </i>
  <i name="date" type="string">2023 08 23 </i>
  <i name="time" type="string">04:29:04 </i>
 </generator>
 <incar>
  <i type="string" name="SYSTEM">Lattice</i>
  <i type="int" name="ISTART">     0</i>
  <i type="string" name="PREC">Accurate</i>
  <i type="string" name="ALGO">Normal</i>
  <i type="int" name="ISPIN">     2</i>
  <i type="int" name="ICHARG">     2</i>
  <i type="int" name="NELM">    64</i>
  <i type="int" name="IBRION">     2</i>
  <i name="EDIFF">      0.00000100</i>
  <i name="EDIFFG">     -0.00100000</i>
  <i type="int" name="NSW">   128</i>
  <i type="int" name="ISIF">     2</i>
  <i name="ENCUT">    450.00000000</i>
  <i name="POTIM">      0.50000000</i>
  <i type="int" name="ISMEAR">     0</i>
  <i name="SIGMA">      0.10000000</i>
  <i type="logical" name="LWAVE"> F  </i>
  <i type="logical" name="LCHARG"> F  </i>
  <i type="string" name="GGA">PE</i>
  <i type="int" name="IVDW">    12</i>
 </incar>
 <primitive_cell>
  <structure name="primitive_cell" >
   <crystal>
    <varray name="basis" >
     <v>       4.19935718       2.42450000       0.00000000 </v>
     <v>      -4.19935718       2.42450000       0.00000000 </v>
     <v>       0.00000000       0.00000000      15.00000000 </v>
    </varray>
    <i name="volume">    305.44024470 </i>
    <varray name="rec_basis" >
     <v>       0.11906584       0.20622809       0.00000000 </v>
     <v>      -0.11906584       0.20622809       0.00000000 </v>
     <v>       0.00000000       0.00000000       0.06666667 </v>
    </varray>
   </crystal>
   <varray name="positions" >
    <v>       0.00415361       0.00267210       0.12034134 </v>
    <v>       0.35695335       0.00285503       0.09748893 </v>
    <v>       0.00423858       0.35550699       0.09749256 </v>
    <v>       0.65142295       0.65006557       0.09747688 </v>
    <v>       0.32808646       0.32671938       0.10030508 </v>
    <v>       0.68027775       0.00278085       0.10027562 </v>
    <v>       0.00416530       0.67883808       0.10026559 </v>
    <v>       0.99999933       0.49999967       0.33373333 </v>
    <v>       0.16666633       0.33333267       0.33373333 </v>
    <v>       0.99999933       0.99999967       0.33373333 </v>
    <v>       0.16666633       0.83333267       0.33373333 </v>
    <v>       0.49999933       0.49999967       0.33373333 </v>
    <v>       0.66666633       0.33333267       0.33373333 </v>
    <v>       0.49999933       0.99999967       0.33373333 </v>
    <v>       0.66666633       0.83333267       0.33373333 </v>
   </varray>
  </structure>
  <varray name="primitive_index" >
   <v type="int" >        1 </v>
   <v type="int" >        2 </v>
   <v type="int" >        3 </v>
   <v type="int" >        4 </v>
   <v type="int" >        5 </v>
   <v type="int" >        6 </v>
   <v type="int" >        7 </v>
   <v type="int" >        8 </v>
   <v type="int" >        9 </v>
   <v type="int" >       10 </v>
   <v type="int" >       11 </v>
   <v type="int" >       12 </v>
   <v type="int" >       13 </v>
   <v type="int" >       14 </v>
   <v type="int" >       15 </v>
  </varray>
 </primitive_cell>
 <kpoints>
  <generation param="Gamma">
   <v type="int" name="divisions">      12       12        1 </v>
   <v name="usershift">      0.00000000       0.00000000       0.00000000 </v>
   <v name="genvec1">      0.08333333       0.00000000       0.00000000 </v>
   <v name="genvec2">      0.00000000       0.08333333       0.00000000 </v>
   <v name="genvec3">      0.00000000       0.00000000       1.00000000 </v>
   <v name="shift">      0.00000000       0.00000000       0.00000000 </v>
  </generation>
  <varray name="kpointlist" >
   <v>       0.00000000       0.00000000       0.00000000 </v>
   <v>       0.08333333      -0.00000000       0.00000000 </v>
   <v>       0.00000000       0.08333333       0.00000000 </v>
   <v>      -0.08333333       0.08333333       0.00000000 </v>
   <v>       0.16666667       0.00000000       0.00000000 </v>
   <v>       0.00000000       0.16666667       0.00000000 </v>
   <v>      -0.16666667       0.16666667       0.00000000 </v>
   <v>       0.25000000      -0.00000000       0.00000000 </v>
   <v>      -0.00000000       0.25000000       0.00000000 </v>
   <v>      -0.25000000       0.25000000       0.00000000 </v>
   <v>       0.33333333      -0.00000000       0.00000000 </v>
   <v>      -0.00000000       0.33333333       0.00000000 </v>
   <v>      -0.33333333       0.33333333       0.00000000 </v>
   <v>       0.41666667      -0.00000000       0.00000000 </v>
   <v>       0.00000000       0.41666667       0.00000000 </v>
   <v>      -0.41666667       0.41666667       0.00000000 </v>
   <v>       0.50000000      -0.00000000       0.00000000 </v>
   <v>      -0.00000000       0.50000000       0.00000000 </v>
   <v>       0.50000000       0.50000000       0.00000000 </v>
   <v>       0.08333333       0.08333333       0.00000000 </v>
   <v>      -0.08333333       0.16666667       0.00000000 </v>
   <v>      -0.16666667       0.08333333       0.00000000 </v>
   <v>       0.16666667       0.08333333       0.00000000 </v>
   <v>      -0.08333333       0.25000000       0.00000000 </v>
   <v>      -0.25000000       0.16666667       0.00000000 </v>
   <v>      -0.16666667       0.25000000       0.00000000 </v>
   <v>       0.08333333       0.16666667       0.00000000 </v>
   <v>       0.25000000      -0.08333333       0.00000000 </v>
   <v>       0.25000000       0.08333333       0.00000000 </v>
   <v>      -0.08333333       0.33333333       0.00000000 </v>
   <v>      -0.33333333       0.25000000       0.00000000 </v>
   <v>      -0.25000000       0.33333333       0.00000000 </v>
   <v>       0.08333333       0.25000000       0.00000000 </v>
   <v>       0.33333333      -0.08333333       0.00000000 </v>
   <v>       0.33333333       0.08333333       0.00000000 </v>
   <v>      -0.08333333       0.41666667       0.00000000 </v>
   <v>      -0.41666667       0.33333333       0.00000000 </v>
   <v>      -0.33333333       0.41666667       0.00000000 </v>
   <v>       0.08333333       0.33333333       0.00000000 </v>
   <v>       0.41666667      -0.08333333       0.00000000 </v>
   <v>       0.41666667       0.08333333       0.00000000 </v>
   <v>      -0.08333333       0.50000000       0.00000000 </v>
   <v>       0.50000000       0.41666667       0.00000000 </v>
   <v>      -0.41666667       0.50000000       0.00000000 </v>
   <v>       0.08333333       0.41666667       0.00000000 </v>
   <v>       0.50000000      -0.08333333       0.00000000 </v>
   <v>       0.16666667       0.16666667       0.00000000 </v>
   <v>      -0.16666667       0.33333333       0.00000000 </v>
   <v>      -0.33333333       0.16666667       0.00000000 </v>
   <v>       0.25000000       0.16666667       0.00000000 </v>
   <v>      -0.16666667       0.41666667       0.00000000 </v>
   <v>      -0.41666667       0.25000000       0.00000000 </v>
   <v>      -0.25000000       0.41666667       0.00000000 </v>
   <v>       0.16666667       0.25000000       0.00000000 </v>
   <v>       0.41666667      -0.16666667       0.00000000 </v>
   <v>       0.33333333       0.16666667       0.00000000 </v>
   <v>      -0.16666667       0.50000000       0.00000000 </v>
   <v>       0.50000000       0.33333333       0.00000000 </v>
   <v>      -0.33333333       0.50000000       0.00000000 </v>
   <v>       0.16666667       0.33333333       0.00000000 </v>
   <v>       0.50000000      -0.16666667       0.00000000 </v>
   <v>       0.41666667       0.16666667       0.00000000 </v>
   <v>      -0.16666667      -0.41666667       0.00000000 </v>
   <v>       0.41666667       0.41666667       0.00000000 </v>
   <v>       0.25000000       0.25000000       0.00000000 </v>
   <v>      -0.25000000       0.50000000       0.00000000 </v>
   <v>       0.50000000       0.25000000       0.00000000 </v>
   <v>       0.33333333       0.25000000       0.00000000 </v>
   <v>      -0.25000000      -0.41666667       0.00000000 </v>
   <v>       0.41666667       0.33333333       0.00000000 </v>
   <v>      -0.33333333      -0.41666667       0.00000000 </v>
   <v>       0.25000000       0.33333333       0.00000000 </v>
   <v>      -0.41666667      -0.25000000       0.00000000 </v>
   <v>       0.33333333       0.33333333       0.00000000 </v>
  </varray>
  <varray name="weights" >
   <v>       0.00694444 </v>
   <v>       0.01388889 </v>
   <v>       0.01388889 </v>
   <v>       0.01388889 </v>
   <v>       0.01388889 </v>
   <v>       0.01388889 </v>
   <v>       0.01388889 </v>
   <v>       0.01388889 </v>
   <v>       0.01388889 </v>
   <v>       0.01388889 </v>
   <v>       0.01388889 </v>
   <v>       0.01388889 </v>
   <v>       0.01388889 </v>
   <v>       0.01388889 </v>
   <v>       0.01388889 </v>
   <v>       0.01388889 </v>
   <v>       0.00694444 </v>
   <v>       0.00694444 </v>
   <v>       0.00694444 </v>
   <v>       0.01388889 </v>
   <v>       0.01388889 </v>
   <v>       0.01388889 </v>
   <v>       0.01388889 </v>
   <v>       0.01388889 </v>
   <v>       0.01388889 </v>
   <v>       0.01388889 </v>
   <v>       0.01388889 </v>
   <v>       0.01388889 </v>
   <v>       0.01388889 </v>
   <v>       0.01388889 </v>
   <v>       0.01388889 </v>
   <v>       0.01388889 </v>
   <v>       0.01388889 </v>
   <v>       0.01388889 </v>
   <v>       0.01388889 </v>
   <v>       0.01388889 </v>
   <v>       0.01388889 </v>
   <v>       0.01388889 </v>
   <v>       0.01388889 </v>
   <v>       0.01388889 </v>
   <v>       0.01388889 </v>
   <v>       0.01388889 </v>
   <v>       0.01388889 </v>
   <v>       0.01388889 </v>
   <v>       0.01388889 </v>
   <v>       0.01388889 </v>
   <v>       0.01388889 </v>
   <v>       0.01388889 </v>
   <v>       0.01388889 </v>
   <v>       0.01388889 </v>
   <v>       0.01388889 </v>
   <v>       0.01388889 </v>
   <v>       0.01388889 </v>
   <v>       0.01388889 </v>
   <v>       0.01388889 </v>
   <v>       0.01388889 </v>
   <v>       0.01388889 </v>
   <v>       0.01388889 </v>
   <v>       0.01388889 </v>
   <v>       0.01388889 </v>
   <v>       0.01388889 </v>
   <v>       0.01388889 </v>
   <v>       0.01388889 </v>
   <v>       0.01388889 </v>
   <v>       0.01388889 </v>
   <v>       0.01388889 </v>
   <v>       0.01388889 </v>
   <v>       0.01388889 </v>
   <v>       0.01388889 </v>
   <v>       0.01388889 </v>
   <v>       0.01388889 </v>
   <v>       0.01388889 </v>
   <v>       0.01388889 </v>
   <v>       0.01388889 </v>
  </varray>
 </kpoints>
 <parameters>
  <separator name="general" >
   <i type="string" name="SYSTEM">Lattice</i>
   <i type="logical" name="LCOMPAT"> F  </i>
  </separator>
  <separator name="electronic" >
   <i type="string" name="PREC">accura</i>
   <i name="ENMAX">    450.00000000</i>
   <i name="ENAUG">    644.87300000</i>
   <i name="EDIFF">      0.00000100</i>
   <i type="int" name="IALGO">    38</i>
   <i type="int" name="IWAVPR">    11</i>
   <i type="int" name="NBANDS">    48</i>
   <i type="int" name="NBANDSLOW">    -1</i>
   <i type="int" name="NBANDSHIGH">    -1</i>
   <i name="NELECT">     56.00000000</i>
   <i type="int" name="TURBO">     0</i>
   <i type="int" name="IRESTART">     0</i>
   <i type="int" name="NREBOOT">     0</i>
   <i type="int" name="NMIN">     0</i>
   <i name="EREF">      0.00000000</i>
   <separator name="electronic smearing" >
    <i type="int" name="ISMEAR">     0</i>
    <i name="SIGMA">      0.10000000</i>
    <i name="KSPACING">      0.50000000</i>
    <i type="logical" name="KGAMMA"> T  </i>
    <i type="logical" name="KBLOWUP"> T  </i>
   </separator>
   <separator name="electronic projectors" >
    <i type="logical" name="LREAL"> F  </i>
    <v name="ROPT">      0.00000000      0.00000000</v>
    <i type="int" name="LMAXPAW">  -100</i>
    <i type="int" name="LMAXMIX">     2</i>
    <i type="logical" name="NLSPLINE"> F  </i>
   </separator>
   <separator name="electronic startup" >
    <i type="int" name="ISTART">     0</i>
    <i type="int" name="ICHARG">     2</i>
    <i type="int" name="INIWAV">     1</i>
   </separator>
   <separator name="electronic spin" >
    <i type="int" name="ISPIN">     2</i>
    <i type="logical" name="LNONCOLLINEAR"> F  </i>
    <v name="MAGMOM">      1.00000000      1.00000000      1.00000000      1.00000000      1.00000000      1.00000000      1.00000000      1.00000000      1.00000000      1.00000000      1.00000000      1.00000000      1.00000000      1.00000000      1.00000000</v>
    <i name="NUPDOWN">     -1.00000000</i>
    <i type="logical" name="LSORBIT"> F  </i>
    <v name="SAXIS">      0.00000000      0.00000000      1.00000000</v>
    <i type="logical" name="LSPIRAL"> F  </i>
    <v name="QSPIRAL">      0.00000000      0.00000000      0.00000000</v>
    <i type="logical" name="LZEROZ"> F  </i>
   </separator>
   <separator name="electronic exchange-correlation" >
    <i type="logical" name="LASPH"> F  </i>
    <i type="logical" name="LMETAGGA"> F  </i>
   </separator>
   <separator name="electronic convergence" >
    <i type="int" name="NELM">    64</i>
    <i type="int" name="NELMDL">    -5</i>
    <i type="int" name="NELMIN">     2</i>
    <i name="ENINI">    450.00000000</i>
    <separator name="electronic convergence detail" >
     <i type="logical" name="LDIAG"> T  </i>
     <i type="logical" name="LSUBROT"> F  </i>
     <i name="WEIMIN">      0.00100000</i>
     <i name="EBREAK">      0.00000001</i>
     <i name="DEPER">      0.30000000</i>
     <i type="int" name="NRMM">     4</i>
     <i name="TIME">      0.40000000</i>
    </separator>
   </separator>
   <separator name="electronic mixer" >
    <i name="AMIX">      0.40000000</i>
    <i name="BMIX">      1.00000000</i>
    <i name="AMIN">      0.10000000</i>
    <i name="AMIX_MAG">      1.60000000</i>
    <i name="BMIX_MAG">      1.00000000</i>
    <separator name="electronic mixer details" >
     <i type="int" name="IMIX">     4</i>
     <i type="logical" name="MIXFIRST"> F  </i>
     <i type="int" name="MAXMIX">   -45</i>
     <i name="WC">    100.00000000</i>
     <i type="int" name="INIMIX">     1</i>
     <i type="int" name="MIXPRE">     1</i>
     <i type="int" name="MREMOVE">     5</i>
    </separator>
   </separator>
   <separator name="electronic dipolcorrection" >
    <i type="logical" name="LDIPOL"> F  </i>
    <i type="logical" name="LMONO"> F  </i>
    <i type="int" name="IDIPOL">     0</i>
    <i name="EPSILON">      1.00000000</i>
    <v name="DIPOL">   -100.00000000   -100.00000000   -100.00000000</v>
    <i name="EFIELD">      0.00000000</i>
   </separator>
  </separator>
  <separator name="grids" >
   <i type="int" name="NGX">    36</i>
   <i type="int" name="NGY">    36</i>
   <i type="int" name="NGZ">   108</i>
   <i type="int" name="NGXF">    72</i>
   <i type="int" name="NGYF">    72</i>
   <i type="int" name="NGZF">   216</i>
   <i type="logical" name="ADDGRID"> F  </i>
  </separator>
  <separator name="ionic" >
   <i type="int" name="NSW">   128</i>
   <i type="int" name="IBRION">     2</i>
   <i type="int" name="MDALGO">     0</i>
   <i type="int" name="ISIF">     2</i>
   <i name="PSTRESS">      0.00000000</i>
   <i name="EDIFFG">     -0.00100000</i>
   <i type="int" name="NFREE">     1</i>
   <i name="POTIM">      0.50000000</i>
   <i name="SMASS">     -3.00000000</i>
   <i name="SCALEE">      1.00000000</i>
  </separator>
  <separator name="ionic md" >
   <i name="TEBEG">      0.00010000</i>
   <i name="TEEND">      0.00010000</i>
   <i type="int" name="NBLOCK">     1</i>
   <i type="int" name="KBLOCK">   128</i>
   <i type="int" name="NPACO">   256</i>
   <i name="APACO">     10.00000000</i>
  </separator>
  <separator name="symmetry" >
   <i type="int" name="ISYM">     2</i>
   <i name="SYMPREC">      0.00001000</i>
  </separator>
  <separator name="dos" >
   <i type="int" name="LORBIT">     0</i>
   <v name="RWIGS">     -1.00000000     -1.00000000</v>
   <i type="int" name="NEDOS">   301</i>
   <i name="EMIN">     10.00000000</i>
   <i name="EMAX">    -10.00000000</i>
   <i name="EFERMI">      0.00000000</i>
  </separator>
  <separator name="writing" >
   <i type="int" name="NWRITE">     2</i>
   <i type="logical" name="LWAVE"> F  </i>
   <i type="logical" name="LDOWNSAMPLE"> F  </i>
   <i type="logical" name="LCHARG"> F  </i>
   <i type="logical" name="LPARD"> F  </i>
   <i type="logical" name="LVTOT"> F  </i>
   <i type="logical" name="LVHAR"> F  </i>
   <i type="logical" name="LELF"> F  </i>
   <i type="logical" name="LOPTICS"> F  </i>
   <v name="STM">      0.00000000      0.00000000      0.00000000      0.00000000      0.00000000      0.00000000      0.00000000</v>
  </separator>
  <separator name="performance" >
   <i type="int" name="NPAR">    48</i>
   <i type="int" name="NSIM">     4</i>
   <i type="int" name="NBLK">    -1</i>
   <i type="logical" name="LPLANE"> T  </i>
   <i type="logical" name="LSCALAPACK"> T  </i>
   <i type="logical" name="LSCAAWARE"> F  </i>
   <i type="logical" name="LSCALU"> F  </i>
   <i type="logical" name="LASYNC"> F  </i>
   <i type="logical" name="LORBITALREAL"> F  </i>
  </separator>
  <separator name="miscellaneous" >
   <i type="int" name="IDIOT">     3</i>
   <i type="int" name="PHON_NSTRUCT">    -1</i>
   <i type="logical" name="LMUSIC"> F  </i>
   <v name="POMASS">     10.81100000     12.01100000</v>
   <v name="DARWINR">      0.00000000      0.00000000</v>
   <v name="DARWINV">      1.00000000      1.00000000</v>
   <i type="logical" name="LCORR"> T  </i>
  </separator>
  <i type="logical" name="GGA_COMPAT"> T  </i>
  <i type="logical" name="LBERRY"> F  </i>
  <i type="int" name="ICORELEVEL">     0</i>
  <i type="logical" name="LDAU"> F  </i>
  <i type="int" name="I_CONSTRAINED_M">     0</i>
  <separator name="electronic exchange-correlation" >
   <i type="string" name="GGA">PE</i>
   <i type="int" name="VOSKOWN">     0</i>
   <i type="logical" name="LHFCALC"> F  </i>
   <i type="string" name="PRECFOCK"></i>
   <i type="logical" name="LSYMGRAD"> F  </i>
   <i type="logical" name="LHFONE"> F  </i>
   <i type="logical" name="LRHFCALC"> F  </i>
   <i type="logical" name="LTHOMAS"> F  </i>
   <i type="logical" name="LMODELHF"> F  </i>
   <i type="logical" name="LFOCKACE"> F  </i>
   <i name="ENCUT4O">     -1.00000000</i>
   <i type="int" name="EXXOEP">     0</i>
   <i type="int" name="FOURORBIT">     0</i>
   <i name="AEXX">      0.00000000</i>
   <i name="HFALPHA">      0.00000000</i>
   <i name="MCALPHA">      0.00000000</i>
   <i name="ALDAX">      1.00000000</i>
   <i name="AGGAX">      1.00000000</i>
   <i name="ALDAC">      1.00000000</i>
   <i name="AGGAC">      1.00000000</i>
   <i type="int" name="NKREDX">     1</i>
   <i type="int" name="NKREDY">     1</i>
   <i type="int" name="NKREDZ">     1</i>
   <i type="logical" name="SHIFTRED"> F  </i>
   <i type="logical" name="ODDONLY"> F  </i>
   <i type="logical" name="EVENONLY"> F  </i>
   <i type="int" name="LMAXFOCK">     0</i>
   <i type="int" name="NMAXFOCKAE">     0</i>
   <i type="logical" name="LFOCKAEDFT"> F  </i>
   <i name="HFSCREEN">      0.00000000</i>
   <i name="HFSCREENC">      0.00000000</i>
   <i type="int" name="NBANDSGWLOW">     0</i>
  </separator>
  <separator name="vdW DFT" >
   <i type="logical" name="LUSE_VDW"> F  </i>
   <i name="Zab_VDW">     -0.84910000</i>
   <i name="PARAM1">      0.12340000</i>
   <i name="PARAM2">      1.00000000</i>
   <i name="PARAM3">      0.00000000</i>
  </separator>
  <separator name="model GW" >
   <i type="int" name="MODEL_GW">     0</i>
   <i name="MODEL_EPS0">     12.21760979</i>
   <i name="MODEL_ALPHA">      1.00000000</i>
  </separator>
  <separator name="linear response parameters" >
   <i type="logical" name="LEPSILON"> F  </i>
   <i type="logical" name="LRPA"> F  </i>
   <i type="logical" name="LNABLA"> F  </i>
   <i type="logical" name="LVEL"> F  </i>
   <i name="CSHIFT">      0.10000000</i>
   <i name="OMEGAMAX">     -1.00000000</i>
   <i name="DEG_THRESHOLD">      0.00200000</i>
   <i name="RTIME">     -0.10000000</i>
   <i name="WPLASMAI">      0.00000000</i>
   <v name="DFIELD">      0.00000000      0.00000000      0.00000000</v>
   <v name="WPLASMA">      0.00000000      0.00000000      0.00000000      0.00000000      0.00000000      0.00000000      0.00000000      0.00000000      0.00000000</v>
  </separator>
  <separator name="orbital magnetization" >
   <i type="logical" name="NUCIND"> F  </i>
   <v name="MAGPOS">      0.00000000      0.00000000      0.00000000</v>
   <i type="logical" name="LNICSALL"> T  </i>
   <i type="logical" name="ORBITALMAG"> F  </i>
   <i type="logical" name="LMAGBLOCH"> F  </i>
   <i type="logical" name="LCHIMAG"> F  </i>
   <i type="logical" name="LGAUGE"> T  </i>
   <i type="int" name="MAGATOM">     0</i>
   <v name="MAGDIPOL">      0.00000000      0.00000000      0.00000000</v>
   <v name="AVECCONST">      0.00000000      0.00000000      0.00000000</v>
  </separator>
  <separator name="response functions" >
   <i type="logical" name="LFINITE_TEMPERATURE"> F  </i>
   <i type="logical" name="LADDER"> F  </i>
   <i type="logical" name="LRPAFORCE"> F  </i>
   <i type="logical" name="LFXC"> F  </i>
   <i type="logical" name="LHARTREE"> T  </i>
   <i type="int" name="IBSE">     0</i>
   <v type="int" name="KPOINT">    -1     0     0     0</v>
   <i type="logical" name="LTCTC"> F  </i>
   <i type="logical" name="LTCTE"> F  </i>
   <i type="logical" name="LTETE"> F  </i>
   <i type="logical" name="LTRIPLET"> F  </i>
   <i type="logical" name="LFXCEPS"> F  </i>
   <i type="logical" name="LFXHEG"> F  </i>
   <i type="int" name="NATURALO">     2</i>
   <i type="logical" name="LHOLEGF"> F  </i>
   <i type="logical" name="L2ORDER"> F  </i>
   <i type="logical" name="LDMP1"> F  </i>
   <i type="logical" name="LMP2LT"> F  </i>
   <i type="logical" name="LSMP2LT"> F  </i>
   <i type="logical" name="LGWLF"> F  </i>
   <i name="ENCUTGW">     -2.00000000</i>
   <i name="ENCUTGWSOFT">     -2.00000000</i>
   <i name="ENCUTLF">     -1.00000000</i>
   <i type="logical" name="LESF_SPLINES"> F  </i>
   <i type="int" name="LMAXMP2">    -1</i>
   <i name="SCISSOR">      0.00000000</i>
   <i type="int" name="NOMEGA">     0</i>
   <i type="int" name="NOMEGAR">     0</i>
   <i type="int" name="NBANDSGW">    -1</i>
   <i type="int" name="NBANDSO">    -1</i>
   <i type="int" name="NBANDSV">    -1</i>
   <i type="int" name="NELMGW">     1</i>
   <i type="int" name="NELMHF">     1</i>
   <i type="int" name="DIM">     3</i>
   <i type="int" name="IESPILON">     4</i>
   <i type="int" name="ANTIRES">     0</i>
   <i name="OMEGAMAX">    -30.00000000</i>
   <i name="OMEGAMIN">    -30.00000000</i>
   <i name="OMEGATL">   -200.00000000</i>
   <i type="int" name="OMEGAGRID">     0</i>
   <i name="CSHIFT">     -0.10000000</i>
   <i type="logical" name="LSELFENERGY"> F  </i>
   <i type="logical" name="LSPECTRAL"> F  </i>
   <i type="logical" name="LSPECTRALGW"> F  </i>
   <i type="logical" name="LSINGLES"> F  </i>
   <i type="logical" name="LFERMIGW"> F  </i>
   <i type="logical" name="ODDONLYGW"> F  </i>
   <i type="logical" name="EVENONLYGW"> F  </i>
   <i type="int" name="NKREDLFX">     1</i>
   <i type="int" name="NKREDLFY">     1</i>
   <i type="int" name="NKREDLFZ">     1</i>
   <i type="int" name="MAXMEM">  2800</i>
   <i type="int" name="TELESCOPE">     0</i>
   <i type="int" name="NTAUPAR">    -1</i>
   <i type="int" name="NOMEGAPAR">    -1</i>
   <i name="DAMP_NEWTON">      0.80000001</i>
   <i name="LAMBDA">      1.00000000</i>
  </separator>
  <separator name="External order field" >
   <i name="OFIELD_KAPPA">      0.00000000</i>
   <v name="OFIELD_K">      0.00000000      0.00000000      0.00000000</v>
   <i name="OFIELD_Q6_NEAR">      0.00000000</i>
   <i name="OFIELD_Q6_FAR">      0.00000000</i>
   <i name="OFIELD_A">      0.00000000</i>
  </separator>
  <separator name="optional k-points parameters" >
   <i type="int" name="KPOINTS_OPT_MODE">     1</i>
   <i type="logical" name="LKPOINTS_OPT"> F  </i>
  </separator>
  <separator name="solvation model" >
   <i type="logical" name="LSOL"> F  </i>
  </separator>
 </parameters>
 <atominfo>
  <atoms>      15 </atoms>
  <types>       2 </types>
  <array name="atoms" >
   <dimension dim="1">ion</dimension>
   <field type="string">element</field>
   <field type="int">atomtype</field>
   <set>
    <rc><c>B </c><c>   1</c></rc>
    <rc><c>B </c><c>   1</c></rc>
    <rc><c>B </c><c>   1</c></rc>
    <rc><c>B </c><c>   1</c></rc>
    <rc><c>C </c><c>   2</c></rc>
    <rc><c>C </c><c>   2</c></rc>
    <rc><c>C </c><c>   2</c></rc>
    <rc><c>C </c><c>   2</c></rc>
    <rc><c>C </c><c>   2</c></rc>
    <rc><c>C </c><c>   2</c></rc>
    <rc><c>C </c><c>   2</c></rc>
    <rc><c>C </c><c>   2</c></rc>
    <rc><c>C </c><c>   2</c></rc>
    <rc><c>C </c><c>   2</c></rc>
    <rc><c>C </c><c>   2</c></rc>
   </set>
  </array>
  <array name="atomtypes" >
   <dimension dim="1">type</dimension>
   <field type="int">atomspertype</field>
   <field type="string">element</field>
   <field>mass</field>
   <field>valence</field>
   <field type="string">pseudopotential</field>
   <set>
    <rc><c>   4</c><c>B </c><c>     10.81100000</c><c>      3.00000000</c><c>  PAW_PBE B 06Sep2000                   </c></rc>
    <rc><c>  11</c><c>C </c><c>     12.01100000</c><c>      4.00000000</c><c>  PAW_PBE C 08Apr2002                   </c></rc>
   </set>
  </array>
 </atominfo>
 <structure name="initialpos" >
  <crystal>
   <varray name="basis" >
    <v>       4.19935718       2.42450000       0.00000000 </v>
    <v>      -4.19935718       2.42450000       0.00000000 </v>
    <v>       0.00000000       0.00000000      15.00000000 </v>
   </varray>
   <i name="volume">    305.44024470 </i>
   <varray name="rec_basis" >
    <v>       0.11906584       0.20622809       0.00000000 </v>
    <v>      -0.11906584       0.20622809       0.00000000 </v>
    <v>       0.00000000       0.00000000       0.06666667 </v>
   </varray>
  </crystal>
  <varray name="positions" >
   <v>       0.00415361       0.00267210       0.12034134 </v>
   <v>       0.35695335       0.00285503       0.09748893 </v>
   <v>       0.00423858       0.35550699       0.09749256 </v>
   <v>       0.65142295       0.65006557       0.09747688 </v>
   <v>       0.32808646       0.32671938       0.10030508 </v>
   <v>       0.68027775       0.00278085       0.10027562 </v>
   <v>       0.00416530       0.67883808       0.10026559 </v>
   <v>       0.99999933       0.49999967       0.33373333 </v>
   <v>       0.16666633       0.33333267       0.33373333 </v>
   <v>       0.99999933       0.99999967       0.33373333 </v>
   <v>       0.16666633       0.83333267       0.33373333 </v>
   <v>       0.49999933       0.49999967       0.33373333 </v>
   <v>       0.66666633       0.33333267       0.33373333 </v>
   <v>       0.49999933       0.99999967       0.33373333 </v>
   <v>       0.66666633       0.83333267       0.33373333 </v>
  </varray>
 </structure>
 <calculation>
  <scstep>
   <time name="dav">    5.53    5.59</time>
   <time name="total">    5.58    5.64</time>
   <energy>
    <i name="alphaZ">     58.23494169 </i>
    <i name="ewald">   4774.30054536 </i>
    <i name="hartreedc">  -6330.92926563 </i>
    <i name="XCdc">    175.07884891 </i>
    <i name="pawpsdc">   1365.87943566 </i>
    <i name="pawaedc">  -1368.52100941 </i>
    <i name="eentropy">     -0.02237746 </i>
    <i name="bandstr">   -374.76043487 </i>
    <i name="atom">   1903.26342058 </i>
    <i name="e_fr_energy">    202.52410483 </i>
    <i name="e_wo_entrp">    202.54648229 </i>
    <i name="e_0_energy">    202.53529356 </i>
   </energy>
  </scstep>
  <scstep>
   <time name="dav">    8.08    8.16</time>
   <time name="total">    8.08    8.16</time>
   <energy>
    <i name="e_fr_energy">   -116.70379759 </i>
    <i name="e_wo_entrp">   -116.70298969 </i>
    <i name="e_0_energy">   -116.70339364 </i>
   </energy>
  </scstep>
  <scstep>
   <time name="dav">   11.07   11.16</time>
   <time name="total">   11.07   11.16</time>
   <energy>
    <i name="e_fr_energy">   -129.28909110 </i>
    <i name="e_wo_entrp">   -129.28588057 </i>
    <i name="e_0_energy">   -129.28748584 </i>
   </energy>
  </scstep>
  <scstep>
   <time name="dav">    8.30    8.38</time>
   <time name="total">    8.30    8.38</time>
   <energy>
    <i name="e_fr_energy">   -129.31408272 </i>
    <i name="e_wo_entrp">   -129.31087149 </i>
    <i name="e_0_energy">   -129.31247711 </i>
   </energy>
  </scstep>
  <scstep>
   <time name="dav">   10.44   10.52</time>
   <time name="total">   10.70   10.79</time>
   <energy>
    <i name="e_fr_energy">   -129.31413808 </i>
    <i name="e_wo_entrp">   -129.31092670 </i>
    <i name="e_0_energy">   -129.31253239 </i>
   </energy>
  </scstep>
  <scstep>
   <time name="dav">   10.60   10.68</time>
   <time name="total">   10.94   11.04</time>
   <energy>
    <i name="e_fr_energy">    -92.10800645 </i>
    <i name="e_wo_entrp">    -92.10188330 </i>
    <i name="e_0_energy">    -92.10494487 </i>
   </energy>
  </scstep>
  <scstep>
   <time name="dav">    9.10    9.17</time>
   <time name="total">    9.40    9.49</time>
   <energy>
    <i name="e_fr_energy">   -100.55511860 </i>
    <i name="e_wo_entrp">   -100.54946110 </i>
    <i name="e_0_energy">   -100.55228985 </i>
   </energy>
  </scstep>
  <scstep>
   <time name="dav">   10.16   10.24</time>
   <time name="total">   10.45   10.54</time>
   <energy>
    <i name="e_fr_energy">   -110.48098069 </i>
    <i name="e_wo_entrp">   -110.48096598 </i>
    <i name="e_0_energy">   -110.48097334 </i>
   </energy>
  </scstep>
  <scstep>
   <time name="dav">    7.77    7.83</time>
   <time name="total">    8.06    8.13</time>
   <energy>
    <i name="e_fr_energy">   -117.33168024 </i>
    <i name="e_wo_entrp">   -117.33167549 </i>
    <i name="e_0_energy">   -117.33167786 </i>
   </energy>
  </scstep>
  <scstep>
   <time name="dav">    9.94   10.01</time>
   <time name="total">   10.24   10.32</time>
   <energy>
    <i name="e_fr_energy">   -123.65703211 </i>
    <i name="e_wo_entrp">   -123.65635077 </i>
    <i name="e_0_energy">   -123.65669144 </i>
   </energy>
  </scstep>
  <scstep>
   <time name="dav">   10.83   10.91</time>
   <time name="total">   11.13   11.22</time>
   <energy>
    <i name="e_fr_energy">   -125.27555295 </i>
    <i name="e_wo_entrp">   -125.27437978 </i>
    <i name="e_0_energy">   -125.27496637 </i>
   </energy>
  </scstep>
  <scstep>
   <time name="dav">    7.52    7.58</time>
   <time name="total">    7.82    7.88</time>
   <energy>
    <i name="e_fr_energy">   -125.42971490 </i>
    <i name="e_wo_entrp">   -125.42823566 </i>
    <i name="e_0_energy">   -125.42897528 </i>
   </energy>
  </scstep>
  <scstep>
   <time name="dav">    7.39    7.44</time>
   <time name="total">    7.68    7.74</time>
   <energy>
    <i name="e_fr_energy">   -125.46437096 </i>
    <i name="e_wo_entrp">   -125.46283726 </i>
    <i name="e_0_energy">   -125.46360411 </i>
   </energy>
  </scstep>
  <scstep>
   <time name="dav">    7.96    8.03</time>
   <time name="total">    8.26    8.33</time>
   <energy>
    <i name="e_fr_energy">   -125.48740751 </i>
    <i name="e_wo_entrp">   -125.48586916 </i>
    <i name="e_0_energy">   -125.48663834 </i>
   </energy>
  </scstep>
  <scstep>
   <time name="dav">    7.33    7.38</time>
   <time name="total">    7.62    7.68</time>
   <energy>
    <i name="e_fr_energy">   -125.49409900 </i>
    <i name="e_wo_entrp">   -125.49256013 </i>
    <i name="e_0_energy">   -125.49332956 </i>
   </energy>
  </scstep>
  <scstep>
   <time name="dav">    6.85    6.90</time>
   <time name="total">    7.14    7.20</time>
   <energy>
    <i name="e_fr_energy">   -125.49610110 </i>
    <i name="e_wo_entrp">   -125.49456227 </i>
    <i name="e_0_energy">   -125.49533168 </i>
   </energy>
  </scstep>
  <scstep>
   <time name="dav">    6.71    6.77</time>
   <time name="total">    7.01    7.07</time>
   <energy>
    <i name="e_fr_energy">   -125.49735043 </i>
    <i name="e_wo_entrp">   -125.49581161 </i>
    <i name="e_0_energy">   -125.49658102 </i>
   </energy>
  </scstep>
  <scstep>
   <time name="dav">    6.85    6.91</time>
   <time name="total">    7.15    7.21</time>
   <energy>
    <i name="e_fr_energy">   -125.49811870 </i>
    <i name="e_wo_entrp">   -125.49657990 </i>
    <i name="e_0_energy">   -125.49734930 </i>
   </energy>
  </scstep>
  <scstep>
   <time name="dav">    8.39    8.46</time>
   <time name="total">    8.68    8.76</time>
   <energy>
    <i name="e_fr_energy">   -125.49853823 </i>
    <i name="e_wo_entrp">   -125.49699944 </i>
    <i name="e_0_energy">   -125.49776884 </i>
   </energy>
  </scstep>
  <scstep>
   <time name="dav">    8.94    9.00</time>
   <time name="total">    9.23    9.30</time>
   <energy>
    <i name="e_fr_energy">   -125.49857593 </i>
    <i name="e_wo_entrp">   -125.49703714 </i>
    <i name="e_0_energy">   -125.49780653 </i>
   </energy>
  </scstep>
  <scstep>
   <time name="dav">    8.75    8.82</time>
   <time name="total">    9.04    9.12</time>
   <energy>
    <i name="e_fr_energy">   -125.49860049 </i>
    <i name="e_wo_entrp">   -125.49706167 </i>
    <i name="e_0_energy">   -125.49783108 </i>
   </energy>
  </scstep>
  <scstep>
   <time name="dav">    9.22    9.27</time>
   <time name="total">    9.51    9.58</time>
   <energy>
    <i name="e_fr_energy">   -125.49862367 </i>
    <i name="e_wo_entrp">   -125.49708485 </i>
    <i name="e_0_energy">   -125.49785426 </i>
   </energy>
  </scstep>
  <scstep>
   <time name="dav">    8.62    8.68</time>
   <time name="total">    8.92    8.99</time>
   <energy>
    <i name="e_fr_energy">   -125.49863472 </i>
    <i name="e_wo_entrp">   -125.49709590 </i>
    <i name="e_0_energy">   -125.49786531 </i>
   </energy>
  </scstep>
  <scstep>
   <time name="dav">    9.74    9.81</time>
   <time name="total">   10.04   10.11</time>
   <energy>
    <i name="e_fr_energy">   -125.49863711 </i>
    <i name="e_wo_entrp">   -125.49709828 </i>
    <i name="e_0_energy">   -125.49786769 </i>
   </energy>
  </scstep>
  <scstep>
   <time name="dav">    8.70    8.76</time>
   <time name="total">    9.00    9.06</time>
   <energy>
    <i name="e_fr_energy">   -125.49863813 </i>
    <i name="e_wo_entrp">   -125.49709930 </i>
    <i name="e_0_energy">   -125.49786872 </i>
   </energy>
  </scstep>
  <scstep>
   <time name="dav">    9.23    9.29</time>
   <time name="total">    9.26    9.33</time>
   <energy>
    <i name="alphaZ">     58.23494169 </i>
    <i name="ewald">   4774.30054536 </i>
    <i name="hartreedc">  -6531.62640603 </i>
    <i name="XCdc">    180.41745359 </i>
    <i name="pawpsdc">   5719.56910470 </i>
    <i name="pawaedc">  -5723.97332598 </i>
    <i name="eentropy">     -0.00153883 </i>
    <i name="bandstr">   -505.68283372 </i>
    <i name="atom">   1903.26342058 </i>
    <i name="e_fr_energy">   -125.49863863 </i>
    <i name="e_wo_entrp">   -125.49709980 </i>
    <i name="e_0_energy">   -125.49786922 </i>
   </energy>
  </scstep>
  <structure>
   <crystal>
    <varray name="basis" >
     <v>       4.19935718       2.42450000       0.00000000 </v>
     <v>      -4.19935718       2.42450000       0.00000000 </v>
     <v>       0.00000000       0.00000000      15.00000000 </v>
    </varray>
    <i name="volume">    305.44024470 </i>
    <varray name="rec_basis" >
     <v>       0.11906584       0.20622809       0.00000000 </v>
     <v>      -0.11906584       0.20622809       0.00000000 </v>
     <v>       0.00000000       0.00000000       0.06666667 </v>
    </varray>
   </crystal>
   <varray name="positions" >
    <v>       0.00415361       0.00267210       0.12034134 </v>
    <v>       0.35695335       0.00285503       0.09748893 </v>
    <v>       0.00423858       0.35550699       0.09749256 </v>
    <v>       0.65142295       0.65006557       0.09747688 </v>
    <v>       0.32808646       0.32671938       0.10030508 </v>
    <v>       0.68027775       0.00278085       0.10027562 </v>
    <v>       0.00416530       0.67883808       0.10026559 </v>
    <v>       0.99999933       0.49999967       0.33373333 </v>
    <v>       0.16666633       0.33333267       0.33373333 </v>
    <v>       0.99999933       0.99999967       0.33373333 </v>
    <v>       0.16666633       0.83333267       0.33373333 </v>
    <v>       0.49999933       0.49999967       0.33373333 </v>
    <v>       0.66666633       0.33333267       0.33373333 </v>
    <v>       0.49999933       0.99999967       0.33373333 </v>
    <v>       0.66666633       0.83333267       0.33373333 </v>
   </varray>
  </structure>
  <varray name="forces" >
   <v>      -0.00461586       0.00534502      -0.35194660 </v>
   <v>      -0.11375511      -0.04765851       0.10838458 </v>
   <v>       0.09335140      -0.08207521       0.10790265 </v>
   <v>       0.02274911       0.12215895       0.10946879 </v>
   <v>       0.03006258      -0.36267553      -0.00265684 </v>
   <v>       0.29735168       0.20446863      -0.00016205 </v>
   <v>      -0.32545663       0.15963755       0.00069514 </v>
   <v>       0.01325436       0.00516806       0.00284243 </v>
   <v>      -0.03531384       0.04097282       0.02143403 </v>
   <v>       0.00051182      -0.00030404      -0.03111635 </v>
   <v>       0.05261288       0.00965604       0.02233137 </v>
   <v>      -0.01078501       0.01033584       0.00373780 </v>
   <v>      -0.00045761       0.00025878      -0.01494291 </v>
   <v>      -0.00183942      -0.01397685       0.00269569 </v>
   <v>      -0.01767037      -0.05131155       0.02133229 </v>
  </varray>
  <varray name="stress" >
   <v>      -9.69695370       0.01678964      -0.00194052 </v>
   <v>       0.01678964      -9.67320314       0.02446384 </v>
   <v>      -0.00194053       0.02446381      -2.23203924 </v>
  </varray>
  <energy>
   <i name="e_fr_energy">   -127.10180768 </i>
   <i name="e_wo_entrp">   -127.10026885 </i>
   <i name="e_0_energy">   -127.10103827 </i>
  </energy>
  <time name="totalsc">  235.04  236.99</time>
 </calculation>
 <calculation>
  <scstep>
   <time name="dav">    5.52    5.56</time>
   <time name="total">    5.81    5.86</time>
   <energy>
    <i name="alphaZ">     58.23494169 </i>
    <i name="ewald">   4777.84349791 </i>
    <i name="hartreedc">  -6533.77558205 </i>
    <i name="XCdc">    180.49709031 </i>
    <i name="pawpsdc">   5719.57575013 </i>
    <i name="pawaedc">  -5723.97997431 </i>
    <i name="eentropy">     -0.00154343 </i>
    <i name="bandstr">   -507.16478030 </i>
    <i name="atom">   1903.26342058 </i>
    <i name="e_fr_energy">   -125.50717947 </i>
    <i name="e_wo_entrp">   -125.50563604 </i>
    <i name="e_0_energy">   -125.50640775 </i>
   </energy>
  </scstep>
  <scstep>
   <time name="dav">   10.96   11.03</time>
   <time name="total">   11.25   11.33</time>
   <energy>
    <i name="e_fr_energy">   -125.49826926 </i>
    <i name="e_wo_entrp">   -125.49672568 </i>
    <i name="e_0_energy">   -125.49749747 </i>
   </energy>
  </scstep>
  <scstep>
   <time name="dav">    8.80    8.86</time>
   <time name="total">    9.10    9.17</time>
   <energy>
    <i name="e_fr_energy">   -125.49722696 </i>
    <i name="e_wo_entrp">   -125.49568329 </i>
    <i name="e_0_energy">   -125.49645513 </i>
   </energy>
  </scstep>
  <scstep>
   <time name="dav">   11.12   11.19</time>
   <time name="total">   11.41   11.49</time>
   <energy>
    <i name="e_fr_energy">   -125.49717968 </i>
    <i name="e_wo_entrp">   -125.49563623 </i>
    <i name="e_0_energy">   -125.49640796 </i>
   </energy>
  </scstep>
  <scstep>
   <time name="dav">    9.62    9.69</time>
   <time name="total">    9.92    9.99</time>
   <energy>
    <i name="e_fr_energy">   -125.49718246 </i>
    <i name="e_wo_entrp">   -125.49563907 </i>
    <i name="e_0_energy">   -125.49641077 </i>
   </energy>
  </scstep>
  <scstep>
   <time name="dav">    9.53    9.59</time>
   <time name="total">    9.57    9.63</time>
   <energy>
    <i name="alphaZ">     58.23494169 </i>
    <i name="ewald">   4777.84349791 </i>
    <i name="hartreedc">  -6534.52814384 </i>
    <i name="XCdc">    180.51402672 </i>
    <i name="pawpsdc">   5745.97825204 </i>
    <i name="pawaedc">  -5750.39104135 </i>
    <i name="eentropy">     -0.00154339 </i>
    <i name="bandstr">   -506.41059292 </i>
    <i name="atom">   1903.26342058 </i>
    <i name="e_fr_energy">   -125.49718257 </i>
    <i name="e_wo_entrp">   -125.49563918 </i>
    <i name="e_0_energy">   -125.49641087 </i>
   </energy>
  </scstep>
  <structure>
   <crystal>
    <varray name="basis" >
     <v>       4.19935718       2.42450000       0.00000000 </v>
     <v>      -4.19935718       2.42450000       0.00000000 </v>
     <v>       0.00000000       0.00000000      15.00000000 </v>
    </varray>
    <i name="volume">    305.44024470 </i>
    <varray name="rec_basis" >
     <v>       0.11906584       0.20622809       0.00000000 </v>
     <v>      -0.11906584       0.20622809       0.00000000 </v>
     <v>       0.00000000       0.00000000       0.06666667 </v>
    </varray>
   </crystal>
   <varray name="positions" >
    <v>       0.00418027       0.00275179       0.11920942 </v>
    <v>       0.35582578       0.00303429       0.09783752 </v>
    <v>       0.00395823       0.35415421       0.09783960 </v>
    <v>       0.65276898       0.65115026       0.09782895 </v>
    <v>       0.32465089       0.32293844       0.10029653 </v>
    <v>       0.68402001       0.00310711       0.10027510 </v>
    <v>       0.00388409       0.68229575       0.10026782 </v>
    <v>       0.00012688       0.49997495       0.33374248 </v>
    <v>       0.16687113       0.33394315       0.33380227 </v>
    <v>       0.99999925       0.99999370       0.33363326 </v>
    <v>       0.16706461       0.83312652       0.33380515 </v>
    <v>       0.50004021       0.50016445       0.33374535 </v>
    <v>       0.66666628       0.33333787       0.33368527 </v>
    <v>       0.49984971       0.99987118       0.33374200 </v>
    <v>       0.66605434       0.83292367       0.33380194 </v>
   </varray>
  </structure>
  <varray name="forces" >
   <v>      -0.00112518      -0.00056925      -0.13386839 </v>
   <v>       0.24164508       0.13782119       0.05765874 </v>
   <v>      -0.24399541       0.13939250       0.05727168 </v>
   <v>       0.00173631      -0.27638320       0.05840103 </v>
   <v>      -0.00364304       0.57806135      -0.02372916 </v>
   <v>      -0.49511498      -0.29312477      -0.02183744 </v>
   <v>       0.50020495      -0.28601314      -0.02157243 </v>
   <v>      -0.05538657      -0.02241592       0.01042687 </v>
   <v>       0.12445312      -0.13784189      -0.00096565 </v>
   <v>      -0.00188876       0.00127472       0.00789001 </v>
   <v>      -0.17970297      -0.03572735      -0.00078927 </v>
   <v>       0.04594889      -0.04136058       0.01058787 </v>
   <v>       0.00197483      -0.00038270      -0.00875875 </v>
   <v>       0.00689211       0.05893912       0.01034323 </v>
   <v>       0.05800162       0.17832994      -0.00105834 </v>
  </varray>
  <varray name="stress" >
   <v>      -7.02920084       0.00173398       0.00373523 </v>
   <v>       0.00173397      -7.02760521       0.01631504 </v>
   <v>       0.00373524       0.01631506      -1.85738013 </v>
  </varray>
  <energy>
   <i name="e_fr_energy">   -127.09976876 </i>
   <i name="e_wo_entrp">   -127.09822536 </i>
   <i name="e_0_energy">   -127.09899706 </i>
  </energy>
  <time name="totalsc">   61.77   62.21</time>
 </calculation>
 <calculation>
  <scstep>
   <time name="dav">    5.59    5.64</time>
   <time name="total">    5.88    5.94</time>
   <energy>
    <i name="alphaZ">     58.23494169 </i>
    <i name="ewald">   4775.91646301 </i>
    <i name="hartreedc">  -6533.34872196 </i>
    <i name="XCdc">    180.47018801 </i>
    <i name="pawpsdc">   5745.93641292 </i>
    <i name="pawaedc">  -5750.34917474 </i>
    <i name="eentropy">     -0.00154110 </i>
    <i name="bandstr">   -505.63065309 </i>
    <i name="atom">   1903.26342058 </i>
    <i name="e_fr_energy">   -125.50866470 </i>
    <i name="e_wo_entrp">   -125.50712360 </i>
    <i name="e_0_energy">   -125.50789415 </i>
   </energy>
  </scstep>
  <scstep>
   <time name="dav">   11.01   11.08</time>
   <time name="total">   11.30   11.38</time>
   <energy>
    <i name="e_fr_energy">   -125.50608899 </i>
    <i name="e_wo_entrp">   -125.50454803 </i>
    <i name="e_0_energy">   -125.50531851 </i>
   </energy>
  </scstep>
  <scstep>
   <time name="dav">    9.95   10.02</time>
   <time name="total">   10.24   10.32</time>
   <energy>
    <i name="e_fr_energy">   -125.50580346 </i>
    <i name="e_wo_entrp">   -125.50426258 </i>
    <i name="e_0_energy">   -125.50503302 </i>
   </energy>
  </scstep>
  <scstep>
   <time name="dav">    9.19    9.26</time>
   <time name="total">    9.48    9.56</time>
   <energy>
    <i name="e_fr_energy">   -125.50579042 </i>
    <i name="e_wo_entrp">   -125.50424938 </i>
    <i name="e_0_energy">   -125.50501990 </i>
   </energy>
  </scstep>
  <scstep>
   <time name="dav">    9.51    9.57</time>
   <time name="total">    9.54    9.60</time>
   <energy>
    <i name="alphaZ">     58.23494169 </i>
    <i name="ewald">   4775.91646301 </i>
    <i name="hartreedc">  -6532.97430516 </i>
    <i name="XCdc">    180.46137213 </i>
    <i name="pawpsdc">   5731.20737866 </i>
    <i name="pawaedc">  -5735.61527926 </i>
    <i name="eentropy">     -0.00154105 </i>
    <i name="bandstr">   -505.99824185 </i>
    <i name="atom">   1903.26342058 </i>
    <i name="e_fr_energy">   -125.50579126 </i>
    <i name="e_wo_entrp">   -125.50425021 </i>
    <i name="e_0_energy">   -125.50502073 </i>
   </energy>
  </scstep>
  <structure>
   <crystal>
    <varray name="basis" >
     <v>       4.19935718       2.42450000       0.00000000 </v>
     <v>      -4.19935718       2.42450000       0.00000000 </v>
     <v>       0.00000000       0.00000000      15.00000000 </v>
    </varray>
    <i name="volume">    305.44024470 </i>
    <varray name="rec_basis" >
     <v>       0.11906584       0.20622809       0.00000000 </v>
     <v>      -0.11906584       0.20622809       0.00000000 </v>
     <v>       0.00000000       0.00000000       0.06666667 </v>
    </varray>
   </crystal>
   <varray name="positions" >
    <v>       0.00416610       0.00270943       0.11981119 </v>
    <v>       0.35642525       0.00293899       0.09765220 </v>
    <v>       0.00410727       0.35487341       0.09765510 </v>
    <v>       0.65205337       0.65057359       0.09764177 </v>
    <v>       0.32647739       0.32494855       0.10030108 </v>
    <v>       0.68203046       0.00293366       0.10027538 </v>
    <v>       0.00403360       0.68045750       0.10026663 </v>
    <v>       0.00005907       0.49998809       0.33373761 </v>
    <v>       0.16676225       0.33361859       0.33376562 </v>
    <v>       0.99999929       0.99999687       0.33368646 </v>
    <v>       0.16685287       0.83323612       0.33376697 </v>
    <v>       0.50001848       0.50007684       0.33373896 </v>
    <v>       0.66666631       0.33333510       0.33371082 </v>
    <v>       0.49992926       0.99993949       0.33373739 </v>
    <v>       0.66637970       0.83314111       0.33376547 </v>
   </varray>
  </structure>
  <varray name="forces" >
   <v>      -0.00309978       0.00278974      -0.24894583 </v>
   <v>       0.05562493       0.04151922       0.08460009 </v>
   <v>      -0.06821376       0.02291043       0.08416510 </v>
   <v>       0.01351249      -0.06830772       0.08553420 </v>
   <v>       0.01496524       0.07628817      -0.01275172 </v>
   <v>      -0.07281988      -0.02713007      -0.01057640 </v>
   <v>       0.05973316      -0.04886107      -0.01002397 </v>
   <v>      -0.01854307      -0.00762661       0.00640355 </v>
   <v>       0.03921829      -0.04280591       0.01099125 </v>
   <v>      -0.00061700       0.00043356      -0.01293203 </v>
   <v>      -0.05606602      -0.01134464       0.01155063 </v>
   <v>       0.01549948      -0.01362181       0.00695469 </v>
   <v>       0.00067783      -0.00004137      -0.01214787 </v>
   <v>       0.00218442       0.01980786       0.00628579 </v>
   <v>       0.01794366       0.05599021       0.01089253 </v>
  </varray>
  <varray name="stress" >
   <v>      -8.58117001       0.00970222       0.00060197 </v>
   <v>       0.00970223      -8.57047894       0.02109691 </v>
   <v>       0.00060196       0.02109693      -2.04105520 </v>
  </varray>
  <energy>
   <i name="e_fr_energy">   -127.10868549 </i>
   <i name="e_wo_entrp">   -127.10714444 </i>
   <i name="e_0_energy">   -127.10791496 </i>
  </energy>
  <time name="totalsc">   51.15   51.55</time>
 </calculation>
 <calculation>
  <scstep>
   <time name="dav">    5.50    5.54</time>
   <time name="total">    5.79    5.84</time>
   <energy>
    <i name="alphaZ">     58.23494169 </i>
    <i name="ewald">   4776.08499994 </i>
    <i name="hartreedc">  -6532.90775572 </i>
    <i name="XCdc">    180.47790046 </i>
    <i name="pawpsdc">   5731.21222295 </i>
    <i name="pawaedc">  -5735.62013276 </i>
    <i name="eentropy">     -0.00154382 </i>
    <i name="bandstr">   -506.25435577 </i>
    <i name="atom">   1903.26342058 </i>
    <i name="e_fr_energy">   -125.51030245 </i>
    <i name="e_wo_entrp">   -125.50875863 </i>
    <i name="e_0_energy">   -125.50953054 </i>
   </energy>
  </scstep>
  <scstep>
   <time name="dav">   11.84   11.92</time>
   <time name="total">   12.13   12.22</time>
   <energy>
    <i name="e_fr_energy">   -125.51031745 </i>
    <i name="e_wo_entrp">   -125.50877422 </i>
    <i name="e_0_energy">   -125.50954583 </i>
   </energy>
  </scstep>
  <scstep>
   <time name="dav">    9.28    9.33</time>
   <time name="total">    9.57    9.64</time>
   <energy>
    <i name="e_fr_energy">   -125.51030444 </i>
    <i name="e_wo_entrp">   -125.50876152 </i>
    <i name="e_0_energy">   -125.50953298 </i>
   </energy>
  </scstep>
  <scstep>
   <time name="dav">   10.77   10.84</time>
   <time name="total">   11.06   11.14</time>
   <energy>
    <i name="e_fr_energy">   -125.51030482 </i>
    <i name="e_wo_entrp">   -125.50876182 </i>
    <i name="e_0_energy">   -125.50953332 </i>
   </energy>
  </scstep>
  <scstep>
   <time name="dav">    9.45    9.50</time>
   <time name="total">    9.48    9.54</time>
   <energy>
    <i name="alphaZ">     58.23494169 </i>
    <i name="ewald">   4776.08499994 </i>
    <i name="hartreedc">  -6532.90886713 </i>
    <i name="XCdc">    180.47789079 </i>
    <i name="pawpsdc">   5735.95278107 </i>
    <i name="pawaedc">  -5740.36237059 </i>
    <i name="eentropy">     -0.00154300 </i>
    <i name="bandstr">   -506.25155886 </i>
    <i name="atom">   1903.26342058 </i>
    <i name="e_fr_energy">   -125.51030553 </i>
    <i name="e_wo_entrp">   -125.50876252 </i>
    <i name="e_0_energy">   -125.50953402 </i>
   </energy>
  </scstep>
  <structure>
   <crystal>
    <varray name="basis" >
     <v>       4.19935718       2.42450000       0.00000000 </v>
     <v>      -4.19935718       2.42450000       0.00000000 </v>
     <v>       0.00000000       0.00000000      15.00000000 </v>
    </varray>
    <i name="volume">    305.44024470 </i>
    <varray name="rec_basis" >
     <v>       0.11906584       0.20622809       0.00000000 </v>
     <v>      -0.11906584       0.20622809       0.00000000 </v>
     <v>       0.00000000       0.00000000       0.06666667 </v>
    </varray>
   </crystal>
   <varray name="positions" >
    <v>       0.00418001       0.00276514       0.11888259 </v>
    <v>       0.35686767       0.00305635       0.09796097 </v>
    <v>       0.00390804       0.35517261       0.09796234 </v>
    <v>       0.65176880       0.65010109       0.09795389 </v>
    <v>       0.32658575       0.32483826       0.10026282 </v>
    <v>       0.68211992       0.00312766       0.10024488 </v>
    <v>       0.00385286       0.68036735       0.10023824 </v>
    <v>      -0.00007991       0.50001082       0.33375774 </v>
    <v>       0.16662153       0.33315160       0.33381019 </v>
    <v>       0.99999997       0.00000277       0.33363045 </v>
    <v>       0.16653918       0.83338425       0.33381369 </v>
    <v>       0.49998463       0.49990719       0.33376122 </v>
    <v>       0.66666941       0.33333224       0.33366686 </v>
    <v>       0.50008842       0.00008020       0.33375709 </v>
    <v>       0.66685442       0.83346982       0.33380969 </v>
   </varray>
  </structure>
  <varray name="forces" >
   <v>      -0.00033321      -0.00001045      -0.22940327 </v>
   <v>       0.04524822       0.02372706       0.04807094 </v>
   <v>      -0.04436946       0.02737034       0.04785670 </v>
   <v>      -0.00055516      -0.05045638       0.04850544 </v>
   <v>      -0.00583698       0.09258020       0.01765918 </v>
   <v>      -0.07579214      -0.05210051       0.01912441 </v>
   <v>       0.08133084      -0.04187038       0.01935415 </v>
   <v>       0.04976208       0.02194206       0.00698473 </v>
   <v>      -0.08827990       0.08503757       0.00024080 </v>
   <v>       0.00206932      -0.00008541       0.00898764 </v>
   <v>       0.11591734       0.03065208       0.00026864 </v>
   <v>      -0.04161036       0.03570007       0.00699189 </v>
   <v>      -0.00179691       0.00009317      -0.00174321 </v>
   <v>      -0.00455519      -0.05240986       0.00691229 </v>
   <v>      -0.03119849      -0.12016958       0.00018968 </v>
  </varray>
  <varray name="stress" >
   <v>      -8.21641292       0.01301119       0.00486757 </v>
   <v>       0.01301118      -8.19141477       0.01515890 </v>
   <v>       0.00486756       0.01515886      -1.98124206 </v>
  </varray>
  <energy>
   <i name="e_fr_energy">   -127.11309065 </i>
   <i name="e_wo_entrp">   -127.11154765 </i>
   <i name="e_0_energy">   -127.11231915 </i>
  </energy>
  <time name="totalsc">   52.72   53.12</time>
 </calculation>
 <calculation>
  <scstep>
   <time name="dav">    5.52    5.56</time>
   <time name="total">    5.81    5.86</time>
   <energy>
    <i name="alphaZ">     58.23494169 </i>
    <i name="ewald">   4776.23276562 </i>
    <i name="hartreedc">  -6532.73924513 </i>
    <i name="XCdc">    180.49937522 </i>
    <i name="pawpsdc">   5736.09743819 </i>
    <i name="pawaedc">  -5740.50703797 </i>
    <i name="eentropy">     -0.00154646 </i>
    <i name="bandstr">   -506.59292755 </i>
    <i name="atom">   1903.26342058 </i>
    <i name="e_fr_energy">   -125.51281582 </i>
    <i name="e_wo_entrp">   -125.51126935 </i>
    <i name="e_0_energy">   -125.51204258 </i>
   </energy>
  </scstep>
  <scstep>
   <time name="dav">   10.86   10.92</time>
   <time name="total">   11.16   11.25</time>
   <energy>
    <i name="e_fr_energy">   -125.51286112 </i>
    <i name="e_wo_entrp">   -125.51131546 </i>
    <i name="e_0_energy">   -125.51208829 </i>
   </energy>
  </scstep>
  <scstep>
   <time name="dav">    8.77    8.83</time>
   <time name="total">    9.06    9.13</time>
   <energy>
    <i name="e_fr_energy">   -125.51283662 </i>
    <i name="e_wo_entrp">   -125.51129139 </i>
    <i name="e_0_energy">   -125.51206401 </i>
   </energy>
  </scstep>
  <scstep>
   <time name="dav">   10.71   10.78</time>
   <time name="total">   11.00   11.08</time>
   <energy>
    <i name="e_fr_energy">   -125.51283704 </i>
    <i name="e_wo_entrp">   -125.51129167 </i>
    <i name="e_0_energy">   -125.51206435 </i>
   </energy>
  </scstep>
  <scstep>
   <time name="dav">    8.96    9.02</time>
   <time name="total">    9.26    9.32</time>
   <energy>
    <i name="e_fr_energy">   -125.51283845 </i>
    <i name="e_wo_entrp">   -125.51129308 </i>
    <i name="e_0_energy">   -125.51206576 </i>
   </energy>
  </scstep>
  <scstep>
   <time name="dav">    9.75    9.81</time>
   <time name="total">    9.78    9.85</time>
   <energy>
    <i name="alphaZ">     58.23494169 </i>
    <i name="ewald">   4776.23276562 </i>
    <i name="hartreedc">  -6532.72372465 </i>
    <i name="XCdc">    180.49924479 </i>
    <i name="pawpsdc">   5742.57826785 </i>
    <i name="pawaedc">  -5746.99014393 </i>
    <i name="eentropy">     -0.00154531 </i>
    <i name="bandstr">   -506.60606525 </i>
    <i name="atom">   1903.26342058 </i>
    <i name="e_fr_energy">   -125.51283862 </i>
    <i name="e_wo_entrp">   -125.51129331 </i>
    <i name="e_0_energy">   -125.51206597 </i>
   </energy>
  </scstep>
  <structure>
   <crystal>
    <varray name="basis" >
     <v>       4.19935718       2.42450000       0.00000000 </v>
     <v>      -4.19935718       2.42450000       0.00000000 </v>
     <v>       0.00000000       0.00000000      15.00000000 </v>
    </varray>
    <i name="volume">    305.44024470 </i>
    <varray name="rec_basis" >
     <v>       0.11906584       0.20622809       0.00000000 </v>
     <v>      -0.11906584       0.20622809       0.00000000 </v>
     <v>       0.00000000       0.00000000       0.06666667 </v>
    </varray>
   </crystal>
   <varray name="positions" >
    <v>       0.00419967       0.00284390       0.11757007 </v>
    <v>       0.35749301       0.00322223       0.09839741 </v>
    <v>       0.00362643       0.35559551       0.09839659 </v>
    <v>       0.65136656       0.64943323       0.09839505 </v>
    <v>       0.32673892       0.32468236       0.10020874 </v>
    <v>       0.68224636       0.00340187       0.10020177 </v>
    <v>       0.00359739       0.68023992       0.10019812 </v>
    <v>      -0.00027636       0.50004294       0.33378619 </v>
    <v>       0.16642263       0.33249155       0.33387318 </v>
    <v>       0.00000091       0.00001111       0.33355129 </v>
    <v>       0.16609579       0.83359362       0.33387973 </v>
    <v>       0.49993678       0.49966739       0.33379267 </v>
    <v>       0.66667379       0.33332818       0.33360472 </v>
    <v>       0.50031338       0.00027909       0.33378494 </v>
    <v>       0.66752540       0.83393443       0.33387220 </v>
   </varray>
  </structure>
  <varray name="forces" >
   <v>       0.00367962      -0.00414302      -0.20739695 </v>
   <v>       0.02633479      -0.00245178      -0.00166026 </v>
   <v>      -0.00805526       0.03036881      -0.00155372 </v>
   <v>      -0.01904712      -0.02118395      -0.00194509 </v>
   <v>      -0.03318253       0.11216809       0.06062174 </v>
   <v>      -0.07774460      -0.08394374       0.06112796 </v>
   <v>       0.10772348      -0.03154224       0.06092807 </v>
   <v>       0.14451535       0.06404549       0.00793666 </v>
   <v>      -0.26746804       0.26767837      -0.01467586 </v>
   <v>       0.00595221      -0.00082669       0.03896049 </v>
   <v>       0.36010076       0.08828647      -0.01540013 </v>
   <v>      -0.12167375       0.10363021       0.00716320 </v>
   <v>      -0.00531788       0.00028771       0.01262379 </v>
   <v>      -0.01297923      -0.15318449       0.00792430 </v>
   <v>      -0.10283780      -0.36918925      -0.01465421 </v>
  </varray>
  <varray name="stress" >
   <v>      -7.68534749       0.01751078       0.01041649 </v>
   <v>       0.01751079      -7.64349704       0.00786124 </v>
   <v>       0.01041651       0.00786126      -1.88451138 </v>
  </varray>
  <energy>
   <i name="e_fr_energy">   -127.11544561 </i>
   <i name="e_wo_entrp">   -127.11390030 </i>
   <i name="e_0_energy">   -127.11467296 </i>
  </energy>
  <time name="totalsc">   60.78   61.22</time>
 </calculation>
 <calculation>
  <scstep>
   <time name="dav">    5.51    5.55</time>
   <time name="total">    5.80    5.85</time>
   <energy>
    <i name="alphaZ">     58.23494169 </i>
    <i name="ewald">   4776.23324011 </i>
    <i name="hartreedc">  -6532.67638408 </i>
    <i name="XCdc">    180.50219299 </i>
    <i name="pawpsdc">   5742.64406930 </i>
    <i name="pawaedc">  -5747.05594555 </i>
    <i name="eentropy">     -0.00154564 </i>
    <i name="bandstr">   -506.65812154 </i>
    <i name="atom">   1903.26342058 </i>
    <i name="e_fr_energy">   -125.51413214 </i>
    <i name="e_wo_entrp">   -125.51258650 </i>
    <i name="e_0_energy">   -125.51335932 </i>
   </energy>
  </scstep>
  <scstep>
   <time name="dav">   10.92   10.99</time>
   <time name="total">   11.21   11.30</time>
   <energy>
    <i name="e_fr_energy">   -125.51413488 </i>
    <i name="e_wo_entrp">   -125.51258929 </i>
    <i name="e_0_energy">   -125.51336208 </i>
   </energy>
  </scstep>
  <scstep>
   <time name="dav">    7.99    8.06</time>
   <time name="total">    8.28    8.35</time>
   <energy>
    <i name="e_fr_energy">   -125.51413432 </i>
    <i name="e_wo_entrp">   -125.51258873 </i>
    <i name="e_0_energy">   -125.51336152 </i>
   </energy>
  </scstep>
  <scstep>
   <time name="dav">   10.30   10.37</time>
   <time name="total">   10.34   10.41</time>
   <energy>
    <i name="alphaZ">     58.23494169 </i>
    <i name="ewald">   4776.23324011 </i>
    <i name="hartreedc">  -6532.66272496 </i>
    <i name="XCdc">    180.50190655 </i>
    <i name="pawpsdc">   5743.54901085 </i>
    <i name="pawaedc">  -5747.96119739 </i>
    <i name="eentropy">     -0.00154556 </i>
    <i name="bandstr">   -506.67118643 </i>
    <i name="atom">   1903.26342058 </i>
    <i name="e_fr_energy">   -125.51413457 </i>
    <i name="e_wo_entrp">   -125.51258901 </i>
    <i name="e_0_energy">   -125.51336179 </i>
   </energy>
  </scstep>
  <structure>
   <crystal>
    <varray name="basis" >
     <v>       4.19935718       2.42450000       0.00000000 </v>
     <v>      -4.19935718       2.42450000       0.00000000 </v>
     <v>       0.00000000       0.00000000      15.00000000 </v>
    </varray>
    <i name="volume">    305.44024470 </i>
    <varray name="rec_basis" >
     <v>       0.11906584       0.20622809       0.00000000 </v>
     <v>      -0.11906584       0.20622809       0.00000000 </v>
     <v>       0.00000000       0.00000000       0.06666667 </v>
    </varray>
   </crystal>
   <varray name="positions" >
    <v>       0.00420201       0.00285409       0.11732378 </v>
    <v>       0.35760181       0.00324171       0.09846914 </v>
    <v>       0.00359145       0.35568084       0.09846797 </v>
    <v>       0.65128590       0.64931857       0.09846752 </v>
    <v>       0.32680562       0.32471518       0.10020855 </v>
    <v>       0.68220980       0.00342968       0.10020347 </v>
    <v>       0.00356893       0.68017714       0.10020028 </v>
    <v>      -0.00024303       0.50003959       0.33379202 </v>
    <v>       0.16644030       0.33257081       0.33388145 </v>
    <v>       0.00000223       0.00001059       0.33354385 </v>
    <v>       0.16615467       0.83357484       0.33388839 </v>
    <v>       0.49994376       0.49970533       0.33379889 </v>
    <v>       0.66667328       0.33332901       0.33359630 </v>
    <v>       0.50027887       0.00024696       0.33379067 </v>
    <v>       0.66744506       0.83387298       0.33388039 </v>
   </varray>
  </structure>
  <varray name="forces" >
   <v>       0.00414908      -0.00455393      -0.20412522 </v>
   <v>       0.02043454      -0.00762163      -0.00804266 </v>
   <v>       0.00001303       0.02857280      -0.00787607 </v>
   <v>      -0.02137230      -0.01364574      -0.00844066 </v>
   <v>      -0.03623823       0.10406300       0.06609324 </v>
   <v>      -0.06927868      -0.08227687       0.06641589 </v>
   <v>       0.10200747      -0.02526584       0.06615753 </v>
   <v>       0.12906285       0.05707162       0.00748306 </v>
   <v>      -0.24270043       0.24602476      -0.01610902 </v>
   <v>       0.00513167      -0.00097543       0.04226314 </v>
   <v>       0.32965605       0.07899201      -0.01692545 </v>
   <v>      -0.10891720       0.09274507       0.00660922 </v>
   <v>      -0.00462724       0.00042122       0.01508972 </v>
   <v>      -0.01179283      -0.13707290       0.00748024 </v>
   <v>      -0.09552778      -0.33647814      -0.01607298 </v>
  </varray>
  <varray name="stress" >
   <v>      -7.62076600       0.01446656       0.01097375 </v>
   <v>       0.01446651      -7.58658655       0.00720998 </v>
   <v>       0.01097374       0.00720999      -1.86785768 </v>
  </varray>
  <energy>
   <i name="e_fr_energy">   -127.11671649 </i>
   <i name="e_wo_entrp">   -127.11517093 </i>
   <i name="e_0_energy">   -127.11594371 </i>
  </energy>
  <time name="totalsc">   40.35   40.66</time>
 </calculation>
 <calculation>
  <scstep>
   <time name="dav">    5.51    5.56</time>
   <time name="total">    5.80    5.86</time>
   <energy>
    <i name="alphaZ">     58.23494169 </i>
    <i name="ewald">   4776.21278566 </i>
    <i name="hartreedc">  -6532.51709929 </i>
    <i name="XCdc">    180.51060652 </i>
    <i name="pawpsdc">   5743.56411716 </i>
    <i name="pawaedc">  -5747.97631073 </i>
    <i name="eentropy">     -0.00154650 </i>
    <i name="bandstr">   -506.80835479 </i>
    <i name="atom">   1903.26342058 </i>
    <i name="e_fr_energy">   -125.51743971 </i>
    <i name="e_wo_entrp">   -125.51589320 </i>
    <i name="e_0_energy">   -125.51666645 </i>
   </energy>
  </scstep>
  <scstep>
   <time name="dav">    9.96   10.03</time>
   <time name="total">   10.25   10.33</time>
   <energy>
    <i name="e_fr_energy">   -125.51746202 </i>
    <i name="e_wo_entrp">   -125.51591569 </i>
    <i name="e_0_energy">   -125.51668886 </i>
   </energy>
  </scstep>
  <scstep>
   <time name="dav">    8.21    8.27</time>
   <time name="total">    8.50    8.57</time>
   <energy>
    <i name="e_fr_energy">   -125.51745589 </i>
    <i name="e_wo_entrp">   -125.51590952 </i>
    <i name="e_0_energy">   -125.51668270 </i>
   </energy>
  </scstep>
  <scstep>
   <time name="dav">   10.95   11.03</time>
   <time name="total">   11.24   11.33</time>
   <energy>
    <i name="e_fr_energy">   -125.51745603 </i>
    <i name="e_wo_entrp">   -125.51590974 </i>
    <i name="e_0_energy">   -125.51668289 </i>
   </energy>
  </scstep>
  <scstep>
   <time name="dav">    8.06    8.13</time>
   <time name="total">    8.10    8.17</time>
   <energy>
    <i name="alphaZ">     58.23494169 </i>
    <i name="ewald">   4776.21278566 </i>
    <i name="hartreedc">  -6532.50470923 </i>
    <i name="XCdc">    180.51001818 </i>
    <i name="pawpsdc">   5746.20769338 </i>
    <i name="pawaedc">  -5750.62082432 </i>
    <i name="eentropy">     -0.00154626 </i>
    <i name="bandstr">   -506.81923607 </i>
    <i name="atom">   1903.26342058 </i>
    <i name="e_fr_energy">   -125.51745639 </i>
    <i name="e_wo_entrp">   -125.51591014 </i>
    <i name="e_0_energy">   -125.51668327 </i>
   </energy>
  </scstep>
  <structure>
   <crystal>
    <varray name="basis" >
     <v>       4.19935718       2.42450000       0.00000000 </v>
     <v>      -4.19935718       2.42450000       0.00000000 </v>
     <v>       0.00000000       0.00000000      15.00000000 </v>
    </varray>
    <i name="volume">    305.44024470 </i>
    <varray name="rec_basis" >
     <v>       0.11906584       0.20622809       0.00000000 </v>
     <v>      -0.11906584       0.20622809       0.00000000 </v>
     <v>       0.00000000       0.00000000       0.06666667 </v>
    </varray>
   </crystal>
   <varray name="positions" >
    <v>       0.00420904       0.00288467       0.11658489 </v>
    <v>       0.35792819       0.00330016       0.09868431 </v>
    <v>       0.00348653       0.35593685       0.09868211 </v>
    <v>       0.65104391       0.64897459       0.09868490 </v>
    <v>       0.32700572       0.32481363       0.10020800 </v>
    <v>       0.68210012       0.00351311       0.10020857 </v>
    <v>       0.00348354       0.67998880       0.10020676 </v>
    <v>      -0.00014304       0.50002956       0.33380952 </v>
    <v>       0.16649332       0.33280859       0.33390627 </v>
    <v>       0.00000619       0.00000901       0.33352153 </v>
    <v>       0.16633131       0.83351850       0.33391440 </v>
    <v>       0.49996472       0.49981916       0.33381754 </v>
    <v>       0.66667172       0.33333149       0.33357101 </v>
    <v>       0.50017535       0.00015058       0.33380787 </v>
    <v>       0.66720405       0.83368863       0.33390498 </v>
   </varray>
  </structure>
  <varray name="forces" >
   <v>       0.00558116      -0.00581818      -0.19530018 </v>
   <v>       0.00167528      -0.02343592      -0.02695125 </v>
   <v>       0.02500572       0.02246163      -0.02661188 </v>
   <v>      -0.02811117       0.00998287      -0.02768502 </v>
   <v>      -0.04499875       0.07900314       0.08258542 </v>
   <v>      -0.04337351      -0.07654130       0.08237975 </v>
   <v>       0.08393180      -0.00635409       0.08196083 </v>
   <v>       0.08304265       0.03645206       0.00610834 </v>
   <v>      -0.16894654       0.18180721      -0.02044863 </v>
   <v>       0.00270664      -0.00143682       0.05230486 </v>
   <v>       0.23922426       0.05121489      -0.02154009 </v>
   <v>      -0.07105513       0.06024587       0.00493638 </v>
   <v>      -0.00257376       0.00082812       0.02249662 </v>
   <v>      -0.00814242      -0.08920330       0.00613341 </v>
   <v>      -0.07396623      -0.23920618      -0.02036856 </v>
  </varray>
  <varray name="stress" >
   <v>      -7.42475628       0.00565606       0.01262335 </v>
   <v>       0.00565606      -7.41258158       0.00535462 </v>
   <v>       0.01262338       0.00535463      -1.84531821 </v>
  </varray>
  <energy>
   <i name="e_fr_energy">   -127.11996064 </i>
   <i name="e_wo_entrp">   -127.11841438 </i>
   <i name="e_0_energy">   -127.11918751 </i>
  </energy>
  <time name="totalsc">   48.61   49.00</time>
 </calculation>
 <calculation>
  <scstep>
   <time name="dav">    5.50    5.54</time>
   <time name="total">    5.78    5.84</time>
   <energy>
    <i name="alphaZ">     58.23494169 </i>
    <i name="ewald">   4776.07278269 </i>
    <i name="hartreedc">  -6532.13991675 </i>
    <i name="XCdc">    180.52580305 </i>
    <i name="pawpsdc">   5746.17519158 </i>
    <i name="pawaedc">  -5750.58832212 </i>
    <i name="eentropy">     -0.00154800 </i>
    <i name="bandstr">   -507.06389848 </i>
    <i name="atom">   1903.26342058 </i>
    <i name="e_fr_energy">   -125.52154579 </i>
    <i name="e_wo_entrp">   -125.51999778 </i>
    <i name="e_0_energy">   -125.52077178 </i>
   </energy>
  </scstep>
  <scstep>
   <time name="dav">   10.64   10.71</time>
   <time name="total">   10.93   11.00</time>
   <energy>
    <i name="e_fr_energy">   -125.52163600 </i>
    <i name="e_wo_entrp">   -125.52008839 </i>
    <i name="e_0_energy">   -125.52086219 </i>
   </energy>
  </scstep>
  <scstep>
   <time name="dav">    8.90    8.96</time>
   <time name="total">    9.19    9.26</time>
   <energy>
    <i name="e_fr_energy">   -125.52160842 </i>
    <i name="e_wo_entrp">   -125.52006070 </i>
    <i name="e_0_energy">   -125.52083456 </i>
   </energy>
  </scstep>
  <scstep>
   <time name="dav">   10.76   10.84</time>
   <time name="total">   11.05   11.14</time>
   <energy>
    <i name="e_fr_energy">   -125.52160874 </i>
    <i name="e_wo_entrp">   -125.52006115 </i>
    <i name="e_0_energy">   -125.52083495 </i>
   </energy>
  </scstep>
  <scstep>
   <time name="dav">    9.41    9.46</time>
   <time name="total">    9.69    9.76</time>
   <energy>
    <i name="e_fr_energy">   -125.52160976 </i>
    <i name="e_wo_entrp">   -125.52006223 </i>
    <i name="e_0_energy">   -125.52083600 </i>
   </energy>
  </scstep>
  <scstep>
   <time name="dav">    9.58    9.64</time>
   <time name="total">    9.61    9.68</time>
   <energy>
    <i name="alphaZ">     58.23494169 </i>
    <i name="ewald">   4776.07278269 </i>
    <i name="hartreedc">  -6532.12229936 </i>
    <i name="XCdc">    180.52475206 </i>
    <i name="pawpsdc">   5750.94454307 </i>
    <i name="pawaedc">  -5755.35942141 </i>
    <i name="eentropy">     -0.00154753 </i>
    <i name="bandstr">   -507.07878154 </i>
    <i name="atom">   1903.26342058 </i>
    <i name="e_fr_energy">   -125.52160976 </i>
    <i name="e_wo_entrp">   -125.52006223 </i>
    <i name="e_0_energy">   -125.52083599 </i>
   </energy>
  </scstep>
  <structure>
   <crystal>
    <varray name="basis" >
     <v>       4.19935718       2.42450000       0.00000000 </v>
     <v>      -4.19935718       2.42450000       0.00000000 </v>
     <v>       0.00000000       0.00000000      15.00000000 </v>
    </varray>
    <i name="volume">    305.44024470 </i>
    <varray name="rec_basis" >
     <v>       0.11906584       0.20622809       0.00000000 </v>
     <v>      -0.11906584       0.20622809       0.00000000 </v>
     <v>       0.00000000       0.00000000       0.06666667 </v>
    </varray>
   </crystal>
   <varray name="positions" >
    <v>       0.00422310       0.00294582       0.11510712 </v>
    <v>       0.35858096       0.00341706       0.09911466 </v>
    <v>       0.00327669       0.35644887       0.09911040 </v>
    <v>       0.65055992       0.64828663       0.09911967 </v>
    <v>       0.32740593       0.32501053       0.10020690 </v>
    <v>       0.68188075       0.00367997       0.10021876 </v>
    <v>       0.00331276       0.67961211       0.10021972 </v>
    <v>       0.00005693       0.50000949       0.33384453 </v>
    <v>       0.16659935       0.33328415       0.33395591 </v>
    <v>       0.00001411       0.00000586       0.33347688 </v>
    <v>       0.16668458       0.83340581       0.33396642 </v>
    <v>       0.50000663       0.50004682       0.33385485 </v>
    <v>       0.66666862       0.33333646       0.33352045 </v>
    <v>       0.49996831      -0.00004219       0.33384226 </v>
    <v>       0.66672202       0.83331993       0.33395415 </v>
   </varray>
  </structure>
  <varray name="forces" >
   <v>       0.00846373      -0.00839887      -0.18230626 </v>
   <v>      -0.03956710      -0.05649147      -0.06310086 </v>
   <v>       0.07783818       0.00759662      -0.06241514 </v>
   <v>      -0.04082721       0.06110457      -0.06449318 </v>
   <v>      -0.06156647       0.02582786       0.11550697 </v>
   <v>       0.01078595      -0.06276653       0.11426155 </v>
   <v>       0.04459589       0.03245789       0.11353652 </v>
   <v>      -0.00957142      -0.00486474       0.00335843 </v>
   <v>      -0.02123727       0.05410455      -0.02917454 </v>
   <v>      -0.00205892      -0.00231942       0.07224654 </v>
   <v>       0.05885189      -0.00480202      -0.03080811 </v>
   <v>       0.00507529      -0.00522440       0.00159980 </v>
   <v>       0.00150241       0.00163187       0.03735862 </v>
   <v>      -0.00066100       0.00701899       0.00344014 </v>
   <v>      -0.03162395      -0.04487491      -0.02901048 </v>
  </varray>
  <varray name="stress" >
   <v>      -7.03877870      -0.01157115       0.01534298 </v>
   <v>      -0.01157111      -7.07139442       0.00237409 </v>
   <v>       0.01534300       0.00237406      -1.81133121 </v>
  </varray>
  <energy>
   <i name="e_fr_energy">   -127.12394796 </i>
   <i name="e_wo_entrp">   -127.12240043 </i>
   <i name="e_0_energy">   -127.12317420 </i>
  </energy>
  <time name="totalsc">   60.96   61.41</time>
 </calculation>
 <calculation>
  <scstep>
   <time name="dav">    5.51    5.54</time>
   <time name="total">    5.80    5.85</time>
   <energy>
    <i name="alphaZ">     58.23494169 </i>
    <i name="ewald">   4775.39185763 </i>
    <i name="hartreedc">  -6531.09193704 </i>
    <i name="XCdc">    180.54966116 </i>
    <i name="pawpsdc">   5750.92623379 </i>
    <i name="pawaedc">  -5755.34111180 </i>
    <i name="eentropy">     -0.00155042 </i>
    <i name="bandstr">   -507.45148593 </i>
    <i name="atom">   1903.26342058 </i>
    <i name="e_fr_energy">   -125.51997036 </i>
    <i name="e_wo_entrp">   -125.51841993 </i>
    <i name="e_0_energy">   -125.51919514 </i>
   </energy>
  </scstep>
  <scstep>
   <time name="dav">   11.26   11.33</time>
   <time name="total">   11.56   11.63</time>
   <energy>
    <i name="e_fr_energy">   -125.52036135 </i>
    <i name="e_wo_entrp">   -125.51881176 </i>
    <i name="e_0_energy">   -125.51958656 </i>
   </energy>
  </scstep>
  <scstep>
   <time name="dav">    9.40    9.46</time>
   <time name="total">    9.69    9.76</time>
   <energy>
    <i name="e_fr_energy">   -125.52024614 </i>
    <i name="e_wo_entrp">   -125.51869633 </i>
    <i name="e_0_energy">   -125.51947123 </i>
   </energy>
  </scstep>
  <scstep>
   <time name="dav">   10.77   10.84</time>
   <time name="total">   11.06   11.14</time>
   <energy>
    <i name="e_fr_energy">   -125.52025059 </i>
    <i name="e_wo_entrp">   -125.51870092 </i>
    <i name="e_0_energy">   -125.51947576 </i>
   </energy>
  </scstep>
  <scstep>
   <time name="dav">    9.80    9.87</time>
   <time name="total">   10.09   10.16</time>
   <energy>
    <i name="e_fr_energy">   -125.52025526 </i>
    <i name="e_wo_entrp">   -125.51870572 </i>
    <i name="e_0_energy">   -125.51948049 </i>
   </energy>
  </scstep>
  <scstep>
   <time name="dav">   10.06   10.12</time>
   <time name="total">   10.10   10.16</time>
   <energy>
    <i name="alphaZ">     58.23494169 </i>
    <i name="ewald">   4775.39185763 </i>
    <i name="hartreedc">  -6531.07225712 </i>
    <i name="XCdc">    180.54823514 </i>
    <i name="pawpsdc">   5758.60613203 </i>
    <i name="pawaedc">  -5763.02400400 </i>
    <i name="eentropy">     -0.00154955 </i>
    <i name="bandstr">   -507.46703119 </i>
    <i name="atom">   1903.26342058 </i>
    <i name="e_fr_energy">   -125.52025479 </i>
    <i name="e_wo_entrp">   -125.51870524 </i>
    <i name="e_0_energy">   -125.51948001 </i>
   </energy>
  </scstep>
  <structure>
   <crystal>
    <varray name="basis" >
     <v>       4.19935718       2.42450000       0.00000000 </v>
     <v>      -4.19935718       2.42450000       0.00000000 </v>
     <v>       0.00000000       0.00000000      15.00000000 </v>
    </varray>
    <i name="volume">    305.44024470 </i>
    <varray name="rec_basis" >
     <v>       0.11906584       0.20622809       0.00000000 </v>
     <v>      -0.11906584       0.20622809       0.00000000 </v>
     <v>       0.00000000       0.00000000       0.06666667 </v>
    </varray>
   </crystal>
   <varray name="positions" >
    <v>       0.00425121       0.00306813       0.11215157 </v>
    <v>       0.35988649       0.00365087       0.09997535 </v>
    <v>       0.00285701       0.35747291       0.09996696 </v>
    <v>       0.64959196       0.64691070       0.09998922 </v>
    <v>       0.32820636       0.32540433       0.10020469 </v>
    <v>       0.68144203       0.00401369       0.10023913 </v>
    <v>       0.00297119       0.67885874       0.10024564 </v>
    <v>       0.00045688       0.49996936       0.33391453 </v>
    <v>       0.16681142       0.33423527       0.33405519 </v>
    <v>       0.00002994      -0.00000044       0.33338759 </v>
    <v>       0.16739112       0.83318044       0.33407046 </v>
    <v>       0.50009046       0.50050214       0.33392946 </v>
    <v>       0.66666242       0.33334640       0.33341932 </v>
    <v>       0.49955423      -0.00042773       0.33391105 </v>
    <v>       0.66575796       0.83258253       0.33405250 </v>
   </varray>
  </structure>
  <varray name="forces" >
   <v>       0.01436279      -0.01377200      -0.17042364 </v>
   <v>      -0.13874160      -0.13086283      -0.12960560 </v>
   <v>       0.19817146      -0.03293258      -0.12823795 </v>
   <v>      -0.06458047       0.18163592      -0.13223491 </v>
   <v>      -0.09309081      -0.09589922       0.18018143 </v>
   <v>       0.13228288      -0.02619299       0.17689307 </v>
   <v>      -0.04867285       0.11740987       0.17565787 </v>
   <v>      -0.19895004      -0.08718925      -0.00215301 </v>
[...]
       <r>     2.7481     0.8435    30.8982 </r>
       <r>     2.8548     0.5686    30.9589 </r>
       <r>     2.9616     1.1571    31.0823 </r>
       <r>     3.0683     1.5345    31.2461 </r>
       <r>     3.1750     1.2515    31.3796 </r>
       <r>     3.2817     1.2714    31.5153 </r>
       <r>     3.3884     1.2840    31.6523 </r>
       <r>     3.4951     1.4420    31.8062 </r>
       <r>     3.6018     2.1563    32.0363 </r>
       <r>     3.7085     2.8269    32.3380 </r>
       <r>     3.8153     3.1763    32.6769 </r>
       <r>     3.9220     2.9014    32.9865 </r>
       <r>     4.0287     3.0106    33.3078 </r>
       <r>     4.1354     3.1305    33.6419 </r>
       <r>     4.2421     3.2948    33.9935 </r>
       <r>     4.3488     3.0813    34.3223 </r>
       <r>     4.4555     2.9306    34.6350 </r>
       <r>     4.5622     2.7816    34.9318 </r>
       <r>     4.6689     2.7885    35.2294 </r>
       <r>     4.7757     3.4798    35.6007 </r>
       <r>     4.8824     3.0621    35.9275 </r>
       <r>     4.9891     2.7857    36.2248 </r>
       <r>     5.0958     3.2849    36.5753 </r>
       <r>     5.2025     3.4144    36.9396 </r>
       <r>     5.3092     3.0630    37.2665 </r>
       <r>     5.4159     2.7265    37.5575 </r>
       <r>     5.5226     2.5461    37.8292 </r>
       <r>     5.6294     3.4166    38.1938 </r>
       <r>     5.7361     3.2208    38.5374 </r>
       <r>     5.8428     2.9468    38.8519 </r>
       <r>     5.9495     2.4481    39.1131 </r>
       <r>     6.0562     2.5342    39.3836 </r>
       <r>     6.1629     1.9592    39.5927 </r>
       <r>     6.2696     2.5078    39.8603 </r>
       <r>     6.3763     2.9492    40.1750 </r>
       <r>     6.4831     3.0120    40.4964 </r>
       <r>     6.5898     3.1403    40.8315 </r>
       <r>     6.6965     3.6281    41.2187 </r>
       <r>     6.8032     4.1621    41.6628 </r>
       <r>     6.9099     3.2651    42.0112 </r>
       <r>     7.0166     3.2862    42.3619 </r>
       <r>     7.1233     3.4805    42.7333 </r>
       <r>     7.2300     2.7008    43.0215 </r>
       <r>     7.3368     2.4373    43.2816 </r>
       <r>     7.4435     2.6809    43.5677 </r>
       <r>     7.5502     3.0101    43.8889 </r>
       <r>     7.6569     3.1530    44.2254 </r>
       <r>     7.7636     3.9691    44.6489 </r>
       <r>     7.8703     4.2751    45.1051 </r>
       <r>     7.9770     3.2483    45.4518 </r>
       <r>     8.0837     4.1597    45.8957 </r>
       <r>     8.1904     4.3126    46.3559 </r>
       <r>     8.2972     4.2504    46.8094 </r>
       <r>     8.4039     4.9383    47.3364 </r>
       <r>     8.5106     3.2041    47.6783 </r>
       <r>     8.6173     1.5531    47.8441 </r>
       <r>     8.7240     0.6655    47.9151 </r>
       <r>     8.8307     0.4083    47.9587 </r>
       <r>     8.9374     0.3155    47.9923 </r>
       <r>     9.0441     0.0692    47.9997 </r>
       <r>     9.1509     0.0027    48.0000 </r>
       <r>     9.2576     0.0000    48.0000 </r>
       <r>     9.3643     0.0000    48.0000 </r>
       <r>     9.4710     0.0000    48.0000 </r>
       <r>     9.5777     0.0000    48.0000 </r>
       <r>     9.6844     0.0000    48.0000 </r>
       <r>     9.7911     0.0000    48.0000 </r>
       <r>     9.8978     0.0000    48.0000 </r>
       <r>    10.0046     0.0000    48.0000 </r>
       <r>    10.1113     0.0000    48.0000 </r>
       <r>    10.2180     0.0000    48.0000 </r>
       <r>    10.3247     0.0000    48.0000 </r>
      </set>
      <set comment="spin 2">
       <r>   -21.6889     0.0000     0.0000 </r>
       <r>   -21.5822     0.0000     0.0000 </r>
       <r>   -21.4755     0.0000     0.0000 </r>
       <r>   -21.3688     0.0000     0.0000 </r>
       <r>   -21.2621     0.0000     0.0000 </r>
       <r>   -21.1554     0.0000     0.0000 </r>
       <r>   -21.0487     0.0000     0.0000 </r>
       <r>   -20.9420     0.0000     0.0000 </r>
       <r>   -20.8352     0.0000     0.0000 </r>
       <r>   -20.7285     0.0000     0.0000 </r>
       <r>   -20.6218     0.0000     0.0000 </r>
       <r>   -20.5151     0.0000     0.0000 </r>
       <r>   -20.4084     0.0009     0.0001 </r>
       <r>   -20.3017     0.0347     0.0038 </r>
       <r>   -20.1950     0.2526     0.0307 </r>
       <r>   -20.0883     0.5314     0.0875 </r>
       <r>   -19.9815     0.5788     0.1492 </r>
       <r>   -19.8748     0.6319     0.2167 </r>
       <r>   -19.7681     0.5321     0.2734 </r>
       <r>   -19.6614     0.6892     0.3470 </r>
       <r>   -19.5547     0.5394     0.4046 </r>
       <r>   -19.4480     0.5453     0.4627 </r>
       <r>   -19.3413     0.7691     0.5448 </r>
       <r>   -19.2346     0.4874     0.5968 </r>
       <r>   -19.1279     0.4978     0.6500 </r>
       <r>   -19.0211     0.7830     0.7335 </r>
       <r>   -18.9144     0.6658     0.8046 </r>
       <r>   -18.8077     0.3783     0.8449 </r>
       <r>   -18.7010     0.5623     0.9049 </r>
       <r>   -18.5943     0.8846     0.9993 </r>
       <r>   -18.4876     0.5832     1.0616 </r>
       <r>   -18.3809     0.4852     1.1133 </r>
       <r>   -18.2742     0.3824     1.1542 </r>
       <r>   -18.1674     0.8512     1.2450 </r>
       <r>   -18.0607     0.8434     1.3350 </r>
       <r>   -17.9540     0.4505     1.3831 </r>
       <r>   -17.8473     0.4224     1.4281 </r>
       <r>   -17.7406     0.5260     1.4843 </r>
       <r>   -17.6339     0.7987     1.5695 </r>
       <r>   -17.5272     0.8644     1.6617 </r>
       <r>   -17.4205     0.7115     1.7377 </r>
       <r>   -17.3137     0.8352     1.8268 </r>
       <r>   -17.2070     1.3130     1.9669 </r>
       <r>   -17.1003     1.8726     2.1667 </r>
       <r>   -16.9936     2.0013     2.3803 </r>
       <r>   -16.8869     2.1928     2.6143 </r>
       <r>   -16.7802     2.6677     2.8990 </r>
       <r>   -16.6735     2.0759     3.1205 </r>
       <r>   -16.5668     0.6430     3.1891 </r>
       <r>   -16.4600     0.9392     3.2893 </r>
       <r>   -16.3533     1.0361     3.3999 </r>
       <r>   -16.2466     0.5828     3.4621 </r>
       <r>   -16.1399     0.5298     3.5186 </r>
       <r>   -16.0332     0.4971     3.5717 </r>
       <r>   -15.9265     0.4844     3.6233 </r>
       <r>   -15.8198     0.4755     3.6741 </r>
       <r>   -15.7131     1.0424     3.7853 </r>
       <r>   -15.6064     1.0237     3.8946 </r>
       <r>   -15.4996     0.5000     3.9479 </r>
       <r>   -15.3929     0.4947     4.0007 </r>
       <r>   -15.2862     0.4334     4.0470 </r>
       <r>   -15.1795     0.5958     4.1105 </r>
       <r>   -15.0728     0.7966     4.1955 </r>
       <r>   -14.9661     1.3839     4.3432 </r>
       <r>   -14.8594     2.1641     4.5742 </r>
       <r>   -14.7527     2.3445     4.8243 </r>
       <r>   -14.6459     2.2186     5.0611 </r>
       <r>   -14.5392     1.3990     5.2104 </r>
       <r>   -14.4325     0.9945     5.3165 </r>
       <r>   -14.3258     1.9252     5.5220 </r>
       <r>   -14.2191     1.9625     5.7314 </r>
       <r>   -14.1124     1.4103     5.8819 </r>
       <r>   -14.0057     1.3769     6.0288 </r>
       <r>   -13.8990     1.6069     6.2003 </r>
       <r>   -13.7922     2.5334     6.4706 </r>
       <r>   -13.6855     2.5395     6.7416 </r>
       <r>   -13.5788     2.3051     6.9876 </r>
       <r>   -13.4721     1.3947     7.1364 </r>
       <r>   -13.3654     0.8578     7.2280 </r>
       <r>   -13.2587     0.4207     7.2729 </r>
       <r>   -13.1520     0.5250     7.3289 </r>
       <r>   -13.0453     0.8833     7.4232 </r>
       <r>   -12.9386     0.8767     7.5167 </r>
       <r>   -12.8318     0.6185     7.5827 </r>
       <r>   -12.7251     0.8736     7.6759 </r>
       <r>   -12.6184     0.9000     7.7720 </r>
       <r>   -12.5117     0.7122     7.8480 </r>
       <r>   -12.4050     0.6867     7.9213 </r>
       <r>   -12.2983     0.4245     7.9666 </r>
       <r>   -12.1916     0.8288     8.0550 </r>
       <r>   -12.0849     1.0203     8.1639 </r>
       <r>   -11.9781     0.4213     8.2088 </r>
       <r>   -11.8714     0.4325     8.2550 </r>
       <r>   -11.7647     0.4356     8.3015 </r>
       <r>   -11.6580     0.7784     8.3845 </r>
       <r>   -11.5513     0.8559     8.4759 </r>
       <r>   -11.4446     0.4766     8.5267 </r>
       <r>   -11.3379     0.2429     8.5527 </r>
       <r>   -11.2312     0.6102     8.6178 </r>
       <r>   -11.1244     0.7440     8.6972 </r>
       <r>   -11.0177     0.6547     8.7670 </r>
       <r>   -10.9110     0.9940     8.8731 </r>
       <r>   -10.8043     0.7692     8.9552 </r>
       <r>   -10.6976     0.3164     8.9889 </r>
       <r>   -10.5909     1.0292     9.0988 </r>
       <r>   -10.4842     1.6344     9.2732 </r>
       <r>   -10.3775     1.9655     9.4829 </r>
       <r>   -10.2707     1.8885     9.6845 </r>
       <r>   -10.1640     1.8655     9.8835 </r>
       <r>   -10.0573     2.3238    10.1315 </r>
       <r>    -9.9506     2.3819    10.3857 </r>
       <r>    -9.8439     1.2343    10.5174 </r>
       <r>    -9.7372     0.8822    10.6115 </r>
       <r>    -9.6305     1.8221    10.8060 </r>
       <r>    -9.5238     1.9812    11.0174 </r>
       <r>    -9.4171     2.0971    11.2412 </r>
       <r>    -9.3103     1.9788    11.4523 </r>
       <r>    -9.2036     1.8009    11.6445 </r>
       <r>    -9.0969     1.3449    11.7880 </r>
       <r>    -8.9902     0.9942    11.8941 </r>
       <r>    -8.8835     1.9995    12.1075 </r>
       <r>    -8.7768     2.6201    12.3871 </r>
       <r>    -8.6701     1.9385    12.5940 </r>
       <r>    -8.5634     0.9744    12.6979 </r>
       <r>    -8.4566     1.4113    12.8485 </r>
       <r>    -8.3499     2.6706    13.1335 </r>
       <r>    -8.2432     2.3446    13.3837 </r>
       <r>    -8.1365     1.4969    13.5435 </r>
       <r>    -8.0298     2.1042    13.7680 </r>
       <r>    -7.9231     3.2143    14.1110 </r>
       <r>    -7.8164     3.1428    14.4464 </r>
       <r>    -7.7097     2.5429    14.7177 </r>
       <r>    -7.6029     1.2846    14.8548 </r>
       <r>    -7.4962     1.0903    14.9712 </r>
       <r>    -7.3895     2.4077    15.2281 </r>
       <r>    -7.2828     2.2969    15.4732 </r>
       <r>    -7.1761     1.4958    15.6328 </r>
       <r>    -7.0694     1.4189    15.7842 </r>
       <r>    -6.9627     2.1784    16.0167 </r>
       <r>    -6.8560     2.3244    16.2647 </r>
       <r>    -6.7492     2.5724    16.5392 </r>
       <r>    -6.6425     2.6455    16.8215 </r>
       <r>    -6.5358     2.3394    17.0712 </r>
       <r>    -6.4291     2.6082    17.3495 </r>
       <r>    -6.3224     2.1879    17.5830 </r>
       <r>    -6.2157     2.3983    17.8389 </r>
       <r>    -6.1090     3.3561    18.1971 </r>
       <r>    -6.0023     2.8846    18.5049 </r>
       <r>    -5.8956     4.0433    18.9363 </r>
       <r>    -5.7888     3.6643    19.3274 </r>
       <r>    -5.6821     2.0551    19.5467 </r>
       <r>    -5.5754     2.3602    19.7985 </r>
       <r>    -5.4687     4.2359    20.2506 </r>
       <r>    -5.3620     4.6197    20.7435 </r>
       <r>    -5.2553     2.9601    21.0594 </r>
       <r>    -5.1486     2.1260    21.2863 </r>
       <r>    -5.0419     1.3458    21.4299 </r>
       <r>    -4.9351     1.3763    21.5768 </r>
       <r>    -4.8284     1.8269    21.7717 </r>
       <r>    -4.7217     1.3858    21.9196 </r>
       <r>    -4.6150     1.0156    22.0280 </r>
       <r>    -4.5083     1.1878    22.1547 </r>
       <r>    -4.4016     2.1441    22.3835 </r>
       <r>    -4.2949     2.8323    22.6858 </r>
       <r>    -4.1882     2.3682    22.9385 </r>
       <r>    -4.0814     2.4200    23.1967 </r>
       <r>    -3.9747     2.8425    23.5000 </r>
       <r>    -3.8680     3.0333    23.8237 </r>
       <r>    -3.7613     2.3304    24.0724 </r>
       <r>    -3.6546     2.3226    24.3203 </r>
       <r>    -3.5479     2.6113    24.5989 </r>
       <r>    -3.4412     2.0160    24.8141 </r>
       <r>    -3.3345     1.7712    25.0031 </r>
       <r>    -3.2277     1.6706    25.1813 </r>
       <r>    -3.1210     2.2048    25.4166 </r>
       <r>    -3.0143     2.3380    25.6661 </r>
       <r>    -2.9076     1.5157    25.8278 </r>
       <r>    -2.8009     1.5156    25.9896 </r>
       <r>    -2.6942     0.9557    26.0916 </r>
       <r>    -2.5875     1.3001    26.2303 </r>
       <r>    -2.4808     2.5250    26.4997 </r>
       <r>    -2.3741     1.8166    26.6936 </r>
       <r>    -2.2673     0.5102    26.7480 </r>
       <r>    -2.1606     0.6043    26.8125 </r>
       <r>    -2.0539     1.3203    26.9534 </r>
       <r>    -1.9472     1.3196    27.0942 </r>
       <r>    -1.8405     1.4355    27.2474 </r>
       <r>    -1.7338     1.4819    27.4056 </r>
       <r>    -1.6271     1.2135    27.5350 </r>
       <r>    -1.5204     0.9111    27.6323 </r>
       <r>    -1.4136     0.5822    27.6944 </r>
       <r>    -1.3069     0.5042    27.7482 </r>
       <r>    -1.2002     0.5141    27.8031 </r>
       <r>    -1.0935     0.5128    27.8578 </r>
       <r>    -0.9868     0.7513    27.9380 </r>
       <r>    -0.8801     0.3649    27.9769 </r>
       <r>    -0.7734     0.0776    27.9852 </r>
       <r>    -0.6667     0.0085    27.9861 </r>
       <r>    -0.5599     0.0003    27.9861 </r>
       <r>    -0.4532     0.0109    27.9873 </r>
       <r>    -0.3465     0.0965    27.9976 </r>
       <r>    -0.2398     0.1267    28.0111 </r>
       <r>    -0.1331     0.0252    28.0138 </r>
       <r>    -0.0264     0.0007    28.0139 </r>
       <r>     0.0803     0.0000    28.0139 </r>
       <r>     0.1870     0.0070    28.0146 </r>
       <r>     0.2938     0.1461    28.0302 </r>
       <r>     0.4005     0.4274    28.0758 </r>
       <r>     0.5072     0.2008    28.0973 </r>
       <r>     0.6139     0.1578    28.1141 </r>
       <r>     0.7206     0.4266    28.1596 </r>
       <r>     0.8273     0.6687    28.2310 </r>
       <r>     0.9340     1.2615    28.3656 </r>
       <r>     1.0407     3.2859    28.7163 </r>
       <r>     1.1474     2.6155    28.9954 </r>
       <r>     1.2542     0.6372    29.0634 </r>
       <r>     1.3609     0.5371    29.1207 </r>
       <r>     1.4676     1.0803    29.2360 </r>
       <r>     1.5743     1.6190    29.4087 </r>
       <r>     1.6810     2.4695    29.6722 </r>
       <r>     1.7877     1.9674    29.8822 </r>
       <r>     1.8944     0.8261    29.9704 </r>
       <r>     2.0011     0.8633    30.0625 </r>
       <r>     2.1079     1.2757    30.1986 </r>
       <r>     2.2146     0.9366    30.2986 </r>
       <r>     2.3213     1.0560    30.4112 </r>
       <r>     2.4280     0.9400    30.5116 </r>
       <r>     2.5347     1.3575    30.6564 </r>
       <r>     2.6414     1.4220    30.8082 </r>
       <r>     2.7481     0.8435    30.8982 </r>
       <r>     2.8548     0.5687    30.9589 </r>
       <r>     2.9616     1.1572    31.0824 </r>
       <r>     3.0683     1.5346    31.2461 </r>
       <r>     3.1750     1.2515    31.3797 </r>
       <r>     3.2817     1.2716    31.5154 </r>
       <r>     3.3884     1.2839    31.6524 </r>
       <r>     3.4951     1.4420    31.8062 </r>
       <r>     3.6018     2.1564    32.0364 </r>
       <r>     3.7085     2.8268    32.3380 </r>
       <r>     3.8153     3.1763    32.6770 </r>
       <r>     3.9220     2.9013    32.9866 </r>
       <r>     4.0287     3.0107    33.3078 </r>
       <r>     4.1354     3.1304    33.6419 </r>
       <r>     4.2421     3.2949    33.9935 </r>
       <r>     4.3488     3.0814    34.3223 </r>
       <r>     4.4555     2.9308    34.6351 </r>
       <r>     4.5622     2.7819    34.9319 </r>
       <r>     4.6689     2.7892    35.2296 </r>
       <r>     4.7757     3.4804    35.6010 </r>
       <r>     4.8824     3.0617    35.9277 </r>
       <r>     4.9891     2.7860    36.2250 </r>
       <r>     5.0958     3.2852    36.5756 </r>
       <r>     5.2025     3.4146    36.9399 </r>
       <r>     5.3092     3.0627    37.2668 </r>
       <r>     5.4159     2.7255    37.5576 </r>
       <r>     5.5226     2.5462    37.8293 </r>
       <r>     5.6294     3.4172    38.1940 </r>
       <r>     5.7361     3.2221    38.5378 </r>
       <r>     5.8428     2.9450    38.8521 </r>
       <r>     5.9495     2.4477    39.1133 </r>
       <r>     6.0562     2.5343    39.3837 </r>
       <r>     6.1629     1.9601    39.5929 </r>
       <r>     6.2696     2.5090    39.8606 </r>
       <r>     6.3763     2.9480    40.1752 </r>
       <r>     6.4831     3.0117    40.4966 </r>
       <r>     6.5898     3.1405    40.8317 </r>
       <r>     6.6965     3.6293    41.2190 </r>
       <r>     6.8032     4.1624    41.6632 </r>
       <r>     6.9099     3.2653    42.0116 </r>
       <r>     7.0166     3.2870    42.3624 </r>
       <r>     7.1233     3.4789    42.7336 </r>
       <r>     7.2300     2.6991    43.0217 </r>
       <r>     7.3368     2.4377    43.2818 </r>
       <r>     7.4435     2.6841    43.5682 </r>
       <r>     7.5502     3.0081    43.8892 </r>
       <r>     7.6569     3.1523    44.2256 </r>
       <r>     7.7636     3.9698    44.6492 </r>
       <r>     7.8703     4.2745    45.1054 </r>
       <r>     7.9770     3.2494    45.4521 </r>
       <r>     8.0837     4.1606    45.8961 </r>
       <r>     8.1904     4.3110    46.3561 </r>
       <r>     8.2972     4.2502    46.8097 </r>
       <r>     8.4039     4.9385    47.3367 </r>
       <r>     8.5106     3.2025    47.6784 </r>
       <r>     8.6173     1.5525    47.8441 </r>
       <r>     8.7240     0.6653    47.9151 </r>
       <r>     8.8307     0.4083    47.9587 </r>
       <r>     8.9374     0.3155    47.9923 </r>
       <r>     9.0441     0.0692    47.9997 </r>
       <r>     9.1509     0.0027    48.0000 </r>
       <r>     9.2576     0.0000    48.0000 </r>
       <r>     9.3643     0.0000    48.0000 </r>
       <r>     9.4710     0.0000    48.0000 </r>
       <r>     9.5777     0.0000    48.0000 </r>
       <r>     9.6844     0.0000    48.0000 </r>
       <r>     9.7911     0.0000    48.0000 </r>
       <r>     9.8978     0.0000    48.0000 </r>
       <r>    10.0046     0.0000    48.0000 </r>
       <r>    10.1113     0.0000    48.0000 </r>
       <r>    10.2180     0.0000    48.0000 </r>
       <r>    10.3247     0.0000    48.0000 </r>
      </set>
     </set>
    </array>
   </total>
  </dos>
 </calculation>
 <structure name="finalpos" >
  <crystal>
   <varray name="basis" >
    <v>       4.19935718       2.42450000       0.00000000 </v>
    <v>      -4.19935718       2.42450000       0.00000000 </v>
    <v>       0.00000000       0.00000000      15.00000000 </v>
   </varray>
   <i name="volume">    305.44024470 </i>
   <varray name="rec_basis" >
    <v>       0.11906584       0.20622809       0.00000000 </v>
    <v>      -0.11906584       0.20622809       0.00000000 </v>
    <v>       0.00000000       0.00000000       0.06666667 </v>
   </varray>
  </crystal>
  <varray name="positions" >
   <v>       0.00405554       0.00269847       0.10125621 </v>
   <v>       0.35923463       0.00297548       0.10053482 </v>
   <v>       0.00376552       0.35759302       0.10053552 </v>
   <v>       0.64915477       0.64751376       0.10053205 </v>
   <v>       0.32774063       0.32610777       0.10054665 </v>
   <v>       0.68063550       0.00296672       0.10054659 </v>
   <v>       0.00377673       0.67900203       0.10054391 </v>
   <v>       0.00014176       0.50006724       0.33488029 </v>
   <v>       0.16678063       0.33344457       0.33491552 </v>
   <v>       0.00011654       0.00007094       0.33484367 </v>
   <v>       0.16682414       0.83340798       0.33491933 </v>
   <v>       0.50012383       0.50010469       0.33488300 </v>
   <v>       0.66678268       0.33340580       0.33478077 </v>
   <v>       0.50008448       0.00004605       0.33487868 </v>
   <v>       0.66674329       0.83336282       0.33491566 </v>
  </varray>
 </structure>
</modeling>
