   2   2   0   0
  0.3953030E+02  0.2467000E-09  0.2467000E-09  0.1500000E-08  0.5000000E-15
  1.000000000000000E-004
  CAR 
 Dielectric                              
     83.89090537    -26.79359384 4000     -2.35387396      1.00000000
    -26.794  0.0000E+00  0.0000E+00
    -26.766  0.0000E+00  0.0000E+00
    -26.738  0.0000E+00  0.0000E+00
    -26.711  0.0000E+00  0.0000E+00
    -26.683  0.0000E+00  0.0000E+00
    -26.655  0.0000E+00  0.0000E+00
    -26.628  0.0000E+00  0.0000E+00
    -26.600  0.0000E+00  0.0000E+00
    -26.572  0.0000E+00  0.0000E+00
    -26.544  0.0000E+00  0.0000E+00
    -26.517  0.0000E+00  0.0000E+00
    -26.489  0.0000E+00  0.0000E+00
    -26.461  0.0000E+00  0.0000E+00
    -26.434  0.0000E+00  0.0000E+00
    -26.406  0.0000E+00  0.0000E+00
    -26.378  0.0000E+00  0.0000E+00
    -26.351  0.0000E+00  0.0000E+00
    -26.323  0.0000E+00  0.0000E+00
    -26.295  0.0000E+00  0.0000E+00
    -26.268  0.0000E+00  0.0000E+00
    -26.240  0.0000E+00  0.0000E+00
    -26.212  0.0000E+00  0.0000E+00
    -26.185  0.0000E+00  0.0000E+00
    -26.157  0.0000E+00  0.0000E+00
    -26.129  0.0000E+00  0.0000E+00
    -26.102  0.0000E+00  0.0000E+00
    -26.074  0.0000E+00  0.0000E+00
    -26.046  0.0000E+00  0.0000E+00
    -26.019  0.0000E+00  0.0000E+00
    -25.991  0.0000E+00  0.0000E+00
    -25.963  0.0000E+00  0.0000E+00
    -25.936  0.0000E+00  0.0000E+00
    -25.908  0.0000E+00  0.0000E+00
    -25.880  0.0000E+00  0.0000E+00
    -25.853  0.0000E+00  0.0000E+00
    -25.825  0.0000E+00  0.0000E+00
    -25.797  0.0000E+00  0.0000E+00
    -25.770  0.0000E+00  0.0000E+00
    -25.742  0.0000E+00  0.0000E+00
    -25.714  0.0000E+00  0.0000E+00
    -25.686  0.0000E+00  0.0000E+00
    -25.659  0.0000E+00  0.0000E+00
    -25.631  0.0000E+00  0.0000E+00
    -25.603  0.0000E+00  0.0000E+00
    -25.576  0.0000E+00  0.0000E+00
    -25.548  0.0000E+00  0.0000E+00
    -25.520  0.0000E+00  0.0000E+00
    -25.493  0.0000E+00  0.0000E+00
    -25.465  0.0000E+00  0.0000E+00
    -25.437  0.0000E+00  0.0000E+00
    -25.410  0.0000E+00  0.0000E+00
    -25.382  0.0000E+00  0.0000E+00
    -25.354  0.0000E+00  0.0000E+00
    -25.327  0.0000E+00  0.0000E+00
    -25.299  0.0000E+00  0.0000E+00
    -25.271  0.0000E+00  0.0000E+00
    -25.244  0.0000E+00  0.0000E+00
    -25.216  0.0000E+00  0.0000E+00
    -25.188  0.0000E+00  0.0000E+00
    -25.161  0.0000E+00  0.0000E+00
    -25.133  0.0000E+00  0.0000E+00
    -25.105  0.0000E+00  0.0000E+00
    -25.078  0.0000E+00  0.0000E+00
    -25.050  0.0000E+00  0.0000E+00
    -25.022  0.0000E+00  0.0000E+00
    -24.995  0.0000E+00  0.0000E+00
    -24.967  0.0000E+00  0.0000E+00
    -24.939  0.0000E+00  0.0000E+00
    -24.911  0.0000E+00  0.0000E+00
    -24.884  0.0000E+00  0.0000E+00
    -24.856  0.0000E+00  0.0000E+00
    -24.828  0.0000E+00  0.0000E+00
    -24.801  0.0000E+00  0.0000E+00
    -24.773  0.0000E+00  0.0000E+00
    -24.745  0.0000E+00  0.0000E+00
    -24.718  0.0000E+00  0.0000E+00
    -24.690  0.0000E+00  0.0000E+00
    -24.662  0.0000E+00  0.0000E+00
    -24.635  0.0000E+00  0.0000E+00
    -24.607  0.0000E+00  0.0000E+00
    -24.579  0.0000E+00  0.0000E+00
    -24.552  0.0000E+00  0.0000E+00
    -24.524  0.0000E+00  0.0000E+00
    -24.496  0.0000E+00  0.0000E+00
    -24.469  0.0000E+00  0.0000E+00
    -24.441  0.0000E+00  0.0000E+00
    -24.413  0.0000E+00  0.0000E+00
    -24.386  0.0000E+00  0.0000E+00
    -24.358  0.0000E+00  0.0000E+00
    -24.330  0.0000E+00  0.0000E+00
    -24.303  0.0000E+00  0.0000E+00
    -24.275  0.0000E+00  0.0000E+00
    -24.247  0.0000E+00  0.0000E+00
    -24.220  0.0000E+00  0.0000E+00
    -24.192  0.0000E+00  0.0000E+00
    -24.164  0.0000E+00  0.0000E+00
    -24.137  0.0000E+00  0.0000E+00
    -24.109  0.0000E+00  0.0000E+00
    -24.081  0.0000E+00  0.0000E+00
    -24.053  0.0000E+00  0.0000E+00
    -24.026  0.0000E+00  0.0000E+00
    -23.998  0.0000E+00  0.0000E+00
    -23.970  0.0000E+00  0.0000E+00
    -23.943  0.0000E+00  0.0000E+00
    -23.915  0.0000E+00  0.0000E+00
    -23.887  0.0000E+00  0.0000E+00
    -23.860  0.0000E+00  0.0000E+00
    -23.832  0.0000E+00  0.0000E+00
    -23.804  0.0000E+00  0.0000E+00
    -23.777  0.0000E+00  0.0000E+00
    -23.749  0.0000E+00  0.0000E+00
    -23.721  0.0000E+00  0.0000E+00
    -23.694  0.0000E+00  0.0000E+00
    -23.666  0.0000E+00  0.0000E+00
    -23.638  0.0000E+00  0.0000E+00
    -23.611  0.0000E+00  0.0000E+00
    -23.583  0.0000E+00  0.0000E+00
    -23.555  0.0000E+00  0.0000E+00
    -23.528  0.0000E+00  0.0000E+00
    -23.500  0.0000E+00  0.0000E+00
    -23.472  0.0000E+00  0.0000E+00
    -23.445  0.0000E+00  0.0000E+00
    -23.417  0.0000E+00  0.0000E+00
    -23.389  0.0000E+00  0.0000E+00
    -23.362  0.0000E+00  0.0000E+00
    -23.334  0.0000E+00  0.0000E+00
    -23.306  0.0000E+00  0.0000E+00
    -23.278  0.0000E+00  0.0000E+00
    -23.251  0.0000E+00  0.0000E+00
    -23.223  0.0000E+00  0.0000E+00
    -23.195  0.0000E+00  0.0000E+00
    -23.168  0.0000E+00  0.0000E+00
    -23.140  0.0000E+00  0.0000E+00
    -23.112  0.0000E+00  0.0000E+00
    -23.085  0.0000E+00  0.0000E+00
    -23.057  0.0000E+00  0.0000E+00
    -23.029  0.0000E+00  0.0000E+00
    -23.002  0.0000E+00  0.0000E+00
    -22.974  0.0000E+00  0.0000E+00
    -22.946  0.0000E+00  0.0000E+00
    -22.919  0.0000E+00  0.0000E+00
    -22.891  0.0000E+00  0.0000E+00
    -22.863  0.0000E+00  0.0000E+00
    -22.836  0.0000E+00  0.0000E+00
    -22.808  0.0000E+00  0.0000E+00
    -22.780  0.0000E+00  0.0000E+00
    -22.753  0.0000E+00  0.0000E+00
    -22.725  0.0000E+00  0.0000E+00
    -22.697  0.0000E+00  0.0000E+00
    -22.670  0.0000E+00  0.0000E+00
    -22.642  0.0000E+00  0.0000E+00
    -22.614  0.0000E+00  0.0000E+00
    -22.587  0.0000E+00  0.0000E+00
    -22.559  0.0000E+00  0.0000E+00
    -22.531  0.0000E+00  0.0000E+00
    -22.503  0.0000E+00  0.0000E+00
    -22.476  0.0000E+00  0.0000E+00
    -22.448  0.0000E+00  0.0000E+00
    -22.420  0.0000E+00  0.0000E+00
    -22.393  0.0000E+00  0.0000E+00
    -22.365  0.0000E+00  0.0000E+00
    -22.337  0.0000E+00  0.0000E+00
    -22.310  0.0000E+00  0.0000E+00
    -22.282  0.0000E+00  0.0000E+00
    -22.254  0.0000E+00  0.0000E+00
    -22.227  0.0000E+00  0.0000E+00
    -22.199  0.0000E+00  0.0000E+00
    -22.171  0.0000E+00  0.0000E+00
    -22.144  0.0000E+00  0.0000E+00
    -22.116  0.0000E+00  0.0000E+00
    -22.088  0.0000E+00  0.0000E+00
    -22.061  0.0000E+00  0.0000E+00
    -22.033  0.0000E+00  0.0000E+00
    -22.005  0.0000E+00  0.0000E+00
    -21.978  0.0000E+00  0.0000E+00
    -21.950  0.0000E+00  0.0000E+00
    -21.922  0.0000E+00  0.0000E+00
    -21.895  0.0000E+00  0.0000E+00
    -21.867  0.0000E+00  0.0000E+00
    -21.839  0.0000E+00  0.0000E+00
    -21.812  0.3434E-13  0.9504E-15
    -21.784  0.2824E-04  0.7817E-06
    -21.756  0.7744E-01  0.2144E-02
    -21.729  0.2902E+00  0.1018E-01
    -21.701  0.2941E+00  0.1832E-01
    -21.673  0.3291E+00  0.2743E-01
    -21.645  0.3426E+00  0.3691E-01
    -21.618  0.2271E+00  0.4319E-01
    -21.590  0.3932E+00  0.5408E-01
    -21.562  0.1968E+00  0.5952E-01
    -21.535  0.4225E+00  0.7122E-01
    -21.507  0.2165E+00  0.7721E-01
    -21.479  0.4090E+00  0.8853E-01
    -21.452  0.2337E+00  0.9500E-01
    -21.424  0.2604E+00  0.1022E+00
    -21.396  0.4406E+00  0.1144E+00
    -21.369  0.1986E+00  0.1199E+00
    -21.341  0.3358E+00  0.1292E+00
    -21.313  0.3886E+00  0.1400E+00
    -21.286  0.2711E+00  0.1475E+00
    -21.258  0.1653E+00  0.1520E+00
    -21.230  0.4919E+00  0.1656E+00
    -21.203  0.2565E+00  0.1727E+00
    -21.175  0.2369E+00  0.1793E+00
    -21.147  0.3617E+00  0.1893E+00
    -21.120  0.3792E+00  0.1998E+00
    -21.092  0.2164E+00  0.2058E+00
    -21.064  0.2660E+00  0.2132E+00
    -21.037  0.3968E+00  0.2241E+00
    -21.009  0.4216E+00  0.2358E+00
    -20.981  0.1875E+00  0.2410E+00
    -20.954  0.1487E+00  0.2451E+00
    -20.926  0.5480E+00  0.2603E+00
    -20.898  0.2319E+00  0.2667E+00
    -20.870  0.3372E+00  0.2760E+00
    -20.843  0.1958E+00  0.2815E+00
    -20.815  0.3414E+00  0.2909E+00
    -20.787  0.5028E+00  0.3048E+00
    -20.760  0.1484E+00  0.3089E+00
    -20.732  0.3413E+00  0.3184E+00
    -20.704  0.1933E+00  0.3237E+00
    -20.677  0.4098E+00  0.3351E+00
    -20.649  0.4596E+00  0.3478E+00
    -20.621  0.1799E+00  0.3528E+00
    -20.594  0.2563E+00  0.3599E+00
    -20.566  0.1924E+00  0.3652E+00
    -20.538  0.5479E+00  0.3803E+00
    -20.511  0.2933E+00  0.3885E+00
    -20.483  0.4176E+00  0.4000E+00
    -20.455  0.5670E-01  0.4016E+00
    -20.428  0.2540E+00  0.4086E+00
    -20.400  0.4653E+00  0.4215E+00
    -20.372  0.4117E+00  0.4329E+00
    -20.345  0.2181E+00  0.4389E+00
    -20.317  0.4311E+00  0.4509E+00
    -20.289  0.5048E-01  0.4523E+00
    -20.262  0.2945E+00  0.4604E+00
    -20.234  0.5478E+00  0.4756E+00
    -20.206  0.3731E+00  0.4859E+00
    -20.179  0.2122E+00  0.4918E+00
    -20.151  0.2294E+00  0.4981E+00
    -20.123  0.2857E+00  0.5060E+00
    -20.096  0.2864E+00  0.5140E+00
    -20.068  0.4677E+00  0.5269E+00
    -20.040  0.3779E+00  0.5374E+00
    -20.012  0.3131E+00  0.5460E+00
    -19.985  0.9615E-01  0.5487E+00
    -19.957  0.3248E+00  0.5577E+00
    -19.929  0.3350E+00  0.5669E+00
    -19.902  0.4562E+00  0.5796E+00
    -19.874  0.2645E+00  0.5869E+00
    -19.846  0.3666E+00  0.5970E+00
    -19.819  0.3371E+00  0.6064E+00
    -19.791  0.6914E-01  0.6083E+00
    -19.763  0.2585E+00  0.6154E+00
    -19.736  0.6540E+00  0.6335E+00
    -19.708  0.2569E+00  0.6407E+00
    -19.680  0.2810E+00  0.6484E+00
    -19.653  0.3521E+00  0.6582E+00
    -19.625  0.2136E+00  0.6641E+00
    -19.597  0.2413E+00  0.6708E+00
    -19.570  0.1820E+00  0.6758E+00
    -19.542  0.6759E+00  0.6945E+00
    -19.514  0.3019E+00  0.7029E+00
    -19.487  0.3167E+00  0.7116E+00
    -19.459  0.2161E+00  0.7176E+00
    -19.431  0.2411E+00  0.7243E+00
    -19.404  0.3360E+00  0.7336E+00
    -19.376  0.2983E+00  0.7418E+00
    -19.348  0.3617E+00  0.7519E+00
    -19.321  0.5073E+00  0.7659E+00
    -19.293  0.2916E+00  0.7740E+00
    -19.265  0.2073E+00  0.7797E+00
    -19.237  0.2539E+00  0.7867E+00
    -19.210  0.1670E+00  0.7914E+00
    -19.182  0.4464E+00  0.8037E+00
    -19.154  0.4892E+00  0.8173E+00
    -19.127  0.1887E+00  0.8225E+00
    -19.099  0.4326E+00  0.8345E+00
    -19.071  0.3797E+00  0.8450E+00
    -19.044  0.1016E+00  0.8478E+00
    -19.016  0.3283E+00  0.8569E+00
    -18.988  0.7421E-01  0.8589E+00
    -18.961  0.6032E+00  0.8756E+00
    -18.933  0.5651E+00  0.8913E+00
    -18.905  0.1485E+00  0.8954E+00
    -18.878  0.3375E+00  0.9047E+00
    -18.850  0.2389E+00  0.9113E+00
    -18.822  0.3389E+00  0.9207E+00
    -18.795  0.1335E+00  0.9244E+00
    -18.767  0.3636E+00  0.9345E+00
    -18.739  0.3835E+00  0.9451E+00
    -18.712  0.5205E+00  0.9595E+00
    -18.684  0.4416E+00  0.9717E+00
    -18.656  0.1264E+00  0.9752E+00
    -18.629  0.2576E+00  0.9823E+00
    -18.601  0.2886E+00  0.9903E+00
    -18.573  0.2552E+00  0.9974E+00
    -18.546  0.2674E+00  0.1005E+01
    -18.518  0.6286E+00  0.1022E+01
    -18.490  0.2157E+00  0.1028E+01
    -18.463  0.4539E+00  0.1041E+01
    -18.435  0.3674E+00  0.1051E+01
    -18.407  0.1871E+00  0.1056E+01
    -18.379  0.1599E+00  0.1060E+01
    -18.352  0.2629E+00  0.1068E+01
    -18.324  0.3673E+00  0.1078E+01
    -18.296  0.4215E+00  0.1090E+01
    -18.269  0.5722E+00  0.1105E+01
    -18.241  0.1976E+00  0.1111E+01
    -18.213  0.2479E+00  0.1118E+01
    -18.186  0.4258E+00  0.1130E+01
    -18.158  0.2875E+00  0.1138E+01
    -18.130  0.7874E-01  0.1140E+01
    -18.103  0.2486E+00  0.1147E+01
    -18.075  0.5660E+00  0.1162E+01
    -18.047  0.4440E+00  0.1175E+01
    -18.020  0.4304E+00  0.1186E+01
    -17.992  0.3453E+00  0.1196E+01
    -17.964  0.4238E-01  0.1197E+01
    -17.937  0.4833E+00  0.1211E+01
    -17.909  0.2419E+00  0.1217E+01
    -17.881  0.2659E+00  0.1225E+01
    -17.854  0.1003E+00  0.1227E+01
    -17.826  0.7023E+00  0.1247E+01
    -17.798  0.3658E+00  0.1257E+01
    -17.771  0.3723E+00  0.1267E+01
    -17.743  0.4589E+00  0.1280E+01
    -17.715  0.1563E+00  0.1284E+01
    -17.688  0.1652E+00  0.1289E+01
    -17.660  0.3769E+00  0.1299E+01
    -17.632  0.2973E+00  0.1307E+01
    -17.604  0.3015E+00  0.1316E+01
    -17.577  0.4317E+00  0.1328E+01
    -17.549  0.5582E+00  0.1343E+01
    -17.521  0.2633E+00  0.1351E+01
    -17.494  0.2822E+00  0.1358E+01
    -17.466  0.5038E+00  0.1372E+01
    -17.438  0.1065E+00  0.1375E+01
    -17.411  0.1944E+00  0.1381E+01
    -17.383  0.2973E+00  0.1389E+01
    -17.355  0.4467E+00  0.1401E+01
    -17.328  0.5630E+00  0.1417E+01
    -17.300  0.2197E+00  0.1423E+01
    -17.272  0.5256E+00  0.1437E+01
    -17.245  0.2740E+00  0.1445E+01
    -17.217  0.2604E+00  0.1452E+01
    -17.189  0.4642E+00  0.1465E+01
    -17.162  0.1436E+00  0.1469E+01
    -17.134  0.1951E+00  0.1474E+01
    -17.106  0.2968E+00  0.1483E+01
    -17.079  0.7641E+00  0.1504E+01
    -17.051  0.4531E+00  0.1516E+01
    -17.023  0.1772E+00  0.1521E+01
    -16.996  0.4618E+00  0.1534E+01
    -16.968  0.2995E+00  0.1542E+01
    -16.940  0.2424E+00  0.1549E+01
    -16.913  0.4893E+00  0.1563E+01
    -16.885  0.1113E+00  0.1566E+01
    -16.857  0.2011E+00  0.1571E+01
    -16.829  0.7225E+00  0.1591E+01
    -16.802  0.6258E+00  0.1609E+01
    -16.774  0.2856E+00  0.1616E+01
    -16.746  0.3242E+00  0.1625E+01
    -16.719  0.4002E+00  0.1636E+01
    -16.691  0.4067E+00  0.1648E+01
    -16.663  0.2539E+00  0.1655E+01
    -16.636  0.3661E+00  0.1665E+01
    -16.608  0.2376E+00  0.1671E+01
    -16.580  0.7106E+00  0.1691E+01
    -16.553  0.4866E+00  0.1705E+01
    -16.525  0.8395E+00  0.1728E+01
    -16.497  0.4216E+00  0.1740E+01
    -16.470  0.5755E+00  0.1755E+01
    -16.442  0.2587E+00  0.1763E+01
    -16.414  0.4466E+00  0.1775E+01
    -16.387  0.2199E+00  0.1781E+01
    -16.359  0.1190E+00  0.1784E+01
    -16.331  0.3026E+00  0.1793E+01
    -16.304  0.7373E+00  0.1813E+01
    -16.276  0.3025E+00  0.1821E+01
    -16.248  0.2322E+00  0.1828E+01
    -16.221  0.3040E+00  0.1836E+01
    -16.193  0.3455E+00  0.1846E+01
    -16.165  0.3334E+00  0.1855E+01
    -16.138  0.6816E-03  0.1855E+01
    -16.110  0.4694E-03  0.1855E+01
    -16.082  0.9244E-01  0.1858E+01
    -16.055  0.2502E+00  0.1865E+01
    -16.027  0.6943E+00  0.1884E+01
    -15.999  0.5895E+00  0.1900E+01
    -15.971  0.1506E-01  0.1901E+01
    -15.944  0.2520E-04  0.1901E+01
    -15.916  0.6831E-01  0.1902E+01
    -15.888  0.3428E-01  0.1903E+01
    -15.861  0.5542E-02  0.1904E+01
    -15.833  0.1951E+00  0.1909E+01
    -15.805  0.2930E+00  0.1917E+01
    -15.778  0.7358E+00  0.1937E+01
    -15.750  0.1957E-02  0.1938E+01
    -15.722  0.2936E-01  0.1938E+01
    -15.695  0.7321E-01  0.1940E+01
    -15.667  0.4163E-04  0.1940E+01
    -15.639  0.3454E-01  0.1941E+01
    -15.612  0.1704E+00  0.1946E+01
    -15.584  0.1055E+00  0.1949E+01
    -15.556  0.3041E+00  0.1957E+01
    -15.529  0.3085E+00  0.1966E+01
    -15.501  0.5552E-02  0.1966E+01
    -15.473  0.1558E+00  0.1970E+01
    -15.446  0.1964E+00  0.1976E+01
    -15.418  0.2576E+00  0.1983E+01
    -15.390  0.3040E+00  0.1991E+01
    -15.363  0.3882E+00  0.2002E+01
    -15.335  0.3171E+00  0.2011E+01
    -15.307  0.5152E+00  0.2025E+01
    -15.280  0.2925E+00  0.2033E+01
    -15.252  0.1955E+00  0.2039E+01
    -15.224  0.3857E+00  0.2049E+01
    -15.196  0.5012E+00  0.2063E+01
    -15.169  0.7743E-01  0.2065E+01
    -15.141  0.8319E-01  0.2068E+01
    -15.113  0.5805E+00  0.2084E+01
    -15.086  0.6145E+00  0.2101E+01
    -15.058  0.1638E+00  0.2105E+01
    -15.030  0.3950E+00  0.2116E+01
    -15.003  0.1019E-01  0.2116E+01
    -14.975  0.2234E+00  0.2123E+01
    -14.947  0.7441E+00  0.2143E+01
    -14.920  0.4891E+00  0.2157E+01
    -14.892  0.8259E-01  0.2159E+01
    -14.864  0.1022E+00  0.2162E+01
    -14.837  0.3317E+00  0.2171E+01
    -14.809  0.5720E+00  0.2187E+01
    -14.781  0.4472E+00  0.2199E+01
    -14.754  0.3418E+00  0.2209E+01
    -14.726  0.4328E+00  0.2221E+01
    -14.698  0.3823E-01  0.2222E+01
    -14.671  0.4105E+00  0.2233E+01
    -14.643  0.8728E+00  0.2257E+01
    -14.615  0.5288E+00  0.2272E+01
    -14.588  0.5884E+00  0.2288E+01
    -14.560  0.2783E+00  0.2296E+01
    -14.532  0.4181E+00  0.2307E+01
    -14.505  0.5713E+00  0.2323E+01
    -14.477  0.2327E+00  0.2330E+01
    -14.449  0.6967E+00  0.2349E+01
    -14.422  0.5097E+00  0.2363E+01
    -14.394  0.2549E+00  0.2370E+01
    -14.366  0.1718E+00  0.2375E+01
    -14.338  0.3941E+00  0.2386E+01
    -14.311  0.5576E+00  0.2401E+01
    -14.283  0.4700E+00  0.2414E+01
    -14.255  0.3436E+00  0.2424E+01
    -14.228  0.2744E+00  0.2431E+01
    -14.200  0.4567E+00  0.2444E+01
    -14.172  0.3595E+00  0.2454E+01
    -14.145  0.1782E-01  0.2454E+01
    -14.117  0.5553E+00  0.2470E+01
    -14.089  0.7776E+00  0.2491E+01
    -14.062  0.1257E+00  0.2495E+01
    -14.034  0.1813E+00  0.2500E+01
    -14.006  0.1800E+00  0.2505E+01
    -13.979  0.5986E+00  0.2521E+01
    -13.951  0.2812E+00  0.2529E+01
    -13.923  0.3268E+00  0.2538E+01
    -13.896  0.3802E+00  0.2549E+01
    -13.868  0.4909E+00  0.2562E+01
    -13.840  0.1526E+00  0.2567E+01
    -13.813  0.2583E+00  0.2574E+01
    -13.785  0.1948E+00  0.2579E+01
    -13.757  0.4948E+00  0.2593E+01
    -13.730  0.4991E+00  0.2607E+01
    -13.702  0.2212E+00  0.2613E+01
    -13.674  0.3694E+00  0.2623E+01
    -13.647  0.2723E+00  0.2631E+01
    -13.619  0.1418E+00  0.2634E+01
    -13.591  0.1382E+00  0.2638E+01
    -13.563  0.6131E+00  0.2655E+01
    -13.536  0.4166E+00  0.2667E+01
    -13.508  0.3326E+00  0.2676E+01
    -13.480  0.4646E-01  0.2677E+01
    -13.453  0.3696E+00  0.2687E+01
    -13.425  0.3422E+00  0.2697E+01
    -13.397  0.1989E+00  0.2702E+01
    -13.370  0.2876E+00  0.2710E+01
    -13.342  0.3864E+00  0.2721E+01
    -13.314  0.4267E+00  0.2733E+01
    -13.287  0.3160E+00  0.2742E+01
    -13.259  0.1403E+00  0.2746E+01
    -13.231  0.1700E+00  0.2750E+01
    -13.204  0.1974E+00  0.2756E+01
    -13.176  0.3731E+00  0.2766E+01
    -13.148  0.5984E+00  0.2783E+01
    -13.121  0.1578E+00  0.2787E+01
    -13.093  0.3415E+00  0.2796E+01
    -13.065  0.1631E+00  0.2801E+01
    -13.038  0.4323E-01  0.2802E+01
    -13.010  0.3401E+00  0.2812E+01
    -12.982  0.4791E+00  0.2825E+01
    -12.955  0.2569E+00  0.2832E+01
    -12.927  0.3028E+00  0.2840E+01
    -12.899  0.1631E+00  0.2845E+01
    -12.872  0.4098E+00  0.2856E+01
    -12.844  0.1052E+00  0.2859E+01
    -12.816  0.2026E+00  0.2865E+01
    -12.789  0.4559E+00  0.2877E+01
    -12.761  0.2823E+00  0.2885E+01
    -12.733  0.2971E+00  0.2893E+01
    -12.705  0.5058E+00  0.2907E+01
    -12.678  0.3493E+00  0.2917E+01
    -12.650  0.4243E+00  0.2929E+01
    -12.622  0.1063E+00  0.2932E+01
    -12.595  0.3013E+00  0.2940E+01
    -12.567  0.4277E+00  0.2952E+01
    -12.539  0.5979E+00  0.2968E+01
    -12.512  0.3278E+00  0.2977E+01
    -12.484  0.3875E+00  0.2988E+01
    -12.456  0.2132E-01  0.2989E+01
    -12.429  0.3835E+00  0.2999E+01
    -12.401  0.3099E+00  0.3008E+01
    -12.373  0.7671E+00  0.3029E+01
    -12.346  0.4765E+00  0.3042E+01
    -12.318  0.2017E+00  0.3048E+01
    -12.290  0.1932E+00  0.3053E+01
    -12.263  0.2334E+00  0.3060E+01
    -12.235  0.2932E+00  0.3068E+01
    -12.207  0.4268E+00  0.3080E+01
    -12.180  0.7005E+00  0.3099E+01
    -12.152  0.4274E+00  0.3111E+01
    -12.124  0.1692E+00  0.3116E+01
    -12.097  0.3283E+00  0.3125E+01
    -12.069  0.2401E+00  0.3131E+01
    -12.041  0.5761E+00  0.3147E+01
    -12.014  0.2834E+00  0.3155E+01
    -11.986  0.2942E+00  0.3163E+01
    -11.958  0.5107E+00  0.3177E+01
    -11.930  0.2489E+00  0.3184E+01
    -11.903  0.3631E+00  0.3194E+01
    -11.875  0.3925E+00  0.3205E+01
    -11.847  0.6751E+00  0.3224E+01
    -11.820  0.1294E+00  0.3228E+01
    -11.792  0.4382E+00  0.3240E+01
    -11.764  0.3003E+00  0.3248E+01
    -11.737  0.3015E+00  0.3256E+01
    -11.709  0.3130E+00  0.3265E+01
    -11.681  0.7157E+00  0.3285E+01
    -11.654  0.8708E-01  0.3287E+01
    -11.626  0.2877E+00  0.3295E+01
    -11.598  0.5687E+00  0.3311E+01
    -11.571  0.4459E+00  0.3323E+01
    -11.543  0.4015E+00  0.3334E+01
    -11.515  0.3835E+00  0.3345E+01
    -11.488  0.4572E+00  0.3358E+01
    -11.460  0.2131E+00  0.3363E+01
    -11.432  0.2462E+00  0.3370E+01
    -11.405  0.2930E+00  0.3378E+01
    -11.377  0.3354E+00  0.3388E+01
    -11.349  0.5854E+00  0.3404E+01
    -11.322  0.7572E+00  0.3425E+01
    -11.294  0.3065E+00  0.3433E+01
    -11.266  0.3186E+00  0.3442E+01
    -11.239  0.5801E-01  0.3444E+01
    -11.211  0.3182E+00  0.3453E+01
    -11.183  0.7557E+00  0.3473E+01
    -11.155  0.3672E+00  0.3484E+01
    -11.128  0.5131E+00  0.3498E+01
    -11.100  0.7311E-01  0.3500E+01
    -11.072  0.3599E+00  0.3510E+01
    -11.045  0.3104E+00  0.3518E+01
    -11.017  0.5743E+00  0.3534E+01
    -10.989  0.4951E+00  0.3548E+01
    -10.962  0.6495E+00  0.3566E+01
    -10.934  0.3990E+00  0.3577E+01
    -10.906  0.3541E+00  0.3587E+01
    -10.879  0.1332E+00  0.3591E+01
    -10.851  0.1694E+00  0.3595E+01
    -10.823  0.1807E+00  0.3600E+01
    -10.796  0.5673E+00  0.3616E+01
    -10.768  0.9983E+00  0.3644E+01
    -10.740  0.4581E+00  0.3656E+01
    -10.713  0.3751E+00  0.3667E+01
    -10.685  0.2191E+00  0.3673E+01
    -10.657  0.2557E+00  0.3680E+01
    -10.630  0.1636E+00  0.3684E+01
    -10.602  0.4657E+00  0.3697E+01
    -10.574  0.1014E+01  0.3725E+01
    -10.547  0.1608E+00  0.3730E+01
    -10.519  0.2501E+00  0.3737E+01
    -10.491  0.4388E+00  0.3749E+01
    -10.464  0.5218E+00  0.3763E+01
    -10.436  0.1328E+00  0.3767E+01
    -10.408  0.4742E+00  0.3780E+01
    -10.381  0.1012E+01  0.3808E+01
    -10.353  0.4440E+00  0.3820E+01
    -10.325  0.7617E-01  0.3822E+01
    -10.297  0.3983E+00  0.3833E+01
    -10.270  0.1519E+00  0.3838E+01
    -10.242  0.3864E+00  0.3848E+01
    -10.214  0.3662E+00  0.3858E+01
    -10.187  0.7171E+00  0.3878E+01
    -10.159  0.8946E+00  0.3903E+01
    -10.131  0.4398E+00  0.3915E+01
    -10.104  0.4311E+00  0.3927E+01
    -10.076  0.6252E-01  0.3929E+01
    -10.048  0.1943E+00  0.3934E+01
    -10.021  0.3793E+00  0.3945E+01
     -9.993  0.4738E+00  0.3958E+01
     -9.965  0.1080E+01  0.3988E+01
     -9.938  0.2801E+00  0.3996E+01
     -9.910  0.3880E+00  0.4006E+01
     -9.882  0.4823E+00  0.4020E+01
     -9.855  0.4690E+00  0.4033E+01
     -9.827  0.7255E+00  0.4053E+01
     -9.799  0.6361E+00  0.4070E+01
     -9.772  0.1001E+01  0.4098E+01
     -9.744  0.3617E+00  0.4108E+01
     -9.716  0.9067E+00  0.4133E+01
     -9.689  0.8324E+00  0.4156E+01
     -9.661  0.9627E+00  0.4183E+01
     -9.633  0.2029E+00  0.4188E+01
     -9.606  0.8834E+00  0.4213E+01
     -9.578  0.8455E+00  0.4236E+01
     -9.550  0.9786E+00  0.4263E+01
     -9.522  0.5151E+00  0.4278E+01
     -9.495  0.7636E+00  0.4299E+01
     -9.467  0.5856E+00  0.4315E+01
     -9.439  0.9678E+00  0.4342E+01
     -9.412  0.7728E+00  0.4363E+01
     -9.384  0.8401E+00  0.4386E+01
     -9.356  0.9494E+00  0.4413E+01
     -9.329  0.5289E+00  0.4427E+01
     -9.301  0.6416E+00  0.4445E+01
     -9.273  0.6769E+00  0.4464E+01
     -9.246  0.1168E+01  0.4496E+01
     -9.218  0.9641E+00  0.4523E+01
     -9.190  0.6685E+00  0.4541E+01
     -9.163  0.7572E+00  0.4562E+01
     -9.135  0.6128E+00  0.4579E+01
     -9.107  0.1069E+01  0.4609E+01
     -9.080  0.9744E+00  0.4636E+01
     -9.052  0.5942E+00  0.4652E+01
     -9.024  0.6741E+00  0.4671E+01
     -8.997  0.7534E+00  0.4692E+01
     -8.969  0.1687E+01  0.4738E+01
     -8.941  0.8115E+00  0.4761E+01
     -8.914  0.6647E+00  0.4779E+01
     -8.886  0.9909E+00  0.4807E+01
     -8.858  0.6011E+00  0.4823E+01
     -8.831  0.9476E+00  0.4850E+01
     -8.803  0.1163E+01  0.4882E+01
     -8.775  0.1068E+01  0.4911E+01
     -8.748  0.8163E+00  0.4934E+01
     -8.720  0.1274E+01  0.4969E+01
     -8.692  0.1158E+01  0.5001E+01
     -8.664  0.1453E+01  0.5041E+01
     -8.637  0.1203E+01  0.5075E+01
     -8.609  0.1042E+01  0.5104E+01
     -8.581  0.9542E+00  0.5130E+01
     -8.554  0.1538E+01  0.5173E+01
     -8.526  0.9041E+00  0.5198E+01
     -8.498  0.6034E+00  0.5214E+01
     -8.471  0.9242E+00  0.5240E+01
     -8.443  0.7319E+00  0.5260E+01
     -8.415  0.1558E+01  0.5303E+01
     -8.388  0.1012E+01  0.5331E+01
     -8.360  0.6576E+00  0.5349E+01
     -8.332  0.7931E+00  0.5371E+01
     -8.305  0.5307E+00  0.5386E+01
     -8.277  0.8242E+00  0.5409E+01
     -8.249  0.8757E+00  0.5433E+01
     -8.222  0.1256E+01  0.5468E+01
     -8.194  0.5236E+00  0.5482E+01
     -8.166  0.1132E+01  0.5514E+01
     -8.139  0.5919E+00  0.5530E+01
     -8.111  0.6687E+00  0.5549E+01
     -8.083  0.6618E+00  0.5567E+01
     -8.056  0.8803E+00  0.5591E+01
     -8.028  0.8213E+00  0.5614E+01
     -8.000  0.8840E+00  0.5638E+01
     -7.973  0.6458E+00  0.5656E+01
     -7.945  0.7242E+00  0.5676E+01
     -7.917  0.3025E+00  0.5685E+01
     -7.889  0.1328E+01  0.5722E+01
     -7.862  0.6296E+00  0.5739E+01
     -7.834  0.6308E+00  0.5756E+01
     -7.806  0.9183E+00  0.5782E+01
     -7.779  0.4880E+00  0.5795E+01
     -7.751  0.7975E+00  0.5817E+01
     -7.723  0.5901E+00  0.5834E+01
     -7.696  0.6775E+00  0.5853E+01
     -7.668  0.6808E+00  0.5871E+01
     -7.640  0.9386E+00  0.5897E+01
     -7.613  0.8229E+00  0.5920E+01
     -7.585  0.4184E+00  0.5932E+01
     -7.557  0.4981E+00  0.5945E+01
     -7.530  0.4627E+00  0.5958E+01
     -7.502  0.1198E+01  0.5991E+01
     -7.474  0.8185E+00  0.6014E+01
     -7.447  0.7782E+00  0.6036E+01
     -7.419  0.1470E+00  0.6040E+01
     -7.391  0.7049E+00  0.6059E+01
     -7.364  0.4447E+00  0.6072E+01
     -7.336  0.6116E+00  0.6088E+01
     -7.308  0.8725E+00  0.6113E+01
     -7.281  0.1116E+01  0.6143E+01
     -7.253  0.6145E+00  0.6160E+01
     -7.225  0.3982E+00  0.6172E+01
     -7.198  0.4065E+00  0.6183E+01
     -7.170  0.8541E+00  0.6206E+01
     -7.142  0.4316E+00  0.6218E+01
     -7.115  0.6624E+00  0.6237E+01
     -7.087  0.5031E+00  0.6251E+01
     -7.059  0.6968E+00  0.6270E+01
     -7.031  0.8638E+00  0.6294E+01
     -7.004  0.8692E+00  0.6318E+01
     -6.976  0.5599E+00  0.6333E+01
     -6.948  0.3323E+00  0.6343E+01
     -6.921  0.3680E+00  0.6353E+01
     -6.893  0.4340E+00  0.6365E+01
     -6.865  0.9056E+00  0.6390E+01
     -6.838  0.9266E+00  0.6415E+01
     -6.810  0.4876E+00  0.6429E+01
     -6.782  0.8389E+00  0.6452E+01
     -6.755  0.4714E+00  0.6465E+01
     -6.727  0.2175E+00  0.6471E+01
     -6.699  0.5752E+00  0.6487E+01
     -6.672  0.7476E+00  0.6508E+01
     -6.644  0.7171E+00  0.6528E+01
     -6.616  0.6840E+00  0.6547E+01
     -6.589  0.4676E+00  0.6560E+01
     -6.561  0.3858E+00  0.6570E+01
     -6.533  0.5957E+00  0.6587E+01
     -6.506  0.8651E+00  0.6611E+01
     -6.478  0.9940E+00  0.6638E+01
     -6.450  0.1815E+00  0.6643E+01
     -6.423  0.3214E+00  0.6652E+01
     -6.395  0.1564E+00  0.6656E+01
     -6.367  0.9284E+00  0.6682E+01
     -6.340  0.7924E+00  0.6704E+01
     -6.312  0.9894E+00  0.6731E+01
     -6.284  0.3783E+00  0.6742E+01
     -6.256  0.4724E+00  0.6755E+01
     -6.229  0.3481E+00  0.6765E+01
     -6.201  0.4782E+00  0.6778E+01
     -6.173  0.4346E+00  0.6790E+01
     -6.146  0.8005E+00  0.6812E+01
     -6.118  0.8210E+00  0.6835E+01
     -6.090  0.5455E+00  0.6850E+01
     -6.063  0.6794E+00  0.6869E+01
     -6.035  0.2202E+00  0.6875E+01
     -6.007  0.7413E+00  0.6895E+01
     -5.980  0.5126E+00  0.6909E+01
     -5.952  0.5709E+00  0.6925E+01
     -5.924  0.1031E+00  0.6928E+01
     -5.897  0.7407E+00  0.6949E+01
     -5.869  0.8278E+00  0.6972E+01
     -5.841  0.7675E+00  0.6993E+01
     -5.814  0.6343E+00  0.7010E+01
     -5.786  0.2207E+00  0.7016E+01
     -5.758  0.3922E+00  0.7027E+01
     -5.731  0.8025E+00  0.7050E+01
     -5.703  0.6037E+00  0.7066E+01
     -5.675  0.2514E+00  0.7073E+01
     -5.648  0.4347E+00  0.7085E+01
     -5.620  0.9098E+00  0.7110E+01
     -5.592  0.5964E+00  0.7127E+01
     -5.565  0.7181E+00  0.7147E+01
     -5.537  0.5088E+00  0.7161E+01
     -5.509  0.4065E+00  0.7172E+01
     -5.481  0.5195E+00  0.7187E+01
     -5.454  0.4492E+00  0.7199E+01
     -5.426  0.6563E+00  0.7217E+01
     -5.398  0.2262E+00  0.7223E+01
     -5.371  0.8756E+00  0.7248E+01
     -5.343  0.7068E+00  0.7267E+01
     -5.315  0.5179E+00  0.7281E+01
     -5.288  0.6955E+00  0.7301E+01
     -5.260  0.2080E+00  0.7307E+01
     -5.232  0.2651E+00  0.7314E+01
     -5.205  0.4610E+00  0.7327E+01
     -5.177  0.1052E+00  0.7330E+01
     -5.149  0.2965E+00  0.7338E+01
     -5.122  0.3549E+00  0.7348E+01
     -5.094  0.6961E+00  0.7367E+01
     -5.066  0.5208E+00  0.7381E+01
     -5.039  0.3436E+00  0.7391E+01
     -5.011  0.2454E+00  0.7398E+01
     -4.983  0.5296E+00  0.7412E+01
     -4.956  0.2004E+00  0.7418E+01
     -4.928  0.3263E+00  0.7427E+01
     -4.900  0.2904E+00  0.7435E+01
     -4.873  0.3357E+00  0.7444E+01
     -4.845  0.6230E+00  0.7461E+01
     -4.817  0.6498E+00  0.7479E+01
     -4.790  0.5823E+00  0.7495E+01
     -4.762  0.3045E+00  0.7504E+01
     -4.734  0.5773E+00  0.7520E+01
     -4.707  0.3773E+00  0.7530E+01
     -4.679  0.4249E+00  0.7542E+01
     -4.651  0.4213E+00  0.7554E+01
     -4.623  0.5010E+00  0.7568E+01
     -4.596  0.8569E+00  0.7591E+01
     -4.568  0.8050E+00  0.7614E+01
     -4.540  0.6518E+00  0.7632E+01
     -4.513  0.1040E+01  0.7660E+01
     -4.485  0.3340E+00  0.7670E+01
     -4.457  0.3553E-01  0.7671E+01
     -4.430  0.1936E+00  0.7676E+01
     -4.402  0.1366E+00  0.7680E+01
     -4.374  0.2023E+00  0.7685E+01
     -4.347  0.3969E+00  0.7696E+01
     -4.319  0.1449E+01  0.7736E+01
     -4.291  0.3653E+00  0.7747E+01
     -4.264  0.2420E-01  0.7747E+01
     -4.236  0.1696E+00  0.7752E+01
     -4.208  0.6785E-01  0.7754E+01
     -4.181  0.2714E+00  0.7761E+01
     -4.153  0.1511E+00  0.7765E+01
     -4.125  0.2066E+00  0.7771E+01
     -4.098  0.4483E+00  0.7784E+01
     -4.070  0.5352E+00  0.7798E+01
     -4.042  0.5001E+00  0.7812E+01
     -4.015  0.1149E+00  0.7815E+01
     -3.987  0.1129E+00  0.7819E+01
     -3.959  0.1910E+00  0.7824E+01