Automatically generated mesh
     385
Reciprocal lattice
    0.00000000000000    0.00000000000000    0.00000000000000             1
    0.01538461538462   -0.00000000000000    0.00000000000000             6
    0.03076923076923    0.00000000000000    0.00000000000000             6
    0.04615384615385   -0.00000000000000    0.00000000000000             6
    0.06153846153846    0.00000000000000    0.00000000000000             6
    0.07692307692308    0.00000000000000    0.00000000000000             6
    0.09230769230769   -0.00000000000000    0.00000000000000             6
    0.10769230769231   -0.00000000000000    0.00000000000000             6
    0.12307692307692    0.00000000000000    0.00000000000000             6
    0.13846153846154   -0.00000000000000    0.00000000000000             6
    0.15384615384615   -0.00000000000000    0.00000000000000             6
    0.16923076923077   -0.00000000000000    0.00000000000000             6
    0.18461538461538   -0.00000000000000    0.00000000000000             6
    0.20000000000000   -0.00000000000000    0.00000000000000             6
    0.21538461538461   -0.00000000000000    0.00000000000000             6
    0.23076923076923   -0.00000000000000    0.00000000000000             6
    0.24615384615385    0.00000000000000    0.00000000000000             6
    0.26153846153846   -0.00000000000000    0.00000000000000             6
    0.27692307692308    0.00000000000000    0.00000000000000             6
    0.29230769230769    0.00000000000000    0.00000000000000             6
    0.30769230769231   -0.00000000000000    0.00000000000000             6
    0.32307692307693   -0.00000000000000    0.00000000000000             6
    0.33846153846154   -0.00000000000000    0.00000000000000             6
    0.35384615384616    0.00000000000000    0.00000000000000             6
    0.36923076923077   -0.00000000000000    0.00000000000000             6
    0.38461538461539   -0.00000000000000    0.00000000000000             6
    0.40000000000000   -0.00000000000000    0.00000000000000             6
    0.41538461538462   -0.00000000000000    0.00000000000000             6
    0.43076923076923   -0.00000000000000    0.00000000000000             6
    0.44615384615385   -0.00000000000000    0.00000000000000             6
    0.46153846153846    0.00000000000000    0.00000000000000             6
    0.47692307692308   -0.00000000000000    0.00000000000000             6
    0.49230769230769    0.00000000000000    0.00000000000000             6
    0.01538461538462    0.01538461538462    0.00000000000000             6
    0.03076923076923    0.01538461538462    0.00000000000000            12
    0.04615384615385    0.01538461538462    0.00000000000000            12
    0.06153846153846    0.01538461538462    0.00000000000000            12
    0.07692307692308    0.01538461538462    0.00000000000000            12
    0.09230769230769    0.01538461538462    0.00000000000000            12
    0.10769230769231    0.01538461538462    0.00000000000000            12
    0.12307692307692    0.01538461538462    0.00000000000000            12
    0.13846153846154    0.01538461538462    0.00000000000000            12
    0.15384615384615    0.01538461538462    0.00000000000000            12
    0.16923076923077    0.01538461538462    0.00000000000000            12
    0.18461538461538    0.01538461538462    0.00000000000000            12
    0.20000000000000    0.01538461538462    0.00000000000000            12
    0.21538461538461    0.01538461538462    0.00000000000000            12
    0.23076923076923    0.01538461538462    0.00000000000000            12
    0.24615384615385    0.01538461538462    0.00000000000000            12
    0.26153846153846    0.01538461538462    0.00000000000000            12
    0.27692307692308    0.01538461538462    0.00000000000000            12
    0.29230769230769    0.01538461538462    0.00000000000000            12
    0.30769230769231    0.01538461538462    0.00000000000000            12
    0.32307692307693    0.01538461538462    0.00000000000000            12
    0.33846153846154    0.01538461538462    0.00000000000000            12
    0.35384615384616    0.01538461538462    0.00000000000000            12
    0.36923076923077    0.01538461538462    0.00000000000000            12
    0.38461538461539    0.01538461538462    0.00000000000000            12
    0.40000000000000    0.01538461538462    0.00000000000000            12
    0.41538461538462    0.01538461538462    0.00000000000000            12
    0.43076923076923    0.01538461538462    0.00000000000000            12
    0.44615384615385    0.01538461538462    0.00000000000000            12
    0.46153846153846    0.01538461538462    0.00000000000000            12
    0.47692307692308    0.01538461538462    0.00000000000000            12
    0.49230769230769    0.01538461538462    0.00000000000000             6
    0.03076923076923    0.03076923076923    0.00000000000000             6
    0.04615384615385    0.03076923076923    0.00000000000000            12
    0.06153846153846    0.03076923076923    0.00000000000000            12
    0.07692307692308    0.03076923076923    0.00000000000000            12
    0.09230769230769    0.03076923076923    0.00000000000000            12
    0.10769230769231    0.03076923076923    0.00000000000000            12
    0.12307692307692    0.03076923076923    0.00000000000000            12
    0.13846153846154    0.03076923076923    0.00000000000000            12
    0.15384615384615    0.03076923076923    0.00000000000000            12
    0.16923076923077    0.03076923076923    0.00000000000000            12
    0.18461538461538    0.03076923076923    0.00000000000000            12
    0.20000000000000    0.03076923076923    0.00000000000000            12
    0.21538461538461    0.03076923076923    0.00000000000000            12
    0.23076923076923    0.03076923076923    0.00000000000000            12
    0.24615384615385    0.03076923076923    0.00000000000000            12
    0.26153846153846    0.03076923076923    0.00000000000000            12
    0.27692307692308    0.03076923076923    0.00000000000000            12
    0.29230769230769    0.03076923076923    0.00000000000000            12
    0.30769230769231    0.03076923076923    0.00000000000000            12
    0.32307692307693    0.03076923076923    0.00000000000000            12
    0.33846153846154    0.03076923076923    0.00000000000000            12
    0.35384615384616    0.03076923076923    0.00000000000000            12
    0.36923076923077    0.03076923076923    0.00000000000000            12
    0.38461538461539    0.03076923076923    0.00000000000000            12
    0.40000000000000    0.03076923076923    0.00000000000000            12
    0.41538461538462    0.03076923076923    0.00000000000000            12
    0.43076923076923    0.03076923076923    0.00000000000000            12
    0.44615384615385    0.03076923076923    0.00000000000000            12
    0.46153846153846    0.03076923076923    0.00000000000000            12
    0.47692307692308    0.03076923076923    0.00000000000000            12
    0.04615384615385    0.04615384615385    0.00000000000000             6
    0.06153846153846    0.04615384615385    0.00000000000000            12
    0.07692307692308    0.04615384615385    0.00000000000000            12
    0.09230769230769    0.04615384615385    0.00000000000000            12
    0.10769230769231    0.04615384615385    0.00000000000000            12
    0.12307692307692    0.04615384615385    0.00000000000000            12
    0.13846153846154    0.04615384615385    0.00000000000000            12
    0.15384615384615    0.04615384615385    0.00000000000000            12
    0.16923076923077    0.04615384615385    0.00000000000000            12
    0.18461538461538    0.04615384615385    0.00000000000000            12
    0.20000000000000    0.04615384615385    0.00000000000000            12
    0.21538461538461    0.04615384615385    0.00000000000000            12
    0.23076923076923    0.04615384615385    0.00000000000000            12
    0.24615384615385    0.04615384615385    0.00000000000000            12
    0.26153846153846    0.04615384615385    0.00000000000000            12
    0.27692307692308    0.04615384615385    0.00000000000000            12
    0.29230769230769    0.04615384615385    0.00000000000000            12
    0.30769230769231    0.04615384615385    0.00000000000000            12
    0.32307692307693    0.04615384615385    0.00000000000000            12
    0.33846153846154    0.04615384615385    0.00000000000000            12
    0.35384615384616    0.04615384615385    0.00000000000000            12
    0.36923076923077    0.04615384615385    0.00000000000000            12
    0.38461538461539    0.04615384615385    0.00000000000000            12
    0.40000000000000    0.04615384615385    0.00000000000000            12
    0.41538461538462    0.04615384615385    0.00000000000000            12
    0.43076923076923    0.04615384615385    0.00000000000000            12
    0.44615384615385    0.04615384615385    0.00000000000000            12
    0.46153846153846    0.04615384615385    0.00000000000000            12
    0.47692307692308    0.04615384615385    0.00000000000000             6
    0.06153846153846    0.06153846153846    0.00000000000000             6
    0.07692307692308    0.06153846153846    0.00000000000000            12
    0.09230769230769    0.06153846153846    0.00000000000000            12
    0.10769230769231    0.06153846153846    0.00000000000000            12
    0.12307692307692    0.06153846153846    0.00000000000000            12
    0.13846153846154    0.06153846153846    0.00000000000000            12
    0.15384615384615    0.06153846153846    0.00000000000000            12
    0.16923076923077    0.06153846153846    0.00000000000000            12
    0.18461538461538    0.06153846153846    0.00000000000000            12
    0.20000000000000    0.06153846153846    0.00000000000000            12
    0.21538461538461    0.06153846153846    0.00000000000000            12
    0.23076923076923    0.06153846153846    0.00000000000000            12
    0.24615384615385    0.06153846153846    0.00000000000000            12
    0.26153846153846    0.06153846153846    0.00000000000000            12
    0.27692307692308    0.06153846153846    0.00000000000000            12
    0.29230769230769    0.06153846153846    0.00000000000000            12
    0.30769230769231    0.06153846153846    0.00000000000000            12
    0.32307692307693    0.06153846153846    0.00000000000000            12
    0.33846153846154    0.06153846153846    0.00000000000000            12
    0.35384615384616    0.06153846153846    0.00000000000000            12
    0.36923076923077    0.06153846153846    0.00000000000000            12
    0.38461538461539    0.06153846153846    0.00000000000000            12
    0.40000000000000    0.06153846153846    0.00000000000000            12
    0.41538461538462    0.06153846153846    0.00000000000000            12
    0.43076923076923    0.06153846153846    0.00000000000000            12
    0.44615384615385    0.06153846153846    0.00000000000000            12
    0.46153846153846    0.06153846153846    0.00000000000000            12
    0.07692307692308    0.07692307692308    0.00000000000000             6
    0.09230769230769    0.07692307692308    0.00000000000000            12
    0.10769230769231    0.07692307692308    0.00000000000000            12
    0.12307692307692    0.07692307692308    0.00000000000000            12
    0.13846153846154    0.07692307692308    0.00000000000000            12
    0.15384615384615    0.07692307692308    0.00000000000000            12
    0.16923076923077    0.07692307692308    0.00000000000000            12
    0.18461538461538    0.07692307692308    0.00000000000000            12
    0.20000000000000    0.07692307692308    0.00000000000000            12
    0.21538461538461    0.07692307692308    0.00000000000000            12
    0.23076923076923    0.07692307692308    0.00000000000000            12
    0.24615384615385    0.07692307692308    0.00000000000000            12
    0.26153846153846    0.07692307692308    0.00000000000000            12
    0.27692307692308    0.07692307692308    0.00000000000000            12
    0.29230769230769    0.07692307692308    0.00000000000000            12
    0.30769230769231    0.07692307692308    0.00000000000000            12
    0.32307692307693    0.07692307692308    0.00000000000000            12
    0.33846153846154    0.07692307692308    0.00000000000000            12
    0.35384615384616    0.07692307692308    0.00000000000000            12
    0.36923076923077    0.07692307692308    0.00000000000000            12
    0.38461538461539    0.07692307692308    0.00000000000000            12
    0.40000000000000    0.07692307692308    0.00000000000000            12
    0.41538461538462    0.07692307692308    0.00000000000000            12
    0.43076923076923    0.07692307692308    0.00000000000000            12
    0.44615384615385    0.07692307692308    0.00000000000000            12
    0.46153846153846    0.07692307692308    0.00000000000000             6
    0.09230769230769    0.09230769230769    0.00000000000000             6
    0.10769230769231    0.09230769230769    0.00000000000000            12
    0.12307692307692    0.09230769230769    0.00000000000000            12
    0.13846153846154    0.09230769230769    0.00000000000000            12
    0.15384615384615    0.09230769230769    0.00000000000000            12
    0.16923076923077    0.09230769230769    0.00000000000000            12
    0.18461538461538    0.09230769230769    0.00000000000000            12
    0.20000000000000    0.09230769230769    0.00000000000000            12
    0.21538461538461    0.09230769230769    0.00000000000000            12
    0.23076923076923    0.09230769230769    0.00000000000000            12
    0.24615384615385    0.09230769230769    0.00000000000000            12
    0.26153846153846    0.09230769230769    0.00000000000000            12
    0.27692307692308    0.09230769230769    0.00000000000000            12
    0.29230769230769    0.09230769230769    0.00000000000000            12
    0.30769230769231    0.09230769230769    0.00000000000000            12
    0.32307692307693    0.09230769230769    0.00000000000000            12
    0.33846153846154    0.09230769230769    0.00000000000000            12
    0.35384615384616    0.09230769230769    0.00000000000000            12
    0.36923076923077    0.09230769230769    0.00000000000000            12
    0.38461538461539    0.09230769230769    0.00000000000000            12
    0.40000000000000    0.09230769230769    0.00000000000000            12
    0.41538461538462    0.09230769230769    0.00000000000000            12
    0.43076923076923    0.09230769230769    0.00000000000000            12
    0.44615384615385    0.09230769230769    0.00000000000000            12
    0.10769230769231    0.10769230769231    0.00000000000000             6
    0.12307692307692    0.10769230769231    0.00000000000000            12
    0.13846153846154    0.10769230769231    0.00000000000000            12
    0.15384615384615    0.10769230769231    0.00000000000000            12
    0.16923076923077    0.10769230769231    0.00000000000000            12
    0.18461538461538    0.10769230769231    0.00000000000000            12
    0.20000000000000    0.10769230769231    0.00000000000000            12
    0.21538461538461    0.10769230769231    0.00000000000000            12
    0.23076923076923    0.10769230769231    0.00000000000000            12
    0.24615384615385    0.10769230769231    0.00000000000000            12
    0.26153846153846    0.10769230769231    0.00000000000000            12
    0.27692307692308    0.10769230769231    0.00000000000000            12
    0.29230769230769    0.10769230769231    0.00000000000000            12
    0.30769230769231    0.10769230769231    0.00000000000000            12
    0.32307692307693    0.10769230769231    0.00000000000000            12
    0.33846153846154    0.10769230769231    0.00000000000000            12
    0.35384615384616    0.10769230769231    0.00000000000000            12
    0.36923076923077    0.10769230769231    0.00000000000000            12
    0.38461538461539    0.10769230769231    0.00000000000000            12
    0.40000000000000    0.10769230769231    0.00000000000000            12
    0.41538461538462    0.10769230769231    0.00000000000000            12
    0.43076923076923    0.10769230769231    0.00000000000000            12
    0.44615384615385    0.10769230769231    0.00000000000000             6
    0.12307692307692    0.12307692307692    0.00000000000000             6
    0.13846153846154    0.12307692307692    0.00000000000000            12
    0.15384615384615    0.12307692307692    0.00000000000000            12
    0.16923076923077    0.12307692307692    0.00000000000000            12
    0.18461538461538    0.12307692307692    0.00000000000000            12
    0.20000000000000    0.12307692307692    0.00000000000000            12
    0.21538461538461    0.12307692307692    0.00000000000000            12
    0.23076923076923    0.12307692307692    0.00000000000000            12
    0.24615384615385    0.12307692307692    0.00000000000000            12
    0.26153846153846    0.12307692307692    0.00000000000000            12
    0.27692307692308    0.12307692307692    0.00000000000000            12
    0.29230769230769    0.12307692307692    0.00000000000000            12
    0.30769230769231    0.12307692307692    0.00000000000000            12
    0.32307692307693    0.12307692307692    0.00000000000000            12
    0.33846153846154    0.12307692307692    0.00000000000000            12
    0.35384615384616    0.12307692307692    0.00000000000000            12
    0.36923076923077    0.12307692307692    0.00000000000000            12
    0.38461538461539    0.12307692307692    0.00000000000000            12
    0.40000000000000    0.12307692307692    0.00000000000000            12
    0.41538461538462    0.12307692307692    0.00000000000000            12
    0.43076923076923    0.12307692307692    0.00000000000000            12
    0.13846153846154    0.13846153846154    0.00000000000000             6
    0.15384615384615    0.13846153846154    0.00000000000000            12
    0.16923076923077    0.13846153846154    0.00000000000000            12
    0.18461538461538    0.13846153846154    0.00000000000000            12
    0.20000000000000    0.13846153846154    0.00000000000000            12
    0.21538461538461    0.13846153846154    0.00000000000000            12
    0.23076923076923    0.13846153846154    0.00000000000000            12
    0.24615384615385    0.13846153846154    0.00000000000000            12
    0.26153846153846    0.13846153846154    0.00000000000000            12
    0.27692307692308    0.13846153846154    0.00000000000000            12
    0.29230769230769    0.13846153846154    0.00000000000000            12
    0.30769230769231    0.13846153846154    0.00000000000000            12
    0.32307692307693    0.13846153846154    0.00000000000000            12
    0.33846153846154    0.13846153846154    0.00000000000000            12
    0.35384615384616    0.13846153846154    0.00000000000000            12
    0.36923076923077    0.13846153846154    0.00000000000000            12
    0.38461538461539    0.13846153846154    0.00000000000000            12
    0.40000000000000    0.13846153846154    0.00000000000000            12
    0.41538461538462    0.13846153846154    0.00000000000000            12
    0.43076923076923    0.13846153846154    0.00000000000000             6
    0.15384615384615    0.15384615384615    0.00000000000000             6
    0.16923076923077    0.15384615384615    0.00000000000000            12
    0.18461538461538    0.15384615384615    0.00000000000000            12
    0.20000000000000    0.15384615384615    0.00000000000000            12
    0.21538461538461    0.15384615384615    0.00000000000000            12
    0.23076923076923    0.15384615384615    0.00000000000000            12
    0.24615384615385    0.15384615384615    0.00000000000000            12
    0.26153846153846    0.15384615384615    0.00000000000000            12
    0.27692307692308    0.15384615384615    0.00000000000000            12
    0.29230769230769    0.15384615384615    0.00000000000000            12
    0.30769230769231    0.15384615384615    0.00000000000000            12
    0.32307692307693    0.15384615384615    0.00000000000000            12
    0.33846153846154    0.15384615384615    0.00000000000000            12
    0.35384615384616    0.15384615384615    0.00000000000000            12
    0.36923076923077    0.15384615384615    0.00000000000000            12
    0.38461538461539    0.15384615384615    0.00000000000000            12
    0.40000000000000    0.15384615384615    0.00000000000000            12
    0.41538461538462    0.15384615384615    0.00000000000000            12
    0.16923076923077    0.16923076923077    0.00000000000000             6
    0.18461538461538    0.16923076923077    0.00000000000000            12
    0.20000000000000    0.16923076923077    0.00000000000000            12
    0.21538461538461    0.16923076923077    0.00000000000000            12
    0.23076923076923    0.16923076923077    0.00000000000000            12
    0.24615384615385    0.16923076923077    0.00000000000000            12
    0.26153846153846    0.16923076923077    0.00000000000000            12
    0.27692307692308    0.16923076923077    0.00000000000000            12
    0.29230769230769    0.16923076923077    0.00000000000000            12
    0.30769230769231    0.16923076923077    0.00000000000000            12
    0.32307692307693    0.16923076923077    0.00000000000000            12
    0.33846153846154    0.16923076923077    0.00000000000000            12
    0.35384615384616    0.16923076923077    0.00000000000000            12
    0.36923076923077    0.16923076923077    0.00000000000000            12
    0.38461538461539    0.16923076923077    0.00000000000000            12
    0.40000000000000    0.16923076923077    0.00000000000000            12
    0.41538461538462    0.16923076923077    0.00000000000000             6
    0.18461538461538    0.18461538461538    0.00000000000000             6
    0.20000000000000    0.18461538461538    0.00000000000000            12
    0.21538461538461    0.18461538461538    0.00000000000000            12
    0.23076923076923    0.18461538461538    0.00000000000000            12
    0.24615384615385    0.18461538461538    0.00000000000000            12
    0.26153846153846    0.18461538461538    0.00000000000000            12
    0.27692307692308    0.18461538461538    0.00000000000000            12
    0.29230769230769    0.18461538461538    0.00000000000000            12
    0.30769230769231    0.18461538461538    0.00000000000000            12
    0.32307692307693    0.18461538461538    0.00000000000000            12
    0.33846153846154    0.18461538461538    0.00000000000000            12
    0.35384615384616    0.18461538461538    0.00000000000000            12
    0.36923076923077    0.18461538461538    0.00000000000000            12
    0.38461538461539    0.18461538461538    0.00000000000000            12
    0.40000000000000    0.18461538461538    0.00000000000000            12
    0.20000000000000    0.20000000000000    0.00000000000000             6
    0.21538461538461    0.20000000000000    0.00000000000000            12
    0.23076923076923    0.20000000000000    0.00000000000000            12
    0.24615384615385    0.20000000000000    0.00000000000000            12
    0.26153846153846    0.20000000000000    0.00000000000000            12
    0.27692307692308    0.20000000000000    0.00000000000000            12
    0.29230769230769    0.20000000000000    0.00000000000000            12
    0.30769230769231    0.20000000000000    0.00000000000000            12
    0.32307692307693    0.20000000000000    0.00000000000000            12
    0.33846153846154    0.20000000000000    0.00000000000000            12
    0.35384615384616    0.20000000000000    0.00000000000000            12
    0.36923076923077    0.20000000000000    0.00000000000000            12
    0.38461538461539    0.20000000000000    0.00000000000000            12
    0.40000000000000    0.20000000000000    0.00000000000000             6
    0.21538461538461    0.21538461538461    0.00000000000000             6
    0.23076923076923    0.21538461538461    0.00000000000000            12
    0.24615384615385    0.21538461538461    0.00000000000000            12
    0.26153846153846    0.21538461538461    0.00000000000000            12
    0.27692307692308    0.21538461538461    0.00000000000000            12
    0.29230769230769    0.21538461538461    0.00000000000000            12
    0.30769230769231    0.21538461538461    0.00000000000000            12
    0.32307692307693    0.21538461538461    0.00000000000000            12
    0.33846153846154    0.21538461538461    0.00000000000000            12
    0.35384615384616    0.21538461538461    0.00000000000000            12
    0.36923076923077    0.21538461538461    0.00000000000000            12
    0.38461538461539    0.21538461538461    0.00000000000000            12
    0.23076923076923    0.23076923076923    0.00000000000000             6
    0.24615384615385    0.23076923076923    0.00000000000000            12
    0.26153846153846    0.23076923076923    0.00000000000000            12
    0.27692307692308    0.23076923076923    0.00000000000000            12
    0.29230769230769    0.23076923076923    0.00000000000000            12
    0.30769230769231    0.23076923076923    0.00000000000000            12
    0.32307692307693    0.23076923076923    0.00000000000000            12
    0.33846153846154    0.23076923076923    0.00000000000000            12
    0.35384615384616    0.23076923076923    0.00000000000000            12
    0.36923076923077    0.23076923076923    0.00000000000000            12
    0.38461538461539    0.23076923076923    0.00000000000000             6
    0.24615384615385    0.24615384615385    0.00000000000000             6
    0.26153846153846    0.24615384615385    0.00000000000000            12
    0.27692307692308    0.24615384615385    0.00000000000000            12
    0.29230769230769    0.24615384615385    0.00000000000000            12
    0.30769230769231    0.24615384615385    0.00000000000000            12
    0.32307692307693    0.24615384615385    0.00000000000000            12
    0.33846153846154    0.24615384615385    0.00000000000000            12
    0.35384615384616    0.24615384615385    0.00000000000000            12
    0.36923076923077    0.24615384615385    0.00000000000000            12
    0.26153846153846    0.26153846153846    0.00000000000000             6
    0.27692307692308    0.26153846153846    0.00000000000000            12
    0.29230769230769    0.26153846153846    0.00000000000000            12
    0.30769230769231    0.26153846153846    0.00000000000000            12
    0.32307692307693    0.26153846153846    0.00000000000000            12
    0.33846153846154    0.26153846153846    0.00000000000000            12
    0.35384615384616    0.26153846153846    0.00000000000000            12
    0.36923076923077    0.26153846153846    0.00000000000000             6
    0.27692307692308    0.27692307692308    0.00000000000000             6
    0.29230769230769    0.27692307692308    0.00000000000000            12
    0.30769230769231    0.27692307692308    0.00000000000000            12
    0.32307692307693    0.27692307692308    0.00000000000000            12
    0.33846153846154    0.27692307692308    0.00000000000000            12
    0.35384615384616    0.27692307692308    0.00000000000000            12
    0.29230769230769    0.29230769230769    0.00000000000000             6
    0.30769230769231    0.29230769230769    0.00000000000000            12
    0.32307692307693    0.29230769230769    0.00000000000000            12
    0.33846153846154    0.29230769230769    0.00000000000000            12
    0.35384615384616    0.29230769230769    0.00000000000000             6
    0.30769230769231    0.30769230769231    0.00000000000000             6
    0.32307692307693    0.30769230769231    0.00000000000000            12
    0.33846153846154    0.30769230769231    0.00000000000000            12
    0.32307692307693    0.32307692307693    0.00000000000000             6
    0.33846153846154    0.32307692307693    0.00000000000000             6
