       N       E                     dE             d eps       ncg     rms          rms(c)
DIA:   1    -0.197212367443E+02   -0.19721E+02    0.00000E+00     0   0.000E+00    0.633E+00
DIA:   2    -0.188140539755E+02    0.90718E+00    0.00000E+00     0   0.000E+00    0.377E+00
DIA:   3    -0.184631371437E+02    0.35092E+00    0.00000E+00     0   0.000E+00    0.939E-01
DIA:   4    -0.184559797204E+02    0.71574E-02    0.00000E+00     0   0.000E+00    0.117E-01
DIA:   5    -0.184531180885E+02    0.28616E-02    0.00000E+00     0   0.000E+00    0.979E-02
DIA:   6    -0.184521122519E+02    0.10058E-02    0.00000E+00     0   0.000E+00    0.439E-02
DIA:   7    -0.184526502352E+02   -0.53798E-03    0.00000E+00     0   0.000E+00    0.621E-02
DIA:   8    -0.184525237179E+02    0.12652E-03    0.00000E+00     0   0.000E+00    0.302E-02
DIA:   9    -0.184532362513E+02   -0.71253E-03    0.00000E+00     0   0.000E+00    0.254E-02
DIA:  10    -0.184532898976E+02   -0.53646E-04    0.00000E+00     0   0.000E+00    0.119E-02
DIA:  11    -0.184533802794E+02   -0.90382E-04    0.00000E+00     0   0.000E+00    0.200E-02
DIA:  12    -0.184533545502E+02    0.25729E-04    0.00000E+00     0   0.000E+00    0.144E-02
DIA:  13    -0.184534437966E+02   -0.89246E-04    0.00000E+00     0   0.000E+00    0.499E-03
DIA:  14    -0.184534334875E+02    0.10309E-04    0.00000E+00     0   0.000E+00    0.679E-03
DIA:  15    -0.184534249219E+02    0.85657E-05    0.00000E+00     0   0.000E+00    0.628E-03
DIA:  16    -0.184534381467E+02   -0.13225E-04    0.00000E+00     0   0.000E+00    0.159E-03
DIA:  17    -0.184534364140E+02    0.17327E-05    0.00000E+00     0   0.000E+00    0.264E-03
DIA:  18    -0.184534376517E+02   -0.12377E-05    0.00000E+00     0   0.000E+00    0.281E-03
DIA:  19    -0.184534397594E+02   -0.21077E-05    0.00000E+00     0   0.000E+00    0.523E-04
DIA:  20    -0.184534379719E+02    0.17875E-05    0.00000E+00     0   0.000E+00    0.606E-03
DIA:  21    -0.184534425137E+02   -0.45418E-05    0.00000E+00     0   0.000E+00    0.206E-03
DIA:  22    -0.184534405210E+02    0.19927E-05    0.00000E+00     0   0.000E+00    0.739E-03
DIA:  23    -0.184533894151E+02    0.51106E-04    0.00000E+00     0   0.000E+00    0.244E-03
DIA:  24    -0.184534304348E+02   -0.41020E-04    0.00000E+00     0   0.000E+00    0.951E-03
DIA:  25    -0.184534073792E+02    0.23056E-04    0.00000E+00     0   0.000E+00    0.602E-03
DIA:  26    -0.184534012757E+02    0.61035E-05    0.00000E+00     0   0.000E+00    0.434E-03
DIA:  27    -0.184534254286E+02   -0.24153E-04    0.00000E+00     0   0.000E+00    0.428E-03
DIA:  28    -0.184534153575E+02    0.10071E-04    0.00000E+00     0   0.000E+00    0.320E-03
DIA:  29    -0.184534392969E+02   -0.23939E-04    0.00000E+00     0   0.000E+00    0.543E-03
DIA:  30    -0.184534476836E+02   -0.83867E-05    0.00000E+00     0   0.000E+00    0.131E-02
DIA:  31    -0.184534161735E+02    0.31510E-04    0.00000E+00     0   0.000E+00    0.816E-03
DIA:  32    -0.184534098796E+02    0.62939E-05    0.00000E+00     0   0.000E+00    0.372E-03
DIA:  33    -0.184534286786E+02   -0.18799E-04    0.00000E+00     0   0.000E+00    0.713E-03
DIA:  34    -0.184534156356E+02    0.13043E-04    0.00000E+00     0   0.000E+00    0.586E-03
DIA:  35    -0.184534260703E+02   -0.10435E-04    0.00000E+00     0   0.000E+00    0.313E-03
DIA:  36    -0.184534338389E+02   -0.77686E-05    0.00000E+00     0   0.000E+00    0.148E-02
DIA:  37    -0.184533499491E+02    0.83890E-04    0.00000E+00     0   0.000E+00    0.461E-03
DIA:  38    -0.184534483548E+02   -0.98406E-04    0.00000E+00     0   0.000E+00    0.148E-02
DIA:  39    -0.184533773874E+02    0.70967E-04    0.00000E+00     0   0.000E+00    0.189E-03
DIA:  40    -0.184534241930E+02   -0.46806E-04    0.00000E+00     0   0.000E+00    0.454E-03
DIA:  41    -0.184534116156E+02    0.12577E-04    0.00000E+00     0   0.000E+00    0.753E-03
DIA:  42    -0.184534066817E+02    0.49339E-05    0.00000E+00     0   0.000E+00    0.112E-02
DIA:  43    -0.184533965218E+02    0.10160E-04    0.00000E+00     0   0.000E+00    0.742E-03
DIA:  44    -0.184534085897E+02   -0.12068E-04    0.00000E+00     0   0.000E+00    0.139E-03
DIA:  45    -0.184534385396E+02   -0.29950E-04    0.00000E+00     0   0.000E+00    0.790E-03
DIA:  46    -0.184534227317E+02    0.15808E-04    0.00000E+00     0   0.000E+00    0.324E-03
DIA:  47    -0.184534231897E+02   -0.45806E-06    0.00000E+00     0   0.000E+00    0.856E-03
DIA:  48    -0.184534307139E+02   -0.75242E-05    0.00000E+00     0   0.000E+00    0.572E-03
DIA:  49    -0.184534094893E+02    0.21225E-04    0.00000E+00     0   0.000E+00    0.379E-03
DIA:  50    -0.184534504414E+02   -0.40952E-04    0.00000E+00     0   0.000E+00    0.859E-03
DIA:  51    -0.184534289501E+02    0.21491E-04    0.00000E+00     0   0.000E+00    0.168E-02
DIA:  52    -0.184533749449E+02    0.54005E-04    0.00000E+00     0   0.000E+00    0.168E-03
DIA:  53    -0.184534300110E+02   -0.55066E-04    0.00000E+00     0   0.000E+00    0.608E-03
DIA:  54    -0.184533837771E+02    0.46234E-04    0.00000E+00     0   0.000E+00    0.729E-03
DIA:  55    -0.184534084473E+02   -0.24670E-04    0.00000E+00     0   0.000E+00    0.601E-03
DIA:  56    -0.184534101181E+02   -0.16708E-05    0.00000E+00     0   0.000E+00    0.870E-03
DIA:  57    -0.184533974187E+02    0.12699E-04    0.00000E+00     0   0.000E+00    0.949E-03
DIA:  58    -0.184534154430E+02   -0.18024E-04    0.00000E+00     0   0.000E+00    0.141E-03
DIA:  59    -0.184534430024E+02   -0.27559E-04    0.00000E+00     0   0.000E+00    0.717E-03
DIA:  60    -0.184534110668E+02    0.31936E-04    0.00000E+00     0   0.000E+00
   1 F= -.18453411E+02 E0= -.18453411E+02  d E =-.147491E-13
 imaginary and real dielectric function
