   7   7   0  16
  0.4029913E+02  0.4660000E-09  0.4660000E-09  0.1500000E-08  0.5000000E-15
  1.000000000000000E-004
  CAR 
 Borophene                               
     14.93708797    -21.42242118  301     -2.39049061      1.00000000
    -21.422  0.0000E+00  0.0000E+00
    -21.301  0.0000E+00  0.0000E+00
    -21.180  0.0000E+00  0.0000E+00
    -21.059  0.0000E+00  0.0000E+00
    -20.938  0.0000E+00  0.0000E+00
    -20.816  0.0000E+00  0.0000E+00
    -20.695  0.0000E+00  0.0000E+00
    -20.574  0.0000E+00  0.0000E+00
    -20.453  0.0000E+00  0.0000E+00
    -20.332  0.1081E-17  0.1311E-18
    -20.210  0.3493E-12  0.4234E-13
    -20.089  0.6030E-08  0.7309E-09
    -19.968  0.7087E-05  0.8596E-06
    -19.847  0.6589E-03  0.8072E-04
    -19.726  0.6917E-02  0.9190E-03
    -19.604  0.1557E-01  0.2805E-02
    -19.483  0.1851E-01  0.5049E-02
    -19.362  0.2125E-01  0.7624E-02
    -19.241  0.2706E-01  0.1090E-01
    -19.120  0.3922E-01  0.1566E-01
    -18.998  0.3021E-01  0.1932E-01
    -18.877  0.5473E-02  0.1998E-01
    -18.756  0.1430E-03  0.2000E-01
    -18.635  0.3487E-06  0.2000E-01
    -18.514  0.6280E-10  0.2000E-01
    -18.392  0.7440E-15  0.2000E-01
    -18.271  0.0000E+00  0.2000E-01
    -18.150  0.0000E+00  0.2000E-01
    -18.029  0.0000E+00  0.2000E-01
    -17.908  0.0000E+00  0.2000E-01
    -17.786  0.0000E+00  0.2000E-01
    -17.665  0.6966E-16  0.2000E-01
    -17.544  0.8851E-11  0.2000E-01
    -17.423  0.6781E-07  0.2000E-01
    -17.302  0.3661E-04  0.2000E-01
    -17.180  0.1898E-02  0.2023E-01
    -17.059  0.1373E-01  0.2190E-01
    -16.938  0.2566E-01  0.2501E-01
    -16.817  0.3025E-01  0.2868E-01
    -16.696  0.2183E-01  0.3132E-01
    -16.574  0.1427E-01  0.3305E-01
    -16.453  0.1795E-01  0.3523E-01
    -16.332  0.1664E-01  0.3724E-01
    -16.211  0.1571E-01  0.3915E-01
    -16.090  0.2425E-01  0.4209E-01
    -15.968  0.2063E-01  0.4459E-01
    -15.847  0.3172E-01  0.4843E-01
    -15.726  0.3708E-01  0.5292E-01
    -15.605  0.2738E-01  0.5624E-01
    -15.484  0.2156E-01  0.5886E-01
    -15.363  0.8599E-02  0.5990E-01
    -15.241  0.8245E-03  0.6000E-01
    -15.120  0.9645E-05  0.6000E-01
    -14.999  0.8884E-08  0.6000E-01
    -14.878  0.5387E-12  0.6000E-01
    -14.757  0.1781E-17  0.6000E-01
    -14.635  0.0000E+00  0.6000E-01
    -14.514  0.0000E+00  0.6000E-01
    -14.393  0.0000E+00  0.6000E-01
    -14.272  0.0000E+00  0.6000E-01
    -14.151  0.0000E+00  0.6000E-01
    -14.029  0.0000E+00  0.6000E-01
    -13.908  0.0000E+00  0.6000E-01
    -13.787  0.0000E+00  0.6000E-01
    -13.666  0.0000E+00  0.6000E-01
    -13.545  0.0000E+00  0.6000E-01
    -13.423  0.0000E+00  0.6000E-01
    -13.302  0.5789E-17  0.6000E-01
    -13.181  0.1265E-11  0.6000E-01
    -13.060  0.1605E-07  0.6000E-01
    -12.939  0.1318E-04  0.6000E-01
    -12.817  0.8477E-03  0.6010E-01
    -12.696  0.6138E-02  0.6085E-01
    -12.575  0.1511E-01  0.6268E-01
    -12.454  0.2352E-01  0.6553E-01
    -12.333  0.1969E-01  0.6792E-01
    -12.211  0.2215E-01  0.7060E-01
    -12.090  0.2672E-01  0.7384E-01
    -11.969  0.2022E-01  0.7629E-01
    -11.848  0.7441E-02  0.7719E-01
    -11.727  0.1243E-01  0.7870E-01
    -11.605  0.2969E-01  0.8230E-01
    -11.484  0.1410E-01  0.8401E-01
    -11.363  0.8429E-02  0.8503E-01
    -11.242  0.2094E-01  0.8757E-01
    -11.121  0.2438E-01  0.9052E-01
    -10.999  0.1030E-01  0.9177E-01
    -10.878  0.1346E-01  0.9340E-01
    -10.757  0.2160E-01  0.9602E-01
    -10.636  0.2656E-01  0.9924E-01
    -10.515  0.1589E-01  0.1012E+00
    -10.393  0.7847E-02  0.1021E+00
    -10.272  0.1545E-01  0.1040E+00
    -10.151  0.2488E-01  0.1070E+00
    -10.030  0.1091E-01  0.1083E+00
     -9.909  0.5352E-02  0.1090E+00
     -9.787  0.2074E-01  0.1115E+00
     -9.666  0.2654E-01  0.1147E+00
     -9.545  0.2813E-01  0.1181E+00
     -9.424  0.1799E-01  0.1203E+00
     -9.303  0.5014E-02  0.1209E+00
     -9.181  0.1673E-02  0.1211E+00
     -9.060  0.8218E-02  0.1221E+00
     -8.939  0.1323E-01  0.1237E+00
     -8.818  0.1350E-01  0.1253E+00
     -8.697  0.1206E-01  0.1268E+00
     -8.575  0.9112E-02  0.1279E+00
     -8.454  0.1637E-01  0.1299E+00
     -8.333  0.1875E-01  0.1322E+00
     -8.212  0.1360E-01  0.1338E+00
     -8.091  0.2069E-01  0.1363E+00
     -7.969  0.1817E-01  0.1385E+00
     -7.848  0.3957E-01  0.1433E+00
     -7.727  0.4721E-01  0.1490E+00
     -7.606  0.3918E-01  0.1538E+00
     -7.485  0.2160E-01  0.1564E+00
     -7.363  0.1439E-01  0.1581E+00
     -7.242  0.3293E-01  0.1621E+00
     -7.121  0.4823E-01  0.1680E+00
     -7.000  0.2688E-01  0.1712E+00
     -6.879  0.4138E-02  0.1717E+00
     -6.757  0.4146E-02  0.1722E+00
     -6.636  0.2388E-02  0.1725E+00
     -6.515  0.9400E-02  0.1737E+00
     -6.394  0.8489E-02  0.1747E+00
     -6.273  0.3629E-02  0.1751E+00
     -6.151  0.1610E-01  0.1771E+00
     -6.030  0.3574E-01  0.1814E+00
     -5.909  0.4796E-01  0.1872E+00
     -5.788  0.4207E-01  0.1923E+00
     -5.667  0.4290E-01  0.1975E+00
     -5.545  0.2533E-01  0.2006E+00
     -5.424  0.1861E-01  0.2029E+00
     -5.303  0.1162E-01  0.2043E+00
     -5.182  0.2938E-01  0.2078E+00
     -5.061  0.2100E-01  0.2104E+00
     -4.939  0.1216E-01  0.2119E+00
     -4.818  0.1902E-01  0.2142E+00
     -4.697  0.1728E-01  0.2163E+00
     -4.576  0.2380E-01  0.2191E+00
     -4.455  0.1536E-01  0.2210E+00
     -4.333  0.1207E-01  0.2225E+00
     -4.212  0.1200E-01  0.2239E+00
     -4.091  0.2392E-01  0.2268E+00
     -3.970  0.1917E-01  0.2291E+00
     -3.849  0.1605E-01  0.2311E+00
     -3.727  0.1234E-01  0.2326E+00
     -3.606  0.1094E-01  0.2339E+00
     -3.485  0.1589E-01  0.2358E+00
     -3.364  0.5041E-02  0.2364E+00
     -3.243  0.6345E-02  0.2372E+00
     -3.121  0.9016E-02  0.2383E+00
     -3.000  0.6388E-02  0.2391E+00
     -2.879  0.5058E-02  0.2397E+00
     -2.758  0.2178E-02  0.2400E+00
     -2.637  0.3691E-03  0.2400E+00
     -2.515  0.7645E-05  0.2400E+00
     -2.394  0.1096E-07  0.2400E+00
     -2.273  0.9408E-12  0.2400E+00
     -2.152  0.4580E-17  0.2400E+00
     -2.031  0.0000E+00  0.2400E+00
     -1.909  0.0000E+00  0.2400E+00
     -1.788  0.0000E+00  0.2400E+00
     -1.667  0.1121E-13  0.2400E+00
     -1.546  0.5128E-09  0.2400E+00
     -1.425  0.1444E-05  0.2400E+00
     -1.303  0.2786E-03  0.2400E+00
     -1.182  0.4686E-02  0.2406E+00
     -1.061  0.1155E-01  0.2420E+00
     -0.940  0.1753E-01  0.2441E+00
     -0.819  0.3656E-01  0.2486E+00
     -0.698  0.2701E-01  0.2518E+00
     -0.576  0.6861E-02  0.2527E+00
     -0.455  0.8229E-02  0.2537E+00
     -0.334  0.1829E-01  0.2559E+00
     -0.213  0.2723E-01  0.2592E+00
     -0.092  0.7314E-02  0.2601E+00
      0.030  0.5051E-02  0.2607E+00
      0.151  0.1048E-01  0.2619E+00
      0.272  0.2102E-01  0.2645E+00
      0.393  0.1598E-01  0.2664E+00
      0.514  0.6821E-02  0.2673E+00
      0.636  0.6200E-02  0.2680E+00
      0.757  0.1143E-01  0.2694E+00
      0.878  0.1469E-01  0.2712E+00
      0.999  0.1327E-01  0.2728E+00
      1.120  0.1059E-01  0.2741E+00
      1.242  0.1202E-01  0.2755E+00
      1.363  0.1757E-01  0.2777E+00
      1.484  0.1993E-01  0.2801E+00
      1.605  0.1497E-01  0.2819E+00
      1.726  0.2768E-01  0.2852E+00
      1.848  0.2697E-01  0.2885E+00
      1.969  0.3120E-01  0.2923E+00
      2.090  0.3625E-01  0.2967E+00
      2.211  0.2478E-01  0.2997E+00
      2.332  0.1760E-01  0.3018E+00
      2.454  0.2768E-01  0.3052E+00
      2.575  0.2786E-01  0.3085E+00
      2.696  0.3577E-01  0.3129E+00
      2.817  0.3041E-01  0.3166E+00
      2.938  0.2948E-01  0.3201E+00
      3.060  0.4722E-01  0.3259E+00
      3.181  0.6611E-01  0.3339E+00
      3.302  0.6697E-01  0.3420E+00
      3.423  0.5648E-01  0.3488E+00
      3.544  0.4507E-01  0.3543E+00
      3.666  0.5654E-01  0.3612E+00
      3.787  0.5733E-01  0.3681E+00
      3.908  0.4370E-01  0.3734E+00
      4.029  0.3843E-01  0.3781E+00
      4.150  0.3836E-01  0.3827E+00
      4.272  0.4607E-01  0.3883E+00
      4.393  0.5503E-01  0.3950E+00
      4.514  0.6407E-01  0.4027E+00
      4.635  0.5347E-01  0.4092E+00
      4.756  0.5008E-01  0.4153E+00
      4.878  0.6458E-01  0.4231E+00
      4.999  0.7743E-01  0.4325E+00
      5.120  0.6837E-01  0.4408E+00
      5.241  0.5491E-01  0.4474E+00
      5.362  0.4780E-01  0.4532E+00
      5.484  0.4558E-01  0.4587E+00
      5.605  0.4845E-01  0.4646E+00
      5.726  0.5377E-01  0.4711E+00
      5.847  0.4826E-01  0.4770E+00
      5.968  0.7000E-01  0.4855E+00
      6.090  0.6420E-01  0.4932E+00
      6.211  0.4957E-01  0.4993E+00
      6.332  0.6601E-01  0.5073E+00
      6.453  0.7346E-01  0.5162E+00
      6.574  0.5542E-01  0.5229E+00
      6.696  0.5536E-01  0.5296E+00
      6.817  0.6291E-01  0.5372E+00
      6.938  0.6208E-01  0.5447E+00
      7.059  0.6690E-01  0.5528E+00
      7.180  0.4767E-01  0.5586E+00
      7.302  0.4931E-01  0.5646E+00
      7.423  0.7728E-01  0.5740E+00
      7.544  0.8058E-01  0.5837E+00
      7.665  0.5507E-01  0.5904E+00
      7.786  0.4832E-01  0.5963E+00
      7.908  0.5761E-01  0.6032E+00
      8.029  0.4143E-01  0.6083E+00
      8.150  0.4110E-01  0.6132E+00
      8.271  0.6835E-01  0.6215E+00
      8.392  0.6687E-01  0.6296E+00
      8.514  0.5261E-01  0.6360E+00
      8.635  0.4425E-01  0.6414E+00
      8.756  0.5676E-01  0.6482E+00
      8.877  0.7102E-01  0.6569E+00
      8.998  0.1096E+00  0.6701E+00
      9.120  0.9152E-01  0.6812E+00
      9.241  0.7534E-01  0.6904E+00
      9.362  0.7057E-01  0.6989E+00
      9.483  0.6990E-01  0.7074E+00
      9.604  0.8352E-01  0.7175E+00
      9.726  0.7070E-01  0.7261E+00
      9.847  0.5090E-01  0.7322E+00
      9.968  0.6284E-01  0.7399E+00
     10.089  0.7155E-01  0.7485E+00
     10.210  0.4521E-01  0.7540E+00
     10.332  0.4712E-01  0.7597E+00
     10.453  0.6851E-01  0.7680E+00
     10.574  0.9187E-01  0.7792E+00
     10.695  0.9265E-01  0.7904E+00
     10.816  0.6784E-01  0.7986E+00
     10.938  0.6339E-01  0.8063E+00
     11.059  0.6913E-01  0.8147E+00
     11.180  0.7210E-01  0.8234E+00
     11.301  0.5733E-01  0.8304E+00
     11.422  0.5944E-01  0.8376E+00
     11.544  0.6254E-01  0.8451E+00
     11.665  0.8221E-01  0.8551E+00
     11.786  0.8274E-01  0.8651E+00
     11.907  0.8324E-01  0.8752E+00
     12.028  0.7398E-01  0.8842E+00
     12.150  0.5930E-01  0.8914E+00
     12.271  0.6511E-01  0.8993E+00
     12.392  0.7847E-01  0.9088E+00
     12.513  0.6248E-01  0.9164E+00
     12.634  0.5916E-01  0.9235E+00
     12.756  0.7156E-01  0.9322E+00
     12.877  0.6586E-01  0.9402E+00
     12.998  0.5765E-01  0.9472E+00
     13.119  0.4469E-01  0.9526E+00
     13.240  0.3673E-01  0.9570E+00
     13.362  0.2163E-01  0.9597E+00
     13.483  0.2813E-02  0.9600E+00
     13.604  0.3747E-04  0.9600E+00
     13.725  0.3546E-07  0.9600E+00
     13.846  0.2079E-11  0.9600E+00
     13.968  0.6616E-17  0.9600E+00
     14.089  0.0000E+00  0.9600E+00
     14.210  0.0000E+00  0.9600E+00
     14.331  0.0000E+00  0.9600E+00
     14.452  0.0000E+00  0.9600E+00
     14.573  0.0000E+00  0.9600E+00
     14.695  0.0000E+00  0.9600E+00
     14.816  0.0000E+00  0.9600E+00
     14.937  0.0000E+00  0.9600E+00
