  15  15   0   4
  0.2007813E+02  0.4815000E-09  0.4815000E-09  0.1500000E-08  0.5000000E-15
  1.000000000000000E-004
  CAR 
 Lattice                                 
     10.39448278    -21.73902994  301     -0.19467717      1.00000000
    -21.739  0.0000E+00  0.0000E+00  0.0000E+00  0.0000E+00
    -21.632  0.0000E+00  0.0000E+00  0.0000E+00  0.0000E+00
    -21.525  0.0000E+00  0.0000E+00  0.0000E+00  0.0000E+00
    -21.418  0.0000E+00  0.0000E+00  0.0000E+00  0.0000E+00
    -21.311  0.0000E+00  0.0000E+00  0.0000E+00  0.0000E+00
    -21.203  0.0000E+00  0.0000E+00  0.0000E+00  0.0000E+00
    -21.096  0.0000E+00  0.0000E+00  0.0000E+00  0.0000E+00
    -20.989  0.0000E+00  0.0000E+00  0.0000E+00  0.0000E+00
    -20.882  0.0000E+00  0.0000E+00  0.0000E+00  0.0000E+00
    -20.775  0.5856E-15  0.5856E-15  0.6273E-16  0.6273E-16
    -20.668  0.1065E-10  0.1065E-10  0.1141E-11  0.1141E-11
    -20.561  0.2293E-07  0.2293E-07  0.2458E-08  0.2458E-08
    -20.454  0.6445E-05  0.6445E-05  0.6928E-06  0.6928E-06
    -20.347  0.2648E-03  0.2648E-03  0.2906E-04  0.2906E-04
    -20.239  0.1948E-02  0.1948E-02  0.2377E-03  0.2377E-03
    -20.132  0.4107E-02  0.4107E-02  0.6777E-03  0.6777E-03
    -20.025  0.4458E-02  0.4458E-02  0.1155E-02  0.1155E-02
    -19.918  0.4897E-02  0.4897E-02  0.1680E-02  0.1680E-02
    -19.811  0.4087E-02  0.4087E-02  0.2117E-02  0.2117E-02
    -19.704  0.5306E-02  0.5306E-02  0.2686E-02  0.2686E-02
    -19.597  0.4247E-02  0.4247E-02  0.3141E-02  0.3141E-02
    -19.490  0.4076E-02  0.4076E-02  0.3577E-02  0.3577E-02
    -19.383  0.5967E-02  0.5967E-02  0.4216E-02  0.4216E-02
    -19.275  0.3940E-02  0.3940E-02  0.4638E-02  0.4638E-02
    -19.168  0.3625E-02  0.3625E-02  0.5027E-02  0.5027E-02
    -19.061  0.5991E-02  0.5991E-02  0.5668E-02  0.5668E-02
    -18.954  0.5322E-02  0.5322E-02  0.6238E-02  0.6238E-02
    -18.847  0.3107E-02  0.3107E-02  0.6571E-02  0.6571E-02
    -18.740  0.3853E-02  0.3853E-02  0.6984E-02  0.6984E-02
    -18.633  0.6889E-02  0.6889E-02  0.7722E-02  0.7722E-02
    -18.526  0.4797E-02  0.4797E-02  0.8236E-02  0.8236E-02
    -18.419  0.3837E-02  0.3837E-02  0.8647E-02  0.8647E-02
    -18.311  0.2824E-02  0.2824E-02  0.8949E-02  0.8949E-02
    -18.204  0.5946E-02  0.5946E-02  0.9586E-02  0.9586E-02
    -18.097  0.6961E-02  0.6961E-02  0.1033E-01  0.1033E-01
    -17.990  0.3948E-02  0.3948E-02  0.1075E-01  0.1075E-01
    -17.883  0.2987E-02  0.2987E-02  0.1107E-01  0.1107E-01
    -17.776  0.3968E-02  0.3968E-02  0.1150E-01  0.1150E-01
    -17.669  0.5566E-02  0.5566E-02  0.1210E-01  0.1210E-01
    -17.562  0.7161E-02  0.7161E-02  0.1286E-01  0.1286E-01
    -17.455  0.7103E-02  0.7103E-02  0.1362E-01  0.1362E-01
    -17.347  0.8618E-02  0.8618E-02  0.1455E-01  0.1455E-01
    -17.240  0.9873E-02  0.9873E-02  0.1560E-01  0.1560E-01
    -17.133  0.1425E-01  0.1425E-01  0.1713E-01  0.1713E-01
    -17.026  0.1651E-01  0.1651E-01  0.1890E-01  0.1890E-01
    -16.919  0.1905E-01  0.1905E-01  0.2094E-01  0.2094E-01
    -16.812  0.2096E-01  0.2096E-01  0.2318E-01  0.2318E-01
    -16.705  0.1243E-01  0.1243E-01  0.2452E-01  0.2452E-01
    -16.598  0.2991E-02  0.2991E-02  0.2484E-01  0.2484E-01
    -16.491  0.5069E-02  0.5069E-02  0.2538E-01  0.2538E-01
    -16.383  0.8977E-02  0.8977E-02  0.2634E-01  0.2634E-01
    -16.276  0.5120E-02  0.5120E-02  0.2689E-01  0.2689E-01
    -16.169  0.4256E-02  0.4256E-02  0.2734E-01  0.2734E-01
    -16.062  0.3684E-02  0.3684E-02  0.2774E-01  0.2774E-01
    -15.955  0.4090E-02  0.4090E-02  0.2818E-01  0.2818E-01
    -15.848  0.3075E-02  0.3075E-02  0.2851E-01  0.2851E-01
    -15.741  0.6254E-02  0.6254E-02  0.2918E-01  0.2918E-01
    -15.634  0.8946E-02  0.8946E-02  0.3013E-01  0.3013E-01
    -15.527  0.5103E-02  0.5103E-02  0.3068E-01  0.3068E-01
    -15.419  0.3686E-02  0.3686E-02  0.3108E-01  0.3108E-01
    -15.312  0.3350E-02  0.3350E-02  0.3144E-01  0.3144E-01
    -15.205  0.3859E-02  0.3859E-02  0.3185E-01  0.3185E-01
    -15.098  0.6009E-02  0.6009E-02  0.3249E-01  0.3249E-01
    -14.991  0.1175E-01  0.1175E-01  0.3375E-01  0.3375E-01
    -14.884  0.1820E-01  0.1820E-01  0.3570E-01  0.3570E-01
    -14.777  0.1991E-01  0.1991E-01  0.3783E-01  0.3783E-01
    -14.670  0.1532E-01  0.1532E-01  0.3947E-01  0.3947E-01
    -14.563  0.1213E-01  0.1213E-01  0.4077E-01  0.4077E-01
    -14.455  0.8636E-02  0.8636E-02  0.4170E-01  0.4170E-01
    -14.348  0.1057E-01  0.1057E-01  0.4283E-01  0.4283E-01
    -14.241  0.1547E-01  0.1547E-01  0.4449E-01  0.4449E-01
    -14.134  0.1572E-01  0.1572E-01  0.4617E-01  0.4617E-01
    -14.027  0.1103E-01  0.1103E-01  0.4735E-01  0.4735E-01
    -13.920  0.1331E-01  0.1331E-01  0.4878E-01  0.4878E-01
    -13.813  0.1846E-01  0.1846E-01  0.5076E-01  0.5076E-01
    -13.706  0.1737E-01  0.1737E-01  0.5262E-01  0.5262E-01
    -13.599  0.1694E-01  0.1694E-01  0.5443E-01  0.5443E-01
    -13.491  0.1150E-01  0.1150E-01  0.5566E-01  0.5566E-01
    -13.384  0.6403E-02  0.6403E-02  0.5635E-01  0.5635E-01
    -13.277  0.3569E-02  0.3569E-02  0.5673E-01  0.5673E-01
    -13.170  0.3102E-02  0.3102E-02  0.5706E-01  0.5706E-01
    -13.063  0.5514E-02  0.5514E-02  0.5765E-01  0.5765E-01
    -12.956  0.7325E-02  0.7325E-02  0.5844E-01  0.5844E-01
    -12.849  0.5321E-02  0.5321E-02  0.5901E-01  0.5901E-01
    -12.742  0.5478E-02  0.5478E-02  0.5959E-01  0.5959E-01
    -12.635  0.6708E-02  0.6708E-02  0.6031E-01  0.6031E-01
    -12.527  0.6287E-02  0.6287E-02  0.6099E-01  0.6099E-01
    -12.420  0.5588E-02  0.5588E-02  0.6159E-01  0.6159E-01
    -12.313  0.4309E-02  0.4309E-02  0.6205E-01  0.6205E-01
    -12.206  0.4048E-02  0.4048E-02  0.6248E-01  0.6248E-01
    -12.099  0.8024E-02  0.8024E-02  0.6334E-01  0.6334E-01
    -11.992  0.5596E-02  0.5596E-02  0.6394E-01  0.6394E-01
    -11.885  0.3006E-02  0.3006E-02  0.6426E-01  0.6426E-01
    -11.778  0.3626E-02  0.3626E-02  0.6465E-01  0.6465E-01
    -11.671  0.3759E-02  0.3759E-02  0.6505E-01  0.6505E-01
    -11.563  0.6640E-02  0.6640E-02  0.6576E-01  0.6576E-01
    -11.456  0.6105E-02  0.6105E-02  0.6642E-01  0.6642E-01
    -11.349  0.2525E-02  0.2525E-02  0.6669E-01  0.6669E-01
    -11.242  0.2795E-02  0.2795E-02  0.6699E-01  0.6699E-01
    -11.135  0.5563E-02  0.5563E-02  0.6758E-01  0.6758E-01
    -11.028  0.5969E-02  0.5969E-02  0.6822E-01  0.6822E-01
    -10.921  0.6678E-02  0.6678E-02  0.6894E-01  0.6894E-01
    -10.814  0.7304E-02  0.7304E-02  0.6972E-01  0.6972E-01
    -10.707  0.4484E-02  0.4484E-02  0.7020E-01  0.7020E-01
    -10.599  0.7327E-02  0.7327E-02  0.7099E-01  0.7099E-01
    -10.492  0.1316E-01  0.1316E-01  0.7239E-01  0.7239E-01
    -10.385  0.1440E-01  0.1440E-01  0.7394E-01  0.7394E-01
    -10.278  0.1628E-01  0.1628E-01  0.7568E-01  0.7568E-01
    -10.171  0.1702E-01  0.1702E-01  0.7750E-01  0.7750E-01
    -10.064  0.1593E-01  0.1593E-01  0.7921E-01  0.7921E-01
     -9.957  0.1452E-01  0.1452E-01  0.8077E-01  0.8077E-01
     -9.850  0.1070E-01  0.1070E-01  0.8191E-01  0.8191E-01
     -9.743  0.1156E-01  0.1156E-01  0.8315E-01  0.8315E-01
     -9.635  0.1313E-01  0.1313E-01  0.8456E-01  0.8456E-01
     -9.528  0.9375E-02  0.9375E-02  0.8556E-01  0.8556E-01
     -9.421  0.1484E-01  0.1484E-01  0.8715E-01  0.8715E-01
     -9.314  0.2122E-01  0.2122E-01  0.8942E-01  0.8942E-01
     -9.207  0.1488E-01  0.1488E-01  0.9102E-01  0.9102E-01
     -9.100  0.9136E-02  0.9136E-02  0.9199E-01  0.9199E-01
     -8.993  0.6083E-02  0.6083E-02  0.9265E-01  0.9265E-01
     -8.886  0.1350E-01  0.1350E-01  0.9409E-01  0.9409E-01
     -8.779  0.2323E-01  0.2323E-01  0.9658E-01  0.9658E-01
     -8.671  0.1437E-01  0.1437E-01  0.9812E-01  0.9812E-01
     -8.564  0.8496E-02  0.8496E-02  0.9903E-01  0.9903E-01
     -8.457  0.1131E-01  0.1131E-01  0.1002E+00  0.1002E+00
     -8.350  0.1756E-01  0.1756E-01  0.1021E+00  0.1021E+00
     -8.243  0.1852E-01  0.1852E-01  0.1041E+00  0.1041E+00
     -8.136  0.1421E-01  0.1421E-01  0.1056E+00  0.1056E+00
     -8.029  0.1578E-01  0.1578E-01  0.1073E+00  0.1073E+00
     -7.922  0.2197E-01  0.2197E-01  0.1097E+00  0.1097E+00
     -7.815  0.2342E-01  0.2342E-01  0.1122E+00  0.1122E+00
     -7.707  0.2115E-01  0.2115E-01  0.1144E+00  0.1144E+00
     -7.600  0.1346E-01  0.1346E-01  0.1159E+00  0.1159E+00
     -7.493  0.6858E-02  0.6858E-02  0.1166E+00  0.1166E+00
     -7.386  0.1368E-01  0.1368E-01  0.1181E+00  0.1181E+00
     -7.279  0.1844E-01  0.1844E-01  0.1201E+00  0.1201E+00
     -7.172  0.1311E-01  0.1311E-01  0.1215E+00  0.1215E+00
     -7.065  0.1278E-01  0.1278E-01  0.1228E+00  0.1228E+00
     -6.958  0.1538E-01  0.1538E-01  0.1245E+00  0.1245E+00
     -6.851  0.1764E-01  0.1764E-01  0.1264E+00  0.1264E+00
     -6.743  0.1749E-01  0.1749E-01  0.1282E+00  0.1282E+00
     -6.636  0.2136E-01  0.2136E-01  0.1305E+00  0.1305E+00
     -6.529  0.2356E-01  0.2356E-01  0.1331E+00  0.1331E+00
     -6.422  0.2192E-01  0.2192E-01  0.1354E+00  0.1354E+00
     -6.315  0.1722E-01  0.1722E-01  0.1373E+00  0.1373E+00
     -6.208  0.1745E-01  0.1745E-01  0.1391E+00  0.1391E+00
     -6.101  0.2144E-01  0.2144E-01  0.1414E+00  0.1414E+00
     -5.994  0.2839E-01  0.2839E-01  0.1445E+00  0.1445E+00
     -5.886  0.3091E-01  0.3091E-01  0.1478E+00  0.1478E+00
     -5.779  0.2361E-01  0.2361E-01  0.1503E+00  0.1503E+00
     -5.672  0.1976E-01  0.1976E-01  0.1524E+00  0.1524E+00
     -5.565  0.2354E-01  0.2354E-01  0.1549E+00  0.1549E+00
     -5.458  0.3054E-01  0.3054E-01  0.1582E+00  0.1582E+00
     -5.351  0.3130E-01  0.3130E-01  0.1616E+00  0.1616E+00
     -5.244  0.2262E-01  0.2262E-01  0.1640E+00  0.1640E+00
     -5.137  0.1688E-01  0.1688E-01  0.1658E+00  0.1658E+00
     -5.030  0.1133E-01  0.1133E-01  0.1670E+00  0.1670E+00
     -4.922  0.7968E-02  0.7968E-02  0.1679E+00  0.1679E+00
     -4.815  0.1224E-01  0.1224E-01  0.1692E+00  0.1692E+00
     -4.708  0.1411E-01  0.1411E-01  0.1707E+00  0.1707E+00
     -4.601  0.9471E-02  0.9471E-02  0.1717E+00  0.1717E+00
     -4.494  0.8603E-02  0.8603E-02  0.1726E+00  0.1726E+00
     -4.387  0.1167E-01  0.1167E-01  0.1739E+00  0.1739E+00
     -4.280  0.2125E-01  0.2125E-01  0.1761E+00  0.1761E+00
     -4.173  0.2456E-01  0.2456E-01  0.1788E+00  0.1788E+00
     -4.066  0.1898E-01  0.1898E-01  0.1808E+00  0.1808E+00
     -3.958  0.1864E-01  0.1864E-01  0.1828E+00  0.1828E+00
     -3.851  0.2444E-01  0.2444E-01  0.1854E+00  0.1854E+00
     -3.744  0.2076E-01  0.2076E-01  0.1876E+00  0.1876E+00
     -3.637  0.1958E-01  0.1958E-01  0.1897E+00  0.1897E+00
     -3.530  0.1868E-01  0.1868E-01  0.1917E+00  0.1917E+00
     -3.423  0.1719E-01  0.1719E-01  0.1936E+00  0.1936E+00
     -3.316  0.1139E-01  0.1139E-01  0.1948E+00  0.1948E+00
     -3.209  0.1355E-01  0.1355E-01  0.1963E+00  0.1963E+00
     -3.102  0.1881E-01  0.1881E-01  0.1983E+00  0.1983E+00
     -2.994  0.1705E-01  0.1705E-01  0.2001E+00  0.2001E+00
     -2.887  0.1287E-01  0.1287E-01  0.2015E+00  0.2015E+00
     -2.780  0.1246E-01  0.1246E-01  0.2028E+00  0.2028E+00
     -2.673  0.8867E-02  0.8867E-02  0.2038E+00  0.2038E+00
     -2.566  0.9573E-02  0.9573E-02  0.2048E+00  0.2048E+00
     -2.459  0.1469E-01  0.1469E-01  0.2064E+00  0.2064E+00
     -2.352  0.1816E-01  0.1816E-01  0.2083E+00  0.2083E+00
     -2.245  0.6430E-02  0.6430E-02  0.2090E+00  0.2090E+00
     -2.138  0.5417E-02  0.5418E-02  0.2096E+00  0.2096E+00
     -2.030  0.9428E-02  0.9428E-02  0.2106E+00  0.2106E+00
     -1.923  0.8953E-02  0.8953E-02  0.2115E+00  0.2115E+00
     -1.816  0.9841E-02  0.9841E-02  0.2126E+00  0.2126E+00
     -1.709  0.1066E-01  0.1066E-01  0.2137E+00  0.2137E+00
     -1.602  0.1010E-01  0.1010E-01  0.2148E+00  0.2148E+00
     -1.495  0.9586E-02  0.9586E-02  0.2158E+00  0.2158E+00
     -1.388  0.3861E-02  0.3861E-02  0.2163E+00  0.2163E+00
     -1.281  0.3516E-02  0.3516E-02  0.2166E+00  0.2166E+00
     -1.174  0.4961E-02  0.4961E-02  0.2172E+00  0.2172E+00
     -1.066  0.2986E-02  0.2986E-02  0.2175E+00  0.2175E+00
     -0.959  0.3987E-02  0.3987E-02  0.2179E+00  0.2179E+00
     -0.852  0.4917E-02  0.4917E-02  0.2184E+00  0.2184E+00
     -0.745  0.1762E-02  0.1762E-02  0.2186E+00  0.2186E+00
     -0.638  0.1653E-03  0.1653E-03  0.2186E+00  0.2186E+00
     -0.531  0.3563E-05  0.3563E-05  0.2186E+00  0.2186E+00
     -0.424  0.1219E-05  0.1219E-05  0.2186E+00  0.2186E+00
     -0.317  0.8433E-04  0.8433E-04  0.2187E+00  0.2187E+00
     -0.210  0.7584E-03  0.7584E-03  0.2187E+00  0.2187E+00
     -0.102  0.9874E-03  0.9874E-03  0.2188E+00  0.2188E+00
      0.005  0.1898E-03  0.1898E-03  0.2189E+00  0.2189E+00
      0.112  0.4867E-05  0.4867E-05  0.2189E+00  0.2189E+00
      0.219  0.2034E-06  0.2034E-06  0.2189E+00  0.2189E+00
      0.326  0.3864E-04  0.3864E-04  0.2189E+00  0.2189E+00
      0.433  0.9625E-03  0.9625E-03  0.2190E+00  0.2190E+00
      0.540  0.3288E-02  0.3288E-02  0.2193E+00  0.2193E+00
      0.647  0.1914E-02  0.1914E-02  0.2195E+00  0.2195E+00
      0.754  0.3066E-02  0.3066E-02  0.2199E+00  0.2199E+00
      0.862  0.6978E-02  0.6979E-02  0.2206E+00  0.2206E+00
      0.969  0.9975E-02  0.9975E-02  0.2217E+00  0.2217E+00
      1.076  0.2005E-01  0.2005E-01  0.2238E+00  0.2238E+00
      1.183  0.2044E-01  0.2044E-01  0.2260E+00  0.2260E+00
      1.290  0.7951E-02  0.7951E-02  0.2269E+00  0.2269E+00
      1.397  0.1284E-02  0.1284E-02  0.2270E+00  0.2270E+00
      1.504  0.2333E-02  0.2333E-02  0.2272E+00  0.2272E+00
      1.611  0.1008E-01  0.1008E-01  0.2283E+00  0.2283E+00
      1.718  0.1996E-01  0.1996E-01  0.2305E+00  0.2305E+00
      1.826  0.1603E-01  0.1603E-01  0.2322E+00  0.2322E+00
      1.933  0.1052E-01  0.1052E-01  0.2333E+00  0.2333E+00
      2.040  0.9145E-02  0.9145E-02  0.2343E+00  0.2343E+00
      2.147  0.1012E-01  0.1012E-01  0.2354E+00  0.2354E+00
      2.254  0.8108E-02  0.8108E-02  0.2362E+00  0.2362E+00
      2.361  0.7779E-02  0.7779E-02  0.2371E+00  0.2371E+00
      2.468  0.7819E-02  0.7818E-02  0.2379E+00  0.2379E+00
      2.575  0.4713E-02  0.4713E-02  0.2384E+00  0.2384E+00
      2.682  0.9571E-02  0.9571E-02  0.2394E+00  0.2394E+00
      2.790  0.1326E-01  0.1326E-01  0.2409E+00  0.2409E+00
      2.897  0.7831E-02  0.7831E-02  0.2417E+00  0.2417E+00
      3.004  0.6924E-02  0.6923E-02  0.2424E+00  0.2424E+00
      3.111  0.7742E-02  0.7742E-02  0.2433E+00  0.2433E+00
      3.218  0.1160E-01  0.1160E-01  0.2445E+00  0.2445E+00
      3.325  0.1112E-01  0.1112E-01  0.2457E+00  0.2457E+00
      3.432  0.9700E-02  0.9701E-02  0.2467E+00  0.2467E+00
      3.539  0.8627E-02  0.8626E-02  0.2477E+00  0.2477E+00
      3.646  0.1148E-01  0.1147E-01  0.2489E+00  0.2489E+00
      3.754  0.2094E-01  0.2094E-01  0.2511E+00  0.2511E+00
      3.861  0.2362E-01  0.2362E-01  0.2537E+00  0.2537E+00
      3.968  0.1952E-01  0.1952E-01  0.2558E+00  0.2558E+00
      4.075  0.1953E-01  0.1953E-01  0.2578E+00  0.2578E+00
      4.182  0.2253E-01  0.2253E-01  0.2603E+00  0.2603E+00
      4.289  0.2577E-01  0.2577E-01  0.2630E+00  0.2630E+00
      4.396  0.2674E-01  0.2674E-01  0.2659E+00  0.2659E+00
      4.503  0.2374E-01  0.2374E-01  0.2684E+00  0.2684E+00
      4.610  0.2682E-01  0.2682E-01  0.2713E+00  0.2713E+00
      4.718  0.2323E-01  0.2323E-01  0.2738E+00  0.2738E+00
      4.825  0.2176E-01  0.2176E-01  0.2761E+00  0.2761E+00
      4.932  0.2644E-01  0.2644E-01  0.2790E+00  0.2790E+00
      5.039  0.2752E-01  0.2752E-01  0.2819E+00  0.2819E+00
      5.146  0.2380E-01  0.2381E-01  0.2845E+00  0.2845E+00
      5.253  0.2484E-01  0.2485E-01  0.2871E+00  0.2871E+00
      5.360  0.2001E-01  0.2002E-01  0.2893E+00  0.2893E+00
      5.467  0.1819E-01  0.1819E-01  0.2912E+00  0.2912E+00
      5.574  0.2109E-01  0.2109E-01  0.2935E+00  0.2935E+00
      5.682  0.3277E-01  0.3276E-01  0.2970E+00  0.2970E+00
      5.789  0.2762E-01  0.2763E-01  0.2999E+00  0.2999E+00
      5.896  0.1993E-01  0.1994E-01  0.3021E+00  0.3021E+00
      6.003  0.1752E-01  0.1751E-01  0.3039E+00  0.3039E+00
      6.110  0.2090E-01  0.2090E-01  0.3062E+00  0.3062E+00
      6.217  0.1935E-01  0.1936E-01  0.3083E+00  0.3083E+00
      6.324  0.1605E-01  0.1605E-01  0.3100E+00  0.3100E+00
      6.431  0.1867E-01  0.1867E-01  0.3120E+00  0.3120E+00
      6.538  0.2355E-01  0.2356E-01  0.3145E+00  0.3145E+00
      6.646  0.2705E-01  0.2706E-01  0.3174E+00  0.3174E+00
      6.753  0.2371E-01  0.2371E-01  0.3199E+00  0.3199E+00
      6.860  0.2875E-01  0.2874E-01  0.3230E+00  0.3230E+00
      6.967  0.3269E-01  0.3269E-01  0.3265E+00  0.3265E+00
      7.074  0.2882E-01  0.2883E-01  0.3296E+00  0.3296E+00
      7.181  0.2660E-01  0.2658E-01  0.3324E+00  0.3325E+00
      7.288  0.2179E-01  0.2177E-01  0.3348E+00  0.3348E+00
      7.395  0.1577E-01  0.1577E-01  0.3365E+00  0.3365E+00
      7.502  0.2057E-01  0.2057E-01  0.3387E+00  0.3387E+00
      7.610  0.2514E-01  0.2514E-01  0.3414E+00  0.3414E+00
      7.717  0.2094E-01  0.2093E-01  0.3436E+00  0.3436E+00
      7.824  0.2150E-01  0.2149E-01  0.3459E+00  0.3459E+00
      7.931  0.2551E-01  0.2550E-01  0.3486E+00  0.3486E+00
      8.038  0.2722E-01  0.2723E-01  0.3516E+00  0.3516E+00
      8.145  0.3762E-01  0.3764E-01  0.3556E+00  0.3556E+00
      8.252  0.3248E-01  0.3248E-01  0.3591E+00  0.3591E+00
      8.359  0.2662E-01  0.2662E-01  0.3619E+00  0.3619E+00
      8.466  0.3097E-01  0.3097E-01  0.3652E+00  0.3652E+00
      8.574  0.2962E-01  0.2962E-01  0.3684E+00  0.3684E+00
      8.681  0.2574E-01  0.2574E-01  0.3712E+00  0.3712E+00
      8.788  0.2008E-01  0.2008E-01  0.3733E+00  0.3733E+00
      8.895  0.1035E-01  0.1035E-01  0.3744E+00  0.3744E+00
      9.002  0.4445E-02  0.4446E-02  0.3749E+00  0.3749E+00
      9.109  0.8571E-03  0.8570E-03  0.3750E+00  0.3750E+00
      9.216  0.2966E-04  0.2964E-04  0.3750E+00  0.3750E+00
      9.323  0.1321E-06  0.1319E-06  0.3750E+00  0.3750E+00
      9.430  0.6780E-10  0.6768E-10  0.3750E+00  0.3750E+00
      9.538  0.3822E-14  0.3813E-14  0.3750E+00  0.3750E+00
      9.645  0.0000E+00  0.0000E+00  0.3750E+00  0.3750E+00
      9.752  0.0000E+00  0.0000E+00  0.3750E+00  0.3750E+00
      9.859  0.0000E+00  0.0000E+00  0.3750E+00  0.3750E+00
      9.966  0.0000E+00  0.0000E+00  0.3750E+00  0.3750E+00
     10.073  0.0000E+00  0.0000E+00  0.3750E+00  0.3750E+00
     10.180  0.0000E+00  0.0000E+00  0.3750E+00  0.3750E+00
     10.287  0.0000E+00  0.0000E+00  0.3750E+00  0.3750E+00
     10.394  0.0000E+00  0.0000E+00  0.3750E+00  0.3750E+00
