 ----------------------------------------------------
    OOO  PPPP  EEEEE N   N M   M PPPP
   O   O P   P E     NN  N MM MM P   P
   O   O PPPP  EEEEE N N N M M M PPPP   -- VERSION
   O   O P     E     N  NN M   M P
    OOO  P     EEEEE N   N M   M P
 ----------------------------------------------------
 running   48 mpi-ranks, with    1 threads/rank
 distrk:  each k-point on   48 cores,    1 groups
 distr:  one band on    1 cores,   48 groups
 vasp.6.3.2 27Jun22 (build Dec 22 2022 13:13:19) complex                        
  
 POSCAR found type information on POSCAR B C 
 POSCAR found :  2 types and      15 ions
 Reading from existing POTCAR
 -----------------------------------------------------------------------------
|                                                                             |
|           W    W    AA    RRRRR   N    N  II  N    N   GGGG   !!!           |
|           W    W   A  A   R    R  NN   N  II  NN   N  G    G  !!!           |
|           W    W  A    A  R    R  N N  N  II  N N  N  G       !!!           |
|           W WW W  AAAAAA  RRRRR   N  N N  II  N  N N  G  GGG   !            |
|           WW  WW  A    A  R   R   N   NN  II  N   NN  G    G                |
|           W    W  A    A  R    R  N    N  II  N    N   GGGG   !!!           |
|                                                                             |
|     You use a magnetic or noncollinear calculation, but did not specify     |
|     the initial magnetic moment with the MAGMOM tag. Note that a            |
|     default of 1 will be used for all atoms. This ferromagnetic setup       |
|     may break the symmetry of the crystal, in particular it may rule        |
|     out finding an antiferromagnetic solution. Thence, we recommend         |
|     setting the initial magnetic moment manually or verifying carefully     |
|     that this magnetic setup is desired.                                    |
|                                                                             |
 -----------------------------------------------------------------------------

 scaLAPACK will be used
 Reading from existing POTCAR
 LDA part: xc-table for Pade appr. of Perdew
 POSCAR found type information on POSCAR B C 
 POSCAR found :  2 types and      15 ions
 POSCAR, INCAR and KPOINTS ok, starting setup
 FFT: planning ... GRIDC
 FFT: planning ... GRID_SOFT
 FFT: planning ... GRID
 WAVECAR not read
 entering main loop
       N       E                     dE             d eps       ncg     rms          rms(c)
DAV:   1     0.204146683296E+03    0.20415E+03   -0.25830E+04 14208   0.861E+02
DAV:   2    -0.117314696874E+03   -0.32146E+03   -0.31991E+03 20448   0.164E+02
DAV:   3    -0.129867090398E+03   -0.12552E+02   -0.12541E+02 26928   0.425E+01
DAV:   4    -0.129886789866E+03   -0.19699E-01   -0.19699E-01 20832   0.168E+00
DAV:   5    -0.129886842815E+03   -0.52949E-04   -0.52948E-04 25584   0.816E-02    0.247E+01
DAV:   6    -0.921852060113E+02    0.37702E+02   -0.71059E+01 25488   0.255E+01    0.141E+01
DAV:   7    -0.100639204005E+03   -0.84540E+01   -0.10337E+01 21984   0.103E+01    0.816E+00
DAV:   8    -0.110479890222E+03   -0.98407E+01   -0.87650E+00 25200   0.896E+00    0.438E+00
DAV:   9    -0.117147983510E+03   -0.66681E+01   -0.38099E+00 20640   0.606E+00    0.279E+00
DAV:  10    -0.123408794611E+03   -0.62608E+01   -0.80539E+00 23664   0.697E+00    0.161E+00
DAV:  11    -0.125251590635E+03   -0.18428E+01   -0.30473E+00 23760   0.388E+00    0.102E+00
DAV:  12    -0.125394839411E+03   -0.14325E+00   -0.21878E-01 20592   0.129E+00    0.492E-01
DAV:  13    -0.125422794661E+03   -0.27955E-01   -0.22416E-02 16320   0.532E-01    0.197E-01
DAV:  14    -0.125446172157E+03   -0.23377E-01   -0.59901E-03 20784   0.269E-01    0.872E-02
DAV:  15    -0.125454274424E+03   -0.81023E-02   -0.33214E-03 17952   0.156E-01    0.464E-02
DAV:  16    -0.125456358973E+03   -0.20845E-02   -0.66237E-04 16800   0.808E-02    0.234E-02
DAV:  17    -0.125457671806E+03   -0.13128E-02   -0.18561E-04 15072   0.517E-02    0.183E-02
DAV:  18    -0.125458379237E+03   -0.70743E-03   -0.92899E-05 15408   0.381E-02    0.132E-02
DAV:  19    -0.125458846749E+03   -0.46751E-03   -0.46122E-05 20592   0.249E-02    0.778E-03
DAV:  20    -0.125458887620E+03   -0.40871E-04   -0.22425E-05 21552   0.178E-02    0.472E-03
DAV:  21    -0.125458915715E+03   -0.28094E-04   -0.65094E-06 21408   0.953E-03    0.233E-03
DAV:  22    -0.125458937300E+03   -0.21585E-04   -0.21373E-06 20784   0.539E-03    0.147E-03
DAV:  23    -0.125458954538E+03   -0.17238E-04   -0.18089E-06 21744   0.393E-03    0.759E-04
DAV:  24    -0.125458958172E+03   -0.36343E-05   -0.34504E-07 21504   0.205E-03    0.391E-04
DAV:  25    -0.125458959196E+03   -0.10242E-05   -0.11647E-07 23664   0.106E-03    0.195E-04
DAV:  26    -0.125458959708E+03   -0.51191E-06   -0.30098E-08 20256   0.576E-04
   1 F= -.12704993E+03 E0= -.12704915E+03  d E =-.127050E+03  mag=    -0.0000
 curvature:   0.00 expect dE= 0.000E+00 dE for cont linesearch  0.000E+00
 trial: gam= 0.00000 g(F)=  0.197E-01 g(S)=  0.000E+00 ort = 0.000E+00 (trialstep = 0.100E+01)
 search vector abs. value=  0.197E-01
 bond charge predicted
       N       E                     dE             d eps       ncg     rms          rms(c)
DAV:   1    -0.125465918236E+03   -0.69590E-02   -0.20612E+00 14208   0.446E+00    0.396E-01
DAV:   2    -0.125460414949E+03    0.55033E-02   -0.41831E-02 25536   0.570E-01    0.175E-01
DAV:   3    -0.125459809502E+03    0.60545E-03   -0.34951E-03 21216   0.162E-01    0.687E-02
DAV:   4    -0.125459787201E+03    0.22301E-04   -0.39344E-04 26304   0.555E-02    0.184E-02
DAV:   5    -0.125459789687E+03   -0.24857E-05   -0.10368E-05 24240   0.102E-02    0.790E-03
DAV:   6    -0.125459789973E+03   -0.28585E-06   -0.11160E-06 22464   0.325E-03
   2 F= -.12705022E+03 E0= -.12704944E+03  d E =-.286726E-03  mag=    -0.0000
 trial-energy change:   -0.000287  1 .order   -0.000298   -0.019737    0.019141
 step:   0.5077(harm=  0.5077)  dis= 0.00583  next Energy=  -127.054943 (dE=-0.501E-02)
 bond charge predicted
       N       E                     dE             d eps       ncg     rms          rms(c)
DAV:   1    -0.125465738923E+03   -0.59492E-02   -0.49920E-01 14208   0.219E+00    0.195E-01
DAV:   2    -0.125464381259E+03    0.13577E-02   -0.10125E-02 25008   0.280E-01    0.859E-02
DAV:   3    -0.125464238549E+03    0.14271E-03   -0.84135E-04 22704   0.800E-02    0.341E-02
DAV:   4    -0.125464233779E+03    0.47700E-05   -0.93968E-05 22752   0.270E-02    0.859E-03
DAV:   5    -0.125464234359E+03   -0.57938E-06   -0.31973E-06 20736   0.549E-03
   3 F= -.12705493E+03 E0= -.12705415E+03  d E =-.499724E-02  mag=    -0.0000
 curvature:  -0.25 expect dE=-0.185E-02 dE for cont linesearch -0.830E-08
 trial: gam= 0.36747 g(F)=  0.728E-02 g(S)=  0.000E+00 ort = 0.254E-04 (trialstep = 0.902E+00)
 search vector abs. value=  0.996E-02
 bond charge predicted
       N       E                     dE             d eps       ncg     rms          rms(c)
DAV:   1    -0.125470178121E+03   -0.59443E-02   -0.31030E-01 14208   0.194E+00    0.117E-01
DAV:   2    -0.125470233766E+03   -0.55645E-04   -0.19066E-03 27456   0.171E-01    0.688E-02
DAV:   3    -0.125470228112E+03    0.56534E-05   -0.19602E-04 20640   0.486E-02    0.139E-02
DAV:   4    -0.125470229311E+03   -0.11991E-05   -0.20575E-05 26736   0.167E-02    0.539E-03
DAV:   5    -0.125470229608E+03   -0.29612E-06   -0.82705E-07 22464   0.383E-03
   4 F= -.12706067E+03 E0= -.12705989E+03  d E =-.574196E-02  mag=    -0.0000
 trial-energy change:   -0.005742  1 .order   -0.005748   -0.006570   -0.004927
 step:   3.6044(harm=  3.6044)  dis= 0.01947  next Energy=  -127.068064 (dE=-0.131E-01)
 bond charge predicted
       N       E                     dE             d eps       ncg     rms          rms(c)
DAV:   1    -0.125478256902E+03   -0.80276E-02   -0.28077E+00 14208   0.582E+00    0.350E-01
DAV:   2    -0.125478894071E+03   -0.63717E-03   -0.17754E-02 26304   0.520E-01    0.206E-01
DAV:   3    -0.125478825619E+03    0.68452E-04   -0.18084E-03 21120   0.147E-01    0.420E-02
DAV:   4    -0.125478836697E+03   -0.11078E-04   -0.18523E-04 26688   0.498E-02    0.163E-02
DAV:   5    -0.125478839463E+03   -0.27665E-05   -0.74741E-06 21456   0.114E-02    0.725E-03
DAV:   6    -0.125478839492E+03   -0.28368E-07   -0.49672E-06 24432   0.835E-03
   5 F= -.12706852E+03 E0= -.12706774E+03  d E =-.135911E-01  mag=     0.0000
 curvature:  -2.46 expect dE=-0.691E-01 dE for cont linesearch -0.503E-04
 trial: gam= 3.88595 g(F)=  0.280E-01 g(S)=  0.000E+00 ort = 0.451E-03 (trialstep = 0.789E-01)
 search vector abs. value=  0.182E+00
 bond charge predicted
       N       E                     dE             d eps       ncg     rms          rms(c)
DAV:   1    -0.125481044129E+03   -0.22047E-02   -0.53738E-02 14352   0.892E-01    0.535E-02
DAV:   2    -0.125481043829E+03    0.30061E-06   -0.44739E-04 25632   0.929E-02    0.301E-02
DAV:   3    -0.125481034631E+03    0.91977E-05   -0.52323E-05 19968   0.276E-02    0.834E-03
DAV:   4    -0.125481035292E+03   -0.66065E-06   -0.71970E-06 25872   0.103E-02
   6 F= -.12707061E+03 E0= -.12706983E+03  d E =-.209319E-02  mag=    -0.0000
 ZBRENT: can't locate minimum, use default step
 trial-energy change:   -0.002093  1 .order   -0.002093   -0.002352   -0.001834
 step:   0.3158(harm=  0.3581)  dis= 0.00593  next Energy=  -127.073856 (dE=-0.533E-02)
 bond charge predicted
       N       E                     dE             d eps       ncg     rms          rms(c)
DAV:   1    -0.125484655685E+03   -0.36211E-02   -0.48434E-01 14208   0.268E+00    0.161E-01
DAV:   2    -0.125484651496E+03    0.41892E-05   -0.39403E-03 25920   0.276E-01    0.904E-02
DAV:   3    -0.125484570315E+03    0.81180E-04   -0.46206E-04 19152   0.819E-02    0.248E-02
DAV:   4    -0.125484575280E+03   -0.49652E-05   -0.62453E-05 26640   0.299E-02    0.102E-02
DAV:   5    -0.125484576028E+03   -0.74779E-06   -0.24414E-06 18192   0.652E-03
   7 F= -.12707383E+03 E0= -.12707305E+03  d E =-.531262E-02  mag=     0.0000
 curvature:  -1.07 expect dE=-0.850E-02 dE for cont linesearch -0.944E-04
 ZBRENT: extrapolating
 opt :   0.3652  next Energy=  -127.073933 (dE=-0.541E-02)
 bond charge predicted
       N       E                     dE             d eps       ncg     rms          rms(c)
DAV:   1    -0.125484750211E+03   -0.17493E-03   -0.21206E-02 14208   0.560E-01    0.334E-02
DAV:   2    -0.125484750918E+03   -0.70679E-06   -0.18193E-04 25248   0.593E-02    0.189E-02
DAV:   3    -0.125484747654E+03    0.32641E-05   -0.20642E-05 19440   0.174E-02    0.539E-03
DAV:   4    -0.125484747948E+03   -0.29417E-06   -0.28713E-06 23088   0.652E-03
   8 F= -.12707394E+03 E0= -.12707315E+03  d E =-.541499E-02  mag=    -0.0000
 curvature:  -1.12 expect dE=-0.124E-01 dE for cont linesearch -0.640E-07
 trial: gam= 0.52296 g(F)=  0.110E-01 g(S)=  0.000E+00 ort = 0.102E-03 (trialstep = 0.136E+00)
 search vector abs. value=  0.609E-01
 bond charge predicted
       N       E                     dE             d eps       ncg     rms          rms(c)
DAV:   1    -0.125486309840E+03   -0.15622E-02   -0.46617E-02 14208   0.710E-01    0.418E-02
DAV:   2    -0.125486320894E+03   -0.11054E-04   -0.26919E-04 23088   0.594E-02    0.249E-02
DAV:   3    -0.125486320533E+03    0.36103E-06   -0.27350E-05 19824   0.162E-02    0.448E-03
DAV:   4    -0.125486320725E+03   -0.19154E-06   -0.18949E-06 25344   0.532E-03
   9 F= -.12707536E+03 E0= -.12707458E+03  d E =-.142614E-02  mag=     0.0000
 ZBRENT: can't locate minimum, use default step
 trial-energy change:   -0.001426  1 .order   -0.001428   -0.001512   -0.001343
 step:   0.5448(harm=  1.2198)  dis= 0.00384  next Energy=  -127.080708 (dE=-0.677E-02)
 bond charge predicted
       N       E                     dE             d eps       ncg     rms          rms(c)
DAV:   1    -0.125489978108E+03   -0.36576E-02   -0.42019E-01 14208   0.213E+00    0.124E-01
DAV:   2    -0.125490081729E+03   -0.10362E-03   -0.23599E-03 26112   0.176E-01    0.736E-02
DAV:   3    -0.125490071850E+03    0.98790E-05   -0.23740E-04 20208   0.466E-02    0.126E-02
DAV:   4    -0.125490073082E+03   -0.12319E-05   -0.15051E-05 24624   0.151E-02    0.559E-03
DAV:   5    -0.125490072117E+03    0.96501E-06   -0.21541E-06 22560   0.559E-03
  10 F= -.12707868E+03 E0= -.12707789E+03  d E =-.473959E-02  mag=    -0.0000
 curvature:  -2.05 expect dE=-0.100E-01 dE for cont linesearch -0.140E-02
 ZBRENT: increasing intervall
 opt :   1.3619  next Energy=  -127.081176 (dE=-0.724E-02)
 bond charge predicted
       N       E                     dE             d eps       ncg     rms          rms(c)
DAV:   1    -0.125493386419E+03   -0.33133E-02   -0.16830E+00 14208   0.426E+00    0.245E-01
DAV:   2    -0.125493809037E+03   -0.42262E-03   -0.91218E-03 27744   0.347E-01    0.146E-01
DAV:   3    -0.125493762673E+03    0.46364E-04   -0.95506E-04 21792   0.927E-02    0.237E-02
DAV:   4    -0.125493766693E+03   -0.40194E-05   -0.53097E-05 23136   0.290E-02    0.110E-02
DAV:   5    -0.125493763574E+03    0.31184E-05   -0.87180E-06 23184   0.114E-02    0.372E-03
DAV:   6    -0.125493763195E+03    0.37925E-06   -0.23765E-06 24336   0.565E-03
  11 F= -.12708150E+03 E0= -.12708072E+03  d E =-.756424E-02  mag=     0.0000
 curvature:  -3.65 expect dE=-0.217E-01 dE for cont linesearch -0.340E-04
 trial: gam= 0.50908 g(F)=  0.596E-02 g(S)=  0.000E+00 ort = 0.754E-03 (trialstep = 0.381E+00)
 search vector abs. value=  0.225E-01
 bond charge predicted
       N       E                     dE             d eps       ncg     rms          rms(c)
DAV:   1    -0.125495021661E+03   -0.12581E-02   -0.20334E-01 14208   0.183E+00    0.105E-01
DAV:   2    -0.125494956492E+03    0.65169E-04   -0.25973E-03 26880   0.220E-01    0.611E-02
DAV:   3    -0.125494927901E+03    0.28591E-04   -0.34028E-04 17568   0.662E-02    0.249E-02
DAV:   4    -0.125494928286E+03   -0.38508E-06   -0.88837E-05 26400   0.301E-02    0.134E-02
DAV:   5    -0.125494929547E+03   -0.12611E-05   -0.61393E-06 20928   0.997E-03    0.369E-03
DAV:   6    -0.125494930677E+03   -0.11297E-05   -0.84916E-07 21744   0.372E-03    0.216E-03
DAV:   7    -0.125494931660E+03   -0.98300E-06   -0.16882E-07 23808   0.151E-03
  12 F= -.12708245E+03 E0= -.12708167E+03  d E =-.952292E-03  mag=     0.0000
 trial-energy change:   -0.000952  1 .order   -0.000948   -0.002418    0.000523
 step:   0.3141(harm=  0.3135)  dis= 0.00164  next Energy=  -127.082499 (dE=-0.998E-03)
 bond charge predicted
       N       E                     dE             d eps       ncg     rms          rms(c)
DAV:   1    -0.125494940707E+03   -0.10030E-04   -0.63141E-03 14592   0.322E-01    0.188E-02
DAV:   2    -0.125494939660E+03    0.10475E-05   -0.81755E-05 27360   0.390E-02    0.110E-02
DAV:   3    -0.125494939715E+03   -0.55611E-07   -0.10209E-05 21120   0.114E-02    0.457E-03
DAV:   4    -0.125494940215E+03   -0.49956E-06   -0.25327E-06 23616   0.505E-03
  13 F= -.12708250E+03 E0= -.12708172E+03  d E =-.100194E-02  mag=     0.0000
 curvature:  -0.56 expect dE=-0.103E-02 dE for cont linesearch -0.187E-07
 trial: gam= 0.40018 g(F)=  0.184E-02 g(S)=  0.000E+00 ort =-0.275E-04 (trialstep = 0.368E+00)
 search vector abs. value=  0.543E-02
 bond charge predicted
       N       E                     dE             d eps       ncg     rms          rms(c)
DAV:   1    -0.125495572612E+03   -0.63290E-03   -0.31873E-02 14208   0.673E-01    0.414E-02
DAV:   2    -0.125495565699E+03    0.69130E-05   -0.28850E-04 27648   0.626E-02    0.220E-02
DAV:   3    -0.125495563831E+03    0.18688E-05   -0.15746E-05 16128   0.132E-02    0.841E-03
DAV:   4    -0.125495564595E+03   -0.76396E-06   -0.30275E-06 23712   0.597E-03
  14 F= -.12708302E+03 E0= -.12708224E+03  d E =-.518048E-03  mag=     0.0000
 trial-energy change:   -0.000518  1 .order   -0.000517   -0.000674   -0.000360
 step:   0.7888(harm=  0.7888)  dis= 0.00298  next Energy=  -127.083225 (dE=-0.723E-03)
 bond charge predicted
       N       E                     dE             d eps       ncg     rms          rms(c)
DAV:   1    -0.125495901152E+03   -0.33732E-03   -0.41730E-02 14208   0.770E-01    0.474E-02
DAV:   2    -0.125495892511E+03    0.86416E-05   -0.37143E-04 26976   0.711E-02    0.252E-02
DAV:   3    -0.125495890239E+03    0.22716E-05   -0.19927E-05 16848   0.150E-02    0.976E-03
DAV:   4    -0.125495891114E+03   -0.87540E-06   -0.39389E-06 22560   0.688E-03
  15 F= -.12708323E+03 E0= -.12708244E+03  d E =-.723441E-03  mag=     0.0000
 curvature:  -1.17 expect dE=-0.102E-02 dE for cont linesearch -0.347E-08
 trial: gam= 0.37986 g(F)=  0.869E-03 g(S)=  0.000E+00 ort =-0.401E-05 (trialstep = 0.452E+00)
 search vector abs. value=  0.165E-02
 bond charge predicted
       N       E                     dE             d eps       ncg     rms          rms(c)
DAV:   1    -0.125496108936E+03   -0.21870E-03   -0.27356E-02 14976   0.667E-01    0.439E-02
DAV:   2    -0.125496091335E+03    0.17601E-04   -0.38824E-04 27648   0.834E-02    0.235E-02
DAV:   3    -0.125496084173E+03    0.71621E-05   -0.48610E-05 20160   0.255E-02    0.882E-03
DAV:   4    -0.125496084123E+03    0.49814E-07   -0.88209E-06 21888   0.100E-02
  16 F= -.12708333E+03 E0= -.12708254E+03  d E =-.101079E-03  mag=     0.0000
 trial-energy change:   -0.000101  1 .order   -0.000103   -0.000392    0.000186
 step:   0.3064(harm=  0.3064)  dis= 0.00064  next Energy=  -127.083359 (dE=-0.133E-03)
 bond charge predicted
       N       E                     dE             d eps       ncg     rms          rms(c)
DAV:   1    -0.125496087825E+03   -0.36514E-05   -0.28721E-03 15456   0.216E-01    0.141E-02
DAV:   2    -0.125496085597E+03    0.22272E-05   -0.42575E-05 23904   0.278E-02    0.757E-03
DAV:   3    -0.125496084770E+03    0.82697E-06   -0.57970E-06 18480   0.879E-03
  17 F= -.12708336E+03 E0= -.12708257E+03  d E =-.131991E-03  mag=     0.0000
 curvature:  -0.29 expect dE=-0.112E-03 dE for cont linesearch -0.283E-09
 trial: gam= 0.43823 g(F)=  0.383E-03 g(S)=  0.000E+00 ort = 0.127E-05 (trialstep = 0.423E+00)
 search vector abs. value=  0.701E-03
 bond charge predicted
       N       E                     dE             d eps       ncg     rms          rms(c)
DAV:   1    -0.125496292216E+03   -0.20662E-03   -0.55312E-03 14208   0.258E-01    0.155E-02
DAV:   2    -0.125496292143E+03    0.72954E-07   -0.56187E-05 21024   0.264E-02    0.853E-03
DAV:   3    -0.125496292082E+03    0.60601E-07   -0.41389E-06 21024   0.674E-03
  18 F= -.12708349E+03 E0= -.12708271E+03  d E =-.133728E-03  mag=    -0.0000
 trial-energy change:   -0.000134  1 .order   -0.000133   -0.000162   -0.000104
 step:   1.1862(harm=  1.1862)  dis= 0.00185  next Energy=  -127.083586 (dE=-0.227E-03)
 bond charge predicted
       N       E                     dE             d eps       ncg     rms          rms(c)
DAV:   1    -0.125496519578E+03   -0.22744E-03   -0.17985E-02 14208   0.466E-01    0.291E-02
DAV:   2    -0.125496519977E+03   -0.39932E-06   -0.18304E-04 25872   0.472E-02    0.161E-02
DAV:   3    -0.125496519807E+03    0.17046E-06   -0.12066E-05 16320   0.113E-02    0.576E-03
DAV:   4    -0.125496520356E+03   -0.54928E-06   -0.19040E-06 17760   0.456E-03
  19 F= -.12708359E+03 E0= -.12708280E+03  d E =-.229350E-03  mag=    -0.0000
 curvature:  -1.08 expect dE=-0.361E-03 dE for cont linesearch -0.593E-08
 trial: gam= 0.86983 g(F)=  0.333E-03 g(S)=  0.000E+00 ort = 0.196E-05 (trialstep = 0.465E+00)
 search vector abs. value=  0.867E-03
 bond charge predicted
       N       E                     dE             d eps       ncg     rms          rms(c)
DAV:   1    -0.125496716031E+03   -0.19622E-03   -0.10644E-02 14208   0.408E-01    0.237E-02
DAV:   2    -0.125496714417E+03    0.16143E-05   -0.13157E-04 28032   0.485E-02    0.132E-02
DAV:   3    -0.125496713042E+03    0.13756E-05   -0.13476E-05 18000   0.144E-02    0.431E-03
DAV:   4    -0.125496713232E+03   -0.19088E-06   -0.21339E-06 20064   0.558E-03
  20 F= -.12708368E+03 E0= -.12708290E+03  d E =-.930603E-04  mag=    -0.0000
 trial-energy change:   -0.000093  1 .order   -0.000093   -0.000156   -0.000030
 step:   0.5780(harm=  0.5780)  dis= 0.00070  next Energy=  -127.083684 (dE=-0.967E-04)
 bond charge predicted
       N       E                     dE             d eps       ncg     rms          rms(c)
DAV:   1    -0.125496741400E+03   -0.28358E-04   -0.61988E-04 14208   0.985E-02    0.593E-03
DAV:   2    -0.125496741409E+03   -0.87502E-08   -0.77569E-06 23424   0.119E-02
  21 F= -.12708368E+03 E0= -.12708290E+03  d E =-.970030E-04  mag=    -0.0000
 curvature:  -0.75 expect dE=-0.314E-03 dE for cont linesearch -0.280E-07
 trial: gam= 1.24879 g(F)=  0.420E-03 g(S)=  0.000E+00 ort = 0.569E-05 (trialstep = 0.237E+00)
 search vector abs. value=  0.179E-02
 bond charge predicted
       N       E                     dE             d eps       ncg     rms          rms(c)
DAV:   1    -0.125496912371E+03   -0.17097E-03   -0.46651E-03 14208   0.247E-01    0.155E-02
DAV:   2    -0.125496912449E+03   -0.78060E-07   -0.48076E-05 21360   0.278E-02    0.894E-03
DAV:   3    -0.125496912301E+03    0.14830E-06   -0.52318E-06 22368   0.838E-03
  22 F= -.12708377E+03 E0= -.12708299E+03  d E =-.864804E-04  mag=     0.0000
 trial-energy change:   -0.000086  1 .order   -0.000086   -0.000101   -0.000072
 step:   0.8175(harm=  0.8175)  dis= 0.00109  next Energy=  -127.083859 (dE=-0.175E-03)
 bond charge predicted
       N       E                     dE             d eps       ncg     rms          rms(c)
DAV:   1    -0.125497212733E+03   -0.30028E-03   -0.28228E-02 14208   0.605E-01    0.372E-02
DAV:   2    -0.125497214072E+03   -0.13396E-05   -0.28428E-04 22800   0.673E-02    0.213E-02
DAV:   3    -0.125497211839E+03    0.22338E-05   -0.29882E-05 24480   0.199E-02    0.604E-03
DAV:   4    -0.125497212099E+03   -0.26068E-06   -0.41343E-06 22992   0.733E-03
  23 F= -.12708386E+03 E0= -.12708308E+03  d E =-.179398E-03  mag=    -0.0000
 curvature:  -1.71 expect dE=-0.108E-02 dE for cont linesearch -0.213E-06
 trial: gam= 1.48317 g(F)=  0.634E-03 g(S)=  0.000E+00 ort = 0.149E-04 (trialstep = 0.137E+00)
 search vector abs. value=  0.461E-02
 bond charge predicted
       N       E                     dE             d eps       ncg     rms          rms(c)
DAV:   1    -0.125497382059E+03   -0.17022E-03   -0.37248E-03 14208   0.213E-01    0.123E-02
DAV:   2    -0.125497382981E+03   -0.92212E-06   -0.31366E-05 19440   0.217E-02    0.732E-03
DAV:   3    -0.125497383158E+03   -0.17717E-06   -0.23811E-06 23664   0.545E-03
  24 F= -.12708395E+03 E0= -.12708316E+03  d E =-.838922E-04  mag=     0.0000
 ZBRENT: can't locate minimum, use default step
 trial-energy change:   -0.000084  1 .order   -0.000084   -0.000090   -0.000079
 step:   0.5474(harm=  1.1027)  dis= 0.00084  next Energy=  -127.084225 (dE=-0.361E-03)
 bond charge predicted
       N       E                     dE             d eps       ncg     rms          rms(c)
DAV:   1    -0.125497826188E+03   -0.44321E-03   -0.33570E-02 14208   0.639E-01    0.366E-02
DAV:   2    -0.125497832900E+03   -0.67117E-05   -0.26463E-04 23808   0.629E-02    0.215E-02
DAV:   3    -0.125497832843E+03    0.56288E-07   -0.19505E-05 24624   0.152E-02    0.614E-03
DAV:   4    -0.125497833214E+03   -0.37091E-06   -0.26284E-06 20352   0.596E-03
  25 F= -.12708414E+03 E0= -.12708335E+03  d E =-.272437E-03  mag=     0.0000
 curvature:  -2.59 expect dE=-0.954E-03 dE for cont linesearch -0.680E-04
 ZBRENT: increasing intervall
 opt :   1.3684  next Energy=  -127.084236 (dE=-0.372E-03)
 bond charge predicted
       N       E                     dE             d eps       ncg     rms          rms(c)
DAV:   1    -0.125498426324E+03   -0.59348E-03   -0.13429E-01 14208   0.128E+00    0.724E-02
DAV:   2    -0.125498454315E+03   -0.27992E-04   -0.10309E-03 24288   0.124E-01    0.425E-02
DAV:   3    -0.125498451701E+03    0.26147E-05   -0.76028E-05 25920   0.299E-02    0.121E-02
DAV:   4    -0.125498452855E+03   -0.11545E-05   -0.10178E-05 24480   0.117E-02    0.388E-03
DAV:   5    -0.125498452975E+03   -0.11974E-06   -0.61977E-07 22320   0.305E-03
  26 F= -.12708423E+03 E0= -.12708345E+03  d E =-.369513E-03  mag=     0.0000
 curvature:  -3.79 expect dE=-0.511E-02 dE for cont linesearch -0.906E-05
 trial: gam= 2.36578 g(F)=  0.135E-02 g(S)=  0.000E+00 ort =-0.105E-03 (trialstep = 0.663E-01)
 search vector abs. value=  0.266E-01
 bond charge predicted
       N       E                     dE             d eps       ncg     rms          rms(c)
DAV:   1    -0.125498619762E+03   -0.16691E-03   -0.50493E-03 14208   0.249E-01    0.137E-02
DAV:   2    -0.125498621609E+03   -0.18466E-05   -0.40194E-05 20496   0.259E-02    0.833E-03
DAV:   3    -0.125498621841E+03   -0.23226E-06   -0.40147E-06 17328   0.744E-03
  27 F= -.12708430E+03 E0= -.12708352E+03  d E =-.671046E-04  mag=    -0.0000
 ZBRENT: can't locate minimum, use default step
 trial-energy change:   -0.000067  1 .order   -0.000067   -0.000073   -0.000060
 step:   0.2651(harm=  0.3870)  dis= 0.00105  next Energy=  -127.084447 (dE=-0.213E-03)
 bond charge predicted
       N       E                     dE             d eps       ncg     rms          rms(c)
DAV:   1    -0.125499042356E+03   -0.42075E-03   -0.45348E-02 14208   0.748E-01    0.414E-02
DAV:   2    -0.125499057489E+03   -0.15133E-04   -0.34660E-04 23856   0.758E-02    0.252E-02
DAV:   3    -0.125499057770E+03   -0.28102E-06   -0.35693E-05 24672   0.213E-02    0.554E-03
DAV:   4    -0.125499057821E+03   -0.50398E-07   -0.49514E-06 18336   0.848E-03
  28 F= -.12708443E+03 E0= -.12708365E+03  d E =-.197608E-03  mag=    -0.0000
 curvature:  -4.00 expect dE=-0.328E-02 dE for cont linesearch -0.235E-04
 ZBRENT: increasing intervall
 opt :   0.6626  next Energy=  -127.084382 (dE=-0.149E-03)
 bond charge predicted
       N       E                     dE             d eps       ncg     rms          rms(c)
DAV:   1    -0.125499557604E+03   -0.49983E-03   -0.18135E-01 14208   0.149E+00    0.823E-02
DAV:   2    -0.125499617781E+03   -0.60177E-04   -0.13614E-03 23136   0.150E-01    0.499E-02
DAV:   3    -0.125499615533E+03    0.22481E-05   -0.14219E-04 25776   0.424E-02    0.109E-02
DAV:   4    -0.125499615153E+03    0.38046E-06   -0.19889E-05 18720   0.168E-02    0.517E-03
DAV:   5    -0.125499615528E+03   -0.37484E-06   -0.14342E-06 25248   0.484E-03
  29 F= -.12708438E+03 E0= -.12708359E+03  d E =-.143656E-03  mag=     0.0000
 curvature:   8.33 expect dE= 0.203E-01 dE for cont linesearch  0.133E-03
 ZBRENT: bracketing found
 ZBRENT: interpolating
 opt :   0.4152  next Energy=  -127.084461 (dE=-0.227E-03)
 bond charge predicted
       N       E                     dE             d eps       ncg     rms          rms(c)
DAV:   1    -0.125499294851E+03    0.32030E-03   -0.70163E-02 14208   0.929E-01    0.510E-02
DAV:   2    -0.125499317849E+03   -0.22998E-04   -0.53990E-04 25536   0.941E-02    0.309E-02
DAV:   3    -0.125499317907E+03   -0.57648E-07   -0.53291E-05 19104   0.261E-02    0.680E-03
DAV:   4    -0.125499318202E+03   -0.29545E-06   -0.74968E-06 21600   0.106E-02
  30 F= -.12708446E+03 E0= -.12708368E+03  d E =-.227170E-03  mag=     0.0000
 curvature:  -1.86 expect dE=-0.202E-02 dE for cont linesearch -0.167E-08
 trial: gam= 0.48189 g(F)=  0.108E-02 g(S)=  0.000E+00 ort =-0.489E-05 (trialstep = 0.136E+00)
 search vector abs. value=  0.726E-02
 bond charge predicted
       N       E                     dE             d eps       ncg     rms          rms(c)
DAV:   1    -0.125499558011E+03   -0.24010E-03   -0.60345E-03 14208   0.276E-01    0.148E-02
DAV:   2    -0.125499558957E+03   -0.94627E-06   -0.55450E-05 27264   0.284E-02    0.853E-03
DAV:   3    -0.125499559027E+03   -0.70158E-07   -0.34507E-06 17088   0.657E-03
  31 F= -.12708460E+03 E0= -.12708381E+03  d E =-.136258E-03  mag=     0.0000
 ZBRENT: can't locate minimum, use default step
 trial-energy change:   -0.000136  1 .order   -0.000135   -0.000147   -0.000124
 step:   0.5442(harm=  0.8450)  dis= 0.00147  next Energy=  -127.084918 (dE=-0.457E-03)
 bond charge predicted
       N       E                     dE             d eps       ncg     rms          rms(c)
DAV:   1    -0.125500125528E+03   -0.56657E-03   -0.54405E-02 14208   0.831E-01    0.457E-02
DAV:   2    -0.125500136705E+03   -0.11178E-04   -0.47322E-04 26160   0.833E-02    0.267E-02
DAV:   3    -0.125500136937E+03   -0.23205E-06   -0.31142E-05 17136   0.196E-02    0.818E-03
DAV:   4    -0.125500137967E+03   -0.10294E-05   -0.48771E-06 21552   0.840E-03    0.278E-03
DAV:   5    -0.125500138065E+03   -0.98296E-07   -0.38572E-07 17520   0.289E-03
  32 F= -.12708486E+03 E0= -.12708408E+03  d E =-.401737E-03  mag=     0.0000
 curvature:  -2.33 expect dE=-0.966E-03 dE for cont linesearch -0.488E-04
 ZBRENT: increasing intervall
 opt :   1.3604  next Energy=  -127.084759 (dE=-0.298E-03)
 bond charge predicted
       N       E                     dE             d eps       ncg     rms          rms(c)
DAV:   1    -0.125500622030E+03   -0.48406E-03   -0.21801E-01 14208   0.166E+00    0.909E-02
DAV:   2    -0.125500657920E+03   -0.35891E-04   -0.18346E-03 23520   0.165E-01    0.525E-02
DAV:   3    -0.125500654442E+03    0.34783E-05   -0.12863E-04 25824   0.394E-02    0.163E-02
DAV:   4    -0.125500657363E+03   -0.29209E-05   -0.17136E-05 26400   0.149E-02    0.507E-03
DAV:   5    -0.125500657799E+03   -0.43581E-06   -0.88613E-07 21600   0.368E-03
  33 F= -.12708476E+03 E0= -.12708397E+03  d E =-.295029E-03  mag=    -0.0000
 curvature:   4.94 expect dE= 0.135E-01 dE for cont linesearch  0.288E-03
 ZBRENT: bracketing found
 ZBRENT: interpolating
 opt :   0.8504  next Energy=  -127.084922 (dE=-0.462E-03)
 bond charge predicted
       N       E                     dE             d eps       ncg     rms          rms(c)
DAV:   1    -0.125500419786E+03    0.23758E-03   -0.85003E-02 14208   0.104E+00    0.567E-02
DAV:   2    -0.125500432512E+03   -0.12725E-04   -0.72449E-04 25584   0.103E-01    0.328E-02
DAV:   3    -0.125500431500E+03    0.10116E-05   -0.49978E-05 19728   0.245E-02    0.101E-02
DAV:   4    -0.125500432895E+03   -0.13948E-05   -0.73441E-06 16272   0.103E-02    0.322E-03
DAV:   5    -0.125500433195E+03   -0.30050E-06   -0.65463E-07 18000   0.380E-03
  34 F= -.12708492E+03 E0= -.12708414E+03  d E =-.461776E-03  mag=     0.0000
 curvature:  -1.03 expect dE=-0.832E-03 dE for cont linesearch -0.364E-10
 trial: gam= 0.85802 g(F)=  0.810E-03 g(S)=  0.000E+00 ort = 0.508E-06 (trialstep = 0.279E+00)
 search vector abs. value=  0.616E-02
 bond charge predicted
       N       E                     dE             d eps       ncg     rms          rms(c)
DAV:   1    -0.125500771215E+03   -0.33832E-03   -0.22241E-02 14208   0.571E-01    0.298E-02
DAV:   2    -0.125500777810E+03   -0.65952E-05   -0.22185E-04 27984   0.621E-02    0.176E-02
DAV:   3    -0.125500777387E+03    0.42323E-06   -0.18981E-05 15600   0.167E-02    0.535E-03
DAV:   4    -0.125500777676E+03   -0.28923E-06   -0.34717E-06 16512   0.760E-03
  35 F= -.12708507E+03 E0= -.12708428E+03  d E =-.145087E-03  mag=     0.0000
 trial-energy change:   -0.000145  1 .order   -0.000145   -0.000226   -0.000064
 step:   0.3896(harm=  0.3896)  dis= 0.00118  next Energy=  -127.085080 (dE=-0.158E-03)
 bond charge predicted
       N       E                     dE             d eps       ncg     rms          rms(c)
DAV:   1    -0.125500868631E+03   -0.91244E-04   -0.35056E-03 14208   0.227E-01    0.121E-02
DAV:   2    -0.125500870034E+03   -0.14033E-05   -0.35799E-05 18624   0.253E-02    0.721E-03
DAV:   3    -0.125500870304E+03   -0.26997E-06   -0.35896E-06 15504   0.780E-03
  36 F= -.12708508E+03 E0= -.12708430E+03  d E =-.158285E-03  mag=    -0.0000
 curvature:  -1.48 expect dE=-0.408E-03 dE for cont linesearch -0.331E-08
 trial: gam= 0.35137 g(F)=  0.276E-03 g(S)=  0.000E+00 ort =-0.371E-05 (trialstep = 0.301E+00)
 search vector abs. value=  0.103E-02
 bond charge predicted
       N       E                     dE             d eps       ncg     rms          rms(c)
DAV:   1    -0.125501019693E+03   -0.14966E-03   -0.52565E-03 14208   0.266E-01    0.162E-02
DAV:   2    -0.125501017422E+03    0.22712E-05   -0.68421E-05 19056   0.306E-02    0.879E-03
DAV:   3    -0.125501017198E+03    0.22366E-06   -0.64617E-06 20784   0.898E-03
  37 F= -.12708514E+03 E0= -.12708436E+03  d E =-.617210E-04  mag=     0.0000
 trial-energy change:   -0.000062  1 .order   -0.000061   -0.000083   -0.000039
 step:   0.5756(harm=  0.5756)  dis= 0.00089  next Energy=  -127.085160 (dE=-0.790E-04)
 bond charge predicted
       N       E                     dE             d eps       ncg     rms          rms(c)
DAV:   1    -0.125501116133E+03   -0.98711E-04   -0.43808E-03 14208   0.243E-01    0.151E-02
DAV:   2    -0.125501114208E+03    0.19252E-05   -0.56577E-05 16896   0.280E-02    0.831E-03
DAV:   3    -0.125501114099E+03    0.10877E-06   -0.59519E-06 15840   0.882E-03
  38 F= -.12708516E+03 E0= -.12708438E+03  d E =-.809680E-04  mag=     0.0000
 curvature:  -1.08 expect dE=-0.180E-03 dE for cont linesearch -0.406E-08
 trial: gam= 0.60454 g(F)=  0.166E-03 g(S)=  0.000E+00 ort = 0.197E-05 (trialstep = 0.356E+00)
 search vector abs. value=  0.546E-03
 bond charge predicted
       N       E                     dE             d eps       ncg     rms          rms(c)
DAV:   1    -0.125501215526E+03   -0.10132E-03   -0.32977E-03 14208   0.225E-01    0.127E-02
DAV:   2    -0.125501215885E+03   -0.35885E-06   -0.38373E-05 15504   0.259E-02    0.732E-03
DAV:   3    -0.125501216062E+03   -0.17741E-06   -0.42134E-06 14208   0.863E-03
  39 F= -.12708520E+03 E0= -.12708442E+03  d E =-.412707E-04  mag=     0.0000
 trial-energy change:   -0.000041  1 .order   -0.000041   -0.000060   -0.000022
 step:   0.5660(harm=  0.5660)  dis= 0.00062  next Energy=  -127.085209 (dE=-0.473E-04)
 bond charge predicted
       N       E                     dE             d eps       ncg     rms          rms(c)
DAV:   1    -0.125501258794E+03   -0.42909E-04   -0.11573E-03 14208   0.133E-01    0.801E-03
DAV:   2    -0.125501258989E+03   -0.19502E-06   -0.13688E-05 14208   0.158E-02    0.468E-03
DAV:   3    -0.125501259156E+03   -0.16646E-06   -0.17990E-06 16320   0.605E-03
  40 F= -.12708521E+03 E0= -.12708443E+03  d E =-.484598E-04  mag=    -0.0000
 curvature:  -0.92 expect dE=-0.965E-04 dE for cont linesearch -0.649E-08
 trial: gam= 0.64817 g(F)=  0.104E-03 g(S)=  0.000E+00 ort = 0.196E-05 (trialstep = 0.398E+00)
 search vector abs. value=  0.336E-03
 bond charge predicted
       N       E                     dE             d eps       ncg     rms          rms(c)
DAV:   1    -0.125501335400E+03   -0.76411E-04   -0.28770E-03 14208   0.203E-01    0.128E-02
DAV:   2    -0.125501334061E+03    0.13391E-05   -0.43251E-05 17760   0.259E-02    0.711E-03
DAV:   3    -0.125501333767E+03    0.29393E-06   -0.46779E-06 14304   0.848E-03
  41 F= -.12708523E+03 E0= -.12708445E+03  d E =-.234788E-04  mag=     0.0000
 trial-energy change:   -0.000023  1 .order   -0.000023   -0.000042   -0.000004
 step:   0.4451(harm=  0.4451)  dis= 0.00033  next Energy=  -127.085234 (dE=-0.235E-04)
 bond charge predicted
       N       E                     dE             d eps       ncg     rms          rms(c)
DAV:   1    -0.125501340263E+03   -0.62018E-05   -0.42382E-05 14592   0.250E-02    0.240E-03
DAV:   2    -0.125501340240E+03    0.23221E-07   -0.85036E-07 14400   0.434E-03
  42 F= -.12708523E+03 E0= -.12708445E+03  d E =-.238805E-04  mag=     0.0000
 curvature:  -0.71 expect dE=-0.291E-04 dE for cont linesearch -0.169E-07
 trial: gam= 0.39614 g(F)=  0.411E-04 g(S)=  0.000E+00 ort = 0.283E-05 (trialstep = 0.407E+00)
 search vector abs. value=  0.962E-04
 bond charge predicted
       N       E                     dE             d eps       ncg     rms          rms(c)
DAV:   1    -0.125501392185E+03   -0.51922E-04   -0.80594E-04 14208   0.108E-01    0.621E-03
DAV:   2    -0.125501392194E+03   -0.90440E-08   -0.83506E-06 14208   0.124E-02
  43 F= -.12708525E+03 E0= -.12708446E+03  d E =-.140944E-04  mag=    -0.0000
 trial-energy change:   -0.000014  1 .order   -0.000014   -0.000017   -0.000012
 step:   1.2352(harm=  1.2352)  dis= 0.00041  next Energy=  -127.085260 (dE=-0.261E-04)
 bond charge predicted
       N       E                     dE             d eps       ncg     rms          rms(c)
DAV:   1    -0.125501478738E+03   -0.86553E-04   -0.32912E-03 14208   0.218E-01    0.128E-02
DAV:   2    -0.125501478869E+03   -0.13102E-06   -0.31932E-05 14784   0.240E-02    0.759E-03
DAV:   3    -0.125501478894E+03   -0.25428E-07   -0.46471E-06 15744   0.919E-03
  44 F= -.12708526E+03 E0= -.12708447E+03  d E =-.238003E-04  mag=    -0.0000
 curvature:  -1.41 expect dE=-0.193E-03 dE for cont linesearch -0.342E-06
 trial: gam= 3.48629 g(F)=  0.137E-03 g(S)=  0.000E+00 ort =-0.483E-05 (trialstep = 0.433E-01)
 search vector abs. value=  0.127E-02
 bond charge predicted
       N       E                     dE             d eps       ncg     rms          rms(c)
DAV:   1    -0.125501498873E+03   -0.20004E-04   -0.11124E-04 14496   0.386E-02    0.267E-03
DAV:   2    -0.125501498859E+03    0.13800E-07   -0.12730E-06 20784   0.517E-03
  45 F= -.12708526E+03 E0= -.12708448E+03  d E =-.494243E-05  mag=    -0.0000
 ZBRENT: can't locate minimum, use default step
 trial-energy change:   -0.000005  1 .order   -0.000005   -0.000005   -0.000005
 step:   0.1732(harm=  0.7743)  dis= 0.00020  next Energy=  -127.085304 (dE=-0.466E-04)
 bond charge predicted
       N       E                     dE             d eps       ncg     rms          rms(c)
DAV:   1    -0.125501556446E+03   -0.57573E-04   -0.98244E-04 14208   0.114E-01    0.647E-03
DAV:   2    -0.125501556567E+03   -0.12088E-06   -0.82678E-06 14208   0.120E-02
  46 F= -.12708528E+03 E0= -.12708449E+03  d E =-.175851E-04  mag=     0.0000
 curvature:  -1.33 expect dE=-0.120E-03 dE for cont linesearch -0.784E-05
 ZBRENT: increasing intervall
 opt :   0.4331  next Energy=  -127.085291 (dE=-0.331E-04)
 bond charge predicted
       N       E                     dE             d eps       ncg     rms          rms(c)
DAV:   1    -0.125501660239E+03   -0.10379E-03   -0.39112E-03 14208   0.227E-01    0.127E-02
DAV:   2    -0.125501660944E+03   -0.70488E-06   -0.31208E-05 14640   0.230E-02    0.775E-03
DAV:   3    -0.125501661612E+03   -0.66845E-06   -0.44047E-06 15936   0.952E-03
  47 F= -.12708529E+03 E0= -.12708451E+03  d E =-.325033E-04  mag=     0.0000
 curvature:  -2.63 expect dE=-0.227E-03 dE for cont linesearch -0.129E-05
 ZBRENT: extrapolating
 opt :   0.5380  next Energy=  -127.085292 (dE=-0.338E-04)
 bond charge predicted
       N       E                     dE             d eps       ncg     rms          rms(c)
DAV:   1    -0.125501699081E+03   -0.38137E-04   -0.65003E-04 14304   0.928E-02    0.521E-03
DAV:   2    -0.125501699145E+03   -0.64320E-07   -0.60692E-06 19584   0.108E-02
  48 F= -.12708529E+03 E0= -.12708451E+03  d E =-.336364E-04  mag=     0.0000
 curvature:  -2.68 expect dE=-0.272E-03 dE for cont linesearch -0.140E-06
 trial: gam= 0.39829 g(F)=  0.102E-03 g(S)=  0.000E+00 ort = 0.815E-05 (trialstep = 0.142E+00)
 search vector abs. value=  0.310E-03
 bond charge predicted
       N       E                     dE             d eps       ncg     rms          rms(c)
DAV:   1    -0.125501732864E+03   -0.33783E-04   -0.33227E-04 16176   0.661E-02    0.489E-03
DAV:   2    -0.125501732476E+03    0.38805E-06   -0.63557E-06 14640   0.110E-02
  49 F= -.12708530E+03 E0= -.12708452E+03  d E =-.132223E-04  mag=    -0.0000
 ZBRENT: can't locate minimum, use default step
 trial-energy change:   -0.000013  1 .order   -0.000013   -0.000015   -0.000012
 step:   0.5690(harm=  0.6544)  dis= 0.00048  next Energy=  -127.085326 (dE=-0.343E-04)
 bond charge predicted
       N       E                     dE             d eps       ncg     rms          rms(c)
DAV:   1    -0.125501812175E+03   -0.79311E-04   -0.29825E-03 14208   0.197E-01    0.139E-02
DAV:   2    -0.125501810869E+03    0.13061E-05   -0.43704E-05 14592   0.262E-02    0.770E-03
DAV:   3    -0.125501810819E+03    0.50305E-07   -0.63438E-06 14208   0.105E-02
  50 F= -.12708532E+03 E0= -.12708454E+03  d E =-.312280E-04  mag=    -0.0000
 curvature:  -0.94 expect dE=-0.633E-04 dE for cont linesearch -0.135E-07
 trial: gam= 0.70596 g(F)=  0.673E-04 g(S)=  0.000E+00 ort = 0.211E-05 (trialstep = 0.228E+00)
 search vector abs. value=  0.225E-03
 bond charge predicted
       N       E                     dE             d eps       ncg     rms          rms(c)
DAV:   1    -0.125501848930E+03   -0.38061E-04   -0.59510E-04 14208   0.964E-02    0.582E-03
DAV:   2    -0.125501848896E+03    0.33511E-07   -0.80840E-06 16032   0.130E-02
  51 F= -.12708533E+03 E0= -.12708455E+03  d E =-.123215E-04  mag=    -0.0000
 trial-energy change:   -0.000012  1 .order   -0.000013   -0.000016   -0.000010
 step:   0.6180(harm=  0.6180)  dis= 0.00041  next Energy=  -127.085344 (dE=-0.213E-04)
 bond charge predicted
       N       E                     dE             d eps       ncg     rms          rms(c)
DAV:   1    -0.125501900225E+03   -0.51295E-04   -0.17190E-03 14208   0.164E-01    0.977E-03
DAV:   2    -0.125501900310E+03   -0.85342E-07   -0.20948E-05 14208   0.203E-02    0.585E-03
DAV:   3    -0.125501900752E+03   -0.44196E-06   -0.37859E-06 17184   0.964E-03
  52 F= -.12708534E+03 E0= -.12708456E+03  d E =-.199128E-04  mag=     0.0000
 curvature:  -1.01 expect dE=-0.873E-04 dE for cont linesearch -0.195E-06
 trial: gam= 1.41976 g(F)=  0.866E-04 g(S)=  0.000E+00 ort =-0.659E-05 (trialstep = 0.132E+00)
 search vector abs. value=  0.521E-03
 bond charge predicted
       N       E                     dE             d eps       ncg     rms          rms(c)
DAV:   1    -0.125501934187E+03   -0.33877E-04   -0.41998E-04 14304   0.752E-02    0.437E-03
DAV:   2    -0.125501934195E+03   -0.73314E-08   -0.45943E-06 15936   0.895E-03
  53 F= -.12708535E+03 E0= -.12708457E+03  d E =-.885695E-05  mag=     0.0000
 ZBRENT: can't locate minimum, use default step
 trial-energy change:   -0.000009  1 .order   -0.000009   -0.000010   -0.000009
 step:   0.5276(harm=  0.8437)  dis= 0.00060  next Energy=  -127.085375 (dE=-0.326E-04)
 bond charge predicted
       N       E                     dE             d eps       ncg     rms          rms(c)
DAV:   1    -0.125502024129E+03   -0.89942E-04   -0.37431E-03 14208   0.223E-01    0.123E-02
DAV:   2    -0.125502024942E+03   -0.81290E-06   -0.34202E-05 14640   0.225E-02    0.734E-03
DAV:   3    -0.125502025559E+03   -0.61646E-06   -0.39261E-06 15360   0.856E-03
  54 F= -.12708537E+03 E0= -.12708459E+03  d E =-.265047E-04  mag=    -0.0000
 curvature:  -2.28 expect dE=-0.116E-03 dE for cont linesearch -0.212E-05
 ZBRENT: increasing intervall
 opt :   1.3190  next Energy=  -127.085352 (dE=-0.975E-05)
 bond charge predicted
       N       E                     dE             d eps       ncg     rms          rms(c)
DAV:   1    -0.125502154358E+03   -0.12942E-03   -0.15078E-02 14208   0.447E-01    0.238E-02
DAV:   2    -0.125502158119E+03   -0.37609E-05   -0.13190E-04 16896   0.439E-02    0.140E-02
DAV:   3    -0.125502159102E+03   -0.98297E-06   -0.12051E-05 15456   0.136E-02    0.433E-03
DAV:   4    -0.125502159536E+03   -0.43409E-06   -0.42561E-06 14352   0.100E-02
  55 F= -.12708536E+03 E0= -.12708457E+03  d E =-.131844E-04  mag=     0.0000
 curvature:  18.05 expect dE= 0.334E-02 dE for cont linesearch  0.115E-03
 ZBRENT: bracketing found
 ZBRENT: interpolating
 opt :   0.7463  next Energy=  -127.085371 (dE=-0.289E-04)
 bond charge predicted
       N       E                     dE             d eps       ncg     rms          rms(c)
DAV:   1    -0.125502066893E+03    0.92209E-04   -0.78818E-03 14208   0.323E-01    0.166E-02
DAV:   2    -0.125502068491E+03   -0.15976E-05   -0.71848E-05 18528   0.321E-02    0.978E-03
DAV:   3    -0.125502068732E+03   -0.24084E-06   -0.61961E-06 21984   0.971E-03
  56 F= -.12708537E+03 E0= -.12708459E+03  d E =-.289491E-04  mag=     0.0000
 curvature:  -0.38 expect dE=-0.244E-04 dE for cont linesearch -0.629E-08
 trial: gam= 0.41417 g(F)=  0.644E-04 g(S)=  0.000E+00 ort = 0.294E-05 (trialstep = 0.255E+00)
 search vector abs. value=  0.156E-03
 bond charge predicted
       N       E                     dE             d eps       ncg     rms          rms(c)
DAV:   1    -0.125502108627E+03   -0.40136E-04   -0.54878E-04 14208   0.963E-02    0.469E-03
DAV:   2    -0.125502108693E+03   -0.65608E-07   -0.84605E-06 17232   0.137E-02
  57 F= -.12708538E+03 E0= -.12708460E+03  d E =-.123955E-04  mag=    -0.0000
 trial-energy change:   -0.000012  1 .order   -0.000013   -0.000017   -0.000008
 step:   0.5182(harm=  0.5182)  dis= 0.00026  next Energy=  -127.085388 (dE=-0.170E-04)
 bond charge predicted
       N       E                     dE             d eps       ncg     rms          rms(c)
DAV:   1    -0.125502141041E+03   -0.32414E-04   -0.57200E-04 14208   0.988E-02    0.606E-03
DAV:   2    -0.125502141064E+03   -0.22653E-07   -0.77118E-06 14208   0.131E-02
  58 F= -.12708539E+03 E0= -.12708460E+03  d E =-.161527E-04  mag=     0.0000
 curvature:  -0.62 expect dE=-0.382E-04 dE for cont linesearch -0.712E-08
 trial: gam= 1.02518 g(F)=  0.619E-04 g(S)=  0.000E+00 ort =-0.134E-05 (trialstep = 0.215E+00)
 search vector abs. value=  0.223E-03
 bond charge predicted
       N       E                     dE             d eps       ncg     rms          rms(c)
DAV:   1    -0.125502181206E+03   -0.40165E-04   -0.46527E-04 14208   0.793E-02    0.523E-03
DAV:   2    -0.125502181079E+03    0.12697E-06   -0.54447E-06 14208   0.104E-02
  59 F= -.12708540E+03 E0= -.12708462E+03  d E =-.113450E-04  mag=     0.0000
 trial-energy change:   -0.000011  1 .order   -0.000011   -0.000013   -0.000010
 step:   0.7997(harm=  0.7997)  dis= 0.00058  next Energy=  -127.085412 (dE=-0.242E-04)
 bond charge predicted
       N       E                     dE             d eps       ncg     rms          rms(c)
DAV:   1    -0.125502270891E+03   -0.89685E-04   -0.34380E-03 14208   0.214E-01    0.130E-02
DAV:   2    -0.125502270739E+03    0.15234E-06   -0.30799E-05 14688   0.221E-02    0.738E-03
DAV:   3    -0.125502271103E+03   -0.36380E-06   -0.37872E-06 14784   0.890E-03
  60 F= -.12708541E+03 E0= -.12708463E+03  d E =-.234327E-04  mag=    -0.0000
 curvature:  -1.47 expect dE=-0.605E-04 dE for cont linesearch -0.800E-07
 trial: gam= 0.58802 g(F)=  0.410E-04 g(S)=  0.000E+00 ort =-0.348E-05 (trialstep = 0.332E+00)
 search vector abs. value=  0.114E-03
 bond charge predicted
       N       E                     dE             d eps       ncg     rms          rms(c)
DAV:   1    -0.125502309884E+03   -0.39145E-04   -0.66111E-04 14208   0.105E-01    0.556E-03
DAV:   2    -0.125502309729E+03    0.15503E-06   -0.93448E-06 14304   0.151E-02
  61 F= -.12708542E+03 E0= -.12708464E+03  d E =-.875530E-05  mag=    -0.0000
 trial-energy change:   -0.000009  1 .order   -0.000009   -0.000013   -0.000005
 step:   0.5585(harm=  0.5585)  dis= 0.00022  next Energy=  -127.085422 (dE=-0.109E-04)
 bond charge predicted
       N       E                     dE             d eps       ncg     rms          rms(c)
DAV:   1    -0.125502331975E+03   -0.22091E-04   -0.30038E-04 14208   0.711E-02    0.463E-03
DAV:   2    -0.125502331617E+03    0.35845E-06   -0.52937E-06 14784   0.118E-02
  62 F= -.12708542E+03 E0= -.12708464E+03  d E =-.102040E-04  mag=    -0.0000
 curvature:  -0.82 expect dE=-0.407E-04 dE for cont linesearch -0.890E-08
 trial: gam= 1.19792 g(F)=  0.498E-04 g(S)=  0.000E+00 ort =-0.111E-05 (trialstep = 0.204E+00)
 search vector abs. value=  0.211E-03
 bond charge predicted
       N       E                     dE             d eps       ncg     rms          rms(c)
DAV:   1    -0.125502365606E+03   -0.33630E-04   -0.38646E-04 14208   0.717E-02    0.479E-03
DAV:   2    -0.125502365134E+03    0.47134E-06   -0.60996E-06 14208   0.117E-02
  63 F= -.12708543E+03 E0= -.12708465E+03  d E =-.871539E-05  mag=    -0.0000
 ZBRENT: can't locate minimum, use default step
 trial-energy change:   -0.000009  1 .order   -0.000009   -0.000010   -0.000008
 step:   0.8167(harm=  0.9848)  dis= 0.00044  next Energy=  -127.085445 (dE=-0.239E-04)
 bond charge predicted
       N       E                     dE             d eps       ncg     rms          rms(c)
DAV:   1    -0.125502453013E+03   -0.87407E-04   -0.34781E-03 14208   0.213E-01    0.128E-02
DAV:   2    -0.125502453110E+03   -0.97573E-07   -0.31705E-05 14448   0.231E-02    0.748E-03
DAV:   3    -0.125502454245E+03   -0.11345E-05   -0.52264E-06 14256   0.110E-02    0.259E-03
DAV:   4    -0.125502453873E+03    0.37170E-06   -0.43995E-06 14208   0.105E-02
  64 F= -.12708544E+03 E0= -.12708466E+03  d E =-.230643E-04  mag=     0.0000
 curvature:  -2.04 expect dE=-0.535E-04 dE for cont linesearch -0.474E-06
 ZBRENT: extrapolating
 opt :   0.9530  next Energy=  -127.085445 (dE=-0.235E-04)
 bond charge predicted
       N       E                     dE             d eps       ncg     rms          rms(c)
DAV:   1    -0.125502470069E+03   -0.15824E-04   -0.17521E-04 22848   0.481E-02    0.288E-03
DAV:   2    -0.125502470044E+03    0.25389E-07   -0.12188E-06 19440   0.443E-03
  65 F= -.12708544E+03 E0= -.12708466E+03  d E =-.226743E-04  mag=     0.0000
 curvature:  -2.06 expect dE=-0.686E-04 dE for cont linesearch -0.995E-08
 trial: gam= 0.64247 g(F)=  0.333E-04 g(S)=  0.000E+00 ort = 0.101E-05 (trialstep = 0.354E+00)
 search vector abs. value=  0.122E-03
 bond charge predicted
       N       E                     dE             d eps       ncg     rms          rms(c)
DAV:   1    -0.125502510280E+03   -0.40211E-04   -0.74650E-04 14208   0.105E-01    0.622E-03
DAV:   2    -0.125502510429E+03   -0.14890E-06   -0.85184E-06 18672   0.126E-02
  66 F= -.12708545E+03 E0= -.12708467E+03  d E =-.819165E-05  mag=    -0.0000
 trial-energy change:   -0.000008  1 .order   -0.000008   -0.000012   -0.000005
 step:   0.6023(harm=  0.6023)  dis= 0.00024  next Energy=  -127.085454 (dE=-0.102E-04)
 bond charge predicted
       N       E                     dE             d eps       ncg     rms          rms(c)
DAV:   1    -0.125502534408E+03   -0.24128E-04   -0.35543E-04 14256   0.731E-02    0.498E-03
DAV:   2    -0.125502534492E+03   -0.84556E-07   -0.37649E-06 18624   0.842E-03
  67 F= -.12708545E+03 E0= -.12708467E+03  d E =-.964156E-05  mag=     0.0000
 curvature:  -1.08 expect dE=-0.508E-04 dE for cont linesearch -0.131E-07
 trial: gam= 1.47600 g(F)=  0.471E-04 g(S)=  0.000E+00 ort =-0.122E-05 (trialstep = 0.159E+00)
 search vector abs. value=  0.309E-03
 bond charge predicted
       N       E                     dE             d eps       ncg     rms          rms(c)
DAV:   1    -0.125502564250E+03   -0.29843E-04   -0.32868E-04 14208   0.633E-02    0.403E-03
DAV:   2    -0.125502564372E+03   -0.12204E-06   -0.32849E-06 14496   0.735E-03
  68 F= -.12708546E+03 E0= -.12708468E+03  d E =-.647747E-05  mag=     0.0000
 ZBRENT: can't locate minimum, use default step
 trial-energy change:   -0.000006  1 .order   -0.000007   -0.000007   -0.000006
 step:   0.6366(harm=  0.8875)  dis= 0.00051  next Energy=  -127.085474 (dE=-0.201E-04)
 bond charge predicted
       N       E                     dE             d eps       ncg     rms          rms(c)
DAV:   1    -0.125502644643E+03   -0.80393E-04   -0.29893E-03 14208   0.190E-01    0.110E-02
DAV:   2    -0.125502645821E+03   -0.11775E-05   -0.28032E-05 15072   0.205E-02    0.670E-03
DAV:   3    -0.125502646237E+03   -0.41680E-06   -0.29499E-06 16752   0.715E-03
  69 F= -.12708547E+03 E0= -.12708469E+03  d E =-.181304E-04  mag=     0.0000
 curvature:  -2.66 expect dE=-0.122E-03 dE for cont linesearch -0.110E-05
 ZBRENT: extrapolating
 opt :   0.8445  next Energy=  -127.085473 (dE=-0.193E-04)
 bond charge predicted
       N       E                     dE             d eps       ncg     rms          rms(c)
DAV:   1    -0.125502677851E+03   -0.32031E-04   -0.57455E-04 14208   0.834E-02    0.498E-03
DAV:   2    -0.125502678102E+03   -0.25105E-06   -0.60927E-06 14208   0.100E-02
  70 F= -.12708547E+03 E0= -.12708469E+03  d E =-.194466E-04  mag=     0.0000
 curvature:  -2.84 expect dE=-0.180E-03 dE for cont linesearch -0.684E-07
 trial: gam= 1.09573 g(F)=  0.633E-04 g(S)=  0.000E+00 ort = 0.273E-05 (trialstep = 0.208E+00)
 search vector abs. value=  0.440E-03
 bond charge predicted
       N       E                     dE             d eps       ncg     rms          rms(c)
DAV:   1    -0.125502725047E+03   -0.47195E-04   -0.82668E-04 14208   0.104E-01    0.624E-03
DAV:   2    -0.125502725272E+03   -0.22581E-06   -0.96837E-06 14208   0.133E-02
  71 F= -.12708548E+03 E0= -.12708470E+03  d E =-.116327E-04  mag=     0.0000
 trial-energy change:   -0.000012  1 .order   -0.000012   -0.000014   -0.000010
 step:   0.7058(harm=  0.7058)  dis= 0.00063  next Energy=  -127.085496 (dE=-0.234E-04)
 bond charge predicted
       N       E                     dE             d eps       ncg     rms          rms(c)
DAV:   1    -0.125502818397E+03   -0.93350E-04   -0.47412E-03 14208   0.248E-01    0.144E-02
DAV:   2    -0.125502820155E+03   -0.17582E-05   -0.47950E-05 14784   0.285E-02    0.883E-03
DAV:   3    -0.125502821146E+03   -0.99091E-06   -0.66836E-06 16128   0.118E-02
  72 F= -.12708550E+03 E0= -.12708471E+03  d E =-.223386E-04  mag=    -0.0000
 curvature:  -2.34 expect dE=-0.148E-03 dE for cont linesearch -0.313E-06
 trial: gam= 1.21931 g(F)=  0.631E-04 g(S)=  0.000E+00 ort =-0.767E-05 (trialstep = 0.194E+00)
 search vector abs. value=  0.698E-03
 bond charge predicted
       N       E                     dE             d eps       ncg     rms          rms(c)
DAV:   1    -0.125502869527E+03   -0.49372E-04   -0.11375E-03 14208   0.121E-01    0.733E-03
DAV:   2    -0.125502869883E+03   -0.35636E-06   -0.12965E-05 14736   0.156E-02    0.446E-03
DAV:   3    -0.125502870543E+03   -0.65982E-06   -0.28305E-06 14736   0.846E-03
  73 F= -.12708550E+03 E0= -.12708472E+03  d E =-.811965E-05  mag=     0.0000
 trial-energy change:   -0.000008  1 .order   -0.000008   -0.000010   -0.000006
 step:   0.4206(harm=  0.4206)  dis= 0.00040  next Energy=  -127.085507 (dE=-0.113E-04)
 bond charge predicted
       N       E                     dE             d eps       ncg     rms          rms(c)
DAV:   1    -0.125502921052E+03   -0.51169E-04   -0.15592E-03 14208   0.141E-01    0.811E-03
DAV:   2    -0.125502921750E+03   -0.69802E-06   -0.16324E-05 17712   0.168E-02    0.496E-03
DAV:   3    -0.125502922089E+03   -0.33930E-06   -0.21256E-06 15360   0.685E-03
  74 F= -.12708551E+03 E0= -.12708472E+03  d E =-.112634E-04  mag=    -0.0000
 curvature:  -2.73 expect dE=-0.136E-03 dE for cont linesearch -0.374E-11
 trial: gam= 0.53799 g(F)=  0.497E-04 g(S)=  0.000E+00 ort =-0.309E-07 (trialstep = 0.239E+00)
 search vector abs. value=  0.252E-03
 bond charge predicted
       N       E                     dE             d eps       ncg     rms          rms(c)
DAV:   1    -0.125502962010E+03   -0.40260E-04   -0.63145E-04 14208   0.890E-02    0.525E-03
DAV:   2    -0.125502962170E+03   -0.16080E-06   -0.63944E-06 17424   0.104E-02
  75 F= -.12708552E+03 E0= -.12708473E+03  d E =-.998824E-05  mag=    -0.0000
 ZBRENT: can't locate minimum, use default step
 trial-energy change:   -0.000010  1 .order   -0.000010   -0.000012   -0.000009
 step:   0.9561(harm=  0.9568)  dis= 0.00033  next Energy=  -127.085530 (dE=-0.238E-04)
 bond charge predicted
       N       E                     dE             d eps       ncg     rms          rms(c)
DAV:   1    -0.125503061507E+03   -0.99497E-04   -0.56415E-03 14208   0.265E-01    0.156E-02
DAV:   2    -0.125503063298E+03   -0.17910E-05   -0.50707E-05 15216   0.286E-02    0.935E-03
DAV:   3    -0.125503063633E+03   -0.33513E-06   -0.59222E-06 15072   0.100E-02
  76 F= -.12708553E+03 E0= -.12708474E+03  d E =-.211168E-04  mag=     0.0000
 curvature:  -2.42 expect dE=-0.177E-03 dE for cont linesearch -0.448E-06
 trial: gam= 1.75065 g(F)=  0.730E-04 g(S)=  0.000E+00 ort =-0.682E-05 (trialstep = 0.117E+00)
 search vector abs. value=  0.821E-03
 bond charge predicted
       N       E                     dE             d eps       ncg     rms          rms(c)
DAV:   1    -0.125503095380E+03   -0.32081E-04   -0.49907E-04 14208   0.811E-02    0.496E-03
DAV:   2    -0.125503095481E+03   -0.10148E-06   -0.53381E-06 17808   0.102E-02
  77 F= -.12708553E+03 E0= -.12708475E+03  d E =-.576193E-05  mag=     0.0000
 trial-energy change:   -0.000006  1 .order   -0.000006   -0.000007   -0.000005
 step:   0.4226(harm=  0.4226)  dis= 0.00030  next Energy=  -127.085541 (dE=-0.129E-04)
 bond charge predicted
       N       E                     dE             d eps       ncg     rms          rms(c)
DAV:   1    -0.125503167174E+03   -0.71795E-04   -0.33459E-03 14208   0.209E-01    0.119E-02
DAV:   2    -0.125503168188E+03   -0.10135E-05   -0.29791E-05 14496   0.232E-02    0.728E-03
DAV:   3    -0.125503169024E+03   -0.83623E-06   -0.48937E-06 14976   0.105E-02
  78 F= -.12708554E+03 E0= -.12708476E+03  d E =-.113539E-04  mag=     0.0000
 curvature:  -2.84 expect dE=-0.140E-03 dE for cont linesearch -0.524E-06
 ZBRENT: interpolating
 opt :   0.3561  next Energy=  -127.085539 (dE=-0.118E-04)
 bond charge predicted
       N       E                     dE             d eps       ncg     rms          rms(c)
DAV:   1    -0.125503153936E+03    0.14252E-04   -0.16055E-04 14352   0.463E-02    0.241E-03
DAV:   2    -0.125503153780E+03    0.15641E-06   -0.24938E-06 19056   0.749E-03
  79 F= -.12708554E+03 E0= -.12708476E+03  d E =-.109288E-04  mag=     0.0000
 curvature:  -2.22 expect dE=-0.830E-04 dE for cont linesearch -0.266E-09
 trial: gam= 0.27740 g(F)=  0.374E-04 g(S)=  0.000E+00 ort = 0.314E-06 (trialstep = 0.165E+00)
 search vector abs. value=  0.101E-03
 bond charge predicted
       N       E                     dE             d eps       ncg     rms          rms(c)
DAV:   1    -0.125503169373E+03   -0.15437E-04   -0.13696E-04 14208   0.433E-02    0.251E-03
DAV:   2    -0.125503169314E+03    0.59507E-07   -0.23965E-06 14784   0.701E-03
  80 F= -.12708554E+03 E0= -.12708476E+03  d E =-.520059E-05  mag=    -0.0000
 trial-energy change:   -0.000005  1 .order   -0.000005   -0.000006   -0.000004
 step:   0.5442(harm=  0.5442)  dis= 0.00041  next Energy=  -127.085549 (dE=-0.102E-04)
 bond charge predicted
       N       E                     dE             d eps       ncg     rms          rms(c)
DAV:   1    -0.125503197552E+03   -0.28179E-04   -0.70658E-04 14208   0.983E-02    0.663E-03
DAV:   2    -0.125503197485E+03    0.67732E-07   -0.94910E-06 14208   0.126E-02
  81 F= -.12708555E+03 E0= -.12708476E+03  d E =-.962960E-05  mag=    -0.0000
 curvature:  -0.73 expect dE=-0.127E-04 dE for cont linesearch -0.264E-08
 trial: gam= 0.54210 g(F)=  0.174E-04 g(S)=  0.000E+00 ort =-0.603E-06 (trialstep = 0.241E+00)
 search vector abs. value=  0.463E-04
 bond charge predicted
       N       E                     dE             d eps       ncg     rms          rms(c)
DAV:   1    -0.125503210317E+03   -0.12765E-04   -0.13619E-04 17520   0.488E-02    0.332E-03
DAV:   2    -0.125503210246E+03    0.71268E-07   -0.22418E-06 14208   0.739E-03
  82 F= -.12708555E+03 E0= -.12708477E+03  d E =-.286235E-05  mag=    -0.0000
 trial-energy change:   -0.000003  1 .order   -0.000003   -0.000004   -0.000002
 step:   0.4390(harm=  0.4390)  dis= 0.00019  next Energy=  -127.085552 (dE=-0.374E-05)
 bond charge predicted
       N       E                     dE             d eps       ncg     rms          rms(c)
DAV:   1    -0.125503219179E+03   -0.88621E-05   -0.91063E-05 14784   0.399E-02    0.268E-03
DAV:   2    -0.125503219131E+03    0.47939E-07   -0.16274E-06 14208   0.642E-03
  83 F= -.12708555E+03 E0= -.12708477E+03  d E =-.359012E-05  mag=    -0.0000
 curvature:  -0.60 expect dE=-0.675E-05 dE for cont linesearch -0.582E-09
 trial: gam= 0.58099 g(F)=  0.113E-04 g(S)=  0.000E+00 ort =-0.212E-06 (trialstep = 0.281E+00)
 search vector abs. value=  0.267E-04
 bond charge predicted
       N       E                     dE             d eps       ncg     rms          rms(c)
DAV:   1    -0.125503230010E+03   -0.10831E-04   -0.10224E-04 16080   0.356E-02    0.273E-03
DAV:   2    -0.125503229934E+03    0.76570E-07   -0.19506E-06 14208   0.606E-03
  84 F= -.12708555E+03 E0= -.12708477E+03  d E =-.243479E-05  mag=    -0.0000
 trial-energy change:   -0.000002  1 .order   -0.000002   -0.000003   -0.000002
 step:   0.6335(harm=  0.6335)  dis= 0.00019  next Energy=  -127.085555 (dE=-0.354E-05)
 bond charge predicted
       N       E                     dE             d eps       ncg     rms          rms(c)
DAV:   1    -0.125503241479E+03   -0.11468E-04   -0.15851E-04 14304   0.443E-02    0.346E-03
DAV:   2    -0.125503241393E+03    0.85987E-07   -0.25849E-06 14208   0.679E-03
  85 F= -.12708556E+03 E0= -.12708477E+03  d E =-.336553E-05  mag=    -0.0000
 curvature:  -0.76 expect dE=-0.544E-05 dE for cont linesearch -0.311E-08
 trial: gam= 0.59621 g(F)=  0.720E-05 g(S)=  0.000E+00 ort =-0.332E-06 (trialstep = 0.351E+00)
 search vector abs. value=  0.163E-04
 bond charge predicted
       N       E                     dE             d eps       ncg     rms          rms(c)
DAV:   1    -0.125503249963E+03   -0.84845E-05   -0.10564E-04 17808   0.431E-02    0.254E-03
DAV:   2    -0.125503249879E+03    0.84076E-07   -0.20718E-06 14208   0.746E-03
  86 F= -.12708556E+03 E0= -.12708477E+03  d E =-.153030E-05  mag=    -0.0000
 trial-energy change:   -0.000002  1 .order   -0.000002   -0.000002   -0.000001
 step:   0.4902(harm=  0.4902)  dis= 0.00010  next Energy=  -127.085557 (dE=-0.172E-05)
 bond charge predicted
       N       E                     dE             d eps       ncg     rms          rms(c)
DAV:   1    -0.125503252797E+03   -0.28338E-05   -0.16483E-05 14208   0.177E-02    0.147E-03
DAV:   2    -0.125503252742E+03    0.54517E-07   -0.80049E-07 14208   0.470E-03
  87 F= -.12708556E+03 E0= -.12708477E+03  d E =-.163171E-05  mag=    -0.0000
 curvature:  -0.57 expect dE=-0.427E-05 dE for cont linesearch -0.137E-08
 trial: gam= 0.99100 g(F)=  0.749E-05 g(S)=  0.000E+00 ort =-0.198E-06 (trialstep = 0.267E+00)
 search vector abs. value=  0.231E-04
 bond charge predicted
       N       E                     dE             d eps       ncg     rms          rms(c)
DAV:   1    -0.125503260106E+03   -0.73091E-05   -0.70718E-05 14208   0.284E-02    0.214E-03
DAV:   2    -0.125503260077E+03    0.28437E-07   -0.11062E-06 14208   0.451E-03
  88 F= -.12708556E+03 E0= -.12708477E+03  d E =-.159130E-05  mag=    -0.0000
 trial-energy change:   -0.000002  1 .order   -0.000002   -0.000002   -0.000001
 step:   0.8831(harm=  0.8831)  dis= 0.00021  next Energy=  -127.085560 (dE=-0.322E-05)
 bond charge predicted
       N       E                     dE             d eps       ncg     rms          rms(c)
DAV:   1    -0.125503274675E+03   -0.14569E-04   -0.37146E-04 14208   0.647E-02    0.465E-03
DAV:   2    -0.125503274626E+03    0.48537E-07   -0.43562E-06 14208   0.805E-03
  89 F= -.12708556E+03 E0= -.12708478E+03  d E =-.290749E-05  mag=    -0.0000
 curvature:  -1.40 expect dE=-0.127E-04 dE for cont linesearch -0.945E-09
 trial: gam= 1.13790 g(F)=  0.907E-05 g(S)=  0.000E+00 ort =-0.125E-06 (trialstep = 0.233E+00)
 search vector abs. value=  0.387E-04
 bond charge predicted
       N       E                     dE             d eps       ncg     rms          rms(c)
DAV:   1    -0.125503283960E+03   -0.92850E-05   -0.95304E-05 16272   0.384E-02    0.253E-03
DAV:   2    -0.125503283959E+03    0.87857E-09   -0.15157E-06 14208   0.605E-03
  90 F= -.12708556E+03 E0= -.12708478E+03  d E =-.163330E-05  mag=    -0.0000
 trial-energy change:   -0.000002  1 .order   -0.000002   -0.000002   -0.000001
 step:   0.5910(harm=  0.5910)  dis= 0.00014  next Energy=  -127.085562 (dE=-0.264E-05)
 bond charge predicted
       N       E                     dE             d eps       ncg     rms          rms(c)
DAV:   1    -0.125503296572E+03   -0.12612E-04   -0.22311E-04 14208   0.584E-02    0.344E-03
DAV:   2    -0.125503296619E+03   -0.47366E-07   -0.28426E-06 14208   0.799E-03
  91 F= -.12708556E+03 E0= -.12708478E+03  d E =-.245129E-05  mag=    -0.0000
 curvature:  -1.28 expect dE=-0.157E-04 dE for cont linesearch -0.262E-08
 trial: gam= 1.32349 g(F)=  0.123E-04 g(S)=  0.000E+00 ort =-0.282E-06 (trialstep = 0.149E+00)
 search vector abs. value=  0.793E-04
 bond charge predicted
       N       E                     dE             d eps       ncg     rms          rms(c)
DAV:   1    -0.125503306016E+03   -0.94443E-05   -0.76903E-05 14352   0.296E-02    0.237E-03
DAV:   2    -0.125503305948E+03    0.68839E-07   -0.15286E-06 14208   0.577E-03
  92 F= -.12708556E+03 E0= -.12708478E+03  d E =-.159592E-05  mag=    -0.0000
 ZBRENT: can't locate minimum, use default step
 trial-energy change:   -0.000002  1 .order   -0.000002   -0.000002   -0.000001
 step:   0.5946(harm=  0.8456)  dis= 0.00017  next Energy=  -127.085567 (dE=-0.503E-05)
 bond charge predicted
       N       E                     dE             d eps       ncg     rms          rms(c)
DAV:   1    -0.125503331939E+03   -0.25922E-04   -0.69771E-04 14208   0.875E-02    0.583E-03
DAV:   2    -0.125503331907E+03    0.31384E-07   -0.71189E-06 14208   0.104E-02
  93 F= -.12708557E+03 E0= -.12708478E+03  d E =-.436365E-05  mag=    -0.0000
 curvature:  -2.45 expect dE=-0.254E-04 dE for cont linesearch -0.483E-06
 ZBRENT: increasing intervall
 opt :   1.4865  next Energy=  -127.085565 (dE=-0.267E-05)
 bond charge predicted
       N       E                     dE             d eps       ncg     rms          rms(c)
DAV:   1    -0.125503375333E+03   -0.43394E-04   -0.27743E-03 14208   0.175E-01    0.114E-02
DAV:   2    -0.125503375452E+03   -0.11911E-06   -0.25749E-05 14640   0.190E-02    0.673E-03
DAV:   3    -0.125503376030E+03   -0.57822E-06   -0.43429E-06 14496   0.900E-03
  94 F= -.12708556E+03 E0= -.12708478E+03  d E =-.211871E-05  mag=    -0.0000
 curvature:   8.61 expect dE= 0.556E-03 dE for cont linesearch  0.114E-04
 ZBRENT: bracketing found
 ZBRENT: interpolating
 opt :   0.8430  next Energy=  -127.085567 (dE=-0.485E-05)
 bond charge predicted
       N       E                     dE             d eps       ncg     rms          rms(c)
DAV:   1    -0.125503345510E+03    0.29942E-04   -0.14622E-03 14208   0.127E-01    0.756E-03
DAV:   2    -0.125503345226E+03    0.28362E-06   -0.15222E-05 14352   0.149E-02    0.438E-03
DAV:   3    -0.125503345571E+03   -0.34408E-06   -0.28291E-06 14208   0.766E-03
  95 F= -.12708557E+03 E0= -.12708478E+03  d E =-.511271E-05  mag=    -0.0000
 curvature:  -0.37 expect dE=-0.699E-05 dE for cont linesearch -0.510E-09
 trial: gam= 1.39202 g(F)=  0.188E-04 g(S)=  0.000E+00 ort =-0.330E-06 (trialstep = 0.133E+00)
 search vector abs. value=  0.172E-03
 bond charge predicted
       N       E                     dE             d eps       ncg     rms          rms(c)
DAV:   1    -0.125503356996E+03   -0.11770E-04   -0.12892E-04 14208   0.411E-02    0.198E-03
DAV:   2    -0.125503356921E+03    0.75479E-07   -0.19291E-06 14784   0.670E-03
  96 F= -.12708557E+03 E0= -.12708479E+03  d E =-.178941E-05  mag=    -0.0000
 ZBRENT: can't locate minimum, use default step
 trial-energy change:   -0.000002  1 .order   -0.000002   -0.000002   -0.000002
 step:   0.5315(harm=  0.6825)  dis= 0.00022  next Energy=  -127.085574 (dE=-0.627E-05)
 bond charge predicted
       N       E                     dE             d eps       ncg     rms          rms(c)
DAV:   1    -0.125503389324E+03   -0.32328E-04   -0.11342E-03 14208   0.120E-01    0.696E-03
DAV:   2    -0.125503389654E+03   -0.33010E-06   -0.97798E-06 14352   0.131E-02
  97 F= -.12708557E+03 E0= -.12708479E+03  d E =-.581577E-05  mag=    -0.0000
 curvature:  -2.95 expect dE=-0.503E-04 dE for cont linesearch -0.325E-06
 ZBRENT: extrapolating
 opt :   0.6976  next Energy=  -127.085574 (dE=-0.618E-05)
 bond charge predicted
       N       E                     dE             d eps       ncg     rms          rms(c)
DAV:   1    -0.125503401904E+03   -0.12580E-04   -0.18969E-04 15648   0.498E-02    0.354E-03
DAV:   2    -0.125503401876E+03    0.28823E-07   -0.23896E-06 14208   0.724E-03
  98 F= -.12708557E+03 E0= -.12708479E+03  d E =-.607239E-05  mag=    -0.0000
 curvature:  -3.27 expect dE=-0.912E-04 dE for cont linesearch -0.114E-07
 trial: gam= 1.50322 g(F)=  0.278E-04 g(S)=  0.000E+00 ort =-0.771E-06 (trialstep = 0.102E+00)
 search vector abs. value=  0.413E-03
 bond charge predicted
       N       E                     dE             d eps       ncg     rms          rms(c)
DAV:   1    -0.125503415410E+03   -0.13505E-04   -0.17800E-04 14208   0.449E-02    0.318E-03
DAV:   2    -0.125503415206E+03    0.20402E-06   -0.32378E-06 14208   0.838E-03
  99 F= -.12708558E+03 E0= -.12708479E+03  d E =-.247530E-05  mag=    -0.0000
 ZBRENT: can't locate minimum, use default step
 trial-energy change:   -0.000002  1 .order   -0.000002   -0.000003   -0.000002
 step:   0.4083(harm=  0.5368)  dis= 0.00028  next Energy=  -127.085581 (dE=-0.716E-05)
 bond charge predicted
       N       E                     dE             d eps       ncg     rms          rms(c)
DAV:   1    -0.125503451409E+03   -0.35999E-04   -0.16075E-03 14208   0.133E-01    0.853E-03
DAV:   2    -0.125503451581E+03   -0.17194E-06   -0.15015E-05 14208   0.153E-02    0.513E-03
DAV:   3    -0.125503452367E+03   -0.78641E-06   -0.33103E-06 14208   0.855E-03
 100 F= -.12708558E+03 E0= -.12708480E+03  d E =-.703913E-05  mag=    -0.0000
 curvature:  -3.79 expect dE=-0.452E-04 dE for cont linesearch -0.184E-06
 ZBRENT: extrapolating
 opt :   0.4884  next Energy=  -127.085581 (dE=-0.722E-05)
 bond charge predicted
       N       E                     dE             d eps       ncg     rms          rms(c)
DAV:   1    -0.125503460484E+03   -0.89033E-05   -0.11292E-04 14208   0.363E-02    0.237E-03
DAV:   2    -0.125503460386E+03    0.97868E-07   -0.18694E-06 17712   0.634E-03
 101 F= -.12708558E+03 E0= -.12708480E+03  d E =-.653956E-05  mag=     0.0000
 curvature:  -3.70 expect dE=-0.505E-04 dE for cont linesearch -0.228E-07
 trial: gam= 0.33500 g(F)=  0.137E-04 g(S)=  0.000E+00 ort = 0.160E-05 (trialstep = 0.179E+00)
 search vector abs. value=  0.611E-04
 bond charge predicted
       N       E                     dE             d eps       ncg     rms          rms(c)
DAV:   1    -0.125503469053E+03   -0.85685E-05   -0.93502E-05 14208   0.382E-02    0.248E-03
DAV:   2    -0.125503468981E+03    0.71424E-07   -0.18908E-06 14208   0.690E-03
 102 F= -.12708558E+03 E0= -.12708480E+03  d E =-.207562E-05  mag=     0.0000
 trial-energy change:   -0.000002  1 .order   -0.000002   -0.000003   -0.000002
 step:   0.5138(harm=  0.5138)  dis= 0.00017  next Energy=  -127.085584 (dE=-0.364E-05)
 bond charge predicted
       N       E                     dE             d eps       ncg     rms          rms(c)
DAV:   1    -0.125503482479E+03   -0.13426E-04   -0.32120E-04 14208   0.702E-02    0.426E-03
DAV:   2    -0.125503482484E+03   -0.46157E-08   -0.41501E-06 14208   0.953E-03
 103 F= -.12708558E+03 E0= -.12708480E+03  d E =-.339698E-05  mag=     0.0000
 curvature:  -1.11 expect dE=-0.134E-04 dE for cont linesearch -0.124E-08
 trial: gam= 0.95358 g(F)=  0.121E-04 g(S)=  0.000E+00 ort =-0.262E-06 (trialstep = 0.224E+00)
 search vector abs. value=  0.672E-04
 bond charge predicted
       N       E                     dE             d eps       ncg     rms          rms(c)
DAV:   1    -0.125503492428E+03   -0.99485E-05   -0.15642E-04 14256   0.456E-02    0.323E-03
DAV:   2    -0.125503492304E+03    0.12374E-06   -0.26420E-06 14208   0.764E-03
 104 F= -.12708559E+03 E0= -.12708480E+03  d E =-.196515E-05  mag=     0.0000
 trial-energy change:   -0.000002  1 .order   -0.000002   -0.000003   -0.000001
 step:   0.4861(harm=  0.4861)  dis= 0.00020  next Energy=  -127.085586 (dE=-0.288E-05)
 bond charge predicted
       N       E                     dE             d eps       ncg     rms          rms(c)
DAV:   1    -0.125503502314E+03   -0.98865E-05   -0.21361E-04 14208   0.528E-02    0.366E-03
DAV:   2    -0.125503502178E+03    0.13575E-06   -0.31844E-06 14208   0.802E-03
 105 F= -.12708559E+03 E0= -.12708480E+03  d E =-.264998E-05  mag=     0.0000
 curvature:  -1.38 expect dE=-0.751E-05 dE for cont linesearch -0.231E-09
 trial: gam= 0.33469 g(F)=  0.545E-05 g(S)=  0.000E+00 ort =-0.106E-06 (trialstep = 0.276E+00)
 search vector abs. value=  0.129E-04
 bond charge predicted
       N       E                     dE             d eps       ncg     rms          rms(c)
DAV:   1    -0.125503506532E+03   -0.42179E-05   -0.58448E-05 14208   0.318E-02    0.224E-03
DAV:   2    -0.125503506369E+03    0.16336E-06   -0.22062E-06 14208   0.749E-03
 106 F= -.12708559E+03 E0= -.12708480E+03  d E =-.109624E-05  mag=     0.0000
 trial-energy change:   -0.000001  1 .order   -0.000001   -0.000001   -0.000001
 step:   0.4920(harm=  0.4920)  dis= 0.00009  next Energy=  -127.085587 (dE=-0.133E-05)
 bond charge predicted
       N       E                     dE             d eps       ncg     rms          rms(c)
DAV:   1    -0.125503508968E+03   -0.24361E-05   -0.34208E-05 14208   0.245E-02    0.191E-03
DAV:   2    -0.125503508912E+03    0.55935E-07   -0.10442E-06 14208   0.521E-03
 107 F= -.12708559E+03 E0= -.12708480E+03  d E =-.122215E-05  mag=     0.0000
 curvature:  -0.59 expect dE=-0.257E-05 dE for cont linesearch -0.530E-08
 trial: gam= 0.81671 g(F)=  0.439E-05 g(S)=  0.000E+00 ort =-0.342E-06 (trialstep = 0.320E+00)
 search vector abs. value=  0.124E-04
 bond charge predicted
       N       E                     dE             d eps       ncg     rms          rms(c)
DAV:   1    -0.125503512933E+03   -0.39647E-05   -0.74884E-05 14208   0.329E-02    0.241E-03
DAV:   2    -0.125503512861E+03    0.72163E-07   -0.16245E-06 14208   0.590E-03
 108 F= -.12708559E+03 E0= -.12708480E+03  d E =-.727911E-06  mag=     0.0000
 trial-energy change:   -0.000001  1 .order   -0.000001   -0.000001   -0.000000
 step:   0.4089(harm=  0.4089)  dis= 0.00009  next Energy=  -127.085588 (dE=-0.841E-06)
 bond charge predicted
       N       E                     dE             d eps       ncg     rms          rms(c)
DAV:   1    -0.125503513780E+03   -0.84691E-06   -0.56743E-06 14208   0.972E-03    0.106E-03
DAV:   2    -0.125503513758E+03    0.21905E-07   -0.46913E-07 14208   0.340E-03
 109 F= -.12708559E+03 E0= -.12708480E+03  d E =-.724171E-06  mag=     0.0000
 curvature:  -0.62 expect dE=-0.146E-05 dE for cont linesearch -0.416E-08
 trial: gam= 0.40729 g(F)=  0.236E-05 g(S)=  0.000E+00 ort =-0.289E-06 (trialstep = 0.337E+00)
 search vector abs. value=  0.418E-05
 bond charge predicted
       N       E                     dE             d eps       ncg     rms          rms(c)
DAV:   1    -0.125503516381E+03   -0.26016E-05   -0.28013E-05 14208   0.222E-02    0.134E-03
DAV:   2    -0.125503516380E+03    0.16771E-08   -0.60423E-07 14208   0.382E-03
 110 F= -.12708559E+03 E0= -.12708480E+03  d E =-.506334E-06  mag=     0.0000
 trial-energy change:   -0.000001  1 .order   -0.000001   -0.000001   -0.000000
 step:   0.5409(harm=  0.5409)  dis= 0.00005  next Energy=  -127.085589 (dE=-0.606E-06)
 bond charge predicted
       N       E                     dE             d eps       ncg     rms          rms(c)
DAV:   1    -0.125503517725E+03   -0.13439E-05   -0.98104E-06 14208   0.133E-02    0.102E-03
DAV:   2    -0.125503517724E+03    0.14870E-08   -0.24969E-07 14208   0.254E-03
 111 F= -.12708559E+03 E0= -.12708480E+03  d E =-.572326E-06  mag=     0.0000
 curvature:  -0.51 expect dE=-0.123E-05 dE for cont linesearch -0.796E-09
 trial: gam= 0.97220 g(F)=  0.243E-05 g(S)=  0.000E+00 ort =-0.812E-07 (trialstep = 0.254E+00)
 search vector abs. value=  0.622E-05
 bond charge predicted
       N       E                     dE             d eps       ncg     rms          rms(c)
DAV:   1    -0.125503519864E+03   -0.21385E-05   -0.24401E-05 14208   0.188E-02    0.131E-03
DAV:   2    -0.125503519851E+03    0.12370E-07   -0.48568E-07 14208   0.317E-03
 112 F= -.12708559E+03 E0= -.12708481E+03  d E =-.425914E-06  mag=     0.0000
 trial-energy change:   -0.000000  1 .order   -0.000000   -0.000001   -0.000000
 step:   0.4901(harm=  0.4901)  dis= 0.00007  next Energy=  -127.085589 (dE=-0.575E-06)
 bond charge predicted
       N       E                     dE             d eps       ncg     rms          rms(c)
DAV:   1    -0.125503521538E+03   -0.16739E-05   -0.20527E-05 14208   0.173E-02    0.131E-03
DAV:   2    -0.125503521527E+03    0.10513E-07   -0.38949E-07 14208   0.281E-03
 113 F= -.12708559E+03 E0= -.12708481E+03  d E =-.521689E-06  mag=     0.0000
 curvature:  -0.65 expect dE=-0.831E-06 dE for cont linesearch -0.602E-09
 trial: gam= 0.50228 g(F)=  0.128E-05 g(S)=  0.000E+00 ort =-0.759E-07 (trialstep = 0.301E+00)
 search vector abs. value=  0.277E-05
 bond charge predicted
       N       E                     dE             d eps       ncg     rms          rms(c)
DAV:   1    -0.125503522515E+03   -0.97761E-06   -0.13019E-05 14208   0.145E-02    0.901E-04
DAV:   2    -0.125503522517E+03   -0.15025E-08   -0.28044E-07 14208   0.262E-03
 114 F= -.12708559E+03 E0= -.12708481E+03  d E =-.298140E-06  mag=     0.0000
 trial-energy change:   -0.000000  1 .order   -0.000000   -0.000000   -0.000000
 step:   0.8473(harm=  0.8473)  dis= 0.00005  next Energy=  -127.085590 (dE=-0.526E-06)
 bond charge predicted
       N       E                     dE             d eps       ncg     rms          rms(c)
DAV:   1    -0.125503523945E+03   -0.14297E-05   -0.41658E-05 14208   0.258E-02    0.155E-03
DAV:   2    -0.125503523942E+03    0.32651E-08   -0.53639E-07 14208   0.341E-03
 115 F= -.12708559E+03 E0= -.12708481E+03  d E =-.466773E-06  mag=     0.0000
 curvature:  -0.95 expect dE=-0.274E-05 dE for cont linesearch -0.176E-08
 trial: gam= 2.23294 g(F)=  0.289E-05 g(S)=  0.000E+00 ort =-0.719E-07 (trialstep = 0.694E-01)
 search vector abs. value=  0.164E-04
 bond charge predicted
       N       E                     dE             d eps       ncg     rms          rms(c)
DAV:   1    -0.125503524471E+03   -0.52596E-06   -0.35661E-06 14208   0.699E-03    0.651E-04
DAV:   2    -0.125503524474E+03   -0.26748E-08   -0.15638E-07 14208   0.202E-03
 116 F= -.12708559E+03 E0= -.12708481E+03  d E =-.173758E-06  mag=     0.0000
 ZBRENT: can't locate minimum, use default step
 trial-energy change:   -0.000000  1 .order   -0.000000   -0.000000   -0.000000
 step:   0.2777(harm=  0.5337)  dis= 0.00004  next Energy=  -127.085590 (dE=-0.730E-06)
 bond charge predicted
       N       E                     dE             d eps       ncg     rms          rms(c)
DAV:   1    -0.125503525936E+03   -0.14650E-05   -0.32541E-05 14208   0.200E-02    0.134E-03
DAV:   2    -0.125503525931E+03    0.52405E-08   -0.40385E-07 14208   0.262E-03
 117 F= -.12708559E+03 E0= -.12708481E+03  d E =-.555342E-06  mag=     0.0000
 curvature:  -1.11 expect dE=-0.203E-05 dE for cont linesearch -0.155E-06
 ZBRENT: increasing intervall
 opt :   0.6942  next Energy=  -127.085590 (dE=-0.822E-06)
 bond charge predicted
       N       E                     dE             d eps       ncg     rms          rms(c)
DAV:   1    -0.125503528271E+03   -0.23348E-05   -0.12926E-04 14208   0.398E-02    0.257E-03
DAV:   2    -0.125503528262E+03    0.91168E-08   -0.13804E-06 14208   0.459E-03
 118 F= -.12708559E+03 E0= -.12708481E+03  d E =-.736413E-06  mag=     0.0000
 curvature:  -1.92 expect dE=-0.661E-05 dE for cont linesearch -0.777E-08
 trial: gam= 1.07452 g(F)=  0.344E-05 g(S)=  0.000E+00 ort =-0.258E-06 (trialstep = 0.146E+00)
 search vector abs. value=  0.218E-04
 bond charge predicted
       N       E                     dE             d eps       ncg     rms          rms(c)
DAV:   1    -0.125503529770E+03   -0.14993E-05   -0.20362E-05 14208   0.167E-02    0.123E-03
DAV:   2    -0.125503529784E+03   -0.14174E-07   -0.34028E-07 14208   0.273E-03
 119 F= -.12708559E+03 E0= -.12708481E+03  d E =-.416780E-06  mag=     0.0000
 ZBRENT: can't locate minimum, use default step
 trial-energy change:   -0.000000  1 .order   -0.000000   -0.000000   -0.000000
 step:   0.5843(harm=  0.7868)  dis= 0.00012  next Energy=  -127.085591 (dE=-0.125E-05)
 bond charge predicted
       N       E                     dE             d eps       ncg     rms          rms(c)
DAV:   1    -0.125503533704E+03   -0.39340E-05   -0.18295E-04 14208   0.494E-02    0.287E-03
DAV:   2    -0.125503533756E+03   -0.51942E-07   -0.16531E-06 14208   0.558E-03
 120 F= -.12708559E+03 E0= -.12708481E+03  d E =-.106711E-05  mag=     0.0000
 curvature:  -2.44 expect dE=-0.107E-04 dE for cont linesearch -0.501E-07
 trial: gam= 0.89669 g(F)=  0.438E-05 g(S)=  0.000E+00 ort = 0.669E-06 (trialstep = 0.221E+00)
 search vector abs. value=  0.231E-04
 bond charge predicted
       N       E                     dE             d eps       ncg     rms          rms(c)
DAV:   1    -0.125503536171E+03   -0.24673E-05   -0.54392E-05 16320   0.276E-02    0.193E-03
DAV:   2    -0.125503536170E+03    0.18099E-08   -0.96521E-07 14256   0.468E-03
 121 F= -.12708559E+03 E0= -.12708481E+03  d E =-.833823E-06  mag=     0.0000
 trial-energy change:   -0.000001  1 .order   -0.000001   -0.000001   -0.000001
 step:   0.5167(harm=  0.5167)  dis= 0.00012  next Energy=  -127.085593 (dE=-0.129E-05)
 bond charge predicted
       N       E                     dE             d eps       ncg     rms          rms(c)
DAV:   1    -0.125503538645E+03   -0.24741E-05   -0.98378E-05 14208   0.368E-02    0.252E-03
DAV:   2    -0.125503538636E+03    0.92350E-08   -0.14369E-06 14208   0.534E-03
 122 F= -.12708559E+03 E0= -.12708481E+03  d E =-.117667E-05  mag=     0.0000
 curvature:  -1.20 expect dE=-0.217E-05 dE for cont linesearch -0.269E-09
 trial: gam= 0.65509 g(F)=  0.181E-05 g(S)=  0.000E+00 ort =-0.719E-07 (trialstep = 0.280E+00)
 search vector abs. value=  0.116E-04
 bond charge predicted
       N       E                     dE             d eps       ncg     rms          rms(c)
DAV:   1    -0.125503539753E+03   -0.11075E-05   -0.35875E-05 14208   0.210E-02    0.158E-03
DAV:   2    -0.125503539748E+03    0.51159E-08   -0.76084E-07 14208   0.417E-03
 123 F= -.12708559E+03 E0= -.12708481E+03  d E =-.411735E-06  mag=     0.0000
 ZBRENT: can't locate minimum, use default step
 trial-energy change:   -0.000000  1 .order   -0.000000   -0.000000   -0.000000
 step:   1.1192(harm=  1.1327)  dis= 0.00021  next Energy=  -127.085593 (dE=-0.999E-06)
 bond charge predicted
       N       E                     dE             d eps       ncg     rms          rms(c)
DAV:   1    -0.125503542206E+03   -0.24534E-05   -0.32195E-04 14208   0.620E-02    0.384E-03
DAV:   2    -0.125503542288E+03   -0.81934E-07   -0.29544E-06 14208   0.712E-03
 124 F= -.12708559E+03 E0= -.12708481E+03  d E =-.852641E-06  mag=     0.0000
 curvature:  -3.74 expect dE=-0.182E-04 dE for cont linesearch -0.900E-11
 trial: gam= 2.24170 g(F)=  0.487E-05 g(S)=  0.000E+00 ort =-0.529E-08 (trialstep = 0.823E-01)
 search vector abs. value=  0.633E-04
 bond charge predicted
       N       E                     dE             d eps       ncg     rms          rms(c)
DAV:   1    -0.125503543206E+03   -0.99944E-06   -0.17192E-05 14208   0.156E-02    0.143E-03
DAV:   2    -0.125503543169E+03    0.36654E-07   -0.86897E-07 14208   0.474E-03
 125 F= -.12708559E+03 E0= -.12708481E+03  d E =-.419616E-06  mag=     0.0000
 ZBRENT: can't locate minimum, use default step
 trial-energy change:   -0.000000  1 .order   -0.000000   -0.000000   -0.000000
 step:   0.3291(harm=  0.4625)  dis= 0.00014  next Energy=  -127.085594 (dE=-0.112E-05)
 bond charge predicted
       N       E                     dE             d eps       ncg     rms          rms(c)
DAV:   1    -0.125503545118E+03   -0.19124E-05   -0.15526E-04 14208   0.444E-02    0.282E-03
DAV:   2    -0.125503545159E+03   -0.41065E-07   -0.16139E-06 14208   0.561E-03
 126 F= -.12708559E+03 E0= -.12708481E+03  d E =-.102444E-05  mag=     0.0000
 curvature:  -2.64 expect dE=-0.576E-05 dE for cont linesearch -0.982E-07
 ZBRENT: increasing intervall
 opt :   0.8227  next Energy=  -127.085594 (dE=-0.567E-06)
 bond charge predicted
       N       E                     dE             d eps       ncg     rms          rms(c)
DAV:   1    -0.125503547071E+03   -0.19526E-05   -0.61676E-04 14208   0.884E-02    0.526E-03
DAV:   2    -0.125503547250E+03   -0.17942E-06   -0.55076E-06 14208   0.991E-03
 127 F= -.12708559E+03 E0= -.12708481E+03  d E =-.337867E-06  mag=     0.0000
 curvature:  12.33 expect dE= 0.141E-03 dE for cont linesearch  0.233E-05
 ZBRENT: bracketing found
 ZBRENT: interpolating
 opt :   0.4807  next Energy=  -127.085594 (dE=-0.114E-05)
 bond charge predicted
       N       E                     dE             d eps       ncg     rms          rms(c)
DAV:   1    -0.125503546205E+03    0.86592E-06   -0.30766E-04 15504   0.623E-02    0.290E-03
DAV:   2    -0.125503546171E+03    0.33946E-07   -0.37969E-06 14208   0.895E-03
 128 F= -.12708559E+03 E0= -.12708481E+03  d E =-.118380E-05  mag=     0.0000
 curvature:  -0.62 expect dE=-0.224E-05 dE for cont linesearch -0.233E-08
 trial: gam= 0.76965 g(F)=  0.363E-05 g(S)=  0.000E+00 ort =-0.490E-06 (trialstep = 0.162E+00)
 search vector abs. value=  0.404E-04
