       N       E                     dE             d eps       ncg     rms          rms(c)
DAV:   1     0.188671289356E+03    0.18867E+03   -0.25351E+04  3648   0.862E+02
DAV:   2    -0.118717819713E+03   -0.30739E+03   -0.30659E+03  5808   0.158E+02
DAV:   3    -0.127992901339E+03   -0.92751E+01   -0.92508E+01  6192   0.365E+01
DAV:   4    -0.128013996214E+03   -0.21095E-01   -0.21091E-01  5760   0.159E+00
DAV:   5    -0.128014028418E+03   -0.32204E-04   -0.32205E-04  5616   0.667E-02    0.228E+01
DAV:   6    -0.945786382852E+02    0.33435E+02   -0.57278E+01  4752   0.216E+01    0.124E+01
DAV:   7    -0.105670443177E+03   -0.11092E+02   -0.14201E+01  5520   0.112E+01    0.673E+00
DAV:   8    -0.111451242141E+03   -0.57808E+01   -0.50482E+00  5184   0.645E+00    0.377E+00
DAV:   9    -0.116716387075E+03   -0.52651E+01   -0.27365E+00  4656   0.466E+00    0.254E+00
DAV:  10    -0.120921607586E+03   -0.42052E+01   -0.32949E+00  5664   0.477E+00    0.135E+00
DAV:  11    -0.122763764626E+03   -0.18422E+01   -0.14345E+00  5280   0.282E+00    0.822E-01
DAV:  12    -0.123760285947E+03   -0.99652E+00   -0.80280E-01  5856   0.195E+00    0.401E-01
DAV:  13    -0.124062226851E+03   -0.30194E+00   -0.18615E-01  5232   0.955E-01    0.196E-01
DAV:  14    -0.124114390621E+03   -0.52164E-01   -0.27319E-02  4752   0.395E-01    0.109E-01
DAV:  15    -0.124137751050E+03   -0.23360E-01   -0.15230E-02  4128   0.297E-01    0.582E-02
DAV:  16    -0.124139323883E+03   -0.15728E-02   -0.21920E-03  4272   0.175E-01    0.369E-02
DAV:  17    -0.124139912447E+03   -0.58856E-03   -0.76626E-04  3984   0.931E-02    0.150E-02
DAV:  18    -0.124139975538E+03   -0.63091E-04   -0.15940E-04  3936   0.466E-02    0.852E-03
DAV:  19    -0.124140033099E+03   -0.57561E-04   -0.33517E-05  3792   0.262E-02    0.516E-03
DAV:  20    -0.124140064587E+03   -0.31488E-04   -0.18059E-05  3936   0.172E-02    0.368E-03
DAV:  21    -0.124140108390E+03   -0.43804E-04   -0.14683E-05  3744   0.147E-02    0.235E-03
DAV:  22    -0.124140132362E+03   -0.23972E-04   -0.47182E-06  4272   0.821E-03    0.137E-03
DAV:  23    -0.124140137188E+03   -0.48259E-05   -0.17873E-06  5280   0.497E-03    0.624E-04
DAV:  24    -0.124140140372E+03   -0.31840E-05   -0.32091E-07  4848   0.201E-03    0.341E-04
DAV:  25    -0.124140141919E+03   -0.15473E-05   -0.16817E-07  4512   0.138E-03    0.179E-04
DAV:  26    -0.124140142317E+03   -0.39807E-06   -0.80009E-08  5664   0.106E-03
   1 F= -.12563374E+03 E0= -.12563071E+03  d E =-.125634E+03  mag=     0.0000
       N       E                     dE             d eps       ncg     rms          rms(c)
DAV:   1    -0.124144444545E+03   -0.43026E-02   -0.74757E-01  3744   0.212E+00    0.292E-01
DAV:   2    -0.124140704985E+03    0.37396E-02   -0.18037E-02  5568   0.321E-01    0.129E-01
DAV:   3    -0.124140114498E+03    0.59049E-03   -0.28261E-03  5184   0.113E-01    0.356E-02
DAV:   4    -0.124140092951E+03    0.21547E-04   -0.22056E-04  5280   0.354E-02    0.126E-02
DAV:   5    -0.124140092499E+03    0.45208E-06   -0.12084E-05  5232   0.872E-03    0.384E-03
DAV:   6    -0.124140093806E+03   -0.13071E-05   -0.35448E-06  4080   0.427E-03    0.128E-03
DAV:   7    -0.124140095365E+03   -0.15593E-05   -0.19889E-07  4464   0.133E-03    0.719E-04
DAV:   8    -0.124140097537E+03   -0.21719E-05   -0.12347E-07  4128   0.686E-04    0.357E-04
DAV:   9    -0.124140099506E+03   -0.19684E-05   -0.14147E-07  4320   0.658E-04    0.220E-04
DAV:  10    -0.124140100259E+03   -0.75394E-06   -0.64308E-08  4176   0.597E-04
   2 F= -.12563395E+03 E0= -.12563093E+03  d E =-.214344E-03  mag=    -0.0000
       N       E                     dE             d eps       ncg     rms          rms(c)
DAV:   1    -0.124143584694E+03   -0.34852E-02   -0.17932E-01  3744   0.104E+00    0.143E-01
DAV:   2    -0.124142699873E+03    0.88482E-03   -0.43526E-03  5664   0.158E-01    0.629E-02
DAV:   3    -0.124142559249E+03    0.14062E-03   -0.69645E-04  6144   0.558E-02    0.172E-02
DAV:   4    -0.124142554358E+03    0.48906E-05   -0.48021E-05  5184   0.166E-02    0.627E-03
DAV:   5    -0.124142554424E+03   -0.66312E-07   -0.28587E-06  6048   0.431E-03
   3 F= -.12563628E+03 E0= -.12563327E+03  d E =-.254404E-02  mag=     0.0000
       N       E                     dE             d eps       ncg     rms          rms(c)
DAV:   1    -0.124142553700E+03    0.65781E-06   -0.47307E-06  4320   0.598E-03    0.114E-03
DAV:   2    -0.124142553783E+03   -0.83004E-07   -0.22111E-07  4512   0.116E-03
   4 F= -.12563628E+03 E0= -.12563327E+03  d E =-.254420E-02  mag=     0.0000
       N       E                     dE             d eps       ncg     rms          rms(c)
DAV:   1    -0.124142554298E+03   -0.59747E-06   -0.14314E-06  4272   0.293E-03    0.417E-04
DAV:   2    -0.124142554385E+03   -0.87826E-07   -0.42760E-08  4800   0.674E-04
   5 F= -.12563628E+03 E0= -.12563327E+03  d E =-.254448E-02  mag=     0.0000
       N       E                     dE             d eps       ncg     rms          rms(c)
DAV:   1    -0.124142554732E+03   -0.43454E-06   -0.62994E-07  4512   0.205E-03    0.347E-04
DAV:   2    -0.124142554784E+03   -0.51622E-07   -0.19824E-08  4752   0.441E-04
   6 F= -.12563628E+03 E0= -.12563327E+03  d E =-.254464E-02  mag=     0.0000
       N       E                     dE             d eps       ncg     rms          rms(c)
DAV:   1    -0.124142554969E+03   -0.23663E-06   -0.14244E-07  4416   0.104E-03    0.192E-04
DAV:   2    -0.124142554997E+03   -0.28177E-07   -0.63411E-09  5184   0.311E-04
   7 F= -.12563628E+03 E0= -.12563327E+03  d E =-.254473E-02  mag=     0.0000
       N       E                     dE             d eps       ncg     rms          rms(c)
DAV:   1    -0.124142564095E+03   -0.91266E-05   -0.46976E-03  3648   0.253E-01    0.122E-02
DAV:   2    -0.124142562949E+03    0.11469E-05   -0.54546E-05  3936   0.289E-02    0.752E-03
DAV:   3    -0.124142562334E+03    0.61491E-06   -0.70274E-06  4320   0.911E-03
   8 F= -.12563634E+03 E0= -.12563332E+03  d E =-.543459E-04  mag=    -0.0000
       N       E                     dE             d eps       ncg     rms          rms(c)
DAV:   1    -0.124142593242E+03   -0.30294E-04   -0.42433E-02  3648   0.760E-01    0.373E-02
DAV:   2    -0.124142583209E+03    0.10033E-04   -0.48694E-04  3840   0.869E-02    0.229E-02
DAV:   3    -0.124142576680E+03    0.65296E-05   -0.65107E-05  5424   0.276E-02    0.552E-03
DAV:   4    -0.124142577077E+03   -0.39749E-06   -0.72418E-06  4128   0.945E-03
   9 F= -.12563649E+03 E0= -.12563348E+03  d E =-.210325E-03  mag=     0.0000
       N       E                     dE             d eps       ncg     rms          rms(c)
DAV:   1    -0.124142668894E+03   -0.92214E-04   -0.16925E-01  3648   0.152E+00    0.734E-02
DAV:   2    -0.124142632045E+03    0.36849E-04   -0.19519E-03  3840   0.174E-01    0.450E-02
DAV:   3    -0.124142602871E+03    0.29174E-04   -0.25490E-04  4992   0.547E-02    0.110E-02
DAV:   4    -0.124142604214E+03   -0.13430E-05   -0.29408E-05  4512   0.192E-02    0.473E-03
DAV:   5    -0.124142605034E+03   -0.82014E-06   -0.24018E-06  3648   0.632E-03
  10 F= -.12563681E+03 E0= -.12563379E+03  d E =-.521386E-03  mag=     0.0000
       N       E                     dE             d eps       ncg     rms          rms(c)
DAV:   1    -0.124142896895E+03   -0.29268E-03   -0.67680E-01  3648   0.303E+00    0.147E-01
DAV:   2    -0.124142765380E+03    0.13151E-03   -0.78215E-03  4032   0.347E-01    0.901E-02
DAV:   3    -0.124142638781E+03    0.12660E-03   -0.10144E-03  4704   0.109E-01    0.223E-02
DAV:   4    -0.124142642074E+03   -0.32932E-05   -0.11807E-04  5280   0.378E-02    0.944E-03
DAV:   5    -0.124142641544E+03    0.52994E-06   -0.62917E-06  4272   0.923E-03
  11 F= -.12563741E+03 E0= -.12563440E+03  d E =-.112849E-02  mag=     0.0000
       N       E                     dE             d eps       ncg     rms          rms(c)
DAV:   1    -0.124143697451E+03   -0.10554E-02   -0.27071E+00  3648   0.607E+00    0.294E-01
DAV:   2    -0.124143155744E+03    0.54171E-03   -0.31280E-02  4128   0.694E-01    0.180E-01
DAV:   3    -0.124142669749E+03    0.48600E-03   -0.40596E-03  4560   0.218E-01    0.438E-02
DAV:   4    -0.124142676423E+03   -0.66737E-05   -0.45992E-04  5856   0.751E-02    0.189E-02
DAV:   5    -0.124142670740E+03    0.56824E-05   -0.21345E-05  4560   0.156E-02    0.461E-03
DAV:   6    -0.124142670122E+03    0.61821E-06   -0.43192E-06  4608   0.765E-03
  12 F= -.12563860E+03 E0= -.12563558E+03  d E =-.231347E-02  mag=     0.0000
       N       E                     dE             d eps       ncg     rms          rms(c)
DAV:   1    -0.124146706673E+03   -0.40359E-02   -0.10823E+01  3648   0.121E+01    0.588E-01
DAV:   2    -0.124144632394E+03    0.20743E-02   -0.12573E-01  4608   0.139E+00    0.360E-01
DAV:   3    -0.124142589503E+03    0.20429E-02   -0.16313E-02  5472   0.430E-01    0.862E-02
DAV:   4    -0.124142602476E+03   -0.12973E-04   -0.16514E-03  5472   0.146E-01    0.387E-02
DAV:   5    -0.124142569661E+03    0.32815E-04   -0.84088E-05  4992   0.298E-02    0.745E-03
DAV:   6    -0.124142568912E+03    0.74947E-06   -0.17105E-05  4704   0.131E-02    0.457E-03
DAV:   7    -0.124142574368E+03   -0.54564E-05   -0.40995E-06  4896   0.766E-03    0.244E-03
DAV:   8    -0.124142590604E+03   -0.16236E-04   -0.39410E-06  4704   0.589E-03    0.188E-03
DAV:   9    -0.124142600338E+03   -0.97334E-05   -0.16689E-06  4944   0.454E-03    0.104E-03
DAV:  10    -0.124142612909E+03   -0.12572E-04   -0.40958E-06  4656   0.780E-03    0.586E-04
DAV:  11    -0.124142616707E+03   -0.37977E-05   -0.29806E-06  4368   0.711E-03    0.564E-04
DAV:  12    -0.124142620854E+03   -0.41470E-05   -0.11975E-06  4368   0.395E-03    0.220E-04
DAV:  13    -0.124142621197E+03   -0.34320E-06   -0.34149E-07  5760   0.235E-03
  13 F= -.12564092E+03 E0= -.12563791E+03  d E =-.463929E-02  mag=    -0.0000
       N       E                     dE             d eps       ncg     rms          rms(c)
DAV:   1    -0.124157119918E+03   -0.14499E-01   -0.43205E+01  3648   0.242E+01    0.117E+00
DAV:   2    -0.124149956652E+03    0.71633E-02   -0.50989E-01  4032   0.280E+00    0.722E-01
DAV:   3    -0.124141811558E+03    0.81451E-02   -0.65540E-02  6000   0.866E-01    0.177E-01
DAV:   4    -0.124141862549E+03   -0.50991E-04   -0.60015E-03  5568   0.277E-01    0.791E-02
DAV:   5    -0.124141760904E+03    0.10165E-03   -0.31409E-04  5184   0.547E-02    0.154E-02
DAV:   6    -0.124141747054E+03    0.13850E-04   -0.70449E-05  5232   0.222E-02    0.742E-03
DAV:   7    -0.124141763189E+03   -0.16136E-04   -0.77493E-06  4752   0.808E-03    0.421E-03
DAV:   8    -0.124141785027E+03   -0.21838E-04   -0.41231E-06  4608   0.486E-03    0.358E-03
DAV:   9    -0.124141806741E+03   -0.21714E-04   -0.22199E-06  4896   0.297E-03    0.176E-03
DAV:  10    -0.124141828409E+03   -0.21668E-04   -0.24953E-06  4800   0.325E-03    0.101E-03
DAV:  11    -0.124141836589E+03   -0.81795E-05   -0.69920E-07  4704   0.214E-03    0.899E-04
DAV:  12    -0.124141844995E+03   -0.84061E-05   -0.11146E-06  4320   0.215E-03    0.260E-04
DAV:  13    -0.124141847019E+03   -0.20242E-05   -0.27934E-07  4848   0.155E-03    0.116E-04
DAV:  14    -0.124141847201E+03   -0.18226E-06   -0.64833E-08  5616   0.105E-03
  14 F= -.12564516E+03 E0= -.12564214E+03  d E =-.887563E-02  mag=    -0.0000
       N       E                     dE             d eps       ncg     rms          rms(c)
DAV:   1    -0.124189994460E+03   -0.48147E-01   -0.17178E+02  3648   0.483E+01    0.233E+00
DAV:   2    -0.124169629656E+03    0.20365E-01   -0.21080E+00  4176   0.576E+00    0.145E+00
DAV:   3    -0.124137627919E+03    0.32002E-01   -0.25291E-01  5856   0.170E+00    0.375E-01
DAV:   4    -0.124137960196E+03   -0.33228E-03   -0.22646E-02  5568   0.535E-01    0.163E-01
DAV:   5    -0.124137451383E+03    0.50881E-03   -0.13791E-03  5472   0.106E-01    0.338E-02
DAV:   6    -0.124137396378E+03    0.55006E-04   -0.24497E-04  5424   0.416E-02    0.165E-02
DAV:   7    -0.124137430768E+03   -0.34390E-04   -0.22563E-05  4416   0.145E-02    0.904E-03
DAV:   8    -0.124137492386E+03   -0.61618E-04   -0.25367E-05  4512   0.117E-02    0.741E-03
DAV:   9    -0.124137545807E+03   -0.53421E-04   -0.88537E-06  4848   0.622E-03    0.375E-03
DAV:  10    -0.124137592614E+03   -0.46807E-04   -0.63234E-06  4656   0.535E-03    0.186E-03
DAV:  11    -0.124137613342E+03   -0.20728E-04   -0.20589E-06  4944   0.323E-03    0.169E-03
DAV:  12    -0.124137630148E+03   -0.16806E-04   -0.25456E-06  4608   0.332E-03    0.547E-04
DAV:  13    -0.124137634368E+03   -0.42204E-05   -0.48224E-07  5040   0.208E-03    0.248E-04
DAV:  14    -0.124137636523E+03   -0.21553E-05   -0.23263E-07  4320   0.140E-03    0.116E-04
DAV:  15    -0.124137636974E+03   -0.45079E-06   -0.53006E-08  5856   0.855E-04
  15 F= -.12565210E+03 E0= -.12564908E+03  d E =-.158167E-01  mag=     0.0000
       N       E                     dE             d eps       ncg     rms          rms(c)
DAV:   1    -0.124221753745E+03   -0.84117E-01   -0.67074E+02  3648   0.950E+01    0.456E+00
DAV:   2    -0.124249065451E+03   -0.27312E-01   -0.92745E+00  4032   0.124E+01    0.292E+00
DAV:   3    -0.124117839960E+03    0.13123E+00   -0.88029E-01  6144   0.321E+00    0.929E-01
DAV:   4    -0.124119762105E+03   -0.19221E-02   -0.73713E-02  5664   0.992E-01    0.332E-01
DAV:   5    -0.124117964807E+03    0.17973E-02   -0.75266E-03  5664   0.218E-01    0.582E-02
DAV:   6    -0.124117768685E+03    0.19612E-03   -0.69222E-04  6144   0.736E-02    0.288E-02
DAV:   7    -0.124117943725E+03   -0.17504E-03   -0.23256E-04  4224   0.438E-02    0.152E-02
DAV:   8    -0.124118076784E+03   -0.13306E-03   -0.50324E-05  4128   0.165E-02    0.134E-02
DAV:   9    -0.124118164086E+03   -0.87302E-04   -0.14965E-05  4848   0.945E-03    0.695E-03
DAV:  10    -0.124118245138E+03   -0.81051E-04   -0.15238E-05  4800   0.923E-03    0.412E-03
DAV:  11    -0.124118296900E+03   -0.51762E-04   -0.11131E-05  5040   0.677E-03    0.245E-03
DAV:  12    -0.124118311156E+03   -0.14256E-04   -0.18755E-06  5136   0.318E-03    0.846E-04
DAV:  13    -0.124118315926E+03   -0.47701E-05   -0.34480E-07  5328   0.170E-03    0.410E-04
DAV:  14    -0.124118318477E+03   -0.25516E-05   -0.13960E-07  4560   0.108E-03    0.205E-04
DAV:  15    -0.124118320707E+03   -0.22302E-05   -0.19973E-07  4512   0.867E-04    0.735E-05
DAV:  16    -0.124118320907E+03   -0.19979E-06   -0.15796E-08  6240   0.444E-04
  16 F= -.12566046E+03 E0= -.12565740E+03  d E =-.241750E-01  mag=     0.0000
       N       E                     dE             d eps       ncg     rms          rms(c)
DAV:   1    -0.123328058597E+03    0.79026E+00   -0.24350E+03  3648   0.176E+02    0.883E+00
DAV:   2    -0.124583885320E+03   -0.12558E+01   -0.45209E+01  3648   0.283E+01    0.577E+00
DAV:   3    -0.124100638281E+03    0.48325E+00   -0.25080E+00  6336   0.568E+00    0.279E+00
DAV:   4    -0.124036636317E+03    0.64002E-01   -0.43632E-01  5712   0.235E+00    0.631E-01
DAV:   5    -0.124032031935E+03    0.46044E-02   -0.36139E-02  5712   0.593E-01    0.139E-01
DAV:   6    -0.124030797136E+03    0.12348E-02   -0.34690E-03  7008   0.165E-01    0.702E-02
DAV:   7    -0.124030804543E+03   -0.74070E-05   -0.12659E-03  4512   0.104E-01    0.294E-02
DAV:   8    -0.124031173945E+03   -0.36940E-03   -0.30405E-04  4128   0.442E-02    0.208E-02
DAV:   9    -0.124031389654E+03   -0.21571E-03   -0.11399E-04  4560   0.275E-02    0.132E-02
DAV:  10    -0.124031471536E+03   -0.81882E-04   -0.27761E-05  5472   0.124E-02    0.892E-03
DAV:  11    -0.124031518676E+03   -0.47140E-04   -0.12461E-05  4512   0.804E-03    0.377E-03
DAV:  12    -0.124031543582E+03   -0.24906E-04   -0.44457E-06  5568   0.515E-03    0.232E-03
DAV:  13    -0.124031553675E+03   -0.10093E-04   -0.10695E-06  5712   0.265E-03    0.149E-03
DAV:  14    -0.124031556669E+03   -0.29942E-05   -0.11943E-07  6240   0.948E-04    0.760E-04
DAV:  15    -0.124031560003E+03   -0.33341E-05   -0.22252E-07  4464   0.101E-03    0.165E-04
DAV:  16    -0.124031560613E+03   -0.60930E-06   -0.19882E-08  5856   0.302E-04
  17 F= -.12565919E+03 E0= -.12565585E+03  d E =-.229031E-01  mag=    -0.0000
       N       E                     dE             d eps       ncg     rms          rms(c)
DAV:   1    -0.124199241385E+03   -0.16768E+00   -0.81386E+02  3648   0.105E+02    0.507E+00
DAV:   2    -0.124245438027E+03   -0.46197E-01   -0.11610E+01  3648   0.141E+01    0.324E+00
DAV:   3    -0.124088465579E+03    0.15697E+00   -0.96215E-01  6048   0.343E+00    0.116E+00
DAV:   4    -0.124089431230E+03   -0.96565E-03   -0.93653E-02  6048   0.113E+00    0.355E-01
DAV:   5    -0.124087909168E+03    0.15221E-02   -0.11541E-02  5664   0.277E-01    0.608E-02
DAV:   6    -0.124087687814E+03    0.22135E-03   -0.71498E-04  5184   0.782E-02    0.303E-02
DAV:   7    -0.124087647104E+03    0.40711E-04   -0.22876E-04  4032   0.455E-02    0.177E-02
DAV:   8    -0.124087716976E+03   -0.69873E-04   -0.30907E-05  4416   0.137E-02    0.104E-02
DAV:   9    -0.124087843716E+03   -0.12674E-03   -0.25570E-05  4368   0.133E-02    0.637E-03
DAV:  10    -0.124087911114E+03   -0.67398E-04   -0.46081E-06  5328   0.554E-03    0.594E-03
DAV:  11    -0.124087969775E+03   -0.58661E-04   -0.34615E-06  5136   0.574E-03    0.155E-03
DAV:  12    -0.124087996182E+03   -0.26407E-04   -0.92745E-07  5376   0.278E-03    0.842E-04
DAV:  13    -0.124088003358E+03   -0.71761E-05   -0.12798E-07  5328   0.998E-04    0.477E-04
DAV:  14    -0.124088006350E+03   -0.29920E-05   -0.64893E-08  5664   0.686E-04    0.201E-04
DAV:  15    -0.124088007391E+03   -0.10403E-05   -0.32671E-08  5040   0.425E-04    0.788E-05
DAV:  16    -0.124088007542E+03   -0.15117E-06   -0.38725E-09  6480   0.176E-04
  18 F= -.12566253E+03 E0= -.12565939E+03  d E =-.262430E-01  mag=     0.0000
       N       E                     dE             d eps       ncg     rms          rms(c)
DAV:   1    -0.124088005976E+03    0.14147E-05   -0.41408E-06  5088   0.751E-03    0.360E-04
DAV:   2    -0.124088005976E+03   -0.28513E-09   -0.44844E-08  6336   0.828E-04
  19 F= -.12566253E+03 E0= -.12565939E+03  d E =-.161194E-05  mag=     0.0000
       N       E                     dE             d eps       ncg     rms          rms(c)
DAV:   1    -0.124088001072E+03    0.49037E-05   -0.36643E-05  4464   0.224E-02    0.113E-03
DAV:   2    -0.124088001057E+03    0.15501E-07   -0.38471E-07  5952   0.241E-03
  20 F= -.12566253E+03 E0= -.12565939E+03  d E =-.622550E-05  mag=    -0.0000
       N       E                     dE             d eps       ncg     rms          rms(c)
DAV:   1    -0.124087991260E+03    0.98124E-05   -0.14531E-04  3696   0.447E-02    0.227E-03
DAV:   2    -0.124087991208E+03    0.51684E-07   -0.16237E-06  4992   0.504E-03
  21 F= -.12566254E+03 E0= -.12565940E+03  d E =-.154448E-04  mag=    -0.0000
       N       E                     dE             d eps       ncg     rms          rms(c)
DAV:   1    -0.124087971715E+03    0.19545E-04   -0.58168E-04  3696   0.894E-02    0.456E-03
DAV:   2    -0.124087971469E+03    0.24606E-06   -0.64637E-06  4416   0.101E-02
  22 F= -.12566256E+03 E0= -.12565942E+03  d E =-.338491E-04  mag=    -0.0000
       N       E                     dE             d eps       ncg     rms          rms(c)
DAV:   1    -0.124087932878E+03    0.38837E-04   -0.23274E-03  3648   0.179E-01    0.912E-03
DAV:   2    -0.124087932075E+03    0.80230E-06   -0.26102E-05  4800   0.203E-02    0.563E-03
DAV:   3    -0.124087931918E+03    0.15721E-06   -0.34044E-06  4656   0.628E-03
  23 F= -.12566260E+03 E0= -.12565946E+03  d E =-.706150E-04  mag=     0.0000
       N       E                     dE             d eps       ncg     rms          rms(c)
DAV:   1    -0.124087856588E+03    0.75487E-04   -0.95791E-03  3648   0.361E-01    0.179E-02
DAV:   2    -0.124087853731E+03    0.28576E-05   -0.10971E-04  4608   0.413E-02    0.110E-02
DAV:   3    -0.124087852499E+03    0.12322E-05   -0.14252E-05  5232   0.127E-02    0.264E-03
DAV:   4    -0.124087852725E+03   -0.22646E-06   -0.16476E-06  4272   0.447E-03
  24 F= -.12566267E+03 E0= -.12565953E+03  d E =-.144182E-03  mag=    -0.0000
       N       E                     dE             d eps       ncg     rms          rms(c)
DAV:   1    -0.124087708955E+03    0.14354E-03   -0.38120E-02  3648   0.720E-01    0.348E-02
DAV:   2    -0.124087698983E+03    0.99718E-05   -0.43964E-04  4416   0.827E-02    0.214E-02
DAV:   3    -0.124087693239E+03    0.57437E-05   -0.57071E-05  5232   0.255E-02    0.521E-03
DAV:   4    -0.124087693767E+03   -0.52793E-06   -0.64680E-06  3840   0.888E-03
  25 F= -.12566282E+03 E0= -.12565968E+03  d E =-.291220E-03  mag=    -0.0000
       N       E                     dE             d eps       ncg     rms          rms(c)
DAV:   1    -0.124087432934E+03    0.26031E-03   -0.15245E-01  3648   0.144E+00    0.696E-02
DAV:   2    -0.124087399020E+03    0.33914E-04   -0.17607E-03  3840   0.166E-01    0.429E-02
DAV:   3    -0.124087374252E+03    0.24768E-04   -0.23705E-04  5328   0.526E-02    0.104E-02
DAV:   4    -0.124087375453E+03   -0.12002E-05   -0.25276E-05  4032   0.177E-02    0.455E-03
DAV:   5    -0.124087375893E+03   -0.44073E-06   -0.16850E-06  4032   0.511E-03
  26 F= -.12566311E+03 E0= -.12565997E+03  d E =-.587481E-03  mag=     0.0000
       N       E                     dE             d eps       ncg     rms          rms(c)
DAV:   1    -0.124086966172E+03    0.40928E-03   -0.60965E-01  3648   0.288E+00    0.139E-01
DAV:   2    -0.124086840576E+03    0.12560E-03   -0.70310E-03  3840   0.330E-01    0.857E-02
DAV:   3    -0.124086730355E+03    0.11022E-03   -0.93941E-04  4608   0.105E-01    0.211E-02
DAV:   4    -0.124086733629E+03   -0.32738E-05   -0.11164E-04  6048   0.360E-02    0.932E-03
DAV:   5    -0.124086733561E+03    0.67517E-07   -0.33590E-06  4128   0.630E-03
  27 F= -.12566371E+03 E0= -.12566056E+03  d E =-.118074E-02  mag=     0.0000
       N       E                     dE             d eps       ncg     rms          rms(c)
DAV:   1    -0.124086348316E+03    0.38531E-03   -0.24383E+00  3648   0.576E+00    0.278E-01
DAV:   2    -0.124085853702E+03    0.49461E-03   -0.28319E-02  4752   0.660E-01    0.170E-01
DAV:   3    -0.124085431496E+03    0.42221E-03   -0.35542E-03  4896   0.200E-01    0.414E-02
DAV:   4    -0.124085432099E+03   -0.60330E-06   -0.39306E-04  6096   0.692E-02    0.180E-02
DAV:   5    -0.124085426635E+03    0.54637E-05   -0.17792E-05  5040   0.130E-02    0.380E-03
DAV:   6    -0.124085426953E+03   -0.31709E-06   -0.20404E-06  5808   0.386E-03
  28 F= -.12566490E+03 E0= -.12566175E+03  d E =-.237665E-02  mag=    -0.0000
       N       E                     dE             d eps       ncg     rms          rms(c)
DAV:   1    -0.124086506347E+03   -0.10797E-02   -0.97487E+00  3648   0.115E+01    0.558E-01
DAV:   2    -0.124084579426E+03    0.19269E-02   -0.11347E-01  4896   0.132E+00    0.341E-01
DAV:   3    -0.124082760456E+03    0.18190E-02   -0.14342E-02  5568   0.401E-01    0.824E-02
DAV:   4    -0.124082766263E+03   -0.58072E-05   -0.14360E-03  6144   0.134E-01    0.365E-02
DAV:   5    -0.124082741880E+03    0.24383E-04   -0.72076E-05  5376   0.265E-02    0.690E-03
DAV:   6    -0.124082742686E+03   -0.80574E-06   -0.15003E-05  4800   0.104E-02    0.331E-03
DAV:   7    -0.124082752665E+03   -0.99792E-05   -0.20339E-06  4128   0.430E-03    0.212E-03
DAV:   8    -0.124082759932E+03   -0.72666E-05   -0.69134E-07  5376   0.215E-03    0.176E-03
DAV:   9    -0.124082769111E+03   -0.91790E-05   -0.82814E-07  5088   0.174E-03    0.651E-04
DAV:  10    -0.124082777048E+03   -0.79373E-05   -0.85656E-07  5184   0.163E-03    0.575E-04
DAV:  11    -0.124082780242E+03   -0.31939E-05   -0.23633E-07  5184   0.114E-03    0.290E-04
DAV:  12    -0.124082781592E+03   -0.13498E-05   -0.96367E-08  5424   0.942E-04    0.117E-04
DAV:  13    -0.124082782340E+03   -0.74819E-06   -0.44448E-08  5376   0.515E-04
  29 F= -.12566739E+03 E0= -.12566422E+03  d E =-.486385E-02  mag=     0.0000
       N       E                     dE             d eps       ncg     rms          rms(c)
DAV:   1    -0.124090899841E+03   -0.81182E-02   -0.38918E+01  3648   0.230E+01    0.111E+00
DAV:   2    -0.124084266356E+03    0.66335E-02   -0.46106E-01  4320   0.267E+00    0.685E-01
DAV:   3    -0.124077130335E+03    0.71360E-02   -0.58440E-02  5760   0.816E-01    0.169E-01
DAV:   4    -0.124077186075E+03   -0.55740E-04   -0.57062E-03  6240   0.263E-01    0.744E-02
DAV:   5    -0.124077112302E+03    0.73773E-04   -0.28517E-04  5760   0.510E-02    0.149E-02
DAV:   6    -0.124077105539E+03    0.67628E-05   -0.60953E-05  6144   0.211E-02    0.635E-03
DAV:   7    -0.124077128873E+03   -0.23334E-04   -0.82654E-06  4032   0.883E-03    0.370E-03
DAV:   8    -0.124077148510E+03   -0.19637E-04   -0.22751E-06  5184   0.348E-03    0.255E-03
DAV:   9    -0.124077163031E+03   -0.14521E-04   -0.13496E-06  4800   0.243E-03    0.122E-03
DAV:  10    -0.124077175200E+03   -0.12169E-04   -0.13502E-06  5664   0.212E-03    0.993E-04
DAV:  11    -0.124077182223E+03   -0.70232E-05   -0.69102E-07  5424   0.158E-03    0.484E-04
DAV:  12    -0.124077185715E+03   -0.34922E-05   -0.28282E-07  5328   0.108E-03    0.173E-04
DAV:  13    -0.124077186518E+03   -0.80208E-06   -0.34374E-08  5472   0.500E-04
  30 F= -.12567259E+03 E0= -.12566938E+03  d E =-.100618E-01  mag=    -0.0000
       N       E                     dE             d eps       ncg     rms          rms(c)
DAV:   1    -0.124112879904E+03   -0.35694E-01   -0.15481E+02  3648   0.459E+01    0.221E+00
DAV:   2    -0.124093228961E+03    0.19651E-01   -0.19037E+00  4608   0.546E+00    0.138E+00
DAV:   3    -0.124064511309E+03    0.28718E-01   -0.22132E-01  5856   0.158E+00    0.362E-01
DAV:   4    -0.124064886271E+03   -0.37496E-03   -0.20648E-02  5856   0.504E-01    0.152E-01
DAV:   5    -0.124064480038E+03    0.40623E-03   -0.12855E-03  5952   0.998E-02    0.315E-02
DAV:   6    -0.124064453001E+03    0.27037E-04   -0.20736E-04  5760   0.396E-02    0.133E-02
DAV:   7    -0.124064517348E+03   -0.64347E-04   -0.41493E-05  4224   0.195E-02    0.789E-03
DAV:   8    -0.124064573280E+03   -0.55931E-04   -0.10480E-05  4992   0.783E-03    0.493E-03
DAV:   9    -0.124064611117E+03   -0.37838E-04   -0.53731E-06  4944   0.508E-03    0.243E-03
DAV:  10    -0.124064633323E+03   -0.22206E-04   -0.27801E-06  4944   0.333E-03    0.178E-03
DAV:  11    -0.124064648622E+03   -0.15299E-04   -0.21516E-06  5760   0.284E-03    0.106E-03
DAV:  12    -0.124064655072E+03   -0.64499E-05   -0.70227E-07  5568   0.175E-03    0.322E-04
DAV:  13    -0.124064656505E+03   -0.14325E-05   -0.64410E-08  5904   0.806E-04    0.176E-04
DAV:  14    -0.124064657463E+03   -0.95786E-06   -0.42934E-08  4896   0.565E-04
  31 F= -.12568391E+03 E0= -.12568061E+03  d E =-.213832E-01  mag=     0.0000
       N       E                     dE             d eps       ncg     rms          rms(c)
DAV:   1    -0.124144597237E+03   -0.79941E-01   -0.60587E+02  3648   0.904E+01    0.435E+00
DAV:   2    -0.124150133151E+03   -0.55359E-02   -0.83067E+00  4416   0.117E+01    0.277E+00
DAV:   3    -0.124031711228E+03    0.11842E+00   -0.76021E-01  6144   0.297E+00    0.884E-01
DAV:   4    -0.124033395253E+03   -0.16840E-02   -0.68087E-02  5664   0.945E-01    0.313E-01
DAV:   5    -0.124031845543E+03    0.15497E-02   -0.71627E-03  5856   0.215E-01    0.553E-02
DAV:   6    -0.124031722631E+03    0.12291E-03   -0.52788E-04  6432   0.673E-02    0.256E-02
DAV:   7    -0.124031890944E+03   -0.16831E-03   -0.21097E-04  4320   0.417E-02    0.149E-02
DAV:   8    -0.124032008989E+03   -0.11804E-03   -0.38308E-05  4608   0.150E-02    0.114E-02
DAV:   9    -0.124032101556E+03   -0.92568E-04   -0.22657E-05  4560   0.118E-02    0.499E-03
DAV:  10    -0.124032145945E+03   -0.44388E-04   -0.76290E-06  5856   0.633E-03    0.413E-03
DAV:  11    -0.124032175989E+03   -0.30044E-04   -0.68944E-06  4704   0.543E-03    0.221E-03
DAV:  12    -0.124032187232E+03   -0.11243E-04   -0.17201E-06  5952   0.326E-03    0.817E-04
DAV:  13    -0.124032190508E+03   -0.32766E-05   -0.25751E-07  5808   0.174E-03    0.430E-04
DAV:  14    -0.124032192084E+03   -0.15752E-05   -0.12465E-07  5520   0.139E-03    0.216E-04
DAV:  15    -0.124032193003E+03   -0.91893E-06   -0.68479E-08  5328   0.878E-04
  32 F= -.12570938E+03 E0= -.12570587E+03  d E =-.468562E-01  mag=    -0.0000
       N       E                     dE             d eps       ncg     rms          rms(c)
DAV:   1    -0.123406345025E+03    0.62585E+00   -0.22206E+03  3648   0.169E+02    0.843E+00
DAV:   2    -0.124377314059E+03   -0.97097E+00   -0.40336E+01  3840   0.267E+01    0.549E+00
DAV:   3    -0.123951084529E+03    0.42623E+00   -0.22603E+00  6432   0.538E+00    0.259E+00
DAV:   4    -0.123899131287E+03    0.51953E-01   -0.36469E-01  5760   0.218E+00    0.586E-01
DAV:   5    -0.123895894836E+03    0.32365E-02   -0.29844E-02  5856   0.536E-01    0.132E-01
DAV:   6    -0.123894745669E+03    0.11492E-02   -0.29277E-03  6720   0.155E-01    0.634E-02
DAV:   7    -0.123894735333E+03    0.10335E-04   -0.11365E-03  5184   0.987E-02    0.301E-02
DAV:   8    -0.123895023027E+03   -0.28769E-03   -0.24991E-04  5376   0.396E-02    0.202E-02
DAV:   9    -0.123895203781E+03   -0.18075E-03   -0.11573E-04  4704   0.291E-02    0.154E-02
DAV:  10    -0.123895261299E+03   -0.57518E-04   -0.14877E-05  5760   0.999E-03    0.117E-02
DAV:  11    -0.123895309412E+03   -0.48114E-04   -0.28018E-05  4800   0.125E-02    0.360E-03
DAV:  12    -0.123895318375E+03   -0.89623E-05   -0.17284E-06  5952   0.363E-03    0.331E-03
DAV:  13    -0.123895326808E+03   -0.84337E-05   -0.12510E-06  5184   0.304E-03    0.180E-03
DAV:  14    -0.123895330799E+03   -0.39907E-05   -0.40227E-07  6000   0.163E-03    0.727E-04
DAV:  15    -0.123895333100E+03   -0.23010E-05   -0.20559E-07  5472   0.113E-03    0.271E-04
DAV:  16    -0.123895333682E+03   -0.58202E-06   -0.32144E-08  6240   0.591E-04
  33 F= -.12573594E+03 E0= -.12573311E+03  d E =-.734178E-01  mag=     0.0000
       N       E                     dE             d eps       ncg     rms          rms(c)
DAV:   1    -0.124093914685E+03   -0.19858E+00   -0.46448E+02  3648   0.796E+01    0.386E+00
DAV:   2    -0.124056328011E+03    0.37587E-01   -0.60691E+00  4032   0.101E+01    0.241E+00
DAV:   3    -0.123973587786E+03    0.82740E-01   -0.59510E-01  6624   0.263E+00    0.765E-01
DAV:   4    -0.123974438255E+03   -0.85047E-03   -0.45649E-02  4896   0.794E-01    0.268E-01
DAV:   5    -0.123973722713E+03    0.71554E-03   -0.55387E-03  5664   0.199E-01    0.506E-02
DAV:   6    -0.123973639740E+03    0.82973E-04   -0.39357E-04  6144   0.627E-02    0.240E-02
DAV:   7    -0.123973675373E+03   -0.35633E-04   -0.10144E-04  4224   0.346E-02    0.143E-02
DAV:   8    -0.123973711311E+03   -0.35938E-04   -0.14245E-05  4128   0.991E-03    0.114E-02
DAV:   9    -0.123973770851E+03   -0.59540E-04   -0.94032E-06  4464   0.866E-03    0.501E-03
DAV:  10    -0.123973827647E+03   -0.56796E-04   -0.60540E-06  5472   0.619E-03    0.360E-03
DAV:  11    -0.123973881010E+03   -0.53363E-04   -0.43803E-06  5712   0.512E-03    0.244E-03
DAV:  12    -0.123973902617E+03   -0.21607E-04   -0.60842E-07  5040   0.268E-03    0.908E-04
DAV:  13    -0.123973911806E+03   -0.91897E-05   -0.25012E-07  6144   0.202E-03    0.468E-04
DAV:  14    -0.123973916310E+03   -0.45040E-05   -0.12258E-07  5616   0.119E-03    0.462E-04
DAV:  15    -0.123973917467E+03   -0.11563E-05   -0.33401E-08  5904   0.577E-04    0.138E-04
DAV:  16    -0.123973917726E+03   -0.25973E-06   -0.93113E-09  5472   0.332E-04
  34 F= -.12573515E+03 E0= -.12573162E+03  d E =-.726219E-01  mag=    -0.0000
       N       E                     dE             d eps       ncg     rms          rms(c)
DAV:   1    -0.123975464044E+03   -0.15466E-02   -0.89197E+01  3648   0.350E+01    0.169E+00
DAV:   2    -0.123960605356E+03    0.14859E-01   -0.10870E+00  4704   0.411E+00    0.104E+00
DAV:   3    -0.123944983665E+03    0.15622E-01   -0.12313E-01  6288   0.118E+00    0.273E-01
DAV:   4    -0.123945019044E+03   -0.35378E-04   -0.12187E-02  6000   0.388E-01    0.111E-01
DAV:   5    -0.123944853148E+03    0.16590E-03   -0.67195E-04  6576   0.796E-02    0.225E-02
DAV:   6    -0.123944837057E+03    0.16091E-04   -0.96640E-05  4656   0.279E-02    0.102E-02
DAV:   7    -0.123944871088E+03   -0.34031E-04   -0.21096E-05  5088   0.134E-02    0.534E-03
DAV:   8    -0.123944897090E+03   -0.26002E-04   -0.37355E-06  4752   0.500E-03    0.490E-03
DAV:   9    -0.123944923961E+03   -0.26871E-04   -0.36787E-06  5136   0.415E-03    0.222E-03
DAV:  10    -0.123944944679E+03   -0.20718E-04   -0.31573E-06  5088   0.346E-03    0.144E-03
DAV:  11    -0.123944952529E+03   -0.78502E-05   -0.82649E-07  5856   0.172E-03    0.111E-03
DAV:  12    -0.123944958520E+03   -0.59905E-05   -0.74536E-07  5760   0.174E-03    0.474E-04
DAV:  13    -0.123944960536E+03   -0.20166E-05   -0.12346E-07  6240   0.762E-04    0.230E-04
DAV:  14    -0.123944961414E+03   -0.87776E-06   -0.38680E-08  5808   0.428E-04
  35 F= -.12573918E+03 E0= -.12573585E+03  d E =-.766528E-01  mag=     0.0000
       N       E                     dE             d eps       ncg     rms          rms(c)
DAV:   1    -0.123990547513E+03   -0.45587E-01   -0.29533E+02  3648   0.636E+01    0.307E+00
DAV:   2    -0.123959925523E+03    0.30622E-01   -0.37937E+00  5088   0.779E+00    0.190E+00
DAV:   3    -0.123905447309E+03    0.54478E-01   -0.37077E-01  6624   0.205E+00    0.556E-01
DAV:   4    -0.123905743872E+03   -0.29656E-03   -0.34159E-02  5952   0.661E-01    0.207E-01
DAV:   5    -0.123904975644E+03    0.76823E-03   -0.26908E-03  6816   0.144E-01    0.410E-02
DAV:   6    -0.123904904358E+03    0.71286E-04   -0.30263E-04  4416   0.521E-02    0.187E-02
DAV:   7    -0.123904991436E+03   -0.87078E-04   -0.14237E-04  5760   0.346E-02    0.123E-02
DAV:   8    -0.123905055953E+03   -0.64517E-04   -0.18279E-05  4656   0.118E-02    0.775E-03
DAV:   9    -0.123905109734E+03   -0.53780E-04   -0.10146E-05  5664   0.787E-03    0.380E-03
DAV:  10    -0.123905144486E+03   -0.34753E-04   -0.65357E-06  5376   0.514E-03    0.251E-03
DAV:  11    -0.123905164559E+03   -0.20072E-04   -0.46599E-06  4992   0.427E-03    0.152E-03
DAV:  12    -0.123905169791E+03   -0.52325E-05   -0.74922E-07  6720   0.199E-03    0.698E-04
DAV:  13    -0.123905172156E+03   -0.23647E-05   -0.22214E-07  5568   0.129E-03    0.349E-04
DAV:  14    -0.123905173077E+03   -0.92164E-06   -0.73282E-08  6240   0.811E-04
  36 F= -.12576587E+03 E0= -.12576334E+03  d E =-.266941E-01  mag=    -0.0000
       N       E                     dE             d eps       ncg     rms          rms(c)
DAV:   1    -0.123896129953E+03    0.90422E-02   -0.24720E+01  3648   0.184E+01    0.895E-01
DAV:   2    -0.123890776350E+03    0.53536E-02   -0.29085E-01  5280   0.213E+00    0.542E-01
DAV:   3    -0.123886425179E+03    0.43512E-02   -0.34169E-02  6240   0.620E-01    0.139E-01
DAV:   4    -0.123886400515E+03    0.24664E-04   -0.36279E-03  6240   0.210E-01    0.574E-02
DAV:   5    -0.123886350725E+03    0.49789E-04   -0.17249E-04  6624   0.445E-02    0.111E-02
DAV:   6    -0.123886344452E+03    0.62737E-05   -0.27197E-05  4560   0.157E-02    0.547E-03
DAV:   7    -0.123886354112E+03   -0.96602E-05   -0.82222E-06  5664   0.870E-03    0.296E-03
DAV:   8    -0.123886362477E+03   -0.83651E-05   -0.16679E-06  4800   0.377E-03    0.262E-03
DAV:   9    -0.123886373553E+03   -0.11076E-04   -0.12155E-06  5280   0.254E-03    0.123E-03
DAV:  10    -0.123886384733E+03   -0.11181E-04   -0.15205E-06  5568   0.236E-03    0.709E-04
DAV:  11    -0.123886389593E+03   -0.48595E-05   -0.54668E-07  5952   0.159E-03    0.454E-04
DAV:  12    -0.123886391505E+03   -0.19121E-05   -0.21815E-07  6480   0.144E-03    0.249E-04
DAV:  13    -0.123886392175E+03   -0.66995E-06   -0.67150E-08  5760   0.950E-04
  37 F= -.12576752E+03 E0= -.12576532E+03  d E =-.283369E-01  mag=    -0.0000
       N       E                     dE             d eps       ncg     rms          rms(c)
DAV:   1    -0.123921180699E+03   -0.34789E-01   -0.72160E-01  3648   0.321E+00    0.162E-01
DAV:   2    -0.123921008820E+03    0.17188E-03   -0.99448E-03  5376   0.397E-01    0.102E-01
DAV:   3    -0.123920890183E+03    0.11864E-03   -0.13434E-03  5520   0.129E-01    0.357E-02
DAV:   4    -0.123920887715E+03    0.24674E-05   -0.26115E-04  5136   0.544E-02    0.210E-02
DAV:   5    -0.123920888524E+03   -0.80884E-06   -0.12828E-05  5184   0.150E-02    0.582E-03
DAV:   6    -0.123920888442E+03    0.82474E-07   -0.36389E-06  6672   0.653E-03
  38 F= -.12579910E+03 E0= -.12579689E+03  d E =-.315882E-01  mag=    -0.0000
       N       E                     dE             d eps       ncg     rms          rms(c)
DAV:   1    -0.124003847447E+03   -0.82959E-01   -0.64971E+00  3648   0.963E+00    0.488E-01
DAV:   2    -0.124002216117E+03    0.16313E-02   -0.87908E-02  6816   0.118E+00    0.304E-01
DAV:   3    -0.124000953563E+03    0.12626E-02   -0.10700E-02  5664   0.360E-01    0.103E-01
DAV:   4    -0.124000924252E+03    0.29311E-04   -0.20792E-03  5088   0.154E-01    0.588E-02
DAV:   5    -0.124000926111E+03   -0.18588E-05   -0.92712E-05  4704   0.406E-02    0.192E-02
DAV:   6    -0.124000926167E+03   -0.56575E-07   -0.38189E-05  4944   0.207E-02    0.725E-03
DAV:   7    -0.124000926755E+03   -0.58792E-06   -0.29057E-06  4032   0.639E-03
  39 F= -.12587031E+03 E0= -.12586802E+03  d E =-.102795E+00  mag=     0.0000
       N       E                     dE             d eps       ncg     rms          rms(c)
DAV:   1    -0.124067676906E+03   -0.66751E-01   -0.25975E+01  3648   0.192E+01    0.977E-01
DAV:   2    -0.124061378428E+03    0.62985E-02   -0.35627E-01  6432   0.239E+00    0.607E-01
DAV:   3    -0.124056562281E+03    0.48161E-02   -0.44308E-02  5664   0.731E-01    0.209E-01
DAV:   4    -0.124056394870E+03    0.16741E-03   -0.84975E-03  5088   0.311E-01    0.120E-01
DAV:   5    -0.124056363610E+03    0.31260E-04   -0.41660E-04  5472   0.850E-02    0.374E-02
DAV:   6    -0.124056359022E+03    0.45879E-05   -0.14003E-04  4416   0.401E-02    0.143E-02
DAV:   7    -0.124056361134E+03   -0.21113E-05   -0.12006E-05  4128   0.130E-02    0.805E-03
DAV:   8    -0.124056369411E+03   -0.82772E-05   -0.77495E-06  4320   0.977E-03    0.193E-03
DAV:   9    -0.124056376961E+03   -0.75504E-05   -0.19362E-06  4464   0.623E-03    0.294E-03
DAV:  10    -0.124056386170E+03   -0.92083E-05   -0.12148E-06  5904   0.441E-03    0.181E-03
DAV:  11    -0.124056398130E+03   -0.11960E-04   -0.12150E-06  5952   0.351E-03    0.740E-04
DAV:  12    -0.124056401403E+03   -0.32738E-05   -0.18132E-07  6096   0.200E-03    0.500E-04
DAV:  13    -0.124056407221E+03   -0.58173E-05   -0.28464E-07  5568   0.183E-03    0.278E-04
DAV:  14    -0.124056408067E+03   -0.84684E-06   -0.33681E-08  6336   0.760E-04
  40 F= -.12590770E+03 E0= -.12590529E+03  d E =-.140181E+00  mag=     0.0000
       N       E                     dE             d eps       ncg     rms          rms(c)
DAV:   1    -0.124056494428E+03   -0.87207E-04   -0.13942E+00  3648   0.446E+00    0.225E-01
DAV:   2    -0.124056194646E+03    0.29978E-03   -0.19412E-02  6720   0.552E-01    0.141E-01
DAV:   3    -0.124055926375E+03    0.26827E-03   -0.23438E-03  5760   0.169E-01    0.475E-02
DAV:   4    -0.124055916801E+03    0.95737E-05   -0.47671E-04  5856   0.731E-02    0.273E-02
DAV:   5    -0.124055915313E+03    0.14881E-05   -0.22297E-05  5520   0.194E-02    0.888E-03
DAV:   6    -0.124055914391E+03    0.92230E-06   -0.80006E-06  6720   0.946E-03
  41 F= -.12591144E+03 E0= -.12590905E+03  d E =-.143924E+00  mag=     0.0000
       N       E                     dE             d eps       ncg     rms          rms(c)
DAV:   1    -0.124056282625E+03   -0.36731E-03   -0.17934E-03  3840   0.134E-01    0.126E-02
DAV:   2    -0.124056278155E+03    0.44702E-05   -0.37579E-05  6912   0.179E-02    0.590E-03
DAV:   3    -0.124056278085E+03    0.69409E-07   -0.40985E-06  5472   0.506E-03
  42 F= -.12591182E+03 E0= -.12590947E+03  d E =-.383311E-03  mag=     0.0000
       N       E                     dE             d eps       ncg     rms          rms(c)
DAV:   1    -0.124057241111E+03   -0.96296E-03   -0.16097E-02  3840   0.402E-01    0.378E-02
DAV:   2    -0.124057193904E+03    0.47206E-04   -0.33868E-04  7104   0.534E-02    0.178E-02
DAV:   3    -0.124057186294E+03    0.76105E-05   -0.37161E-05  4992   0.154E-02    0.565E-03
DAV:   4    -0.124057186633E+03   -0.33935E-06   -0.34307E-06  6144   0.529E-03
  43 F= -.12591279E+03 E0= -.12591053E+03  d E =-.135064E-02  mag=    -0.0000
       N       E                     dE             d eps       ncg     rms          rms(c)
DAV:   1    -0.124058404452E+03   -0.12182E-02   -0.64389E-02  3648   0.804E-01    0.751E-02
DAV:   2    -0.124058215461E+03    0.18899E-03   -0.13424E-03  7296   0.107E-01    0.352E-02
DAV:   3    -0.124058182074E+03    0.33386E-04   -0.14691E-04  4512   0.306E-02    0.111E-02
DAV:   4    -0.124058181493E+03    0.58126E-06   -0.13502E-05  5952   0.106E-02    0.339E-03
DAV:   5    -0.124058181730E+03   -0.23753E-06   -0.39675E-07  5376   0.209E-03
  44 F= -.12591390E+03 E0= -.12591182E+03  d E =-.246295E-02  mag=     0.0000
       N       E                     dE             d eps       ncg     rms          rms(c)
DAV:   1    -0.124057745867E+03    0.43563E-03   -0.25781E-01  3648   0.161E+00    0.150E-01
DAV:   2    -0.124056990330E+03    0.75554E-03   -0.53187E-03  7008   0.213E-01    0.705E-02
DAV:   3    -0.124056854296E+03    0.13603E-03   -0.60694E-04  5664   0.619E-02    0.220E-02
DAV:   4    -0.124056850570E+03    0.37259E-05   -0.50523E-05  5568   0.206E-02    0.679E-03
DAV:   5    -0.124056851140E+03   -0.56966E-06   -0.16999E-06  5568   0.431E-03
  45 F= -.12591281E+03 E0= -.12591100E+03  d E =-.136535E-02  mag=    -0.0000
       N       E                     dE             d eps       ncg     rms          rms(c)
DAV:   1    -0.124058773643E+03   -0.19231E-02   -0.14487E-01  3648   0.121E+00    0.113E-01
DAV:   2    -0.124058344298E+03    0.42935E-03   -0.30057E-03  6720   0.160E-01    0.529E-02
DAV:   3    -0.124058268224E+03    0.76074E-04   -0.34048E-04  4896   0.467E-02    0.166E-02
DAV:   4    -0.124058266658E+03    0.15661E-05   -0.30563E-05  5760   0.159E-02    0.509E-03
DAV:   5    -0.124058266935E+03   -0.27737E-06   -0.95419E-07  5568   0.331E-03
  46 F= -.12591405E+03 E0= -.12591204E+03  d E =-.260634E-02  mag=     0.0000
       N       E                     dE             d eps       ncg     rms          rms(c)
DAV:   1    -0.124058861518E+03   -0.59486E-03   -0.73297E-03  3648   0.298E-01    0.177E-02
DAV:   2    -0.124058857879E+03    0.36389E-05   -0.46755E-05  5760   0.250E-02    0.102E-02
DAV:   3    -0.124058856666E+03    0.12122E-05   -0.87111E-06  5184   0.852E-03    0.235E-03
DAV:   4    -0.124058856753E+03   -0.86899E-07   -0.84520E-07  4320   0.355E-03
  47 F= -.12591471E+03 E0= -.12591270E+03  d E =-.658755E-03  mag=     0.0000
       N       E                     dE             d eps       ncg     rms          rms(c)
DAV:   1    -0.124060482529E+03   -0.16259E-02   -0.65960E-02  3648   0.893E-01    0.534E-02
DAV:   2    -0.124060450833E+03    0.31696E-04   -0.41467E-04  6912   0.743E-02    0.306E-02
DAV:   3    -0.124060439844E+03    0.10989E-04   -0.77464E-05  4992   0.250E-02    0.688E-03
DAV:   4    -0.124060440048E+03   -0.20381E-06   -0.73152E-06  4656   0.977E-03
  48 F= -.12591650E+03 E0= -.12591449E+03  d E =-.244875E-02  mag=     0.0000
       N       E                     dE             d eps       ncg     rms          rms(c)
DAV:   1    -0.124062948397E+03   -0.25086E-02   -0.26367E-01  3648   0.179E+00    0.107E-01
DAV:   2    -0.124062826344E+03    0.12205E-03   -0.16455E-03  7008   0.148E-01    0.612E-02
DAV:   3    -0.124062781383E+03    0.44961E-04   -0.31293E-04  5184   0.500E-02    0.135E-02
DAV:   4    -0.124062781474E+03   -0.91063E-07   -0.29045E-05  5184   0.194E-02    0.572E-03
DAV:   5    -0.124062781810E+03   -0.33541E-06   -0.13660E-06  5808   0.484E-03
  49 F= -.12591925E+03 E0= -.12591726E+03  d E =-.520323E-02  mag=    -0.0000
       N       E                     dE             d eps       ncg     rms          rms(c)
DAV:   1    -0.124064892372E+03   -0.21109E-02   -0.10540E+00  3648   0.357E+00    0.213E-01
DAV:   2    -0.124064402526E+03    0.48985E-03   -0.64670E-03  7008   0.294E-01    0.122E-01
DAV:   3    -0.124064214697E+03    0.18783E-03   -0.12712E-03  4992   0.100E-01    0.262E-02
DAV:   4    -0.124064214431E+03    0.26605E-06   -0.11898E-04  5472   0.391E-02    0.113E-02
DAV:   5    -0.124064215816E+03   -0.13851E-05   -0.53318E-06  5616   0.980E-03    0.489E-03
DAV:   6    -0.124064216673E+03   -0.85729E-06   -0.19465E-06  5280   0.620E-03
  50 F= -.12592151E+03 E0= -.12591956E+03  d E =-.746216E-02  mag=     0.0000
       N       E                     dE             d eps       ncg     rms          rms(c)
DAV:   1    -0.124065054386E+03   -0.83857E-03   -0.22927E-02  3648   0.563E-01    0.333E-02
DAV:   2    -0.124065041902E+03    0.12484E-04   -0.22790E-04  6000   0.595E-02    0.185E-02
DAV:   3    -0.124065038581E+03    0.33211E-05   -0.31425E-05  4896   0.193E-02    0.600E-03
DAV:   4    -0.124065039066E+03   -0.48537E-06   -0.49350E-06  4704   0.912E-03
  51 F= -.12592246E+03 E0= -.12592051E+03  d E =-.954747E-03  mag=    -0.0000
       N       E                     dE             d eps       ncg     rms          rms(c)
DAV:   1    -0.124066675287E+03   -0.16367E-02   -0.20641E-01  3648   0.169E+00    0.100E-01
DAV:   2    -0.124066559524E+03    0.11576E-03   -0.20356E-03  6432   0.177E-01    0.557E-02
DAV:   3    -0.124066522548E+03    0.36976E-04   -0.26064E-04  4896   0.545E-02    0.178E-02
DAV:   4    -0.124066522510E+03    0.37878E-07   -0.37554E-05  5232   0.224E-02    0.713E-03
DAV:   5    -0.124066523141E+03   -0.63143E-06   -0.23299E-06  4656   0.748E-03
  52 F= -.12592434E+03 E0= -.12592236E+03  d E =-.283264E-02  mag=    -0.0000
       N       E                     dE             d eps       ncg     rms          rms(c)
DAV:   1    -0.124065631259E+03    0.89125E-03   -0.82745E-01  3648   0.338E+00    0.202E-01
DAV:   2    -0.124065147576E+03    0.48368E-03   -0.83175E-03  7008   0.356E-01    0.111E-01
DAV:   3    -0.124064992997E+03    0.15458E-03   -0.10119E-03  5424   0.107E-01    0.360E-02
DAV:   4    -0.124064992004E+03    0.99306E-06   -0.13909E-04  5088   0.432E-02    0.140E-02
DAV:   5    -0.124064993982E+03   -0.19780E-05   -0.91446E-06  4848   0.148E-02    0.539E-03
DAV:   6    -0.124064996881E+03   -0.28988E-05   -0.79004E-06  4368   0.135E-02    0.200E-03
DAV:   7    -0.124064993304E+03    0.35769E-05   -0.41504E-06  5184   0.977E-03    0.783E-04
DAV:   8    -0.124064993456E+03   -0.15192E-06   -0.32129E-07  6144   0.275E-03
  53 F= -.12592359E+03 E0= -.12592155E+03  d E =-.207785E-02  mag=    -0.0000
       N       E                     dE             d eps       ncg     rms          rms(c)
DAV:   1    -0.124066915520E+03   -0.19222E-02   -0.32631E-01  3648   0.212E+00    0.127E-01
DAV:   2    -0.124066720528E+03    0.19499E-03   -0.32907E-03  6048   0.224E-01    0.699E-02
DAV:   3    -0.124066662371E+03    0.58157E-04   -0.42994E-04  5328   0.697E-02    0.228E-02
DAV:   4    -0.124066662649E+03   -0.27804E-06   -0.58984E-05  5568   0.266E-02    0.916E-03
DAV:   5    -0.124066663933E+03   -0.12841E-05   -0.21054E-06  5232   0.578E-03    0.341E-03
DAV:   6    -0.124066664103E+03   -0.16914E-06   -0.53862E-07  5136   0.249E-03
  54 F= -.12592477E+03 E0= -.12592277E+03  d E =-.326389E-02  mag=    -0.0000
       N       E                     dE             d eps       ncg     rms          rms(c)
DAV:   1    -0.124066757093E+03   -0.93160E-04   -0.24351E-03  4224   0.195E-01    0.145E-02
DAV:   2    -0.124066750182E+03    0.69115E-05   -0.64431E-05  6048   0.288E-02    0.661E-03
DAV:   3    -0.124066749627E+03    0.55447E-06   -0.45511E-06  4848   0.782E-03
  55 F= -.12592490E+03 E0= -.12592290E+03  d E =-.125208E-03  mag=     0.0000
       N       E                     dE             d eps       ncg     rms          rms(c)
DAV:   1    -0.124066807827E+03   -0.57645E-04   -0.10949E-02  3744   0.413E-01    0.312E-02
DAV:   2    -0.124066777339E+03    0.30487E-04   -0.29396E-04  6288   0.618E-02    0.145E-02
DAV:   3    -0.124066774566E+03    0.27733E-05   -0.20499E-05  4656   0.166E-02    0.621E-03
DAV:   4    -0.124066774567E+03   -0.12997E-08   -0.34793E-06  4752   0.639E-03
  56 F= -.12592501E+03 E0= -.12592302E+03  d E =-.233974E-03  mag=     0.0000
       N       E                     dE             d eps       ncg     rms          rms(c)
DAV:   1    -0.124066793956E+03   -0.19390E-04   -0.20066E-03  3744   0.176E-01    0.784E-03
DAV:   2    -0.124066793610E+03    0.34585E-06   -0.14318E-05  4128   0.162E-02    0.475E-03
DAV:   3    -0.124066793691E+03   -0.81127E-07   -0.21466E-06  4320   0.536E-03
  57 F= -.12592508E+03 E0= -.12592311E+03  d E =-.718519E-04  mag=     0.0000
       N       E                     dE             d eps       ncg     rms          rms(c)
DAV:   1    -0.124066800707E+03   -0.70971E-05   -0.18105E-02  3648   0.527E-01    0.236E-02
DAV:   2    -0.124066799105E+03    0.16024E-05   -0.13032E-04  4608   0.486E-02    0.142E-02
DAV:   3    -0.124066798107E+03    0.99780E-06   -0.19019E-05  4800   0.152E-02    0.250E-03
DAV:   4    -0.124066798279E+03   -0.17206E-06   -0.21416E-06  4752   0.599E-03
  58 F= -.12592524E+03 E0= -.12592332E+03  d E =-.234823E-03  mag=     0.0000
       N       E                     dE             d eps       ncg     rms          rms(c)
DAV:   1    -0.124066584108E+03    0.21400E-03   -0.72291E-02  3648   0.105E+00    0.468E-02
DAV:   2    -0.124066578731E+03    0.53773E-05   -0.52027E-04  5136   0.968E-02    0.282E-02
DAV:   3    -0.124066573459E+03    0.52722E-05   -0.74771E-05  4896   0.299E-02    0.496E-03
DAV:   4    -0.124066573900E+03   -0.44090E-06   -0.82413E-06  4512   0.119E-02
  59 F= -.12592533E+03 E0= -.12592349E+03  d E =-.328112E-03  mag=    -0.0000
       N       E                     dE             d eps       ncg     rms          rms(c)
DAV:   1    -0.124066488502E+03    0.84956E-04   -0.85526E-03  3744   0.347E-01    0.182E-02
DAV:   2    -0.124066484286E+03    0.42161E-05   -0.79638E-05  4176   0.355E-02    0.102E-02
DAV:   3    -0.124066483933E+03    0.35363E-06   -0.12286E-05  5040   0.134E-02    0.268E-03
DAV:   4    -0.124066484408E+03   -0.47539E-06   -0.43134E-06  4224   0.103E-02
  60 F= -.12592543E+03 E0= -.12592360E+03  d E =-.949379E-04  mag=     0.0000
       N       E                     dE             d eps       ncg     rms          rms(c)
DAV:   1    -0.124066126320E+03    0.35761E-03   -0.62547E-02  3648   0.939E-01    0.493E-02
DAV:   2    -0.124066098070E+03    0.28250E-04   -0.57128E-04  5760   0.928E-02    0.273E-02
DAV:   3    -0.124066088076E+03    0.99938E-05   -0.71733E-05  5664   0.270E-02    0.685E-03
DAV:   4    -0.124066088818E+03   -0.74224E-06   -0.73908E-06  3888   0.118E-02
  61 F= -.12592553E+03 E0= -.12592374E+03  d E =-.198928E-03  mag=     0.0000
       N       E                     dE             d eps       ncg     rms          rms(c)
DAV:   1    -0.124065999841E+03    0.88236E-04   -0.13134E-02  4032   0.432E-01    0.211E-02
DAV:   2    -0.124065996854E+03    0.29863E-05   -0.10650E-04  4608   0.428E-02    0.124E-02
DAV:   3    -0.124065996658E+03    0.19590E-06   -0.16904E-05  4992   0.169E-02    0.304E-03
DAV:   4    -0.124065997026E+03   -0.36794E-06   -0.75862E-06  3648   0.138E-02
  62 F= -.12592569E+03 E0= -.12592394E+03  d E =-.153380E-03  mag=    -0.0000
       N       E                     dE             d eps       ncg     rms          rms(c)
DAV:   1    -0.124065502384E+03    0.49427E-03   -0.11792E-01  3648   0.130E+00    0.630E-02
DAV:   2    -0.124065486184E+03    0.16200E-04   -0.96222E-04  6624   0.126E-01    0.369E-02
DAV:   3    -0.124065468921E+03    0.17263E-04   -0.11499E-04  5088   0.360E-02    0.855E-03
DAV:   4    -0.124065469624E+03   -0.70299E-06   -0.13417E-05  4032   0.157E-02    0.335E-03
DAV:   5    -0.124065470120E+03   -0.49603E-06   -0.31819E-06  4848   0.872E-03
  63 F= -.12592590E+03 E0= -.12592425E+03  d E =-.362594E-03  mag=     0.0000
       N       E                     dE             d eps       ncg     rms          rms(c)
DAV:   1    -0.124065236288E+03    0.23334E-03   -0.28633E-02  3840   0.655E-01    0.316E-02
DAV:   2    -0.124065228193E+03    0.80944E-05   -0.26256E-04  4416   0.677E-02    0.186E-02
DAV:   3    -0.124065225311E+03    0.28826E-05   -0.38756E-05  5184   0.232E-02    0.555E-03
DAV:   4    -0.124065225702E+03   -0.39114E-06   -0.75095E-06  3984   0.127E-02
  64 F= -.12592603E+03 E0= -.12592440E+03  d E =-.132387E-03  mag=    -0.0000
       N       E                     dE             d eps       ncg     rms          rms(c)
DAV:   1    -0.124065067181E+03    0.15813E-03   -0.61879E-03  4032   0.305E-01    0.150E-02
DAV:   2    -0.124065065219E+03    0.19613E-05   -0.58172E-05  4560   0.324E-02    0.889E-03
DAV:   3    -0.124065065111E+03    0.10878E-06   -0.91545E-06  4368   0.128E-02
  65 F= -.12592604E+03 E0= -.12592442E+03  d E =-.147003E-03  mag=     0.0000
       N       E                     dE             d eps       ncg     rms          rms(c)
DAV:   1    -0.124064790200E+03    0.27502E-03   -0.28107E-02  3648   0.649E-01    0.309E-02
DAV:   2    -0.124064785056E+03    0.51434E-05   -0.25504E-04  4944   0.671E-02    0.184E-02
DAV:   3    -0.124064782973E+03    0.20830E-05   -0.36072E-05  5088   0.233E-02    0.465E-03
DAV:   4    -0.124064783419E+03   -0.44573E-06   -0.96221E-06  3840   0.156E-02
  66 F= -.12592615E+03 E0= -.12592454E+03  d E =-.105206E-03  mag=     0.0000
       N       E                     dE             d eps       ncg     rms          rms(c)
DAV:   1    -0.124064595126E+03    0.18785E-03   -0.76891E-03  3840   0.340E-01    0.164E-02
DAV:   2    -0.124064593613E+03    0.15133E-05   -0.71870E-05  4944   0.359E-02    0.982E-03
DAV:   3    -0.124064593474E+03    0.13931E-06   -0.10456E-05  4608   0.134E-02    0.263E-03
DAV:   4    -0.124064593682E+03   -0.20851E-06   -0.40180E-06  3936   0.102E-02
  67 F= -.12592616E+03 E0= -.12592456E+03  d E =-.117899E-03  mag=     0.0000
       N       E                     dE             d eps       ncg     rms          rms(c)
DAV:   1    -0.124064487746E+03    0.10573E-03   -0.32073E-03  3840   0.221E-01    0.129E-02
DAV:   2    -0.124064483881E+03    0.38647E-05   -0.49566E-05  5328   0.266E-02    0.685E-03
DAV:   3    -0.124064483326E+03    0.55459E-06   -0.45375E-06  4224   0.794E-03
  68 F= -.12592619E+03 E0= -.12592460E+03  d E =-.276299E-04  mag=    -0.0000
       N       E                     dE             d eps       ncg     rms          rms(c)
DAV:   1    -0.124064429785E+03    0.54096E-04   -0.55466E-04  4224   0.919E-02    0.577E-03
DAV:   2    -0.124064428966E+03    0.81898E-06   -0.89302E-06  4128   0.121E-02
  69 F= -.12592619E+03 E0= -.12592460E+03  d E =-.305914E-04  mag=    -0.0000
       N       E                     dE             d eps       ncg     rms          rms(c)
DAV:   1    -0.124064319662E+03    0.11012E-03   -0.16365E-03  3648   0.156E-01    0.866E-03
DAV:   2    -0.124064318465E+03    0.11964E-05   -0.23740E-05  3840   0.200E-02    0.498E-03
DAV:   3    -0.124064318449E+03    0.15978E-07   -0.32307E-06  3840   0.777E-03
  70 F= -.12592621E+03 E0= -.12592462E+03  d E =-.162851E-04  mag=     0.0000
       N       E                     dE             d eps       ncg     rms          rms(c)
DAV:   1    -0.124064183338E+03    0.13513E-03   -0.21391E-03  3648   0.178E-01    0.968E-03
DAV:   2    -0.124064181847E+03    0.14910E-05   -0.29981E-05  3648   0.228E-02    0.555E-03
DAV:   3    -0.124064181851E+03   -0.45120E-08   -0.43128E-06  3840   0.911E-03
  71 F= -.12592622E+03 E0= -.12592463E+03  d E =-.237787E-04  mag=    -0.0000
       N       E                     dE             d eps       ncg     rms          rms(c)
DAV:   1    -0.124064096339E+03    0.85508E-04   -0.76189E-04  3648   0.106E-01    0.524E-03
DAV:   2    -0.124064095979E+03    0.35991E-06   -0.96332E-06  3648   0.144E-02
  72 F= -.12592623E+03 E0= -.12592465E+03  d E =-.113513E-04  mag=    -0.0000
       N       E                     dE             d eps       ncg     rms          rms(c)
DAV:   1    -0.124063830137E+03    0.26620E-03   -0.67234E-03  3648   0.313E-01    0.152E-02
DAV:   2    -0.124063829127E+03    0.10104E-05   -0.75644E-05  3744   0.368E-02    0.946E-03
DAV:   3    -0.124063829333E+03   -0.20620E-06   -0.11085E-05  5280   0.146E-02    0.266E-03
DAV:   4    -0.124063829534E+03   -0.20091E-06   -0.48491E-06  3648   0.112E-02
  73 F= -.12592625E+03 E0= -.12592467E+03  d E =-.366339E-04  mag=    -0.0000
       N       E                     dE             d eps       ncg     rms          rms(c)
DAV:   1    -0.124063255527E+03    0.57381E-03   -0.27241E-02  3648   0.629E-01    0.297E-02
DAV:   2    -0.124063252569E+03    0.29574E-05   -0.29231E-04  3840   0.705E-02    0.182E-02
DAV:   3    -0.124063249821E+03    0.27482E-05   -0.35589E-05  5232   0.224E-02    0.504E-03
DAV:   4    -0.124063250010E+03   -0.18921E-06   -0.64112E-06  4512   0.112E-02
  74 F= -.12592626E+03 E0= -.12592468E+03  d E =-.408601E-04  mag=    -0.0000
       N       E                     dE             d eps       ncg     rms          rms(c)
DAV:   1    -0.124063489737E+03   -0.23992E-03   -0.43706E-03  3648   0.252E-01    0.114E-02
DAV:   2    -0.124063489596E+03    0.14037E-06   -0.51105E-05  4944   0.298E-02    0.701E-03
DAV:   3    -0.124063489511E+03    0.85283E-07   -0.60928E-06  3648   0.106E-02
  75 F= -.12592626E+03 E0= -.12592468E+03  d E =-.460476E-04  mag=     0.0000
       N       E                     dE             d eps       ncg     rms          rms(c)
DAV:   1    -0.124063391625E+03    0.97972E-04   -0.84765E-04  3648   0.111E-01    0.477E-03
DAV:   2    -0.124063391316E+03    0.30910E-06   -0.12428E-05  3744   0.157E-02    0.301E-03
DAV:   3    -0.124063391434E+03   -0.11820E-06   -0.21316E-06  3840   0.723E-03
  76 F= -.12592627E+03 E0= -.12592469E+03  d E =-.103528E-04  mag=    -0.0000
       N       E                     dE             d eps       ncg     rms          rms(c)
DAV:   1    -0.124063089951E+03    0.30137E-03   -0.77100E-03  3648   0.333E-01    0.159E-02
DAV:   2    -0.124063088714E+03    0.12362E-05   -0.88541E-05  3648   0.389E-02    0.983E-03
DAV:   3    -0.124063088158E+03    0.55670E-06   -0.10577E-05  3792   0.132E-02    0.292E-03
DAV:   4    -0.124063088479E+03   -0.32114E-06   -0.31412E-06  3648   0.854E-03
  77 F= -.12592629E+03 E0= -.12592472E+03  d E =-.327651E-04  mag=     0.0000
       N       E                     dE             d eps       ncg     rms          rms(c)
DAV:   1    -0.124062450843E+03    0.63731E-03   -0.30848E-02  3648   0.666E-01    0.315E-02
DAV:   2    -0.124062446395E+03    0.44483E-05   -0.34971E-04  3744   0.763E-02    0.194E-02
DAV:   3    -0.124062443296E+03    0.30994E-05   -0.40407E-05  5376   0.239E-02    0.557E-03
DAV:   4    -0.124062443541E+03   -0.24582E-06   -0.67950E-06  4320   0.114E-02
  78 F= -.12592630E+03 E0= -.12592473E+03  d E =-.389104E-04  mag=     0.0000
       N       E                     dE             d eps       ncg     rms          rms(c)
DAV:   1    -0.124062684143E+03   -0.24085E-03   -0.40490E-03  3648   0.242E-01    0.110E-02
DAV:   2    -0.124062683736E+03    0.40760E-06   -0.50958E-05  4752   0.298E-02    0.686E-03
DAV:   3    -0.124062683799E+03   -0.62979E-07   -0.60184E-06  3744   0.109E-02
  79 F= -.12592630E+03 E0= -.12592473E+03  d E =-.428862E-04  mag=     0.0000
       N       E                     dE             d eps       ncg     rms          rms(c)
DAV:   1    -0.124062485469E+03    0.19827E-03   -0.33711E-03  3648   0.219E-01    0.999E-03
DAV:   2    -0.124062484430E+03    0.10383E-05   -0.42811E-05  3648   0.277E-02    0.615E-03
DAV:   3    -0.124062484653E+03   -0.22216E-06   -0.68626E-06  4272   0.119E-02
  80 F= -.12592632E+03 E0= -.12592475E+03  d E =-.197957E-04  mag=    -0.0000
       N       E                     dE             d eps       ncg     rms          rms(c)
DAV:   1    -0.124061950923E+03    0.53351E-03   -0.23155E-02  3648   0.573E-01    0.279E-02
DAV:   2    -0.124061945368E+03    0.55551E-05   -0.25969E-04  4128   0.662E-02    0.169E-02
DAV:   3    -0.124061943732E+03    0.16356E-05   -0.33788E-05  4224   0.229E-02    0.440E-03
DAV:   4    -0.124061944631E+03   -0.89912E-06   -0.10214E-05  3744   0.155E-02    0.196E-03
DAV:   5    -0.124061943493E+03    0.11377E-05   -0.46925E-06  3648   0.106E-02    0.979E-04
DAV:   6    -0.124061942904E+03    0.58912E-06   -0.89914E-07  5088   0.452E-03
  81 F= -.12592635E+03 E0= -.12592479E+03  d E =-.497310E-04  mag=    -0.0000
       N       E                     dE             d eps       ncg     rms          rms(c)
DAV:   1    -0.124060806634E+03    0.11369E-02   -0.92457E-02  3648   0.114E+00    0.552E-02
DAV:   2    -0.124060783664E+03    0.22970E-04   -0.10090E-03  4128   0.126E-01    0.330E-02
DAV:   3    -0.124060771116E+03    0.12548E-04   -0.12583E-04  4992   0.391E-02    0.837E-03
DAV:   4    -0.124060771867E+03   -0.75144E-06   -0.16545E-05  5616   0.138E-02    0.326E-03
DAV:   5    -0.124060771979E+03   -0.11208E-06   -0.69584E-07  5232   0.309E-03
  82 F= -.12592633E+03 E0= -.12592478E+03  d E =-.237608E-04  mag=    -0.0000
       N       E                     dE             d eps       ncg     rms          rms(c)
DAV:   1    -0.124061653300E+03   -0.88143E-03   -0.48953E-02  3648   0.833E-01    0.401E-02
DAV:   2    -0.124061642829E+03    0.10470E-04   -0.55089E-04  5088   0.928E-02    0.241E-02
DAV:   3    -0.124061636529E+03    0.63004E-05   -0.64523E-05  6528   0.273E-02    0.602E-03
DAV:   4    -0.124061637059E+03   -0.53016E-06   -0.69217E-06  4512   0.987E-03
  83 F= -.12592636E+03 E0= -.12592480E+03  d E =-.545415E-04  mag=     0.0000
       N       E                     dE             d eps       ncg     rms          rms(c)
DAV:   1    -0.124061390027E+03    0.24650E-03   -0.49195E-03  3744   0.264E-01    0.125E-02
DAV:   2    -0.124061388638E+03    0.13894E-05   -0.58915E-05  4128   0.310E-02    0.773E-03
DAV:   3    -0.124061388182E+03    0.45565E-06   -0.75997E-06  5088   0.104E-02
  84 F= -.12592638E+03 E0= -.12592482E+03  d E =-.193609E-04  mag=     0.0000
       N       E                     dE             d eps       ncg     rms          rms(c)
DAV:   1    -0.124060973438E+03    0.41520E-03   -0.13065E-02  3648   0.430E-01    0.212E-02
DAV:   2    -0.124060969620E+03    0.38176E-05   -0.14540E-04  3648   0.494E-02    0.130E-02
DAV:   3    -0.124060968591E+03    0.10297E-05   -0.20321E-05  5376   0.169E-02    0.352E-03
DAV:   4    -0.124060968874E+03   -0.28322E-06   -0.40182E-06  3648   0.932E-03
  85 F= -.12592639E+03 E0= -.12592483E+03  d E =-.352649E-04  mag=    -0.0000
       N       E                     dE             d eps       ncg     rms          rms(c)
DAV:   1    -0.124060701299E+03    0.26729E-03   -0.62104E-03  3648   0.297E-01    0.145E-02
DAV:   2    -0.124060699522E+03    0.17764E-05   -0.69653E-05  3648   0.348E-02    0.890E-03
DAV:   3    -0.124060698987E+03    0.53530E-06   -0.10383E-05  5232   0.125E-02    0.264E-03
DAV:   4    -0.124060699158E+03   -0.17054E-06   -0.24581E-06  3648   0.750E-03
  86 F= -.12592642E+03 E0= -.12592485E+03  d E =-.211679E-04  mag=     0.0000
       N       E                     dE             d eps       ncg     rms          rms(c)
DAV:   1    -0.124060436868E+03    0.26212E-03   -0.53641E-03  3648   0.276E-01    0.135E-02
DAV:   2    -0.124060435341E+03    0.15269E-05   -0.60566E-05  3648   0.323E-02    0.830E-03
DAV:   3    -0.124060434827E+03    0.51458E-06   -0.90044E-06  4224   0.116E-02
  87 F= -.12592642E+03 E0= -.12592486E+03  d E =-.273222E-04  mag=    -0.0000
       N       E                     dE             d eps       ncg     rms          rms(c)
DAV:   1    -0.124060175280E+03    0.26006E-03   -0.54457E-03  3648   0.275E-01    0.141E-02
DAV:   2    -0.124060173509E+03    0.17715E-05   -0.59619E-05  3936   0.320E-02    0.850E-03
DAV:   3    -0.124060173174E+03    0.33455E-06   -0.89766E-06  4176   0.118E-02
  88 F= -.12592644E+03 E0= -.12592487E+03  d E =-.154709E-04  mag=     0.0000
       N       E                     dE             d eps       ncg     rms          rms(c)
DAV:   1    -0.124059505345E+03    0.66816E-03   -0.34654E-02  3648   0.695E-01    0.344E-02
DAV:   2    -0.124059494015E+03    0.11330E-04   -0.37349E-04  4176   0.786E-02    0.206E-02
DAV:   3    -0.124059490807E+03    0.32070E-05   -0.51891E-05  4464   0.262E-02    0.510E-03
DAV:   4    -0.124059491667E+03   -0.85992E-06   -0.10687E-05  4608   0.148E-02    0.222E-03
DAV:   5    -0.124059491530E+03    0.13708E-06   -0.43348E-06  4176   0.102E-02
  89 F= -.12592646E+03 E0= -.12592490E+03  d E =-.358322E-04  mag=    -0.0000
       N       E                     dE             d eps       ncg     rms          rms(c)
DAV:   1    -0.124059314311E+03    0.17736E-03   -0.22228E-03  4608   0.176E-01    0.849E-03
DAV:   2    -0.124059313472E+03    0.83855E-06   -0.22272E-05  4896   0.189E-02    0.501E-03
DAV:   3    -0.124059313231E+03    0.24114E-06   -0.29806E-06  4464   0.606E-03
  90 F= -.12592646E+03 E0= -.12592490E+03  d E =-.354973E-04  mag=     0.0000
       N       E                     dE             d eps       ncg     rms          rms(c)
DAV:   1    -0.124059171468E+03    0.14200E-03   -0.20803E-03  3648   0.175E-01    0.897E-03
DAV:   2    -0.124059170884E+03    0.58327E-06   -0.27515E-05  5328   0.213E-02    0.544E-03
DAV:   3    -0.124059170669E+03    0.21521E-06   -0.33371E-06  4368   0.677E-03
  91 F= -.12592647E+03 E0= -.12592491E+03  d E =-.146115E-04  mag=     0.0000
       N       E                     dE             d eps       ncg     rms          rms(c)
DAV:   1    -0.124059046748E+03    0.12414E-03   -0.14049E-03  3648   0.144E-01    0.772E-03
DAV:   2    -0.124059046299E+03    0.44835E-06   -0.18909E-05  4944   0.179E-02    0.474E-03
DAV:   3    -0.124059046216E+03    0.83178E-07   -0.25639E-06  4080   0.619E-03
  92 F= -.12592648E+03 E0= -.12592492E+03  d E =-.190488E-04  mag=     0.0000
       N       E                     dE             d eps       ncg     rms          rms(c)
DAV:   1    -0.124058967142E+03    0.79157E-04   -0.72012E-04  3648   0.101E-01    0.540E-03
DAV:   2    -0.124058966854E+03    0.28751E-06   -0.75495E-06  4752   0.114E-02
  93 F= -.12592649E+03 E0= -.12592493E+03  d E =-.106359E-04  mag=     0.0000
       N       E                     dE             d eps       ncg     rms          rms(c)
DAV:   1    -0.124058724031E+03    0.24311E-03   -0.63187E-03  3648   0.301E-01    0.155E-02
DAV:   2    -0.124058721504E+03    0.25275E-05   -0.63604E-05  3744   0.323E-02    0.918E-03
DAV:   3    -0.124058721052E+03    0.45118E-06   -0.95652E-06  4224   0.113E-02
  94 F= -.12592651E+03 E0= -.12592495E+03  d E =-.349133E-04  mag=    -0.0000
       N       E                     dE             d eps       ncg     rms          rms(c)
DAV:   1    -0.124058209404E+03    0.51210E-03   -0.25751E-02  3648   0.606E-01    0.307E-02
DAV:   2    -0.124058199684E+03    0.97193E-05   -0.25829E-04  4080   0.649E-02    0.180E-02
DAV:   3    -0.124058196814E+03    0.28700E-05   -0.37496E-05  4656   0.217E-02    0.474E-03
DAV:   4    -0.124058197238E+03   -0.42392E-06   -0.60500E-06  3888   0.104E-02
  95 F= -.12592653E+03 E0= -.12592497E+03  d E =-.516257E-04  mag=    -0.0000
       N       E                     dE             d eps       ncg     rms          rms(c)
DAV:   1    -0.124058272571E+03   -0.75757E-04   -0.48644E-04  3744   0.838E-02    0.387E-03
DAV:   2    -0.124058272378E+03    0.19305E-06   -0.60792E-06  4800   0.109E-02
  96 F= -.12592653E+03 E0= -.12592497E+03  d E =-.520301E-04  mag=    -0.0000
       N       E                     dE             d eps       ncg     rms          rms(c)
DAV:   1    -0.124058159332E+03    0.11324E-03   -0.12135E-03  3648   0.131E-01    0.712E-03
DAV:   2    -0.124058158187E+03    0.11451E-05   -0.18338E-05  3648   0.174E-02    0.390E-03
DAV:   3    -0.124058158043E+03    0.14342E-06   -0.29245E-06  3648   0.710E-03
  97 F= -.12592653E+03 E0= -.12592498E+03  d E =-.564609E-05  mag=     0.0000
       N       E                     dE             d eps       ncg     rms          rms(c)
DAV:   1    -0.124058100171E+03    0.58016E-04   -0.29201E-04  3744   0.650E-02    0.405E-03
DAV:   2    -0.124058099835E+03    0.33611E-06   -0.46845E-06  5136   0.950E-03
  98 F= -.12592653E+03 E0= -.12592498E+03  d E =-.653522E-05  mag=     0.0000
       N       E                     dE             d eps       ncg     rms          rms(c)
DAV:   1    -0.124057980836E+03    0.11933E-03   -0.11234E-03  3648   0.128E-01    0.782E-03
DAV:   2    -0.124057979616E+03    0.12205E-05   -0.16355E-05  3696   0.166E-02    0.440E-03
DAV:   3    -0.124057979610E+03    0.52896E-08   -0.30260E-06  3648   0.732E-03
  99 F= -.12592653E+03 E0= -.12592497E+03  d E =-.451765E-05  mag=    -0.0000
       N       E                     dE             d eps       ncg     rms          rms(c)
DAV:   1    -0.124058081283E+03   -0.10167E-03   -0.78947E-04  3648   0.107E-01    0.579E-03
DAV:   2    -0.124058080511E+03    0.77253E-06   -0.13097E-05  5232   0.149E-02    0.316E-03
DAV:   3    -0.124058080581E+03   -0.69916E-07   -0.21727E-06  3984   0.646E-03
 100 F= -.12592653E+03 E0= -.12592498E+03  d E =-.702979E-05  mag=     0.0000
       N       E                     dE             d eps       ncg     rms          rms(c)
DAV:   1    -0.124057985270E+03    0.95241E-04   -0.74064E-04  3936   0.103E-01    0.498E-03
DAV:   2    -0.124057984662E+03    0.60793E-06   -0.96440E-06  3696   0.134E-02
 101 F= -.12592654E+03 E0= -.12592498E+03  d E =-.412025E-05  mag=     0.0000
       N       E                     dE             d eps       ncg     rms          rms(c)
DAV:   1    -0.124057695316E+03    0.28995E-03   -0.65876E-03  3648   0.308E-01    0.161E-02
DAV:   2    -0.124057692199E+03    0.31169E-05   -0.76487E-05  3744   0.354E-02    0.966E-03
DAV:   3    -0.124057691865E+03    0.33382E-06   -0.12030E-05  5280   0.133E-02    0.249E-03
DAV:   4    -0.124057692311E+03   -0.44550E-06   -0.35861E-06  3648   0.930E-03
 102 F= -.12592655E+03 E0= -.12592499E+03  d E =-.119766E-04  mag=     0.0000
       N       E                     dE             d eps       ncg     rms          rms(c)
DAV:   1    -0.124057593242E+03    0.98623E-04   -0.73965E-04  3744   0.103E-01    0.541E-03
DAV:   2    -0.124057592694E+03    0.54810E-06   -0.95005E-06  4032   0.136E-02
 103 F= -.12592655E+03 E0= -.12592499E+03  d E =-.120073E-04  mag=     0.0000
       N       E                     dE             d eps       ncg     rms          rms(c)
DAV:   1    -0.124057452418E+03    0.14082E-03   -0.17751E-03  3648   0.162E-01    0.864E-03
DAV:   2    -0.124057451369E+03    0.10489E-05   -0.21029E-05  3648   0.197E-02    0.517E-03
DAV:   3    -0.124057451658E+03   -0.28875E-06   -0.41513E-06  4176   0.922E-03
 104 F= -.12592655E+03 E0= -.12592500E+03  d E =-.612732E-05  mag=    -0.0000
       N       E                     dE             d eps       ncg     rms          rms(c)
DAV:   1    -0.124057410020E+03    0.41349E-04   -0.15939E-04  3648   0.492E-02    0.282E-03
DAV:   2    -0.124057409522E+03    0.49810E-06   -0.36133E-06  3936   0.977E-03
 105 F= -.12592655E+03 E0= -.12592500E+03  d E =-.650610E-05  mag=    -0.0000
       N       E                     dE             d eps       ncg     rms          rms(c)
DAV:   1    -0.124057324905E+03    0.85115E-04   -0.59813E-04  3648   0.943E-02    0.514E-03
DAV:   2    -0.124057324181E+03    0.72396E-06   -0.86215E-06  3648   0.138E-02
 106 F= -.12592655E+03 E0= -.12592500E+03  d E =-.619053E-05  mag=    -0.0000
       N       E                     dE             d eps       ncg     rms          rms(c)
DAV:   1    -0.124057369333E+03   -0.44428E-04   -0.17757E-04  3648   0.508E-02    0.205E-03
DAV:   2    -0.124057368826E+03    0.50717E-06   -0.46608E-06  3888   0.107E-02
 107 F= -.12592655E+03 E0= -.12592500E+03  d E =-.682736E-05  mag=    -0.0000
       N       E                     dE             d eps       ncg     rms          rms(c)
DAV:   1    -0.124057252668E+03    0.11667E-03   -0.12165E-03  3648   0.133E-01    0.636E-03
DAV:   2    -0.124057251922E+03    0.74572E-06   -0.15579E-05  3648   0.174E-02    0.380E-03
DAV:   3    -0.124057252110E+03   -0.18809E-06   -0.31030E-06  3648   0.822E-03
 108 F= -.12592656E+03 E0= -.12592500E+03  d E =-.152927E-05  mag=     0.0000
       N       E                     dE             d eps       ncg     rms          rms(c)
DAV:   1    -0.124057289877E+03   -0.37955E-04   -0.11916E-04  3648   0.428E-02    0.187E-03
DAV:   2    -0.124057289617E+03    0.26033E-06   -0.28865E-06  4992   0.846E-03
 109 F= -.12592656E+03 E0= -.12592500E+03  d E =-.157618E-05  mag=     0.0000
       N       E                     dE             d eps       ncg     rms          rms(c)
DAV:   1    -0.124057262107E+03    0.27770E-04   -0.98976E-05  3648   0.391E-02    0.191E-03
DAV:   2    -0.124057261867E+03    0.24011E-06   -0.20696E-06  4032   0.698E-03
 110 F= -.12592656E+03 E0= -.12592500E+03  d E =-.100063E-05  mag=     0.0000
       N       E                     dE             d eps       ncg     rms          rms(c)
DAV:   1    -0.124057229362E+03    0.32744E-04   -0.12233E-04  3648   0.439E-02    0.258E-03
DAV:   2    -0.124057229108E+03    0.25404E-06   -0.20834E-06  3648   0.681E-03
 111 F= -.12592656E+03 E0= -.12592500E+03  d E =-.120915E-05  mag=     0.0000
       N       E                     dE             d eps       ncg     rms          rms(c)
DAV:   1    -0.124057202459E+03    0.26904E-04   -0.57945E-05  3648   0.298E-02    0.170E-03
DAV:   2    -0.124057202295E+03    0.16393E-06   -0.13796E-06  3648   0.597E-03
 112 F= -.12592656E+03 E0= -.12592500E+03  d E =-.649696E-06  mag=     0.0000
       N       E                     dE             d eps       ncg     rms          rms(c)
DAV:   1    -0.124057121219E+03    0.81240E-04   -0.53110E-04  3648   0.883E-02    0.450E-03
DAV:   2    -0.124057120881E+03    0.33810E-06   -0.68024E-06  3648   0.116E-02
 113 F= -.12592656E+03 E0= -.12592501E+03  d E =-.163089E-05  mag=     0.0000
       N       E                     dE             d eps       ncg     rms          rms(c)
DAV:   1    -0.124057091582E+03    0.29636E-04   -0.75485E-05  3840   0.347E-02    0.218E-03
DAV:   2    -0.124057091415E+03    0.16709E-06   -0.15380E-06  3648   0.636E-03
 114 F= -.12592656E+03 E0= -.12592501E+03  d E =-.115920E-05  mag=     0.0000
       N       E                     dE             d eps       ncg     rms          rms(c)
DAV:   1    -0.124057001525E+03    0.90057E-04   -0.71372E-04  3648   0.103E-01    0.511E-03
DAV:   2    -0.124057001107E+03    0.41794E-06   -0.92985E-06  3648   0.139E-02
 115 F= -.12592656E+03 E0= -.12592501E+03  d E =-.272945E-05  mag=     0.0000
       N       E                     dE             d eps       ncg     rms          rms(c)
DAV:   1    -0.124056959808E+03    0.41718E-04   -0.13630E-04  4512   0.462E-02    0.281E-03
DAV:   2    -0.124056959406E+03    0.40191E-06   -0.27852E-06  3648   0.868E-03
 116 F= -.12592656E+03 E0= -.12592501E+03  d E =-.921815E-06  mag=     0.0000
       N       E                     dE             d eps       ncg     rms          rms(c)
DAV:   1    -0.124056897611E+03    0.62197E-04   -0.30819E-04  3648   0.682E-02    0.356E-03
DAV:   2    -0.124056897131E+03    0.48013E-06   -0.52676E-06  3648   0.115E-02
 117 F= -.12592656E+03 E0= -.12592502E+03  d E =-.146773E-05  mag=     0.0000
       N       E                     dE             d eps       ncg     rms          rms(c)
DAV:   1    -0.124056845732E+03    0.51878E-04   -0.19710E-04  3648   0.545E-02    0.313E-03
DAV:   2    -0.124056845159E+03    0.57328E-06   -0.43228E-06  3648   0.105E-02
 118 F= -.12592656E+03 E0= -.12592502E+03  d E =-.100278E-05  mag=     0.0000
       N       E                     dE             d eps       ncg     rms          rms(c)
DAV:   1    -0.124056732879E+03    0.11285E-03   -0.92412E-04  3648   0.116E-01    0.607E-03
DAV:   2    -0.124056732027E+03    0.85201E-06   -0.13018E-05  3648   0.167E-02    0.374E-03
DAV:   3    -0.124056732906E+03   -0.87901E-06   -0.40298E-06  4656   0.992E-03
 119 F= -.12592657E+03 E0= -.12592502E+03  d E =-.258259E-05  mag=    -0.0000
       N       E                     dE             d eps       ncg     rms          rms(c)
DAV:   1    -0.124056758126E+03   -0.26099E-04   -0.50089E-05  3648   0.290E-02    0.118E-03
DAV:   2    -0.124056757706E+03    0.41956E-06   -0.24784E-06  4512   0.802E-03
 120 F= -.12592656E+03 E0= -.12592502E+03  d E =-.161363E-05  mag=    -0.0000
       N       E                     dE             d eps       ncg     rms          rms(c)
DAV:   1    -0.124056727624E+03    0.30502E-04   -0.83052E-05  3792   0.358E-02    0.171E-03
DAV:   2    -0.124056727500E+03    0.12468E-06   -0.17450E-06  3936   0.632E-03
 121 F= -.12592656E+03 E0= -.12592502E+03  d E =-.388175E-06  mag=    -0.0000
       N       E                     dE             d eps       ncg     rms          rms(c)
DAV:   1    -0.124056709719E+03    0.17906E-04   -0.26589E-05  3648   0.208E-02    0.138E-03
DAV:   2    -0.124056709678E+03    0.40901E-07   -0.69280E-07  4464   0.416E-03
 122 F= -.12592656E+03 E0= -.12592502E+03  d E =-.432199E-06  mag=    -0.0000
       N       E                     dE             d eps       ncg     rms          rms(c)
DAV:   1    -0.124056674878E+03    0.34841E-04   -0.95429E-05  3648   0.375E-02    0.199E-03
DAV:   2    -0.124056674801E+03    0.76591E-07   -0.14442E-06  3744   0.572E-03
 123 F= -.12592656E+03 E0= -.12592502E+03  d E =-.423420E-06  mag=    -0.0000
       N       E                     dE             d eps       ncg     rms          rms(c)
DAV:   1    -0.124056641440E+03    0.33438E-04   -0.84218E-05  3648   0.355E-02    0.195E-03
DAV:   2    -0.124056641357E+03    0.82490E-07   -0.13667E-06  3648   0.573E-03
 124 F= -.12592657E+03 E0= -.12592502E+03  d E =-.524854E-06  mag=    -0.0000
       N       E                     dE             d eps       ncg     rms          rms(c)
DAV:   1    -0.124056599633E+03    0.41807E-04   -0.12415E-04  3648   0.424E-02    0.243E-03
DAV:   2    -0.124056599444E+03    0.18839E-06   -0.21942E-06  3648   0.699E-03
 125 F= -.12592657E+03 E0= -.12592502E+03  d E =-.559684E-06  mag=    -0.0000
       N       E                     dE             d eps       ncg     rms          rms(c)
DAV:   1    -0.124056550026E+03    0.49607E-04   -0.16882E-04  3648   0.495E-02    0.292E-03
DAV:   2    -0.124056549781E+03    0.24499E-06   -0.28054E-06  3648   0.783E-03
 126 F= -.12592657E+03 E0= -.12592502E+03  d E =-.650300E-06  mag=    -0.0000
       N       E                     dE             d eps       ncg     rms          rms(c)
DAV:   1    -0.124056507630E+03    0.42395E-04   -0.11200E-04  3648   0.407E-02    0.233E-03
DAV:   2    -0.124056507422E+03    0.20852E-06   -0.21496E-06  3648   0.724E-03
 127 F= -.12592657E+03 E0= -.12592502E+03  d E =-.452564E-06  mag=    -0.0000
       N       E                     dE             d eps       ncg     rms          rms(c)
DAV:   1    -0.124056444582E+03    0.63048E-04   -0.24872E-04  3648   0.600E-02    0.328E-03
DAV:   2    -0.124056444290E+03    0.29273E-06   -0.39749E-06  3648   0.941E-03
 128 F= -.12592657E+03 E0= -.12592502E+03  d E =-.626312E-06  mag=    -0.0000
