<?xml version="1.0" encoding="ISO-8859-1"?>
<modeling>
 <generator>
  <i name="program" type="string">vasp </i>
  <i name="version" type="string">6.3.2  </i>
  <i name="subversion" type="string">27Jun22 (build Dec 22 2022 13:13:19) complex                          parallel </i>
  <i name="platform" type="string">LinuxIFC </i>
  <i name="date" type="string">2023 08 23 </i>
  <i name="time" type="string">17:30:52 </i>
 </generator>
 <incar>
  <i type="string" name="SYSTEM">Lattice</i>
  <i type="int" name="ISTART">     0</i>
  <i type="string" name="PREC">Accurate</i>
  <i type="string" name="ALGO">Normal</i>
  <i type="int" name="ISPIN">     2</i>
  <i type="int" name="ICHARG">     2</i>
  <i type="int" name="NELM">    64</i>
  <i type="int" name="IBRION">     2</i>
  <i name="EDIFF">      0.00000001</i>
  <i name="EDIFFG">     -0.00100000</i>
  <i type="int" name="NSW">   128</i>
  <i type="int" name="ISIF">     2</i>
  <i name="ENCUT">    450.00000000</i>
  <i name="POTIM">      0.50000000</i>
  <i type="int" name="ISMEAR">     0</i>
  <i name="SIGMA">      0.10000000</i>
  <i type="logical" name="LWAVE"> F  </i>
  <i type="logical" name="LCHARG"> F  </i>
  <i type="string" name="GGA">PE</i>
  <i type="int" name="IVDW">    12</i>
 </incar>
 <primitive_cell>
  <structure name="primitive_cell" >
   <crystal>
    <varray name="basis" >
     <v>       4.21581167       2.43400000       0.00000000 </v>
     <v>      -4.21581167       2.43400000       0.00000000 </v>
     <v>       0.00000000       0.00000000      15.00000000 </v>
    </varray>
    <i name="volume">    307.83856782 </i>
    <varray name="rec_basis" >
     <v>       0.11860112       0.20542317       0.00000000 </v>
     <v>      -0.11860112       0.20542317       0.00000000 </v>
     <v>       0.00000000       0.00000000       0.06666667 </v>
    </varray>
   </crystal>
   <varray name="positions" >
    <v>       0.00415361       0.00267210       0.12034134 </v>
    <v>       0.35695335       0.00285503       0.09748893 </v>
    <v>       0.00423858       0.35550699       0.09749256 </v>
    <v>       0.65142295       0.65006557       0.09747688 </v>
    <v>       0.32808646       0.32671938       0.10030508 </v>
    <v>       0.68027775       0.00278085       0.10027562 </v>
    <v>       0.00416530       0.67883808       0.10026559 </v>
    <v>       0.99999933       0.49999967       0.33373333 </v>
    <v>       0.16666633       0.33333267       0.33373333 </v>
    <v>       0.99999933       0.99999967       0.33373333 </v>
    <v>       0.16666633       0.83333267       0.33373333 </v>
    <v>       0.49999933       0.49999967       0.33373333 </v>
    <v>       0.66666633       0.33333267       0.33373333 </v>
    <v>       0.49999933       0.99999967       0.33373333 </v>
    <v>       0.66666633       0.83333267       0.33373333 </v>
   </varray>
  </structure>
  <varray name="primitive_index" >
   <v type="int" >        1 </v>
   <v type="int" >        2 </v>
   <v type="int" >        3 </v>
   <v type="int" >        4 </v>
   <v type="int" >        5 </v>
   <v type="int" >        6 </v>
   <v type="int" >        7 </v>
   <v type="int" >        8 </v>
   <v type="int" >        9 </v>
   <v type="int" >       10 </v>
   <v type="int" >       11 </v>
   <v type="int" >       12 </v>
   <v type="int" >       13 </v>
   <v type="int" >       14 </v>
   <v type="int" >       15 </v>
  </varray>
 </primitive_cell>
 <kpoints>
  <generation param="Gamma">
   <v type="int" name="divisions">      12       12        1 </v>
   <v name="usershift">      0.00000000       0.00000000       0.00000000 </v>
   <v name="genvec1">      0.08333333       0.00000000       0.00000000 </v>
   <v name="genvec2">      0.00000000       0.08333333       0.00000000 </v>
   <v name="genvec3">      0.00000000       0.00000000       1.00000000 </v>
   <v name="shift">      0.00000000       0.00000000       0.00000000 </v>
  </generation>
  <varray name="kpointlist" >
   <v>       0.00000000       0.00000000       0.00000000 </v>
   <v>       0.08333333       0.00000000       0.00000000 </v>
   <v>       0.00000000       0.08333333       0.00000000 </v>
   <v>      -0.08333333       0.08333333       0.00000000 </v>
   <v>       0.16666667       0.00000000       0.00000000 </v>
   <v>       0.00000000       0.16666667       0.00000000 </v>
   <v>      -0.16666667       0.16666667       0.00000000 </v>
   <v>       0.25000000       0.00000000       0.00000000 </v>
   <v>       0.00000000       0.25000000       0.00000000 </v>
   <v>      -0.25000000       0.25000000       0.00000000 </v>
   <v>       0.33333333       0.00000000       0.00000000 </v>
   <v>       0.00000000       0.33333333       0.00000000 </v>
   <v>      -0.33333333       0.33333333       0.00000000 </v>
   <v>       0.41666667      -0.00000000       0.00000000 </v>
   <v>      -0.00000000       0.41666667       0.00000000 </v>
   <v>      -0.41666667       0.41666667       0.00000000 </v>
   <v>       0.50000000       0.00000000       0.00000000 </v>
   <v>       0.00000000       0.50000000       0.00000000 </v>
   <v>       0.50000000       0.50000000       0.00000000 </v>
   <v>       0.08333333       0.08333333       0.00000000 </v>
   <v>      -0.08333333       0.16666667       0.00000000 </v>
   <v>      -0.16666667       0.08333333       0.00000000 </v>
   <v>       0.16666667       0.08333333       0.00000000 </v>
   <v>      -0.08333333       0.25000000       0.00000000 </v>
   <v>      -0.25000000       0.16666667       0.00000000 </v>
   <v>      -0.16666667       0.25000000       0.00000000 </v>
   <v>       0.08333333       0.16666667       0.00000000 </v>
   <v>       0.25000000      -0.08333333       0.00000000 </v>
   <v>       0.25000000       0.08333333       0.00000000 </v>
   <v>      -0.08333333       0.33333333       0.00000000 </v>
   <v>      -0.33333333       0.25000000       0.00000000 </v>
   <v>      -0.25000000       0.33333333       0.00000000 </v>
   <v>       0.08333333       0.25000000       0.00000000 </v>
   <v>       0.33333333      -0.08333333       0.00000000 </v>
   <v>       0.33333333       0.08333333       0.00000000 </v>
   <v>      -0.08333333       0.41666667       0.00000000 </v>
   <v>      -0.41666667       0.33333333       0.00000000 </v>
   <v>      -0.33333333       0.41666667       0.00000000 </v>
   <v>       0.08333333       0.33333333       0.00000000 </v>
   <v>       0.41666667      -0.08333333       0.00000000 </v>
   <v>       0.41666667       0.08333333       0.00000000 </v>
   <v>      -0.08333333       0.50000000       0.00000000 </v>
   <v>       0.50000000       0.41666667       0.00000000 </v>
   <v>      -0.41666667       0.50000000       0.00000000 </v>
   <v>       0.08333333       0.41666667       0.00000000 </v>
   <v>       0.50000000      -0.08333333       0.00000000 </v>
   <v>       0.16666667       0.16666667       0.00000000 </v>
   <v>      -0.16666667       0.33333333       0.00000000 </v>
   <v>      -0.33333333       0.16666667       0.00000000 </v>
   <v>       0.25000000       0.16666667       0.00000000 </v>
   <v>      -0.16666667       0.41666667       0.00000000 </v>
   <v>      -0.41666667       0.25000000       0.00000000 </v>
   <v>      -0.25000000       0.41666667       0.00000000 </v>
   <v>       0.16666667       0.25000000       0.00000000 </v>
   <v>       0.41666667      -0.16666667       0.00000000 </v>
   <v>       0.33333333       0.16666667       0.00000000 </v>
   <v>      -0.16666667       0.50000000       0.00000000 </v>
   <v>       0.50000000       0.33333333       0.00000000 </v>
   <v>      -0.33333333       0.50000000       0.00000000 </v>
   <v>       0.16666667       0.33333333       0.00000000 </v>
   <v>       0.50000000      -0.16666667       0.00000000 </v>
   <v>       0.41666667       0.16666667       0.00000000 </v>
   <v>      -0.16666667      -0.41666667       0.00000000 </v>
   <v>       0.41666667       0.41666667       0.00000000 </v>
   <v>       0.25000000       0.25000000       0.00000000 </v>
   <v>      -0.25000000       0.50000000       0.00000000 </v>
   <v>       0.50000000       0.25000000       0.00000000 </v>
   <v>       0.33333333       0.25000000       0.00000000 </v>
   <v>      -0.25000000      -0.41666667       0.00000000 </v>
   <v>       0.41666667       0.33333333       0.00000000 </v>
   <v>      -0.33333333      -0.41666667       0.00000000 </v>
   <v>       0.25000000       0.33333333       0.00000000 </v>
   <v>      -0.41666667      -0.25000000       0.00000000 </v>
   <v>       0.33333333       0.33333333       0.00000000 </v>
  </varray>
  <varray name="weights" >
   <v>       0.00694444 </v>
   <v>       0.01388889 </v>
   <v>       0.01388889 </v>
   <v>       0.01388889 </v>
   <v>       0.01388889 </v>
   <v>       0.01388889 </v>
   <v>       0.01388889 </v>
   <v>       0.01388889 </v>
   <v>       0.01388889 </v>
   <v>       0.01388889 </v>
   <v>       0.01388889 </v>
   <v>       0.01388889 </v>
   <v>       0.01388889 </v>
   <v>       0.01388889 </v>
   <v>       0.01388889 </v>
   <v>       0.01388889 </v>
   <v>       0.00694444 </v>
   <v>       0.00694444 </v>
   <v>       0.00694444 </v>
   <v>       0.01388889 </v>
   <v>       0.01388889 </v>
   <v>       0.01388889 </v>
   <v>       0.01388889 </v>
   <v>       0.01388889 </v>
   <v>       0.01388889 </v>
   <v>       0.01388889 </v>
   <v>       0.01388889 </v>
   <v>       0.01388889 </v>
   <v>       0.01388889 </v>
   <v>       0.01388889 </v>
   <v>       0.01388889 </v>
   <v>       0.01388889 </v>
   <v>       0.01388889 </v>
   <v>       0.01388889 </v>
   <v>       0.01388889 </v>
   <v>       0.01388889 </v>
   <v>       0.01388889 </v>
   <v>       0.01388889 </v>
   <v>       0.01388889 </v>
   <v>       0.01388889 </v>
   <v>       0.01388889 </v>
   <v>       0.01388889 </v>
   <v>       0.01388889 </v>
   <v>       0.01388889 </v>
   <v>       0.01388889 </v>
   <v>       0.01388889 </v>
   <v>       0.01388889 </v>
   <v>       0.01388889 </v>
   <v>       0.01388889 </v>
   <v>       0.01388889 </v>
   <v>       0.01388889 </v>
   <v>       0.01388889 </v>
   <v>       0.01388889 </v>
   <v>       0.01388889 </v>
   <v>       0.01388889 </v>
   <v>       0.01388889 </v>
   <v>       0.01388889 </v>
   <v>       0.01388889 </v>
   <v>       0.01388889 </v>
   <v>       0.01388889 </v>
   <v>       0.01388889 </v>
   <v>       0.01388889 </v>
   <v>       0.01388889 </v>
   <v>       0.01388889 </v>
   <v>       0.01388889 </v>
   <v>       0.01388889 </v>
   <v>       0.01388889 </v>
   <v>       0.01388889 </v>
   <v>       0.01388889 </v>
   <v>       0.01388889 </v>
   <v>       0.01388889 </v>
   <v>       0.01388889 </v>
   <v>       0.01388889 </v>
   <v>       0.01388889 </v>
  </varray>
 </kpoints>
 <parameters>
  <separator name="general" >
   <i type="string" name="SYSTEM">Lattice</i>
   <i type="logical" name="LCOMPAT"> F  </i>
  </separator>
  <separator name="electronic" >
   <i type="string" name="PREC">accura</i>
   <i name="ENMAX">    450.00000000</i>
   <i name="ENAUG">    644.87300000</i>
   <i name="EDIFF">      0.00000001</i>
   <i type="int" name="IALGO">    38</i>
   <i type="int" name="IWAVPR">    11</i>
   <i type="int" name="NBANDS">    48</i>
   <i type="int" name="NBANDSLOW">    -1</i>
   <i type="int" name="NBANDSHIGH">    -1</i>
   <i name="NELECT">     56.00000000</i>
   <i type="int" name="TURBO">     0</i>
   <i type="int" name="IRESTART">     0</i>
   <i type="int" name="NREBOOT">     0</i>
   <i type="int" name="NMIN">     0</i>
   <i name="EREF">      0.00000000</i>
   <separator name="electronic smearing" >
    <i type="int" name="ISMEAR">     0</i>
    <i name="SIGMA">      0.10000000</i>
    <i name="KSPACING">      0.50000000</i>
    <i type="logical" name="KGAMMA"> T  </i>
    <i type="logical" name="KBLOWUP"> T  </i>
   </separator>
   <separator name="electronic projectors" >
    <i type="logical" name="LREAL"> F  </i>
    <v name="ROPT">      0.00000000      0.00000000</v>
    <i type="int" name="LMAXPAW">  -100</i>
    <i type="int" name="LMAXMIX">     2</i>
    <i type="logical" name="NLSPLINE"> F  </i>
   </separator>
   <separator name="electronic startup" >
    <i type="int" name="ISTART">     0</i>
    <i type="int" name="ICHARG">     2</i>
    <i type="int" name="INIWAV">     1</i>
   </separator>
   <separator name="electronic spin" >
    <i type="int" name="ISPIN">     2</i>
    <i type="logical" name="LNONCOLLINEAR"> F  </i>
    <v name="MAGMOM">      1.00000000      1.00000000      1.00000000      1.00000000      1.00000000      1.00000000      1.00000000      1.00000000      1.00000000      1.00000000      1.00000000      1.00000000      1.00000000      1.00000000      1.00000000</v>
    <i name="NUPDOWN">     -1.00000000</i>
    <i type="logical" name="LSORBIT"> F  </i>
    <v name="SAXIS">      0.00000000      0.00000000      1.00000000</v>
    <i type="logical" name="LSPIRAL"> F  </i>
    <v name="QSPIRAL">      0.00000000      0.00000000      0.00000000</v>
    <i type="logical" name="LZEROZ"> F  </i>
   </separator>
   <separator name="electronic exchange-correlation" >
    <i type="logical" name="LASPH"> F  </i>
    <i type="logical" name="LMETAGGA"> F  </i>
   </separator>
   <separator name="electronic convergence" >
    <i type="int" name="NELM">    64</i>
    <i type="int" name="NELMDL">    -5</i>
    <i type="int" name="NELMIN">     2</i>
    <i name="ENINI">    450.00000000</i>
    <separator name="electronic convergence detail" >
     <i type="logical" name="LDIAG"> T  </i>
     <i type="logical" name="LSUBROT"> F  </i>
     <i name="WEIMIN">      0.00100000</i>
     <i name="EBREAK">      0.00000000</i>
     <i name="DEPER">      0.30000000</i>
     <i type="int" name="NRMM">     4</i>
     <i name="TIME">      0.40000000</i>
    </separator>
   </separator>
   <separator name="electronic mixer" >
    <i name="AMIX">      0.40000000</i>
    <i name="BMIX">      1.00000000</i>
    <i name="AMIN">      0.10000000</i>
    <i name="AMIX_MAG">      1.60000000</i>
    <i name="BMIX_MAG">      1.00000000</i>
    <separator name="electronic mixer details" >
     <i type="int" name="IMIX">     4</i>
     <i type="logical" name="MIXFIRST"> F  </i>
     <i type="int" name="MAXMIX">   -45</i>
     <i name="WC">    100.00000000</i>
     <i type="int" name="INIMIX">     1</i>
     <i type="int" name="MIXPRE">     1</i>
     <i type="int" name="MREMOVE">     5</i>
    </separator>
   </separator>
   <separator name="electronic dipolcorrection" >
    <i type="logical" name="LDIPOL"> F  </i>
    <i type="logical" name="LMONO"> F  </i>
    <i type="int" name="IDIPOL">     0</i>
    <i name="EPSILON">      1.00000000</i>
    <v name="DIPOL">   -100.00000000   -100.00000000   -100.00000000</v>
    <i name="EFIELD">      0.00000000</i>
   </separator>
  </separator>
  <separator name="grids" >
   <i type="int" name="NGX">    36</i>
   <i type="int" name="NGY">    36</i>
   <i type="int" name="NGZ">   108</i>
   <i type="int" name="NGXF">    72</i>
   <i type="int" name="NGYF">    72</i>
   <i type="int" name="NGZF">   216</i>
   <i type="logical" name="ADDGRID"> F  </i>
  </separator>
  <separator name="ionic" >
   <i type="int" name="NSW">   128</i>
   <i type="int" name="IBRION">     2</i>
   <i type="int" name="MDALGO">     0</i>
   <i type="int" name="ISIF">     2</i>
   <i name="PSTRESS">      0.00000000</i>
   <i name="EDIFFG">     -0.00100000</i>
   <i type="int" name="NFREE">     1</i>
   <i name="POTIM">      0.50000000</i>
   <i name="SMASS">     -3.00000000</i>
   <i name="SCALEE">      1.00000000</i>
  </separator>
  <separator name="ionic md" >
   <i name="TEBEG">      0.00010000</i>
   <i name="TEEND">      0.00010000</i>
   <i type="int" name="NBLOCK">     1</i>
   <i type="int" name="KBLOCK">   128</i>
   <i type="int" name="NPACO">   256</i>
   <i name="APACO">     10.00000000</i>
  </separator>
  <separator name="symmetry" >
   <i type="int" name="ISYM">     2</i>
   <i name="SYMPREC">      0.00001000</i>
  </separator>
  <separator name="dos" >
   <i type="int" name="LORBIT">     0</i>
   <v name="RWIGS">     -1.00000000     -1.00000000</v>
   <i type="int" name="NEDOS">   301</i>
   <i name="EMIN">     10.00000000</i>
   <i name="EMAX">    -10.00000000</i>
   <i name="EFERMI">      0.00000000</i>
  </separator>
  <separator name="writing" >
   <i type="int" name="NWRITE">     2</i>
   <i type="logical" name="LWAVE"> F  </i>
   <i type="logical" name="LDOWNSAMPLE"> F  </i>
   <i type="logical" name="LCHARG"> F  </i>
   <i type="logical" name="LPARD"> F  </i>
   <i type="logical" name="LVTOT"> F  </i>
   <i type="logical" name="LVHAR"> F  </i>
   <i type="logical" name="LELF"> F  </i>
   <i type="logical" name="LOPTICS"> F  </i>
   <v name="STM">      0.00000000      0.00000000      0.00000000      0.00000000      0.00000000      0.00000000      0.00000000</v>
  </separator>
  <separator name="performance" >
   <i type="int" name="NPAR">    48</i>
   <i type="int" name="NSIM">     4</i>
   <i type="int" name="NBLK">    -1</i>
   <i type="logical" name="LPLANE"> T  </i>
   <i type="logical" name="LSCALAPACK"> T  </i>
   <i type="logical" name="LSCAAWARE"> F  </i>
   <i type="logical" name="LSCALU"> F  </i>
   <i type="logical" name="LASYNC"> F  </i>
   <i type="logical" name="LORBITALREAL"> F  </i>
  </separator>
  <separator name="miscellaneous" >
   <i type="int" name="IDIOT">     3</i>
   <i type="int" name="PHON_NSTRUCT">    -1</i>
   <i type="logical" name="LMUSIC"> F  </i>
   <v name="POMASS">     10.81100000     12.01100000</v>
   <v name="DARWINR">      0.00000000      0.00000000</v>
   <v name="DARWINV">      1.00000000      1.00000000</v>
   <i type="logical" name="LCORR"> T  </i>
  </separator>
  <i type="logical" name="GGA_COMPAT"> T  </i>
  <i type="logical" name="LBERRY"> F  </i>
  <i type="int" name="ICORELEVEL">     0</i>
  <i type="logical" name="LDAU"> F  </i>
  <i type="int" name="I_CONSTRAINED_M">     0</i>
  <separator name="electronic exchange-correlation" >
   <i type="string" name="GGA">PE</i>
   <i type="int" name="VOSKOWN">     0</i>
   <i type="logical" name="LHFCALC"> F  </i>
   <i type="string" name="PRECFOCK"></i>
   <i type="logical" name="LSYMGRAD"> F  </i>
   <i type="logical" name="LHFONE"> F  </i>
   <i type="logical" name="LRHFCALC"> F  </i>
   <i type="logical" name="LTHOMAS"> F  </i>
   <i type="logical" name="LMODELHF"> F  </i>
   <i type="logical" name="LFOCKACE"> F  </i>
   <i name="ENCUT4O">     -1.00000000</i>
   <i type="int" name="EXXOEP">     0</i>
   <i type="int" name="FOURORBIT">     0</i>
   <i name="AEXX">      0.00000000</i>
   <i name="HFALPHA">      0.00000000</i>
   <i name="MCALPHA">      0.00000000</i>
   <i name="ALDAX">      1.00000000</i>
   <i name="AGGAX">      1.00000000</i>
   <i name="ALDAC">      1.00000000</i>
   <i name="AGGAC">      1.00000000</i>
   <i type="int" name="NKREDX">     1</i>
   <i type="int" name="NKREDY">     1</i>
   <i type="int" name="NKREDZ">     1</i>
   <i type="logical" name="SHIFTRED"> F  </i>
   <i type="logical" name="ODDONLY"> F  </i>
   <i type="logical" name="EVENONLY"> F  </i>
   <i type="int" name="LMAXFOCK">     0</i>
   <i type="int" name="NMAXFOCKAE">     0</i>
   <i type="logical" name="LFOCKAEDFT"> F  </i>
   <i name="HFSCREEN">      0.00000000</i>
   <i name="HFSCREENC">      0.00000000</i>
   <i type="int" name="NBANDSGWLOW">     0</i>
  </separator>
  <separator name="vdW DFT" >
   <i type="logical" name="LUSE_VDW"> F  </i>
   <i name="Zab_VDW">     -0.84910000</i>
   <i name="PARAM1">      0.12340000</i>
   <i name="PARAM2">      1.00000000</i>
   <i name="PARAM3">      0.00000000</i>
  </separator>
  <separator name="model GW" >
   <i type="int" name="MODEL_GW">     0</i>
   <i name="MODEL_EPS0">     12.31354271</i>
   <i name="MODEL_ALPHA">      1.00000000</i>
  </separator>
  <separator name="linear response parameters" >
   <i type="logical" name="LEPSILON"> F  </i>
   <i type="logical" name="LRPA"> F  </i>
   <i type="logical" name="LNABLA"> F  </i>
   <i type="logical" name="LVEL"> F  </i>
   <i name="CSHIFT">      0.10000000</i>
   <i name="OMEGAMAX">     -1.00000000</i>
   <i name="DEG_THRESHOLD">      0.00200000</i>
   <i name="RTIME">     -0.10000000</i>
   <i name="WPLASMAI">      0.00000000</i>
   <v name="DFIELD">      0.00000000      0.00000000      0.00000000</v>
   <v name="WPLASMA">      0.00000000      0.00000000      0.00000000      0.00000000      0.00000000      0.00000000      0.00000000      0.00000000      0.00000000</v>
  </separator>
  <separator name="orbital magnetization" >
   <i type="logical" name="NUCIND"> F  </i>
   <v name="MAGPOS">      0.00000000      0.00000000      0.00000000</v>
   <i type="logical" name="LNICSALL"> T  </i>
   <i type="logical" name="ORBITALMAG"> F  </i>
   <i type="logical" name="LMAGBLOCH"> F  </i>
   <i type="logical" name="LCHIMAG"> F  </i>
   <i type="logical" name="LGAUGE"> T  </i>
   <i type="int" name="MAGATOM">     0</i>
   <v name="MAGDIPOL">      0.00000000      0.00000000      0.00000000</v>
   <v name="AVECCONST">      0.00000000      0.00000000      0.00000000</v>
  </separator>
  <separator name="response functions" >
   <i type="logical" name="LFINITE_TEMPERATURE"> F  </i>
   <i type="logical" name="LADDER"> F  </i>
   <i type="logical" name="LRPAFORCE"> F  </i>
   <i type="logical" name="LFXC"> F  </i>
   <i type="logical" name="LHARTREE"> T  </i>
   <i type="int" name="IBSE">     0</i>
   <v type="int" name="KPOINT">    -1     0     0     0</v>
   <i type="logical" name="LTCTC"> F  </i>
   <i type="logical" name="LTCTE"> F  </i>
   <i type="logical" name="LTETE"> F  </i>
   <i type="logical" name="LTRIPLET"> F  </i>
   <i type="logical" name="LFXCEPS"> F  </i>
   <i type="logical" name="LFXHEG"> F  </i>
   <i type="int" name="NATURALO">     2</i>
   <i type="logical" name="LHOLEGF"> F  </i>
   <i type="logical" name="L2ORDER"> F  </i>
   <i type="logical" name="LDMP1"> F  </i>
   <i type="logical" name="LMP2LT"> F  </i>
   <i type="logical" name="LSMP2LT"> F  </i>
   <i type="logical" name="LGWLF"> F  </i>
   <i name="ENCUTGW">     -2.00000000</i>
   <i name="ENCUTGWSOFT">     -2.00000000</i>
   <i name="ENCUTLF">     -1.00000000</i>
   <i type="logical" name="LESF_SPLINES"> F  </i>
   <i type="int" name="LMAXMP2">    -1</i>
   <i name="SCISSOR">      0.00000000</i>
   <i type="int" name="NOMEGA">     0</i>
   <i type="int" name="NOMEGAR">     0</i>
   <i type="int" name="NBANDSGW">    -1</i>
   <i type="int" name="NBANDSO">    -1</i>
   <i type="int" name="NBANDSV">    -1</i>
   <i type="int" name="NELMGW">     1</i>
   <i type="int" name="NELMHF">     1</i>
   <i type="int" name="DIM">     3</i>
   <i type="int" name="IESPILON">     4</i>
   <i type="int" name="ANTIRES">     0</i>
   <i name="OMEGAMAX">    -30.00000000</i>
   <i name="OMEGAMIN">    -30.00000000</i>
   <i name="OMEGATL">   -200.00000000</i>
   <i type="int" name="OMEGAGRID">     0</i>
   <i name="CSHIFT">     -0.10000000</i>
   <i type="logical" name="LSELFENERGY"> F  </i>
   <i type="logical" name="LSPECTRAL"> F  </i>
   <i type="logical" name="LSPECTRALGW"> F  </i>
   <i type="logical" name="LSINGLES"> F  </i>
   <i type="logical" name="LFERMIGW"> F  </i>
   <i type="logical" name="ODDONLYGW"> F  </i>
   <i type="logical" name="EVENONLYGW"> F  </i>
   <i type="int" name="NKREDLFX">     1</i>
   <i type="int" name="NKREDLFY">     1</i>
   <i type="int" name="NKREDLFZ">     1</i>
   <i type="int" name="MAXMEM">  2800</i>
   <i type="int" name="TELESCOPE">     0</i>
   <i type="int" name="NTAUPAR">    -1</i>
   <i type="int" name="NOMEGAPAR">    -1</i>
   <i name="DAMP_NEWTON">      0.80000001</i>
   <i name="LAMBDA">      1.00000000</i>
  </separator>
  <separator name="External order field" >
   <i name="OFIELD_KAPPA">      0.00000000</i>
   <v name="OFIELD_K">      0.00000000      0.00000000      0.00000000</v>
   <i name="OFIELD_Q6_NEAR">      0.00000000</i>
   <i name="OFIELD_Q6_FAR">      0.00000000</i>
   <i name="OFIELD_A">      0.00000000</i>
  </separator>
  <separator name="optional k-points parameters" >
   <i type="int" name="KPOINTS_OPT_MODE">     1</i>
   <i type="logical" name="LKPOINTS_OPT"> F  </i>
  </separator>
  <separator name="solvation model" >
   <i type="logical" name="LSOL"> F  </i>
  </separator>
 </parameters>
 <atominfo>
  <atoms>      15 </atoms>
  <types>       2 </types>
  <array name="atoms" >
   <dimension dim="1">ion</dimension>
   <field type="string">element</field>
   <field type="int">atomtype</field>
   <set>
    <rc><c>B </c><c>   1</c></rc>
    <rc><c>B </c><c>   1</c></rc>
    <rc><c>B </c><c>   1</c></rc>
    <rc><c>B </c><c>   1</c></rc>
    <rc><c>C </c><c>   2</c></rc>
    <rc><c>C </c><c>   2</c></rc>
    <rc><c>C </c><c>   2</c></rc>
    <rc><c>C </c><c>   2</c></rc>
    <rc><c>C </c><c>   2</c></rc>
    <rc><c>C </c><c>   2</c></rc>
    <rc><c>C </c><c>   2</c></rc>
    <rc><c>C </c><c>   2</c></rc>
    <rc><c>C </c><c>   2</c></rc>
    <rc><c>C </c><c>   2</c></rc>
    <rc><c>C </c><c>   2</c></rc>
   </set>
  </array>
  <array name="atomtypes" >
   <dimension dim="1">type</dimension>
   <field type="int">atomspertype</field>
   <field type="string">element</field>
   <field>mass</field>
   <field>valence</field>
   <field type="string">pseudopotential</field>
   <set>
    <rc><c>   4</c><c>B </c><c>     10.81100000</c><c>      3.00000000</c><c>  PAW_PBE B 06Sep2000                   </c></rc>
    <rc><c>  11</c><c>C </c><c>     12.01100000</c><c>      4.00000000</c><c>  PAW_PBE C 08Apr2002                   </c></rc>
   </set>
  </array>
 </atominfo>
 <structure name="initialpos" >
  <crystal>
   <varray name="basis" >
    <v>       4.21581167       2.43400000       0.00000000 </v>
    <v>      -4.21581167       2.43400000       0.00000000 </v>
    <v>       0.00000000       0.00000000      15.00000000 </v>
   </varray>
   <i name="volume">    307.83856782 </i>
   <varray name="rec_basis" >
    <v>       0.11860112       0.20542317       0.00000000 </v>
    <v>      -0.11860112       0.20542317       0.00000000 </v>
    <v>       0.00000000       0.00000000       0.06666667 </v>
   </varray>
  </crystal>
  <varray name="positions" >
   <v>       0.00415361       0.00267210       0.12034134 </v>
   <v>       0.35695335       0.00285503       0.09748893 </v>
   <v>       0.00423858       0.35550699       0.09749256 </v>
   <v>       0.65142295       0.65006557       0.09747688 </v>
   <v>       0.32808646       0.32671938       0.10030508 </v>
   <v>       0.68027775       0.00278085       0.10027562 </v>
   <v>       0.00416530       0.67883808       0.10026559 </v>
   <v>       0.99999933       0.49999967       0.33373333 </v>
   <v>       0.16666633       0.33333267       0.33373333 </v>
   <v>       0.99999933       0.99999967       0.33373333 </v>
   <v>       0.16666633       0.83333267       0.33373333 </v>
   <v>       0.49999933       0.49999967       0.33373333 </v>
   <v>       0.66666633       0.33333267       0.33373333 </v>
   <v>       0.49999933       0.99999967       0.33373333 </v>
   <v>       0.66666633       0.83333267       0.33373333 </v>
  </varray>
 </structure>
 <calculation>
  <scstep>
   <time name="dav">    5.50    5.91</time>
   <time name="total">    5.55    5.96</time>
   <energy>
    <i name="alphaZ">     57.78124218 </i>
    <i name="ewald">   4723.51255520 </i>
    <i name="hartreedc">  -6283.02231140 </i>
    <i name="XCdc">    174.71422079 </i>
    <i name="pawpsdc">   1365.87943566 </i>
    <i name="pawaedc">  -1368.52100941 </i>
    <i name="eentropy">     -0.01784932 </i>
    <i name="bandstr">   -371.84179703 </i>
    <i name="atom">   1903.26342058 </i>
    <i name="e_fr_energy">    201.74790725 </i>
    <i name="e_wo_entrp">    201.76575657 </i>
    <i name="e_0_energy">    201.75683191 </i>
   </energy>
  </scstep>
  <scstep>
   <time name="dav">    7.89    7.95</time>
   <time name="total">    7.89    7.95</time>
   <energy>
    <i name="e_fr_energy">   -115.83897880 </i>
    <i name="e_wo_entrp">   -115.83781094 </i>
    <i name="e_0_energy">   -115.83839487 </i>
   </energy>
  </scstep>
  <scstep>
   <time name="dav">   11.50   11.58</time>
   <time name="total">   11.50   11.58</time>
   <energy>
    <i name="e_fr_energy">   -128.96595601 </i>
    <i name="e_wo_entrp">   -128.96269881 </i>
    <i name="e_0_energy">   -128.96432741 </i>
   </energy>
  </scstep>
  <scstep>
   <time name="dav">    7.96    8.02</time>
   <time name="total">    7.96    8.02</time>
   <energy>
    <i name="e_fr_energy">   -128.98861116 </i>
    <i name="e_wo_entrp">   -128.98530525 </i>
    <i name="e_0_energy">   -128.98695820 </i>
   </energy>
  </scstep>
  <scstep>
   <time name="dav">   11.05   11.21</time>
   <time name="total">   11.32   11.48</time>
   <energy>
    <i name="e_fr_energy">   -128.98867367 </i>
    <i name="e_wo_entrp">   -128.98536763 </i>
    <i name="e_0_energy">   -128.98702065 </i>
   </energy>
  </scstep>
  <scstep>
   <time name="dav">   10.77   10.84</time>
   <time name="total">   11.11   11.19</time>
   <energy>
    <i name="e_fr_energy">    -91.98422476 </i>
    <i name="e_wo_entrp">    -91.97761237 </i>
    <i name="e_0_energy">    -91.98091857 </i>
   </energy>
  </scstep>
  <scstep>
   <time name="dav">    9.11    9.16</time>
   <time name="total">    9.44    9.51</time>
   <energy>
    <i name="e_fr_energy">   -100.40527683 </i>
    <i name="e_wo_entrp">   -100.39947833 </i>
    <i name="e_0_energy">   -100.40237758 </i>
   </energy>
  </scstep>
  <scstep>
   <time name="dav">   10.08   10.15</time>
   <time name="total">   10.42   10.49</time>
   <energy>
    <i name="e_fr_energy">   -110.45892440 </i>
    <i name="e_wo_entrp">   -110.45890725 </i>
    <i name="e_0_energy">   -110.45891582 </i>
   </energy>
  </scstep>
  <scstep>
   <time name="dav">    7.56    7.62</time>
   <time name="total">    7.89    7.96</time>
   <energy>
    <i name="e_fr_energy">   -117.27159146 </i>
    <i name="e_wo_entrp">   -117.27158669 </i>
    <i name="e_0_energy">   -117.27158908 </i>
   </energy>
  </scstep>
  <scstep>
   <time name="dav">   10.03   10.09</time>
   <time name="total">   10.36   10.43</time>
   <energy>
    <i name="e_fr_energy">   -123.67739496 </i>
    <i name="e_wo_entrp">   -123.67669179 </i>
    <i name="e_0_energy">   -123.67704338 </i>
   </energy>
  </scstep>
  <scstep>
   <time name="dav">   10.91   10.99</time>
   <time name="total">   11.25   11.34</time>
   <energy>
    <i name="e_fr_energy">   -125.25412938 </i>
    <i name="e_wo_entrp">   -125.25295687 </i>
    <i name="e_0_energy">   -125.25354313 </i>
   </energy>
  </scstep>
  <scstep>
   <time name="dav">    7.32    7.37</time>
   <time name="total">    7.65    7.71</time>
   <energy>
    <i name="e_fr_energy">   -125.40536014 </i>
    <i name="e_wo_entrp">   -125.40388020 </i>
    <i name="e_0_energy">   -125.40462017 </i>
   </energy>
  </scstep>
  <scstep>
   <time name="dav">    7.71    7.77</time>
   <time name="total">    8.04    8.10</time>
   <energy>
    <i name="e_fr_energy">   -125.44107670 </i>
    <i name="e_wo_entrp">   -125.43954373 </i>
    <i name="e_0_energy">   -125.44031021 </i>
   </energy>
  </scstep>
  <scstep>
   <time name="dav">    7.48    7.53</time>
   <time name="total">    7.80    7.86</time>
   <energy>
    <i name="e_fr_energy">   -125.46432962 </i>
    <i name="e_wo_entrp">   -125.46279203 </i>
    <i name="e_0_energy">   -125.46356082 </i>
   </energy>
  </scstep>
  <scstep>
   <time name="dav">    7.54    7.58</time>
   <time name="total">    7.87    7.92</time>
   <energy>
    <i name="e_fr_energy">   -125.47085252 </i>
    <i name="e_wo_entrp">   -125.46931443 </i>
    <i name="e_0_energy">   -125.47008347 </i>
   </energy>
  </scstep>
  <scstep>
   <time name="dav">    6.82    6.86</time>
   <time name="total">    7.14    7.20</time>
   <energy>
    <i name="e_fr_energy">   -125.47284137 </i>
    <i name="e_wo_entrp">   -125.47130333 </i>
    <i name="e_0_energy">   -125.47207235 </i>
   </energy>
  </scstep>
  <scstep>
   <time name="dav">    6.96    7.01</time>
   <time name="total">    7.29    7.35</time>
   <energy>
    <i name="e_fr_energy">   -125.47405551 </i>
    <i name="e_wo_entrp">   -125.47251749 </i>
    <i name="e_0_energy">   -125.47328650 </i>
   </energy>
  </scstep>
  <scstep>
   <time name="dav">    7.53    7.59</time>
   <time name="total">    7.86    7.92</time>
   <energy>
    <i name="e_fr_energy">   -125.47482407 </i>
    <i name="e_wo_entrp">   -125.47328606 </i>
    <i name="e_0_energy">   -125.47405506 </i>
   </energy>
  </scstep>
  <scstep>
   <time name="dav">    8.52    8.57</time>
   <time name="total">    8.85    8.92</time>
   <energy>
    <i name="e_fr_energy">   -125.47523704 </i>
    <i name="e_wo_entrp">   -125.47369905 </i>
    <i name="e_0_energy">   -125.47446804 </i>
   </energy>
  </scstep>
  <scstep>
   <time name="dav">    9.27    9.33</time>
   <time name="total">    9.60    9.67</time>
   <energy>
    <i name="e_fr_energy">   -125.47527856 </i>
    <i name="e_wo_entrp">   -125.47374056 </i>
    <i name="e_0_energy">   -125.47450956 </i>
   </energy>
  </scstep>
  <scstep>
   <time name="dav">    8.64    8.69</time>
   <time name="total">    8.97    9.03</time>
   <energy>
    <i name="e_fr_energy">   -125.47530115 </i>
    <i name="e_wo_entrp">   -125.47376313 </i>
    <i name="e_0_energy">   -125.47453214 </i>
   </energy>
  </scstep>
  <scstep>
   <time name="dav">    9.22    9.27</time>
   <time name="total">    9.54    9.61</time>
   <energy>
    <i name="e_fr_energy">   -125.47532375 </i>
    <i name="e_wo_entrp">   -125.47378572 </i>
    <i name="e_0_energy">   -125.47455473 </i>
   </energy>
  </scstep>
  <scstep>
   <time name="dav">    8.76    8.81</time>
   <time name="total">    9.08    9.15</time>
   <energy>
    <i name="e_fr_energy">   -125.47533421 </i>
    <i name="e_wo_entrp">   -125.47379617 </i>
    <i name="e_0_energy">   -125.47456519 </i>
   </energy>
  </scstep>
  <scstep>
   <time name="dav">    9.67    9.73</time>
   <time name="total">   10.00   10.07</time>
   <energy>
    <i name="e_fr_energy">   -125.47533653 </i>
    <i name="e_wo_entrp">   -125.47379849 </i>
    <i name="e_0_energy">   -125.47456751 </i>
   </energy>
  </scstep>
  <scstep>
   <time name="dav">    8.50    8.55</time>
   <time name="total">    8.82    8.88</time>
   <energy>
    <i name="e_fr_energy">   -125.47533754 </i>
    <i name="e_wo_entrp">   -125.47379950 </i>
    <i name="e_0_energy">   -125.47456852 </i>
   </energy>
  </scstep>
  <scstep>
   <time name="dav">    9.26    9.33</time>
   <time name="total">    9.59    9.67</time>
   <energy>
    <i name="e_fr_energy">   -125.47533804 </i>
    <i name="e_wo_entrp">   -125.47380000 </i>
    <i name="e_0_energy">   -125.47456902 </i>
   </energy>
  </scstep>
  <scstep>
   <time name="dav">    9.06    9.13</time>
   <time name="total">    9.39    9.46</time>
   <energy>
    <i name="e_fr_energy">   -125.47533822 </i>
    <i name="e_wo_entrp">   -125.47380018 </i>
    <i name="e_0_energy">   -125.47456920 </i>
   </energy>
  </scstep>
  <scstep>
   <time name="dav">    8.62    8.67</time>
   <time name="total">    8.94    9.00</time>
   <energy>
    <i name="e_fr_energy">   -125.47533836 </i>
    <i name="e_wo_entrp">   -125.47380032 </i>
    <i name="e_0_energy">   -125.47456934 </i>
   </energy>
  </scstep>
  <scstep>
   <time name="dav">    9.06    9.12</time>
   <time name="total">    9.39    9.46</time>
   <energy>
    <i name="e_fr_energy">   -125.47533841 </i>
    <i name="e_wo_entrp">   -125.47380037 </i>
    <i name="e_0_energy">   -125.47456939 </i>
   </energy>
  </scstep>
  <scstep>
   <time name="dav">   10.20   10.26</time>
   <time name="total">   10.24   10.29</time>
   <energy>
    <i name="alphaZ">     57.78124218 </i>
    <i name="ewald">   4723.51255520 </i>
    <i name="hartreedc">  -6479.74794945 </i>
    <i name="XCdc">    179.94046338 </i>
    <i name="pawpsdc">   5614.28633337 </i>
    <i name="pawaedc">  -5618.64853695 </i>
    <i name="eentropy">     -0.00153804 </i>
    <i name="bandstr">   -505.86132869 </i>
    <i name="atom">   1903.26342058 </i>
    <i name="e_fr_energy">   -125.47533842 </i>
    <i name="e_wo_entrp">   -125.47380038 </i>
    <i name="e_0_energy">   -125.47456940 </i>
   </energy>
  </scstep>
  <structure>
   <crystal>
    <varray name="basis" >
     <v>       4.21581167       2.43400000       0.00000000 </v>
     <v>      -4.21581167       2.43400000       0.00000000 </v>
     <v>       0.00000000       0.00000000      15.00000000 </v>
    </varray>
    <i name="volume">    307.83856782 </i>
    <varray name="rec_basis" >
     <v>       0.11860112       0.20542317       0.00000000 </v>
     <v>      -0.11860112       0.20542317       0.00000000 </v>
     <v>       0.00000000       0.00000000       0.06666667 </v>
    </varray>
   </crystal>
   <varray name="positions" >
    <v>       0.00415361       0.00267210       0.12034134 </v>
    <v>       0.35695335       0.00285503       0.09748893 </v>
    <v>       0.00423858       0.35550699       0.09749256 </v>
    <v>       0.65142295       0.65006557       0.09747688 </v>
    <v>       0.32808646       0.32671938       0.10030508 </v>
    <v>       0.68027775       0.00278085       0.10027562 </v>
    <v>       0.00416530       0.67883808       0.10026559 </v>
    <v>       0.99999933       0.49999967       0.33373333 </v>
    <v>       0.16666633       0.33333267       0.33373333 </v>
    <v>       0.99999933       0.99999967       0.33373333 </v>
    <v>       0.16666633       0.83333267       0.33373333 </v>
    <v>       0.49999933       0.49999967       0.33373333 </v>
    <v>       0.66666633       0.33333267       0.33373333 </v>
    <v>       0.49999933       0.99999967       0.33373333 </v>
    <v>       0.66666633       0.83333267       0.33373333 </v>
   </varray>
  </structure>
  <varray name="forces" >
   <v>      -0.00441478       0.00511148      -0.38847247 </v>
   <v>      -0.12535920      -0.05374073       0.11847577 </v>
   <v>       0.10462644      -0.08884258       0.11797254 </v>
   <v>       0.02302329       0.13529714       0.11958320 </v>
   <v>       0.03045317      -0.40033387      -0.00204306 </v>
   <v>       0.32975747       0.22368563       0.00055908 </v>
   <v>      -0.35839191       0.17800902       0.00145385 </v>
   <v>       0.01356604       0.00500673       0.00314372 </v>
   <v>      -0.03552535       0.04060211       0.02221641 </v>
   <v>       0.00051435      -0.00028508      -0.03047069 </v>
   <v>       0.05240341       0.01003591       0.02311926 </v>
   <v>      -0.01081855       0.01069554       0.00404119 </v>
   <v>      -0.00045207       0.00026715      -0.01467467 </v>
   <v>      -0.00213649      -0.01417923       0.00299128 </v>
   <v>      -0.01724581      -0.05132923       0.02210461 </v>
  </varray>
  <varray name="stress" >
   <v>     -28.76086271       0.01713488      -0.00147470 </v>
   <v>       0.01713487     -28.73383642       0.02388684 </v>
   <v>      -0.00147473       0.02388685      -2.21347693 </v>
  </varray>
  <energy>
   <i name="e_fr_energy">   -127.07503351 </i>
   <i name="e_wo_entrp">   -127.07349548 </i>
   <i name="e_0_energy">   -127.07426450 </i>
  </energy>
  <time name="totalsc">  275.54  278.02</time>
 </calculation>
 <calculation>
  <scstep>
   <time name="dav">    5.60    5.64</time>
   <time name="total">    5.93    5.98</time>
   <energy>
    <i name="alphaZ">     57.78124218 </i>
    <i name="ewald">   4727.38907388 </i>
    <i name="hartreedc">  -6482.09801501 </i>
    <i name="XCdc">    180.02805003 </i>
    <i name="pawpsdc">   5614.28600573 </i>
    <i name="pawaedc">  -5618.64820929 </i>
    <i name="eentropy">     -0.00154337 </i>
    <i name="bandstr">   -507.48684480 </i>
    <i name="atom">   1903.26342058 </i>
    <i name="e_fr_energy">   -125.48682006 </i>
    <i name="e_wo_entrp">   -125.48527670 </i>
    <i name="e_0_energy">   -125.48604838 </i>
   </energy>
  </scstep>
  <scstep>
   <time name="dav">   11.12   11.18</time>
   <time name="total">   11.45   11.52</time>
   <energy>
    <i name="e_fr_energy">   -125.47617672 </i>
    <i name="e_wo_entrp">   -125.47463322 </i>
    <i name="e_0_energy">   -125.47540497 </i>
   </energy>
  </scstep>
  <scstep>
   <time name="dav">    9.29    9.35</time>
   <time name="total">    9.62    9.69</time>
   <energy>
    <i name="e_fr_energy">   -125.47495636 </i>
    <i name="e_wo_entrp">   -125.47341280 </i>
    <i name="e_0_energy">   -125.47418458 </i>
   </energy>
  </scstep>
  <scstep>
   <time name="dav">   11.33   11.39</time>
   <time name="total">   11.65   11.73</time>
   <energy>
    <i name="e_fr_energy">   -125.47489864 </i>
    <i name="e_wo_entrp">   -125.47335530 </i>
    <i name="e_0_energy">   -125.47412697 </i>
   </energy>
  </scstep>
  <scstep>
   <time name="dav">   10.90   10.96</time>
   <time name="total">   11.23   11.30</time>
   <energy>
    <i name="e_fr_energy">   -125.47490190 </i>
    <i name="e_wo_entrp">   -125.47335864 </i>
    <i name="e_0_energy">   -125.47413027 </i>
   </energy>
  </scstep>
  <scstep>
   <time name="dav">    7.54    7.58</time>
   <time name="total">    7.87    7.92</time>
   <energy>
    <i name="e_fr_energy">   -125.47490184 </i>
    <i name="e_wo_entrp">   -125.47335857 </i>
    <i name="e_0_energy">   -125.47413020 </i>
   </energy>
  </scstep>
  <scstep>
   <time name="dav">   10.37   10.43</time>
   <time name="total">   10.70   10.77</time>
   <energy>
    <i name="e_fr_energy">   -125.47490223 </i>
    <i name="e_wo_entrp">   -125.47335896 </i>
    <i name="e_0_energy">   -125.47413060 </i>
   </energy>
  </scstep>
  <scstep>
   <time name="dav">    8.78    8.93</time>
   <time name="total">    9.10    9.27</time>
   <energy>
    <i name="e_fr_energy">   -125.47490274 </i>
    <i name="e_wo_entrp">   -125.47335947 </i>
    <i name="e_0_energy">   -125.47413111 </i>
   </energy>
  </scstep>
  <scstep>
   <time name="dav">    9.22    9.28</time>
   <time name="total">    9.55    9.63</time>
   <energy>
    <i name="e_fr_energy">   -125.47490324 </i>
    <i name="e_wo_entrp">   -125.47335997 </i>
    <i name="e_0_energy">   -125.47413161 </i>
   </energy>
  </scstep>
  <scstep>
   <time name="dav">    8.66    8.71</time>
   <time name="total">    8.99    9.05</time>
   <energy>
    <i name="e_fr_energy">   -125.47490393 </i>
    <i name="e_wo_entrp">   -125.47336067 </i>
    <i name="e_0_energy">   -125.47413230 </i>
   </energy>
  </scstep>
  <scstep>
   <time name="dav">    9.91    9.97</time>
   <time name="total">   10.24   10.31</time>
   <energy>
    <i name="e_fr_energy">   -125.47490429 </i>
    <i name="e_wo_entrp">   -125.47336104 </i>
    <i name="e_0_energy">   -125.47413266 </i>
   </energy>
  </scstep>
  <scstep>
   <time name="dav">    8.85    8.90</time>
   <time name="total">    9.18    9.25</time>
   <energy>
    <i name="e_fr_energy">   -125.47490450 </i>
    <i name="e_wo_entrp">   -125.47336125 </i>
    <i name="e_0_energy">   -125.47413288 </i>
   </energy>
  </scstep>
  <scstep>
   <time name="dav">    9.46    9.52</time>
   <time name="total">    9.79    9.86</time>
   <energy>
    <i name="e_fr_energy">   -125.47490461 </i>
    <i name="e_wo_entrp">   -125.47336136 </i>
    <i name="e_0_energy">   -125.47413298 </i>
   </energy>
  </scstep>
  <scstep>
   <time name="dav">   10.01   10.07</time>
   <time name="total">   10.33   10.40</time>
   <energy>
    <i name="e_fr_energy">   -125.47490465 </i>
    <i name="e_wo_entrp">   -125.47336139 </i>
    <i name="e_0_energy">   -125.47413302 </i>
   </energy>
  </scstep>
  <scstep>
   <time name="dav">    9.34    9.40</time>
   <time name="total">    9.67    9.73</time>
   <energy>
    <i name="e_fr_energy">   -125.47490468 </i>
    <i name="e_wo_entrp">   -125.47336142 </i>
    <i name="e_0_energy">   -125.47413305 </i>
   </energy>
  </scstep>
  <scstep>
   <time name="dav">   10.34   10.41</time>
   <time name="total">   10.37   10.45</time>
   <energy>
    <i name="alphaZ">     57.78124218 </i>
    <i name="ewald">   4727.38907388 </i>
    <i name="hartreedc">  -6482.95987649 </i>
    <i name="XCdc">    180.04684805 </i>
    <i name="pawpsdc">   5642.71743230 </i>
    <i name="pawaedc">  -5647.08896737 </i>
    <i name="eentropy">     -0.00154325 </i>
    <i name="bandstr">   -506.62253456 </i>
    <i name="atom">   1903.26342058 </i>
    <i name="e_fr_energy">   -125.47490469 </i>
    <i name="e_wo_entrp">   -125.47336143 </i>
    <i name="e_0_energy">   -125.47413306 </i>
   </energy>
  </scstep>
  <structure>
   <crystal>
    <varray name="basis" >
     <v>       4.21581167       2.43400000       0.00000000 </v>
     <v>      -4.21581167       2.43400000       0.00000000 </v>
     <v>       0.00000000       0.00000000      15.00000000 </v>
    </varray>
    <i name="volume">    307.83856782 </i>
    <varray name="rec_basis" >
     <v>       0.11860112       0.20542317       0.00000000 </v>
     <v>      -0.11860112       0.20542317       0.00000000 </v>
     <v>       0.00000000       0.00000000       0.06666667 </v>
    </varray>
   </crystal>
   <varray name="positions" >
    <v>       0.00417900       0.00274802       0.11909194 </v>
    <v>       0.35570351       0.00303971       0.09786997 </v>
    <v>       0.00395677       0.35402791       0.09787198 </v>
    <v>       0.65289550       0.65127466       0.09786148 </v>
    <v>       0.32429333       0.32257776       0.10029851 </v>
    <v>       0.68438126       0.00311086       0.10027742 </v>
    <v>       0.00387881       0.68265276       0.10027026 </v>
    <v>       0.00012657       0.49997166       0.33374344 </v>
    <v>       0.16686544       0.33393830       0.33380479 </v>
    <v>       0.99999945       0.99999390       0.33363533 </v>
    <v>       0.16706562       0.83313229       0.33380769 </v>
    <v>       0.50004343       0.50016756       0.33374633 </v>
    <v>       0.66666639       0.33333790       0.33368614 </v>
    <v>       0.49984659       0.99987137       0.33374295 </v>
    <v>       0.66605898       0.83292266       0.33380443 </v>
   </varray>
  </structure>
  <varray name="forces" >
   <v>      -0.00132737      -0.00025125      -0.15267000 </v>
   <v>       0.24381442       0.14067417       0.06293652 </v>
   <v>      -0.24755566       0.13959148       0.06255440 </v>
   <v>       0.00317581      -0.27991053       0.06366648 </v>
   <v>      -0.00194530       0.60227890      -0.02398685 </v>
   <v>      -0.51710692      -0.30369743      -0.02207108 </v>
   <v>       0.52068194      -0.29944160      -0.02180186 </v>
   <v>      -0.05367946      -0.02006945       0.01083298 </v>
   <v>       0.12077021      -0.13224430      -0.00087800 </v>
   <v>      -0.00182020       0.00116876       0.00959139 </v>
   <v>      -0.17312615      -0.03550183      -0.00071769 </v>
   <v>       0.04315973      -0.04091815       0.01097658 </v>
   <v>       0.00187421      -0.00037480      -0.00820540 </v>
   <v>       0.00810758       0.05631959       0.01074830 </v>
   <v>       0.05497714       0.17237642      -0.00097577 </v>
  </varray>
  <varray name="stress" >
   <v>     -25.85417629       0.00227256       0.00349766 </v>
   <v>       0.00227256     -25.85119820       0.01706409 </v>
   <v>       0.00349766       0.01706408      -1.80841676 </v>
  </varray>
  <energy>
   <i name="e_fr_energy">   -127.07391320 </i>
   <i name="e_wo_entrp">   -127.07236995 </i>
   <i name="e_0_energy">   -127.07314157 </i>
  </energy>
  <time name="totalsc">  160.46  161.68</time>
 </calculation>
 <calculation>
  <scstep>
   <time name="dav">    5.60    5.63</time>
   <time name="total">    5.93    5.97</time>
   <energy>
    <i name="alphaZ">     57.78124218 </i>
    <i name="ewald">   4725.33653144 </i>
    <i name="hartreedc">  -6481.69895833 </i>
    <i name="XCdc">    179.99999251 </i>
    <i name="pawpsdc">   5642.71729055 </i>
    <i name="pawaedc">  -5647.08882558 </i>
    <i name="eentropy">     -0.00154068 </i>
    <i name="bandstr">   -505.79668753 </i>
    <i name="atom">   1903.26342058 </i>
    <i name="e_fr_energy">   -125.48753485 </i>
    <i name="e_wo_entrp">   -125.48599417 </i>
    <i name="e_0_energy">   -125.48676451 </i>
   </energy>
  </scstep>
  <scstep>
   <time name="dav">   11.10   11.16</time>
   <time name="total">   11.42   11.50</time>
   <energy>
    <i name="e_fr_energy">   -125.48464833 </i>
    <i name="e_wo_entrp">   -125.48310778 </i>
    <i name="e_0_energy">   -125.48387806 </i>
   </energy>
  </scstep>
  <scstep>
   <time name="dav">    9.96   10.02</time>
   <time name="total">   10.28   10.36</time>
   <energy>
    <i name="e_fr_energy">   -125.48433305 </i>
    <i name="e_wo_entrp">   -125.48279256 </i>
    <i name="e_0_energy">   -125.48356281 </i>
   </energy>
  </scstep>
  <scstep>
   <time name="dav">    9.72    9.77</time>
   <time name="total">   10.05   10.11</time>
   <energy>
    <i name="e_fr_energy">   -125.48431804 </i>
    <i name="e_wo_entrp">   -125.48277737 </i>
    <i name="e_0_energy">   -125.48354771 </i>
   </energy>
  </scstep>
  <scstep>
   <time name="dav">   10.80   10.87</time>
   <time name="total">   11.13   11.21</time>
   <energy>
    <i name="e_fr_energy">   -125.48431881 </i>
    <i name="e_wo_entrp">   -125.48277814 </i>
    <i name="e_0_energy">   -125.48354847 </i>
   </energy>
  </scstep>
  <scstep>
   <time name="dav">    8.02    8.07</time>
   <time name="total">    8.35    8.42</time>
   <energy>
    <i name="e_fr_energy">   -125.48431882 </i>
    <i name="e_wo_entrp">   -125.48277815 </i>
    <i name="e_0_energy">   -125.48354849 </i>
   </energy>
  </scstep>
  <scstep>
   <time name="dav">   10.99   11.05</time>
   <time name="total">   11.32   11.39</time>
   <energy>
    <i name="e_fr_energy">   -125.48431898 </i>
    <i name="e_wo_entrp">   -125.48277831 </i>
    <i name="e_0_energy">   -125.48354865 </i>
   </energy>
  </scstep>
  <scstep>
   <time name="dav">    8.02    8.07</time>
   <time name="total">    8.35    8.41</time>
   <energy>
    <i name="e_fr_energy">   -125.48431922 </i>
    <i name="e_wo_entrp">   -125.48277854 </i>
    <i name="e_0_energy">   -125.48354888 </i>
   </energy>
  </scstep>
  <scstep>
   <time name="dav">    9.22    9.27</time>
   <time name="total">    9.54    9.60</time>
   <energy>
    <i name="e_fr_energy">   -125.48431948 </i>
    <i name="e_wo_entrp">   -125.48277880 </i>
    <i name="e_0_energy">   -125.48354914 </i>
   </energy>
  </scstep>
  <scstep>
   <time name="dav">    8.64    8.69</time>
   <time name="total">    8.97    9.03</time>
   <energy>
    <i name="e_fr_energy">   -125.48431990 </i>
    <i name="e_wo_entrp">   -125.48277921 </i>
    <i name="e_0_energy">   -125.48354955 </i>
   </energy>
  </scstep>
  <scstep>
   <time name="dav">   10.07   10.12</time>
   <time name="total">   10.39   10.46</time>
   <energy>
    <i name="e_fr_energy">   -125.48432006 </i>
    <i name="e_wo_entrp">   -125.48277938 </i>
    <i name="e_0_energy">   -125.48354972 </i>
   </energy>
  </scstep>
  <scstep>
   <time name="dav">    9.02    9.07</time>
   <time name="total">    9.34    9.41</time>
   <energy>
    <i name="e_fr_energy">   -125.48432019 </i>
    <i name="e_wo_entrp">   -125.48277951 </i>
    <i name="e_0_energy">   -125.48354985 </i>
   </energy>
  </scstep>
  <scstep>
   <time name="dav">    9.13    9.18</time>
   <time name="total">    9.46    9.53</time>
   <energy>
    <i name="e_fr_energy">   -125.48432025 </i>
    <i name="e_wo_entrp">   -125.48277957 </i>
    <i name="e_0_energy">   -125.48354991 </i>
   </energy>
  </scstep>
  <scstep>
   <time name="dav">   10.39   10.45</time>
   <time name="total">   10.72   10.79</time>
   <energy>
    <i name="e_fr_energy">   -125.48432027 </i>
    <i name="e_wo_entrp">   -125.48277959 </i>
    <i name="e_0_energy">   -125.48354993 </i>
   </energy>
  </scstep>
  <scstep>
   <time name="dav">    9.33    9.38</time>
   <time name="total">    9.66    9.72</time>
   <energy>
    <i name="e_fr_energy">   -125.48432029 </i>
    <i name="e_wo_entrp">   -125.48277961 </i>
    <i name="e_0_energy">   -125.48354995 </i>
   </energy>
  </scstep>
  <scstep>
   <time name="dav">   10.58   10.64</time>
   <time name="total">   10.61   10.67</time>
   <energy>
    <i name="alphaZ">     57.78124218 </i>
    <i name="ewald">   4725.33653144 </i>
    <i name="hartreedc">  -6481.26325598 </i>
    <i name="XCdc">    179.99044951 </i>
    <i name="pawpsdc">   5627.34893831 </i>
    <i name="pawaedc">  -5631.71530697 </i>
    <i name="eentropy">     -0.00154068 </i>
    <i name="bandstr">   -506.22479868 </i>
    <i name="atom">   1903.26342058 </i>
    <i name="e_fr_energy">   -125.48432029 </i>
    <i name="e_wo_entrp">   -125.48277961 </i>
    <i name="e_0_energy">   -125.48354995 </i>
   </energy>
  </scstep>
  <structure>
   <crystal>
    <varray name="basis" >
     <v>       4.21581167       2.43400000       0.00000000 </v>
     <v>      -4.21581167       2.43400000       0.00000000 </v>
     <v>       0.00000000       0.00000000      15.00000000 </v>
    </varray>
    <i name="volume">    307.83856782 </i>
    <varray name="rec_basis" >
     <v>       0.11860112       0.20542317       0.00000000 </v>
     <v>      -0.11860112       0.20542317       0.00000000 </v>
     <v>       0.00000000       0.00000000       0.06666667 </v>
    </varray>
   </crystal>
   <varray name="positions" >
    <v>       0.00416590       0.00270885       0.11973659 </v>
    <v>       0.35634839       0.00294442       0.09767337 </v>
    <v>       0.00410217       0.35479107       0.09767622 </v>
    <v>       0.65213572       0.65065081       0.09766304 </v>
    <v>       0.32625046       0.32471469       0.10030190 </v>
    <v>       0.68226399       0.00294059       0.10027649 </v>
    <v>       0.00402663       0.68068452       0.10026785 </v>
    <v>       0.00006092       0.49998611       0.33373823 </v>
    <v>       0.16676271       0.33362582       0.33376792 </v>
    <v>       0.99999939       0.99999687       0.33368590 </v>
    <v>       0.16685960       0.83323568       0.33376932 </v>
    <v>       0.50002068       0.50008093       0.33373962 </v>
    <v>       0.66666636       0.33333520       0.33371049 </v>
    <v>       0.49992540       0.99993757       0.33373799 </v>
    <v>       0.66637235       0.83313421       0.33376774 </v>
   </varray>
  </structure>
  <varray name="forces" >
   <v>      -0.00303025       0.00272387      -0.27319744 </v>
   <v>       0.05831048       0.04376292       0.09143274 </v>
   <v>      -0.07138293       0.02422982       0.09099006 </v>
   <v>       0.01394420      -0.07181200       0.09237189 </v>
   <v>       0.01525625       0.08545604      -0.01287955 </v>
   <v>      -0.08090002      -0.03135314      -0.01065292 </v>
   <v>       0.06751888      -0.05376494      -0.01007978 </v>
   <v>      -0.01883681      -0.00713862       0.00687413 </v>
   <v>       0.04008533      -0.04328338       0.01105993 </v>
   <v>      -0.00062467       0.00041781      -0.01107996 </v>
   <v>      -0.05691973      -0.01187014       0.01160172 </v>
   <v>       0.01523347      -0.01415389       0.00740602 </v>
   <v>       0.00067535      -0.00004749      -0.01155521 </v>
   <v>       0.00274613       0.01982032       0.00675480 </v>
   <v>       0.01792432       0.05701283       0.01095357 </v>
  </varray>
  <varray name="stress" >
   <v>     -27.51998021       0.00995986       0.00083203 </v>
   <v>       0.00995988     -27.50716361       0.02103588 </v>
   <v>       0.00083202       0.02103589      -2.00717796 </v>
  </varray>
  <energy>
   <i name="e_fr_energy">   -127.08367767 </i>
   <i name="e_wo_entrp">   -127.08213699 </i>
   <i name="e_0_energy">   -127.08290733 </i>
  </energy>
  <time name="totalsc">  160.43  161.52</time>
 </calculation>
 <calculation>
  <scstep>
   <time name="dav">    5.60    5.63</time>
   <time name="total">    5.93    5.97</time>
   <energy>
    <i name="alphaZ">     57.78124218 </i>
    <i name="ewald">   4725.47081201 </i>
    <i name="hartreedc">  -6481.15304462 </i>
    <i name="XCdc">    180.00779881 </i>
    <i name="pawpsdc">   5627.34896604 </i>
    <i name="pawaedc">  -5631.71533473 </i>
    <i name="eentropy">     -0.00154371 </i>
    <i name="bandstr">   -506.49205888 </i>
    <i name="atom">   1903.26342058 </i>
    <i name="e_fr_energy">   -125.48974231 </i>
    <i name="e_wo_entrp">   -125.48819861 </i>
    <i name="e_0_energy">   -125.48897046 </i>
   </energy>
  </scstep>
  <scstep>
   <time name="dav">   11.96   12.02</time>
   <time name="total">   12.28   12.36</time>
   <energy>
    <i name="e_fr_energy">   -125.48976925 </i>
    <i name="e_wo_entrp">   -125.48822619 </i>
    <i name="e_0_energy">   -125.48899772 </i>
   </energy>
  </scstep>
  <scstep>
   <time name="dav">    8.64    8.69</time>
   <time name="total">    8.97    9.03</time>
   <energy>
    <i name="e_fr_energy">   -125.48975725 </i>
    <i name="e_wo_entrp">   -125.48821450 </i>
    <i name="e_0_energy">   -125.48898588 </i>
   </energy>
  </scstep>
  <scstep>
   <time name="dav">   10.94   11.00</time>
   <time name="total">   11.26   11.33</time>
   <energy>
    <i name="e_fr_energy">   -125.48975779 </i>
    <i name="e_wo_entrp">   -125.48821499 </i>
    <i name="e_0_energy">   -125.48898639 </i>
   </energy>
  </scstep>
  <scstep>
   <time name="dav">    9.36    9.42</time>
   <time name="total">    9.68    9.75</time>
   <energy>
    <i name="e_fr_energy">   -125.48975848 </i>
    <i name="e_wo_entrp">   -125.48821566 </i>
    <i name="e_0_energy">   -125.48898707 </i>
   </energy>
  </scstep>
  <scstep>
   <time name="dav">    9.08    9.13</time>
   <time name="total">    9.40    9.47</time>
   <energy>
    <i name="e_fr_energy">   -125.48975844 </i>
    <i name="e_wo_entrp">   -125.48821567 </i>
    <i name="e_0_energy">   -125.48898705 </i>
   </energy>
  </scstep>
  <scstep>
   <time name="dav">    9.14    9.20</time>
   <time name="total">    9.47    9.53</time>
   <energy>
    <i name="e_fr_energy">   -125.48975853 </i>
    <i name="e_wo_entrp">   -125.48821576 </i>
    <i name="e_0_energy">   -125.48898715 </i>
   </energy>
  </scstep>
  <scstep>
   <time name="dav">    9.49    9.54</time>
   <time name="total">    9.81    9.88</time>
   <energy>
    <i name="e_fr_energy">   -125.48975874 </i>
    <i name="e_wo_entrp">   -125.48821597 </i>
    <i name="e_0_energy">   -125.48898736 </i>
   </energy>
  </scstep>
  <scstep>
   <time name="dav">    9.63    9.69</time>
   <time name="total">    9.95   10.02</time>
   <energy>
    <i name="e_fr_energy">   -125.48975887 </i>
    <i name="e_wo_entrp">   -125.48821611 </i>
    <i name="e_0_energy">   -125.48898749 </i>
   </energy>
  </scstep>
  <scstep>
   <time name="dav">    9.89    9.95</time>
   <time name="total">   10.22   10.30</time>
   <energy>
    <i name="e_fr_energy">   -125.48975904 </i>
    <i name="e_wo_entrp">   -125.48821628 </i>
    <i name="e_0_energy">   -125.48898766 </i>
   </energy>
  </scstep>
  <scstep>
   <time name="dav">   10.16   10.22</time>
   <time name="total">   10.48   10.55</time>
   <energy>
    <i name="e_fr_energy">   -125.48975917 </i>
    <i name="e_wo_entrp">   -125.48821641 </i>
    <i name="e_0_energy">   -125.48898779 </i>
   </energy>
  </scstep>
  <scstep>
   <time name="dav">    8.79    8.85</time>
   <time name="total">    9.12    9.19</time>
   <energy>
    <i name="e_fr_energy">   -125.48975937 </i>
    <i name="e_wo_entrp">   -125.48821661 </i>
    <i name="e_0_energy">   -125.48898799 </i>
   </energy>
  </scstep>
  <scstep>
   <time name="dav">    9.00    9.06</time>
   <time name="total">    9.32    9.39</time>
   <energy>
    <i name="e_fr_energy">   -125.48975952 </i>
    <i name="e_wo_entrp">   -125.48821676 </i>
    <i name="e_0_energy">   -125.48898814 </i>
   </energy>
  </scstep>
  <scstep>
   <time name="dav">    8.75    8.81</time>
   <time name="total">    9.08    9.15</time>
   <energy>
    <i name="e_fr_energy">   -125.48975957 </i>
    <i name="e_wo_entrp">   -125.48821681 </i>
    <i name="e_0_energy">   -125.48898819 </i>
   </energy>
  </scstep>
  <scstep>
   <time name="dav">    9.02    9.08</time>
   <time name="total">    9.35    9.41</time>
   <energy>
    <i name="e_fr_energy">   -125.48975960 </i>
    <i name="e_wo_entrp">   -125.48821684 </i>
    <i name="e_0_energy">   -125.48898822 </i>
   </energy>
  </scstep>
  <scstep>
   <time name="dav">   10.17   10.23</time>
   <time name="total">   10.21   10.27</time>
   <energy>
    <i name="alphaZ">     57.78124218 </i>
    <i name="ewald">   4725.47081201 </i>
    <i name="hartreedc">  -6481.12599665 </i>
    <i name="XCdc">    180.00717919 </i>
    <i name="pawpsdc">   5632.39147936 </i>
    <i name="pawaedc">  -5636.75959773 </i>
    <i name="eentropy">     -0.00154276 </i>
    <i name="bandstr">   -506.51675578 </i>
    <i name="atom">   1903.26342058 </i>
    <i name="e_fr_energy">   -125.48975960 </i>
    <i name="e_wo_entrp">   -125.48821684 </i>
    <i name="e_0_energy">   -125.48898822 </i>
   </energy>
  </scstep>
  <structure>
   <crystal>
    <varray name="basis" >
     <v>       4.21581167       2.43400000       0.00000000 </v>
     <v>      -4.21581167       2.43400000       0.00000000 </v>
     <v>       0.00000000       0.00000000      15.00000000 </v>
    </varray>
    <i name="volume">    307.83856782 </i>
    <varray name="rec_basis" >
     <v>       0.11860112       0.20542317       0.00000000 </v>
     <v>      -0.11860112       0.20542317       0.00000000 </v>
     <v>       0.00000000       0.00000000       0.06666667 </v>
    </varray>
   </crystal>
   <varray name="positions" >
    <v>       0.00417922       0.00276253       0.11871940 </v>
    <v>       0.35680725       0.00306804       0.09800699 </v>
    <v>       0.00389954       0.35510135       0.09800826 </v>
    <v>       0.65183918       0.65016284       0.09800002 </v>
    <v>       0.32639237       0.32463611       0.10026354 </v>
    <v>       0.68232302       0.00313759       0.10024610 </v>
    <v>       0.00384269       0.68056004       0.10023963 </v>
    <v>      -0.00007584       0.50001419       0.33375991 </v>
    <v>       0.16662024       0.33314655       0.33381293 </v>
    <v>       0.99999992       0.00000274       0.33363596 </v>
    <v>       0.16653529       0.83338549       0.33381643 </v>
    <v>       0.49998114       0.49990778       0.33376337 </v>
    <v>       0.66666942       0.33333227       0.33366850 </v>
    <v>       0.50008762       0.00007609       0.33375924 </v>
    <v>       0.66685961       0.83347372       0.33381238 </v>
   </varray>
  </structure>
  <varray name="forces" >
   <v>      -0.00046517       0.00016157      -0.25097256 </v>
   <v>       0.04804728       0.02687887       0.05217518 </v>
   <v>      -0.04860401       0.02803749       0.05196815 </v>
   <v>       0.00088782      -0.05446840       0.05260105 </v>
   <v>      -0.00405019       0.09583320       0.01936364 </v>
   <v>      -0.07963533      -0.05223797       0.02084469 </v>
   <v>       0.08354273      -0.04493446       0.02106476 </v>
   <v>       0.04837651       0.01955484       0.00715732 </v>
   <v>      -0.08783486       0.08435777       0.00078825 </v>
   <v>       0.00201737      -0.00005798       0.01011371 </v>
   <v>       0.11517871       0.03071497       0.00080609 </v>
   <v>      -0.03894550       0.03567372       0.00714829 </v>
   <v>      -0.00175389       0.00007387      -0.00087671 </v>
   <v>      -0.00595667      -0.05007733       0.00708134 </v>
   <v>      -0.03080479      -0.11951017       0.00073680 </v>
  </varray>
  <varray name="stress" >
   <v>     -27.16065434       0.01278809       0.00470211 </v>
   <v>       0.01278809     -27.13771572       0.01556101 </v>
   <v>       0.00470212       0.01556100      -1.91009546 </v>
  </varray>
  <energy>
   <i name="e_fr_energy">   -127.08898717 </i>
   <i name="e_wo_entrp">   -127.08744441 </i>
   <i name="e_0_energy">   -127.08821579 </i>
  </energy>
  <time name="totalsc">  159.29  160.41</time>
 </calculation>
 <calculation>
  <scstep>
   <time name="dav">    5.59    5.63</time>
   <time name="total">    5.92    5.97</time>
   <energy>
    <i name="alphaZ">     57.78124218 </i>
    <i name="ewald">   4725.55401328 </i>
    <i name="hartreedc">  -6480.83642325 </i>
    <i name="XCdc">    180.03335785 </i>
    <i name="pawpsdc">   5632.39138517 </i>
    <i name="pawaedc">  -5636.75950357 </i>
    <i name="eentropy">     -0.00154711 </i>
    <i name="bandstr">   -506.91933518 </i>
    <i name="atom">   1903.26342058 </i>
    <i name="e_fr_energy">   -125.49339006 </i>
    <i name="e_wo_entrp">   -125.49184295 </i>
    <i name="e_0_energy">   -125.49261650 </i>
   </energy>
  </scstep>
  <scstep>
   <time name="dav">   11.66   11.71</time>
   <time name="total">   11.98   12.05</time>
   <energy>
    <i name="e_fr_energy">   -125.49347948 </i>
    <i name="e_wo_entrp">   -125.49193338 </i>
    <i name="e_0_energy">   -125.49270643 </i>
   </energy>
  </scstep>
  <scstep>
   <time name="dav">    9.26    9.31</time>
   <time name="total">    9.59    9.65</time>
   <energy>
    <i name="e_fr_energy">   -125.49344710 </i>
    <i name="e_wo_entrp">   -125.49190149 </i>
    <i name="e_0_energy">   -125.49267430 </i>
   </energy>
  </scstep>
  <scstep>
   <time name="dav">   10.69   10.75</time>
   <time name="total">   11.02   11.09</time>
   <energy>
    <i name="e_fr_energy">   -125.49344832 </i>
    <i name="e_wo_entrp">   -125.49190254 </i>
    <i name="e_0_energy">   -125.49267543 </i>
   </energy>
  </scstep>
  <scstep>
   <time name="dav">   10.09   10.15</time>
   <time name="total">   10.42   10.48</time>
   <energy>
    <i name="e_fr_energy">   -125.49345036 </i>
    <i name="e_wo_entrp">   -125.49190459 </i>
    <i name="e_0_energy">   -125.49267747 </i>
   </energy>
  </scstep>
  <scstep>
   <time name="dav">   10.01   10.07</time>
   <time name="total">   10.34   10.41</time>
   <energy>
    <i name="e_fr_energy">   -125.49345026 </i>
    <i name="e_wo_entrp">   -125.49190456 </i>
    <i name="e_0_energy">   -125.49267741 </i>
   </energy>
  </scstep>
  <scstep>
   <time name="dav">   10.18   10.23</time>
   <time name="total">   10.50   10.58</time>
   <energy>
    <i name="e_fr_energy">   -125.49345050 </i>
    <i name="e_wo_entrp">   -125.49190479 </i>
    <i name="e_0_energy">   -125.49267765 </i>
   </energy>
  </scstep>
  <scstep>
   <time name="dav">    8.47    8.52</time>
   <time name="total">    8.80    8.86</time>
   <energy>
    <i name="e_fr_energy">   -125.49345090 </i>
    <i name="e_wo_entrp">   -125.49190520 </i>
    <i name="e_0_energy">   -125.49267805 </i>
   </energy>
  </scstep>
  <scstep>
   <time name="dav">    9.93    9.99</time>
   <time name="total">   10.25   10.33</time>
   <energy>
    <i name="e_fr_energy">   -125.49345126 </i>
    <i name="e_wo_entrp">   -125.49190557 </i>
    <i name="e_0_energy">   -125.49267841 </i>
   </energy>
  </scstep>
  <scstep>
   <time name="dav">    9.83    9.88</time>
   <time name="total">   10.16   10.22</time>
   <energy>
    <i name="e_fr_energy">   -125.49345150 </i>
    <i name="e_wo_entrp">   -125.49190582 </i>
    <i name="e_0_energy">   -125.49267866 </i>
   </energy>
  </scstep>
  <scstep>
   <time name="dav">   10.23   10.29</time>
   <time name="total">   10.55   10.62</time>
   <energy>
    <i name="e_fr_energy">   -125.49345170 </i>
    <i name="e_wo_entrp">   -125.49190602 </i>
    <i name="e_0_energy">   -125.49267886 </i>
   </energy>
  </scstep>
  <scstep>
   <time name="dav">    9.47    9.52</time>
   <time name="total">    9.79    9.85</time>
   <energy>
    <i name="e_fr_energy">   -125.49345199 </i>
    <i name="e_wo_entrp">   -125.49190631 </i>
    <i name="e_0_energy">   -125.49267915 </i>
   </energy>
  </scstep>
  <scstep>
   <time name="dav">    8.81    8.86</time>
   <time name="total">    9.14    9.21</time>
   <energy>
    <i name="e_fr_energy">   -125.49345220 </i>
    <i name="e_wo_entrp">   -125.49190652 </i>
    <i name="e_0_energy">   -125.49267936 </i>
   </energy>
  </scstep>
  <scstep>
   <time name="dav">    9.53    9.58</time>
   <time name="total">    9.85    9.92</time>
   <energy>
    <i name="e_fr_energy">   -125.49345229 </i>
    <i name="e_wo_entrp">   -125.49190661 </i>
    <i name="e_0_energy">   -125.49267945 </i>
   </energy>
  </scstep>
  <scstep>
   <time name="dav">    8.82    8.87</time>
   <time name="total">    9.14    9.21</time>
   <energy>
    <i name="e_fr_energy">   -125.49345232 </i>
    <i name="e_wo_entrp">   -125.49190664 </i>
    <i name="e_0_energy">   -125.49267948 </i>
   </energy>
  </scstep>
  <scstep>
   <time name="dav">   11.02   11.08</time>
   <time name="total">   11.05   11.11</time>
   <energy>
    <i name="alphaZ">     57.78124218 </i>
    <i name="ewald">   4725.55401328 </i>
    <i name="hartreedc">  -6480.79603238 </i>
    <i name="XCdc">    180.03258199 </i>
    <i name="pawpsdc">   5640.12587499 </i>
    <i name="pawaedc">  -5644.49671633 </i>
    <i name="eentropy">     -0.00154568 </i>
    <i name="bandstr">   -506.95629094 </i>
    <i name="atom">   1903.26342058 </i>
    <i name="e_fr_energy">   -125.49345232 </i>
    <i name="e_wo_entrp">   -125.49190664 </i>
    <i name="e_0_energy">   -125.49267948 </i>
   </energy>
  </scstep>
  <structure>
   <crystal>
    <varray name="basis" >
     <v>       4.21581167       2.43400000       0.00000000 </v>
     <v>      -4.21581167       2.43400000       0.00000000 </v>
     <v>       0.00000000       0.00000000      15.00000000 </v>
    </varray>
    <i name="volume">    307.83856782 </i>
    <varray name="rec_basis" >
     <v>       0.11860112       0.20542317       0.00000000 </v>
     <v>      -0.11860112       0.20542317       0.00000000 </v>
     <v>       0.00000000       0.00000000       0.06666667 </v>
    </varray>
   </crystal>
   <varray name="positions" >
    <v>       0.00420113       0.00285085       0.11704588 </v>
    <v>       0.35756219       0.00327143       0.09855588 </v>
    <v>       0.00356615       0.35561184       0.09855456 </v>
    <v>       0.65135130       0.64936001       0.09855444 </v>
    <v>       0.32662586       0.32450683       0.10020044 </v>
    <v>       0.68242014       0.00346171       0.10019609 </v>
    <v>       0.00354006       0.68035524       0.10019321 </v>
    <v>      -0.00030084       0.50006037       0.33379558 </v>
    <v>       0.16638585       0.33235805       0.33388698 </v>
    <v>       0.00000079       0.00001238       0.33355381 </v>
    <v>       0.16600172       0.83363197       0.33389392 </v>
    <v>       0.49991609       0.49962289       0.33380244 </v>
    <v>       0.66667444       0.33332746       0.33359942 </v>
    <v>       0.50035452       0.00030400       0.33379420 </v>
    <v>       0.66766126       0.83403230       0.33388582 </v>
   </varray>
  </structure>
  <varray name="forces" >
   <v>       0.00395331      -0.00431778      -0.22286195 </v>
   <v>       0.02707431      -0.00234345      -0.00960196 </v>
   <v>      -0.00831702       0.03133364      -0.00941509 </v>
   <v>      -0.01959064      -0.02182568      -0.01002289 </v>
   <v>      -0.03467795       0.11053646       0.07252128 </v>
   <v>      -0.07570312      -0.08446586       0.07279910 </v>
   <v>       0.10699444      -0.02960394       0.07249971 </v>
   <v>       0.15706751       0.06343020       0.00774113 </v>
   <v>      -0.29742720       0.29648458      -0.01593910 </v>
   <v>       0.00649441      -0.00083585       0.04380168 </v>
   <v>       0.39964022       0.09910371      -0.01679081 </v>
   <v>      -0.12704353       0.11594339       0.00682464 </v>
   <v>      -0.00577798       0.00027653       0.01659842 </v>
   <v>      -0.01941507      -0.16351934       0.00773685 </v>
   <v>      -0.11327169      -0.41019660      -0.01589101 </v>
  </varray>
  <varray name="stress" >
   <v>     -26.55128145       0.01772321       0.01060682 </v>
   <v>       0.01772318     -26.51288064       0.00776000 </v>
   <v>       0.01060680       0.00776003      -1.79309416 </v>
  </varray>
  <energy>
   <i name="e_fr_energy">   -127.09244070 </i>
   <i name="e_wo_entrp">   -127.09089502 </i>
   <i name="e_0_energy">   -127.09166786 </i>
  </energy>
  <time name="totalsc">  163.27  164.37</time>
 </calculation>
 <calculation>
  <scstep>
   <time name="dav">    5.60    5.64</time>
   <time name="total">    5.93    5.98</time>
   <energy>
    <i name="alphaZ">     57.78124218 </i>
    <i name="ewald">   4725.53935003 </i>
    <i name="hartreedc">  -6480.73818850 </i>
    <i name="XCdc">    180.03571861 </i>
    <i name="pawpsdc">   5640.12583815 </i>
    <i name="pawaedc">  -5644.49667951 </i>
    <i name="eentropy">     -0.00154604 </i>
    <i name="bandstr">   -507.00416259 </i>
    <i name="atom">   1903.26342058 </i>
    <i name="e_fr_energy">   -125.49500710 </i>
    <i name="e_wo_entrp">   -125.49346106 </i>
    <i name="e_0_energy">   -125.49423408 </i>
   </energy>
  </scstep>
  <scstep>
   <time name="dav">   11.93   11.99</time>
   <time name="total">   12.25   12.33</time>
   <energy>
    <i name="e_fr_energy">   -125.49500952 </i>
    <i name="e_wo_entrp">   -125.49346355 </i>
    <i name="e_0_energy">   -125.49423654 </i>
   </energy>
  </scstep>
  <scstep>
   <time name="dav">    7.61    7.66</time>
   <time name="total">    7.93    8.00</time>
   <energy>
    <i name="e_fr_energy">   -125.49500912 </i>
    <i name="e_wo_entrp">   -125.49346312 </i>
    <i name="e_0_energy">   -125.49423612 </i>
   </energy>
  </scstep>
  <scstep>
   <time name="dav">   10.52   10.58</time>
   <time name="total">   10.84   10.91</time>
   <energy>
    <i name="e_fr_energy">   -125.49500926 </i>
    <i name="e_wo_entrp">   -125.49346329 </i>
    <i name="e_0_energy">   -125.49423627 </i>
   </energy>
  </scstep>
  <scstep>
   <time name="dav">    8.43    8.49</time>
   <time name="total">    8.76    8.83</time>
   <energy>
    <i name="e_fr_energy">   -125.49500932 </i>
    <i name="e_wo_entrp">   -125.49346337 </i>
    <i name="e_0_energy">   -125.49423635 </i>
   </energy>
  </scstep>
  <scstep>
   <time name="dav">    8.66    8.70</time>
   <time name="total">    8.69    8.74</time>
   <energy>
    <i name="alphaZ">     57.78124218 </i>
    <i name="ewald">   4725.53935003 </i>
    <i name="hartreedc">  -6480.73713699 </i>
    <i name="XCdc">    180.03549541 </i>
    <i name="pawpsdc">   5641.04712441 </i>
    <i name="pawaedc">  -5645.41829236 </i>
    <i name="eentropy">     -0.00154595 </i>
    <i name="bandstr">   -507.00466662 </i>
    <i name="atom">   1903.26342058 </i>
    <i name="e_fr_energy">   -125.49500932 </i>
    <i name="e_wo_entrp">   -125.49346337 </i>
    <i name="e_0_energy">   -125.49423634 </i>
   </energy>
  </scstep>
  <structure>
   <crystal>
    <varray name="basis" >
     <v>       4.21581167       2.43400000       0.00000000 </v>
     <v>      -4.21581167       2.43400000       0.00000000 </v>
     <v>       0.00000000       0.00000000      15.00000000 </v>
    </varray>
    <i name="volume">    307.83856782 </i>
    <varray name="rec_basis" >
     <v>       0.11860112       0.20542317       0.00000000 </v>
     <v>      -0.11860112       0.20542317       0.00000000 </v>
     <v>       0.00000000       0.00000000       0.06666667 </v>
    </varray>
   </crystal>
   <varray name="positions" >
    <v>       0.00420338       0.00286062       0.11677403 </v>
    <v>       0.35767631       0.00329268       0.09863323 </v>
    <v>       0.00353002       0.35570096       0.09863157 </v>
    <v>       0.65126674       0.64924024       0.09863252 </v>
    <v>       0.32669920       0.32454577       0.10020175 </v>
    <v>       0.68237764       0.00349025       0.10019932 </v>
    <v>       0.00351082       0.68028564       0.10019691 </v>
    <v>      -0.00026526       0.50005500       0.33380180 </v>
    <v>       0.16640716       0.33245110       0.33389532 </v>
    <v>       0.00000220       0.00001174       0.33354828 </v>
    <v>       0.16607041       0.83360936       0.33390264 </v>
    <v>       0.49992551       0.49966537       0.33380902 </v>
    <v>       0.66667382       0.33332836       0.33359189 </v>
    <v>       0.50031587       0.00026963       0.33380031 </v>
    <v>       0.66756685       0.83396061       0.33389408 </v>
   </varray>
  </structure>
  <varray name="forces" >
   <v>       0.00438613      -0.00469734      -0.21906988 </v>
   <v>       0.02138243      -0.00724569      -0.01626539 </v>
   <v>      -0.00061900       0.02954155      -0.01601835 </v>
   <v>      -0.02174492      -0.01460733      -0.01679819 </v>
   <v>      -0.03743851       0.10189199       0.07810427 </v>
   <v>      -0.06691059      -0.08229342       0.07819668 </v>
   <v>       0.10067926      -0.02327054       0.07783910 </v>
   <v>       0.14062998       0.05665284       0.00723091 </v>
   <v>      -0.26970712       0.27172434      -0.01723740 </v>
   <v>       0.00560194      -0.00100125       0.04685145 </v>
   <v>       0.36507768       0.08889077      -0.01817663 </v>
   <v>      -0.11402899       0.10398811       0.00621861 </v>
   <v>      -0.00502944       0.00042587       0.01906200 </v>
   <v>      -0.01760613      -0.14669810       0.00723598 </v>
   <v>      -0.10467274      -0.37330182      -0.01717316 </v>
  </varray>
  <varray name="stress" >
   <v>     -26.48998408       0.01476887       0.01109288 </v>
   <v>       0.01476888     -26.45924768       0.00719755 </v>
   <v>       0.01109290       0.00719756      -1.78449789 </v>
  </varray>
  <energy>
   <i name="e_fr_energy">   -127.09396767 </i>
   <i name="e_wo_entrp">   -127.09242172 </i>
   <i name="e_0_energy">   -127.09319470 </i>
  </energy>
  <time name="totalsc">   59.17   59.58</time>
 </calculation>
 <calculation>
  <scstep>
   <time name="dav">    5.59    5.63</time>
   <time name="total">    5.92    5.96</time>
   <energy>
    <i name="alphaZ">     57.78124218 </i>
    <i name="ewald">   4725.46931290 </i>
    <i name="hartreedc">  -6480.54316062 </i>
    <i name="XCdc">    180.04447996 </i>
    <i name="pawpsdc">   5641.04403680 </i>
    <i name="pawaedc">  -5645.41520492 </i>
    <i name="eentropy">     -0.00154697 </i>
    <i name="bandstr">   -507.14155987 </i>
    <i name="atom">   1903.26342058 </i>
    <i name="e_fr_energy">   -125.49897996 </i>
    <i name="e_wo_entrp">   -125.49743299 </i>
    <i name="e_0_energy">   -125.49820647 </i>
   </energy>
  </scstep>
  <scstep>
   <time name="dav">   10.55   10.61</time>
   <time name="total">   10.87   10.95</time>
   <energy>
    <i name="e_fr_energy">   -125.49900603 </i>
    <i name="e_wo_entrp">   -125.49745926 </i>
    <i name="e_0_energy">   -125.49823265 </i>
   </energy>
  </scstep>
  <scstep>
   <time name="dav">    8.51    8.56</time>
   <time name="total">    8.84    8.90</time>
   <energy>
    <i name="e_fr_energy">   -125.49899891 </i>
    <i name="e_wo_entrp">   -125.49745207 </i>
    <i name="e_0_energy">   -125.49822549 </i>
   </energy>
  </scstep>
  <scstep>
   <time name="dav">   10.92   10.99</time>
   <time name="total">   11.26   11.34</time>
   <energy>
    <i name="e_fr_energy">   -125.49899921 </i>
    <i name="e_wo_entrp">   -125.49745245 </i>
    <i name="e_0_energy">   -125.49822583 </i>
   </energy>
  </scstep>
  <scstep>
   <time name="dav">    8.63    8.68</time>
   <time name="total">    8.96    9.01</time>
   <energy>
    <i name="e_fr_energy">   -125.49899959 </i>
    <i name="e_wo_entrp">   -125.49745286 </i>
    <i name="e_0_energy">   -125.49822622 </i>
   </energy>
  </scstep>
  <scstep>
[...]
       <r>     2.7107     0.6927    30.9131 </r>
       <r>     2.8170     0.5908    30.9759 </r>
       <r>     2.9233     1.2700    31.1110 </r>
       <r>     3.0296     1.4300    31.2630 </r>
       <r>     3.1359     1.2941    31.4006 </r>
       <r>     3.2423     1.2139    31.5297 </r>
       <r>     3.3486     1.4472    31.6835 </r>
       <r>     3.4549     1.6619    31.8602 </r>
       <r>     3.5612     2.4361    32.1192 </r>
       <r>     3.6675     3.3156    32.4717 </r>
       <r>     3.7738     3.1257    32.8040 </r>
       <r>     3.8802     3.0135    33.1244 </r>
       <r>     3.9865     3.0728    33.4511 </r>
       <r>     4.0928     3.2890    33.8008 </r>
       <r>     4.1991     3.0351    34.1234 </r>
       <r>     4.3054     2.8739    34.4290 </r>
       <r>     4.4118     2.7458    34.7209 </r>
       <r>     4.5181     2.7267    35.0108 </r>
       <r>     4.6244     2.8876    35.3178 </r>
       <r>     4.7307     3.5038    35.6903 </r>
       <r>     4.8370     2.9830    36.0075 </r>
       <r>     4.9433     2.6216    36.2862 </r>
       <r>     5.0497     3.3635    36.6438 </r>
       <r>     5.1560     3.7735    37.0450 </r>
       <r>     5.2623     3.1961    37.3848 </r>
       <r>     5.3686     2.3341    37.6329 </r>
       <r>     5.4749     2.7444    37.9247 </r>
       <r>     5.5812     3.1864    38.2635 </r>
       <r>     5.6876     2.9942    38.5818 </r>
       <r>     5.7939     3.1384    38.9155 </r>
       <r>     5.9002     2.5001    39.1813 </r>
       <r>     6.0065     2.4816    39.4451 </r>
       <r>     6.1128     2.0807    39.6663 </r>
       <r>     6.2191     2.6493    39.9480 </r>
       <r>     6.3255     2.7041    40.2355 </r>
       <r>     6.4318     3.0730    40.5622 </r>
       <r>     6.5381     3.5797    40.9428 </r>
       <r>     6.6444     3.7453    41.3410 </r>
       <r>     6.7507     3.7851    41.7434 </r>
       <r>     6.8570     2.9639    42.0585 </r>
       <r>     6.9634     3.4694    42.4274 </r>
       <r>     7.0697     3.3815    42.7869 </r>
       <r>     7.1760     2.8892    43.0940 </r>
       <r>     7.2823     2.4308    43.3525 </r>
       <r>     7.3886     2.6048    43.6294 </r>
       <r>     7.4949     3.4500    43.9962 </r>
       <r>     7.6013     3.6830    44.3878 </r>
       <r>     7.7076     4.4438    44.8602 </r>
       <r>     7.8139     3.3460    45.2160 </r>
       <r>     7.9202     3.0938    45.5449 </r>
       <r>     8.0265     4.5028    46.0236 </r>
       <r>     8.1329     5.1271    46.5687 </r>
       <r>     8.2392     4.8116    47.0803 </r>
       <r>     8.3455     4.0719    47.5132 </r>
       <r>     8.4518     2.3732    47.7655 </r>
       <r>     8.5581     1.0950    47.8819 </r>
       <r>     8.6644     0.4215    47.9267 </r>
       <r>     8.7708     0.3522    47.9642 </r>
       <r>     8.8771     0.2684    47.9927 </r>
       <r>     8.9834     0.0657    47.9997 </r>
       <r>     9.0897     0.0027    48.0000 </r>
       <r>     9.1960     0.0000    48.0000 </r>
       <r>     9.3023     0.0000    48.0000 </r>
       <r>     9.4087     0.0000    48.0000 </r>
       <r>     9.5150     0.0000    48.0000 </r>
       <r>     9.6213     0.0000    48.0000 </r>
       <r>     9.7276     0.0000    48.0000 </r>
       <r>     9.8339     0.0000    48.0000 </r>
       <r>     9.9402     0.0000    48.0000 </r>
       <r>    10.0466     0.0000    48.0000 </r>
       <r>    10.1529     0.0000    48.0000 </r>
       <r>    10.2592     0.0000    48.0000 </r>
      </set>
      <set comment="spin 2">
       <r>   -21.6360     0.0000     0.0000 </r>
       <r>   -21.5296     0.0000     0.0000 </r>
       <r>   -21.4233     0.0000     0.0000 </r>
       <r>   -21.3170     0.0000     0.0000 </r>
       <r>   -21.2107     0.0000     0.0000 </r>
       <r>   -21.1044     0.0000     0.0000 </r>
       <r>   -20.9980     0.0000     0.0000 </r>
       <r>   -20.8917     0.0000     0.0000 </r>
       <r>   -20.7854     0.0000     0.0000 </r>
       <r>   -20.6791     0.0000     0.0000 </r>
       <r>   -20.5728     0.0000     0.0000 </r>
       <r>   -20.4665     0.0000     0.0000 </r>
       <r>   -20.3601     0.0009     0.0001 </r>
       <r>   -20.2538     0.0352     0.0038 </r>
       <r>   -20.1475     0.2545     0.0309 </r>
       <r>   -20.0412     0.5344     0.0877 </r>
       <r>   -19.9349     0.5834     0.1497 </r>
       <r>   -19.8286     0.6349     0.2172 </r>
       <r>   -19.7222     0.5375     0.2744 </r>
       <r>   -19.6159     0.6936     0.3481 </r>
       <r>   -19.5096     0.5398     0.4055 </r>
       <r>   -19.4033     0.5559     0.4646 </r>
       <r>   -19.2970     0.7712     0.5466 </r>
       <r>   -19.1907     0.4836     0.5980 </r>
       <r>   -19.0843     0.5125     0.6525 </r>
       <r>   -18.9780     0.7892     0.7364 </r>
       <r>   -18.8717     0.6609     0.8067 </r>
       <r>   -18.7654     0.3747     0.8465 </r>
       <r>   -18.6591     0.5901     0.9092 </r>
       <r>   -18.5528     0.8833     1.0031 </r>
       <r>   -18.4464     0.5758     1.0644 </r>
       <r>   -18.3401     0.4819     1.1156 </r>
       <r>   -18.2338     0.3985     1.1580 </r>
       <r>   -18.1275     0.8807     1.2516 </r>
       <r>   -18.0212     0.8249     1.3393 </r>
       <r>   -17.9149     0.4351     1.3856 </r>
       <r>   -17.8085     0.4387     1.4322 </r>
       <r>   -17.7022     0.5379     1.4894 </r>
       <r>   -17.5959     0.8299     1.5776 </r>
       <r>   -17.4896     0.8500     1.6680 </r>
       <r>   -17.3833     0.7024     1.7427 </r>
       <r>   -17.2769     0.8334     1.8313 </r>
       <r>   -17.1706     1.3736     1.9773 </r>
       <r>   -17.0643     1.9087     2.1802 </r>
       <r>   -16.9580     2.0091     2.3938 </r>
       <r>   -16.8517     2.2239     2.6303 </r>
       <r>   -16.7454     2.6987     2.9172 </r>
       <r>   -16.6390     1.9835     3.1281 </r>
       <r>   -16.5327     0.6431     3.1964 </r>
       <r>   -16.4264     1.0270     3.3056 </r>
       <r>   -16.3201     0.9720     3.4090 </r>
       <r>   -16.2138     0.5758     3.4702 </r>
       <r>   -16.1075     0.5220     3.5257 </r>
       <r>   -16.0011     0.5133     3.5802 </r>
       <r>   -15.8948     0.4594     3.6291 </r>
       <r>   -15.7885     0.5470     3.6872 </r>
       <r>   -15.6822     1.1168     3.8060 </r>
       <r>   -15.5759     0.9371     3.9056 </r>
       <r>   -15.4696     0.4853     3.9572 </r>
       <r>   -15.3632     0.4913     4.0094 </r>
       <r>   -15.2569     0.4598     4.0583 </r>
       <r>   -15.1506     0.6258     4.1248 </r>
       <r>   -15.0443     0.8559     4.2158 </r>
       <r>   -14.9380     1.4851     4.3737 </r>
       <r>   -14.8317     2.1583     4.6032 </r>
       <r>   -14.7253     2.3725     4.8554 </r>
       <r>   -14.6190     2.1585     5.0849 </r>
       <r>   -14.5127     1.2569     5.2185 </r>
       <r>   -14.4064     1.1174     5.3373 </r>
       <r>   -14.3001     2.1428     5.5652 </r>
       <r>   -14.1938     1.7732     5.7537 </r>
       <r>   -14.0874     1.3319     5.8953 </r>
       <r>   -13.9811     1.3773     6.0417 </r>
       <r>   -13.8748     1.7184     6.2244 </r>
       <r>   -13.7685     2.6154     6.5025 </r>
       <r>   -13.6622     2.5482     6.7734 </r>
       <r>   -13.5558     2.2195     7.0094 </r>
       <r>   -13.4495     1.2581     7.1431 </r>
       <r>   -13.3432     0.8222     7.2305 </r>
       <r>   -13.2369     0.4300     7.2763 </r>
       <r>   -13.1306     0.5823     7.3382 </r>
       <r>   -13.0243     0.9378     7.4379 </r>
       <r>   -12.9179     0.8217     7.5252 </r>
       <r>   -12.8116     0.6438     7.5937 </r>
       <r>   -12.7053     0.9651     7.6963 </r>
       <r>   -12.5990     0.8523     7.7869 </r>
       <r>   -12.4927     0.7104     7.8624 </r>
       <r>   -12.3864     0.6571     7.9323 </r>
       <r>   -12.2800     0.4173     7.9766 </r>
       <r>   -12.1737     0.9609     8.0788 </r>
       <r>   -12.0674     0.9391     8.1786 </r>
       <r>   -11.9611     0.3542     8.2163 </r>
       <r>   -11.8548     0.4514     8.2643 </r>
       <r>   -11.7485     0.4730     8.3146 </r>
       <r>   -11.6421     0.8832     8.4085 </r>
       <r>   -11.5358     0.7726     8.4906 </r>
       <r>   -11.4295     0.3868     8.5317 </r>
       <r>   -11.3232     0.2995     8.5636 </r>
       <r>   -11.2169     0.6409     8.6317 </r>
       <r>   -11.1106     0.7411     8.7105 </r>
       <r>   -11.0042     0.6388     8.7784 </r>
       <r>   -10.8979     0.9887     8.8835 </r>
       <r>   -10.7916     0.6954     8.9575 </r>
       <r>   -10.6853     0.3463     8.9943 </r>
       <r>   -10.5790     1.0881     9.1100 </r>
       <r>   -10.4727     1.7222     9.2931 </r>
       <r>   -10.3663     1.9284     9.4981 </r>
       <r>   -10.2600     1.7579     9.6850 </r>
       <r>   -10.1537     1.9114     9.8882 </r>
       <r>   -10.0474     2.4588    10.1496 </r>
       <r>    -9.9411     2.3903    10.4037 </r>
       <r>    -9.8347     1.1459    10.5256 </r>
       <r>    -9.7284     0.8826    10.6194 </r>
       <r>    -9.6221     1.9167    10.8232 </r>
       <r>    -9.5158     2.0876    11.0451 </r>
       <r>    -9.4095     2.0870    11.2670 </r>
       <r>    -9.3032     1.8570    11.4644 </r>
       <r>    -9.1968     1.7894    11.6547 </r>
       <r>    -9.0905     1.3787    11.8013 </r>
       <r>    -8.9842     1.1832    11.9270 </r>
       <r>    -8.8779     1.9625    12.1357 </r>
       <r>    -8.7716     2.5038    12.4019 </r>
       <r>    -8.6653     1.8852    12.6023 </r>
       <r>    -8.5589     0.9751    12.7060 </r>
       <r>    -8.4526     1.6135    12.8775 </r>
       <r>    -8.3463     2.6218    13.1563 </r>
       <r>    -8.2400     2.1148    13.3811 </r>
       <r>    -8.1337     1.5552    13.5465 </r>
       <r>    -8.0274     2.2350    13.7841 </r>
       <r>    -7.9210     3.3504    14.1403 </r>
       <r>    -7.8147     3.1944    14.4799 </r>
       <r>    -7.7084     2.2352    14.7176 </r>
       <r>    -7.6021     1.2421    14.8496 </r>
       <r>    -7.4958     1.2618    14.9838 </r>
       <r>    -7.3895     2.4079    15.2398 </r>
       <r>    -7.2831     2.3040    15.4847 </r>
       <r>    -7.1768     1.4866    15.6428 </r>
       <r>    -7.0705     1.3562    15.7870 </r>
       <r>    -6.9642     2.1744    16.0181 </r>
       <r>    -6.8579     2.4713    16.2809 </r>
       <r>    -6.7516     2.7465    16.5729 </r>
       <r>    -6.6452     2.4533    16.8337 </r>
       <r>    -6.5389     2.1234    17.0595 </r>
       <r>    -6.4326     2.6090    17.3369 </r>
       <r>    -6.3263     2.2785    17.5791 </r>
       <r>    -6.2200     2.6468    17.8605 </r>
       <r>    -6.1136     3.3102    18.2124 </r>
       <r>    -6.0073     2.8082    18.5110 </r>
       <r>    -5.9010     4.1179    18.9488 </r>
       <r>    -5.7947     3.7518    19.3477 </r>
       <r>    -5.6884     2.0293    19.5634 </r>
       <r>    -5.5821     2.2524    19.8029 </r>
       <r>    -5.4757     4.3422    20.2645 </r>
       <r>    -5.3694     4.8470    20.7798 </r>
       <r>    -5.2631     2.8257    21.0803 </r>
       <r>    -5.1568     1.9506    21.2876 </r>
       <r>    -5.0505     1.4585    21.4427 </r>
       <r>    -4.9442     1.6165    21.6146 </r>
       <r>    -4.8378     1.7425    21.7998 </r>
       <r>    -4.7315     1.1925    21.9266 </r>
       <r>    -4.6252     0.9399    22.0265 </r>
       <r>    -4.5189     1.3929    22.1746 </r>
       <r>    -4.4126     2.4603    22.4362 </r>
       <r>    -4.3063     2.6576    22.7187 </r>
       <r>    -4.1999     2.4217    22.9762 </r>
       <r>    -4.0936     2.4266    23.2342 </r>
       <r>    -3.9873     2.8601    23.5383 </r>
       <r>    -3.8810     2.8076    23.8368 </r>
       <r>    -3.7747     2.3050    24.0818 </r>
       <r>    -3.6684     2.3935    24.3363 </r>
       <r>    -3.5620     2.6369    24.6166 </r>
       <r>    -3.4557     1.9779    24.8269 </r>
       <r>    -3.3494     1.7628    25.0143 </r>
       <r>    -3.2431     1.6419    25.1889 </r>
       <r>    -3.1368     2.1708    25.4197 </r>
       <r>    -3.0304     2.3619    25.6708 </r>
       <r>    -2.9241     1.5186    25.8323 </r>
       <r>    -2.8178     1.4752    25.9891 </r>
       <r>    -2.7115     0.9651    26.0917 </r>
       <r>    -2.6052     1.3325    26.2334 </r>
       <r>    -2.4989     2.5799    26.5077 </r>
       <r>    -2.3925     1.7481    26.6935 </r>
       <r>    -2.2862     0.5189    26.7487 </r>
       <r>    -2.1799     0.6075    26.8133 </r>
       <r>    -2.0736     1.3135    26.9529 </r>
       <r>    -1.9673     1.3695    27.0985 </r>
       <r>    -1.8610     1.4635    27.2541 </r>
       <r>    -1.7546     1.5075    27.4144 </r>
       <r>    -1.6483     1.1764    27.5395 </r>
       <r>    -1.5420     0.8978    27.6349 </r>
       <r>    -1.4357     0.5997    27.6987 </r>
       <r>    -1.3294     0.4982    27.7516 </r>
       <r>    -1.2231     0.5093    27.8058 </r>
       <r>    -1.1167     0.5688    27.8663 </r>
       <r>    -1.0104     0.7438    27.9453 </r>
       <r>    -0.9041     0.3095    27.9782 </r>
       <r>    -0.7978     0.0669    27.9854 </r>
       <r>    -0.6915     0.0069    27.9861 </r>
       <r>    -0.5852     0.0006    27.9862 </r>
       <r>    -0.4788     0.0202    27.9883 </r>
       <r>    -0.3725     0.1188    28.0009 </r>
       <r>    -0.2662     0.1069    28.0123 </r>
       <r>    -0.1599     0.0146    28.0139 </r>
       <r>    -0.0536     0.0003    28.0139 </r>
       <r>     0.0527     0.0002    28.0139 </r>
       <r>     0.1591     0.0179    28.0158 </r>
       <r>     0.2654     0.2261    28.0399 </r>
       <r>     0.3717     0.4181    28.0843 </r>
       <r>     0.4780     0.1436    28.0996 </r>
       <r>     0.5843     0.1971    28.1205 </r>
       <r>     0.6907     0.4224    28.1654 </r>
       <r>     0.7970     0.6971    28.2395 </r>
       <r>     0.9033     1.5770    28.4072 </r>
       <r>     1.0096     3.4743    28.7766 </r>
       <r>     1.1159     2.2237    29.0130 </r>
       <r>     1.2222     0.5431    29.0707 </r>
       <r>     1.3286     0.6333    29.1381 </r>
       <r>     1.4349     1.2129    29.2670 </r>
       <r>     1.5412     1.7417    29.4522 </r>
       <r>     1.6475     2.6017    29.7288 </r>
       <r>     1.7538     1.7283    29.9126 </r>
       <r>     1.8601     0.7115    29.9882 </r>
       <r>     1.9665     0.9850    30.0929 </r>
       <r>     2.0728     1.2338    30.2241 </r>
       <r>     2.1791     0.9394    30.3240 </r>
       <r>     2.2854     1.0736    30.4381 </r>
       <r>     2.3917     0.9864    30.5430 </r>
       <r>     2.4980     1.5454    30.7073 </r>
       <r>     2.6044     1.2434    30.8395 </r>
       <r>     2.7107     0.6927    30.9131 </r>
       <r>     2.8170     0.5908    30.9759 </r>
       <r>     2.9233     1.2700    31.1110 </r>
       <r>     3.0296     1.4300    31.2630 </r>
       <r>     3.1359     1.2941    31.4006 </r>
       <r>     3.2423     1.2139    31.5297 </r>
       <r>     3.3486     1.4472    31.6835 </r>
       <r>     3.4549     1.6619    31.8602 </r>
       <r>     3.5612     2.4361    32.1192 </r>
       <r>     3.6675     3.3156    32.4717 </r>
       <r>     3.7738     3.1257    32.8040 </r>
       <r>     3.8802     3.0135    33.1244 </r>
       <r>     3.9865     3.0729    33.4511 </r>
       <r>     4.0928     3.2890    33.8008 </r>
       <r>     4.1991     3.0350    34.1235 </r>
       <r>     4.3054     2.8739    34.4290 </r>
       <r>     4.4118     2.7458    34.7209 </r>
       <r>     4.5181     2.7267    35.0108 </r>
       <r>     4.6244     2.8877    35.3178 </r>
       <r>     4.7307     3.5038    35.6903 </r>
       <r>     4.8370     2.9830    36.0075 </r>
       <r>     4.9433     2.6216    36.2862 </r>
       <r>     5.0497     3.3636    36.6438 </r>
       <r>     5.1560     3.7735    37.0450 </r>
       <r>     5.2623     3.1960    37.3848 </r>
       <r>     5.3686     2.3341    37.6329 </r>
       <r>     5.4749     2.7444    37.9247 </r>
       <r>     5.5812     3.1864    38.2635 </r>
       <r>     5.6876     2.9943    38.5818 </r>
       <r>     5.7939     3.1383    38.9155 </r>
       <r>     5.9002     2.5001    39.1813 </r>
       <r>     6.0065     2.4815    39.4451 </r>
       <r>     6.1128     2.0807    39.6663 </r>
       <r>     6.2191     2.6494    39.9480 </r>
       <r>     6.3255     2.7040    40.2355 </r>
       <r>     6.4318     3.0730    40.5622 </r>
       <r>     6.5381     3.5797    40.9428 </r>
       <r>     6.6444     3.7454    41.3410 </r>
       <r>     6.7507     3.7851    41.7434 </r>
       <r>     6.8570     2.9638    42.0585 </r>
       <r>     6.9634     3.4694    42.4274 </r>
       <r>     7.0697     3.3815    42.7869 </r>
       <r>     7.1760     2.8891    43.0941 </r>
       <r>     7.2823     2.4308    43.3525 </r>
       <r>     7.3886     2.6050    43.6294 </r>
       <r>     7.4949     3.4500    43.9962 </r>
       <r>     7.6013     3.6831    44.3878 </r>
       <r>     7.7076     4.4438    44.8603 </r>
       <r>     7.8139     3.3460    45.2160 </r>
       <r>     7.9202     3.0938    45.5449 </r>
       <r>     8.0265     4.5029    46.0237 </r>
       <r>     8.1329     5.1269    46.5687 </r>
       <r>     8.2392     4.8115    47.0803 </r>
       <r>     8.3455     4.0719    47.5132 </r>
       <r>     8.4518     2.3731    47.7655 </r>
       <r>     8.5581     1.0950    47.8819 </r>
       <r>     8.6644     0.4215    47.9267 </r>
       <r>     8.7708     0.3522    47.9642 </r>
       <r>     8.8771     0.2684    47.9927 </r>
       <r>     8.9834     0.0657    47.9997 </r>
       <r>     9.0897     0.0027    48.0000 </r>
       <r>     9.1960     0.0000    48.0000 </r>
       <r>     9.3023     0.0000    48.0000 </r>
       <r>     9.4087     0.0000    48.0000 </r>
       <r>     9.5150     0.0000    48.0000 </r>
       <r>     9.6213     0.0000    48.0000 </r>
       <r>     9.7276     0.0000    48.0000 </r>
       <r>     9.8339     0.0000    48.0000 </r>
       <r>     9.9402     0.0000    48.0000 </r>
       <r>    10.0466     0.0000    48.0000 </r>
       <r>    10.1529     0.0000    48.0000 </r>
       <r>    10.2592     0.0000    48.0000 </r>
      </set>
     </set>
    </array>
   </total>
  </dos>
 </calculation>
 <structure name="finalpos" >
  <crystal>
   <varray name="basis" >
    <v>       4.21581167       2.43400000       0.00000000 </v>
    <v>      -4.21581167       2.43400000       0.00000000 </v>
    <v>       0.00000000       0.00000000      15.00000000 </v>
   </varray>
   <i name="volume">    307.83856782 </i>
   <varray name="rec_basis" >
    <v>       0.11860112       0.20542317       0.00000000 </v>
    <v>      -0.11860112       0.20542317       0.00000000 </v>
    <v>       0.00000000       0.00000000       0.06666667 </v>
   </varray>
  </crystal>
  <varray name="positions" >
   <v>       0.00405024       0.00269337       0.10073689 </v>
   <v>       0.35923209       0.00300366       0.10037059 </v>
   <v>       0.00373449       0.35756116       0.10037136 </v>
   <v>       0.64917671       0.64750694       0.10036772 </v>
   <v>       0.32757643       0.32591465       0.10034184 </v>
   <v>       0.68081847       0.00299003       0.10034111 </v>
   <v>       0.00373429       0.67915382       0.10033816 </v>
   <v>       0.00013966       0.50006761       0.33508376 </v>
   <v>       0.16678961       0.33345572       0.33511888 </v>
   <v>       0.00012144       0.00007560       0.33504505 </v>
   <v>       0.16683247       0.83340823       0.33512271 </v>
   <v>       0.50013203       0.50010517       0.33508652 </v>
   <v>       0.66678807       0.33341059       0.33498677 </v>
   <v>       0.50009269       0.00005715       0.33508225 </v>
   <v>       0.66674199       0.83336363       0.33511906 </v>
  </varray>
 </structure>
</modeling>
