  16  16   0   4
  0.2012733E+02  0.4979000E-09  0.4979000E-09  0.1500000E-08  0.5000000E-15
  1.000000000000000E-004
  CAR 
 SC                                      
      9.80497065    -21.16871340  301     -0.25558172      1.00000000
    -21.169  0.0000E+00  0.0000E+00
    -21.065  0.0000E+00  0.0000E+00
    -20.962  0.0000E+00  0.0000E+00
    -20.859  0.0000E+00  0.0000E+00
    -20.756  0.0000E+00  0.0000E+00
    -20.652  0.0000E+00  0.0000E+00
    -20.549  0.0000E+00  0.0000E+00
    -20.446  0.0000E+00  0.0000E+00
    -20.343  0.1180E-16  0.1218E-17
    -20.240  0.7837E-12  0.8092E-13
    -20.136  0.8316E-08  0.8586E-09
    -20.033  0.1178E-04  0.1217E-05
    -19.930  0.2391E-02  0.2481E-03
    -19.827  0.7898E-01  0.8402E-02
    -19.723  0.5337E+00  0.6350E-01
    -19.620  0.1095E+01  0.1766E+00
    -19.517  0.1243E+01  0.3049E+00
    -19.414  0.1252E+01  0.4341E+00
    -19.310  0.1253E+01  0.5635E+00
    -19.207  0.1255E+01  0.6930E+00
    -19.104  0.1256E+01  0.8227E+00
    -19.001  0.1259E+01  0.9527E+00
    -18.897  0.1259E+01  0.1083E+01
    -18.794  0.1259E+01  0.1213E+01
    -18.691  0.1268E+01  0.1344E+01
    -18.588  0.1261E+01  0.1474E+01
    -18.484  0.1265E+01  0.1604E+01
    -18.381  0.1278E+01  0.1736E+01
    -18.278  0.1254E+01  0.1866E+01
    -18.175  0.1295E+01  0.2000E+01
    -18.071  0.1249E+01  0.2129E+01
    -17.968  0.1307E+01  0.2264E+01
    -17.865  0.1245E+01  0.2392E+01
    -17.762  0.1321E+01  0.2528E+01
    -17.658  0.1238E+01  0.2656E+01
    -17.555  0.1338E+01  0.2795E+01
    -17.452  0.1236E+01  0.2922E+01
    -17.349  0.1342E+01  0.3061E+01
    -17.245  0.1258E+01  0.3191E+01
    -17.142  0.1310E+01  0.3326E+01
    -17.039  0.1324E+01  0.3463E+01
    -16.936  0.1245E+01  0.3591E+01
    -16.832  0.1391E+01  0.3735E+01
    -16.729  0.1232E+01  0.3862E+01
    -16.626  0.1362E+01  0.4002E+01
    -16.523  0.1332E+01  0.4140E+01
    -16.419  0.1251E+01  0.4269E+01
    -16.316  0.1433E+01  0.4417E+01
    -16.213  0.1256E+01  0.4547E+01
    -16.110  0.1344E+01  0.4685E+01
    -16.006  0.1464E+01  0.4837E+01
    -15.903  0.1640E+01  0.5006E+01
    -15.800  0.2622E+01  0.5277E+01
    -15.697  0.2953E+01  0.5581E+01
    -15.593  0.2886E+01  0.5879E+01
    -15.490  0.3175E+01  0.6207E+01
    -15.387  0.3124E+01  0.6530E+01
    -15.284  0.3145E+01  0.6854E+01
    -15.180  0.3596E+01  0.7226E+01
    -15.077  0.3824E+01  0.7621E+01
    -14.974  0.3713E+01  0.8004E+01
    -14.871  0.3165E+01  0.8331E+01
    -14.767  0.2402E+01  0.8579E+01
    -14.664  0.2162E+01  0.8802E+01
    -14.561  0.2292E+01  0.9039E+01
    -14.458  0.1959E+01  0.9241E+01
    -14.355  0.2189E+01  0.9467E+01
    -14.251  0.3207E+01  0.9798E+01
    -14.148  0.2897E+01  0.1010E+02
    -14.045  0.2430E+01  0.1035E+02
    -13.942  0.2254E+01  0.1058E+02
    -13.838  0.1631E+01  0.1075E+02
    -13.735  0.1696E+01  0.1092E+02
    -13.632  0.1484E+01  0.1108E+02
    -13.529  0.1407E+01  0.1122E+02
    -13.425  0.1920E+01  0.1142E+02
    -13.322  0.1992E+01  0.1163E+02
    -13.219  0.1992E+01  0.1183E+02
    -13.116  0.1934E+01  0.1203E+02
    -13.012  0.1903E+01  0.1223E+02
    -12.909  0.1914E+01  0.1243E+02
    -12.806  0.2132E+01  0.1265E+02
    -12.703  0.2373E+01  0.1289E+02
    -12.599  0.2461E+01  0.1314E+02
    -12.496  0.2745E+01  0.1343E+02
    -12.393  0.3198E+01  0.1376E+02
    -12.290  0.3229E+01  0.1409E+02
    -12.186  0.3354E+01  0.1444E+02
    -12.083  0.3441E+01  0.1479E+02
    -11.980  0.3868E+01  0.1519E+02
    -11.877  0.4326E+01  0.1564E+02
    -11.773  0.4046E+01  0.1606E+02
    -11.670  0.3285E+01  0.1640E+02
    -11.567  0.2752E+01  0.1668E+02
    -11.464  0.1886E+01  0.1688E+02
    -11.360  0.1381E+01  0.1702E+02
    -11.257  0.1240E+01  0.1715E+02
    -11.154  0.1328E+01  0.1728E+02
    -11.051  0.1292E+01  0.1742E+02
    -10.947  0.1355E+01  0.1756E+02
    -10.844  0.1493E+01  0.1771E+02
    -10.741  0.1724E+01  0.1789E+02
    -10.638  0.2816E+01  0.1818E+02
    -10.534  0.3840E+01  0.1858E+02
    -10.431  0.4109E+01  0.1900E+02
    -10.328  0.3387E+01  0.1935E+02
    -10.225  0.2990E+01  0.1966E+02
    -10.121  0.2808E+01  0.1995E+02
    -10.018  0.2696E+01  0.2023E+02
     -9.915  0.2346E+01  0.2047E+02
     -9.812  0.2551E+01  0.2073E+02
     -9.708  0.2296E+01  0.2097E+02
     -9.605  0.2089E+01  0.2118E+02
     -9.502  0.3174E+01  0.2151E+02
     -9.399  0.4406E+01  0.2197E+02
     -9.295  0.4214E+01  0.2240E+02
     -9.192  0.4043E+01  0.2282E+02
     -9.089  0.3650E+01  0.2320E+02
     -8.986  0.3505E+01  0.2356E+02
     -8.882  0.3912E+01  0.2396E+02
     -8.779  0.4014E+01  0.2438E+02
     -8.676  0.3644E+01  0.2475E+02
     -8.573  0.3675E+01  0.2513E+02
     -8.470  0.3872E+01  0.2553E+02
     -8.366  0.3422E+01  0.2589E+02
     -8.263  0.3617E+01  0.2626E+02
     -8.160  0.3717E+01  0.2664E+02
     -8.057  0.3607E+01  0.2702E+02
     -7.953  0.3948E+01  0.2742E+02
     -7.850  0.4863E+01  0.2793E+02
     -7.747  0.4751E+01  0.2842E+02
     -7.644  0.4823E+01  0.2891E+02
     -7.540  0.5028E+01  0.2943E+02
     -7.437  0.4501E+01  0.2990E+02
     -7.334  0.4204E+01  0.3033E+02
     -7.231  0.4040E+01  0.3075E+02
     -7.127  0.4489E+01  0.3121E+02
     -7.024  0.4589E+01  0.3169E+02
     -6.921  0.5204E+01  0.3222E+02
     -6.818  0.5789E+01  0.3282E+02
     -6.714  0.5954E+01  0.3344E+02
     -6.611  0.5866E+01  0.3404E+02
     -6.508  0.6299E+01  0.3469E+02
     -6.405  0.7508E+01  0.3547E+02
     -6.301  0.7406E+01  0.3623E+02
     -6.198  0.5814E+01  0.3683E+02
     -6.095  0.4331E+01  0.3728E+02
     -5.992  0.4026E+01  0.3769E+02
     -5.888  0.4078E+01  0.3812E+02
     -5.785  0.4115E+01  0.3854E+02
     -5.682  0.4124E+01  0.3897E+02
     -5.579  0.3945E+01  0.3937E+02
     -5.475  0.3359E+01  0.3972E+02
     -5.372  0.3094E+01  0.4004E+02
     -5.269  0.3847E+01  0.4044E+02
     -5.166  0.4298E+01  0.4088E+02
     -5.062  0.4082E+01  0.4130E+02
     -4.959  0.3518E+01  0.4167E+02
     -4.856  0.3815E+01  0.4206E+02
     -4.753  0.3554E+01  0.4243E+02
     -4.649  0.3633E+01  0.4280E+02
     -4.546  0.3442E+01  0.4316E+02
     -4.443  0.3574E+01  0.4353E+02
     -4.340  0.4080E+01  0.4395E+02
     -4.236  0.4859E+01  0.4445E+02
     -4.133  0.5280E+01  0.4499E+02
     -4.030  0.5559E+01  0.4557E+02
     -3.927  0.5450E+01  0.4613E+02
     -3.823  0.5458E+01  0.4669E+02
     -3.720  0.6621E+01  0.4738E+02
     -3.617  0.7378E+01  0.4814E+02
     -3.514  0.6501E+01  0.4881E+02
     -3.410  0.4398E+01  0.4926E+02
     -3.307  0.3275E+01  0.4960E+02
     -3.204  0.3245E+01  0.4994E+02
     -3.101  0.3147E+01  0.5026E+02
     -2.997  0.3134E+01  0.5059E+02
     -2.894  0.3220E+01  0.5092E+02
     -2.791  0.3656E+01  0.5130E+02
     -2.688  0.3160E+01  0.5162E+02
     -2.585  0.2918E+01  0.5192E+02
     -2.481  0.3191E+01  0.5225E+02
     -2.378  0.2606E+01  0.5252E+02
     -2.275  0.2756E+01  0.5281E+02
     -2.172  0.2704E+01  0.5309E+02
     -2.068  0.2326E+01  0.5333E+02
     -1.965  0.2215E+01  0.5355E+02
     -1.862  0.1961E+01  0.5376E+02
     -1.759  0.2029E+01  0.5397E+02
     -1.655  0.2169E+01  0.5419E+02
     -1.552  0.1994E+01  0.5440E+02
     -1.449  0.1716E+01  0.5457E+02
     -1.346  0.1816E+01  0.5476E+02
     -1.242  0.1859E+01  0.5495E+02
     -1.139  0.1861E+01  0.5514E+02
     -1.036  0.1685E+01  0.5532E+02
     -0.933  0.1328E+01  0.5546E+02
     -0.829  0.1033E+01  0.5556E+02
     -0.726  0.1006E+01  0.5567E+02
     -0.623  0.7329E+00  0.5574E+02
     -0.520  0.7044E+00  0.5582E+02
     -0.416  0.6737E+00  0.5588E+02
     -0.313  0.7487E+00  0.5596E+02
     -0.210  0.6011E+00  0.5602E+02
     -0.107  0.5361E+00  0.5608E+02
     -0.003  0.1086E+01  0.5619E+02
      0.100  0.1502E+01  0.5635E+02
      0.203  0.1494E+01  0.5650E+02
      0.306  0.2106E+01  0.5672E+02
      0.410  0.2458E+01  0.5697E+02
      0.513  0.1884E+01  0.5717E+02
      0.616  0.2246E+01  0.5740E+02
      0.719  0.2546E+01  0.5766E+02
      0.823  0.2217E+01  0.5789E+02
      0.926  0.2153E+01  0.5811E+02
      1.029  0.2310E+01  0.5835E+02
      1.132  0.3080E+01  0.5867E+02
      1.236  0.3441E+01  0.5902E+02
      1.339  0.3155E+01  0.5935E+02
      1.442  0.3342E+01  0.5969E+02
      1.545  0.2898E+01  0.5999E+02
      1.649  0.2360E+01  0.6024E+02
      1.752  0.2567E+01  0.6050E+02
      1.855  0.2886E+01  0.6080E+02
      1.958  0.2431E+01  0.6105E+02
      2.062  0.2491E+01  0.6131E+02
      2.165  0.2755E+01  0.6159E+02
      2.268  0.2538E+01  0.6186E+02
      2.371  0.2629E+01  0.6213E+02
      2.475  0.2665E+01  0.6240E+02
      2.578  0.2476E+01  0.6266E+02
      2.681  0.2882E+01  0.6296E+02
      2.784  0.2717E+01  0.6324E+02
      2.888  0.2812E+01  0.6353E+02
      2.991  0.3103E+01  0.6385E+02
      3.094  0.4219E+01  0.6428E+02
      3.197  0.3779E+01  0.6467E+02
      3.300  0.3990E+01  0.6508E+02
      3.404  0.4378E+01  0.6554E+02
      3.507  0.4202E+01  0.6597E+02
      3.610  0.4843E+01  0.6647E+02
      3.713  0.5362E+01  0.6702E+02
      3.817  0.4977E+01  0.6754E+02
      3.920  0.4916E+01  0.6804E+02
      4.023  0.5281E+01  0.6859E+02
      4.126  0.5364E+01  0.6914E+02
      4.230  0.5530E+01  0.6972E+02
      4.333  0.5840E+01  0.7032E+02
      4.436  0.5224E+01  0.7086E+02
      4.539  0.5364E+01  0.7141E+02
      4.643  0.6580E+01  0.7209E+02
      4.746  0.5933E+01  0.7270E+02
      4.849  0.4870E+01  0.7321E+02
      4.952  0.7172E+01  0.7395E+02
      5.056  0.7830E+01  0.7475E+02
      5.159  0.6841E+01  0.7546E+02
      5.262  0.7077E+01  0.7619E+02
      5.365  0.6717E+01  0.7689E+02
      5.469  0.6293E+01  0.7754E+02
      5.572  0.6777E+01  0.7823E+02
      5.675  0.6997E+01  0.7896E+02
      5.778  0.6229E+01  0.7960E+02
      5.882  0.5380E+01  0.8016E+02
      5.985  0.5163E+01  0.8069E+02
      6.088  0.5423E+01  0.8125E+02
      6.191  0.5932E+01  0.8186E+02
      6.295  0.5965E+01  0.8248E+02
      6.398  0.5162E+01  0.8301E+02
      6.501  0.5213E+01  0.8355E+02
      6.604  0.6106E+01  0.8418E+02
      6.708  0.7382E+01  0.8494E+02
      6.811  0.7569E+01  0.8572E+02
      6.914  0.7742E+01  0.8652E+02
      7.017  0.7508E+01  0.8730E+02
      7.121  0.7902E+01  0.8811E+02
      7.224  0.8703E+01  0.8901E+02
      7.327  0.8402E+01  0.8988E+02
      7.430  0.8047E+01  0.9071E+02
      7.534  0.8516E+01  0.9159E+02
      7.637  0.9003E+01  0.9252E+02
      7.740  0.9841E+01  0.9353E+02
      7.843  0.9046E+01  0.9447E+02
      7.947  0.7153E+01  0.9521E+02
      8.050  0.4419E+01  0.9566E+02
      8.153  0.2152E+01  0.9589E+02
      8.256  0.7922E+00  0.9597E+02
      8.360  0.2328E+00  0.9599E+02
      8.463  0.7574E-01  0.9600E+02
      8.566  0.1009E-01  0.9600E+02
      8.669  0.3083E-03  0.9600E+02
      8.773  0.1750E-05  0.9600E+02
      8.876  0.1508E-08  0.9600E+02
      8.979  0.1731E-12  0.9600E+02
      9.082  0.2950E-17  0.9600E+02
      9.185  0.0000E+00  0.9600E+02
      9.289  0.0000E+00  0.9600E+02
      9.392  0.0000E+00  0.9600E+02
      9.495  0.0000E+00  0.9600E+02
      9.598  0.0000E+00  0.9600E+02
      9.702  0.0000E+00  0.9600E+02
      9.805  0.0000E+00  0.9600E+02
