  16  16   0   4
  0.2033809E+02  0.5005000E-09  0.5005000E-09  0.1500000E-08  0.5000000E-15
  1.000000000000000E-004
  CAR 
 Lattice                                 
      9.38631988    -20.98785621  301     -0.24941854      1.00000000
    -20.988  0.0000E+00  0.0000E+00  0.0000E+00  0.0000E+00
    -20.887  0.0000E+00  0.0000E+00  0.0000E+00  0.0000E+00
    -20.785  0.0000E+00  0.0000E+00  0.0000E+00  0.0000E+00
    -20.684  0.0000E+00  0.0000E+00  0.0000E+00  0.0000E+00
    -20.583  0.0000E+00  0.0000E+00  0.0000E+00  0.0000E+00
    -20.482  0.0000E+00  0.0000E+00  0.0000E+00  0.0000E+00
    -20.380  0.0000E+00  0.0000E+00  0.0000E+00  0.0000E+00
    -20.279  0.0000E+00  0.0000E+00  0.0000E+00  0.0000E+00
    -20.178  0.1785E-18  0.1785E-18  0.1807E-19  0.1807E-19
    -20.077  0.9422E-14  0.9422E-14  0.9539E-15  0.9539E-15
    -19.975  0.6404E-10  0.6404E-10  0.6484E-11  0.6484E-11
    -19.874  0.6572E-07  0.6572E-07  0.6661E-08  0.6661E-08
    -19.773  0.1098E-04  0.1098E-04  0.1118E-05  0.1118E-05
    -19.672  0.3276E-03  0.3276E-03  0.3428E-04  0.3428E-04
    -19.570  0.2104E-02  0.2104E-02  0.2473E-03  0.2473E-03
    -19.469  0.4326E-02  0.4326E-02  0.6853E-03  0.6853E-03
    -19.368  0.4809E-02  0.4809E-02  0.1172E-02  0.1172E-02
    -19.267  0.5151E-02  0.5151E-02  0.1694E-02  0.1694E-02
    -19.165  0.4500E-02  0.4500E-02  0.2149E-02  0.2149E-02
    -19.064  0.5592E-02  0.5592E-02  0.2716E-02  0.2716E-02
    -18.963  0.4480E-02  0.4480E-02  0.3169E-02  0.3169E-02
    -18.862  0.4625E-02  0.4625E-02  0.3637E-02  0.3637E-02
    -18.760  0.6193E-02  0.6193E-02  0.4264E-02  0.4264E-02
    -18.659  0.4051E-02  0.4051E-02  0.4674E-02  0.4674E-02
    -18.558  0.4278E-02  0.4278E-02  0.5108E-02  0.5108E-02
    -18.457  0.6382E-02  0.6382E-02  0.5754E-02  0.5754E-02
    -18.355  0.5381E-02  0.5381E-02  0.6299E-02  0.6299E-02
    -18.254  0.3185E-02  0.3185E-02  0.6621E-02  0.6621E-02
    -18.153  0.4911E-02  0.4911E-02  0.7118E-02  0.7118E-02
    -18.052  0.7092E-02  0.7092E-02  0.7836E-02  0.7836E-02
    -17.950  0.4798E-02  0.4798E-02  0.8322E-02  0.8322E-02
    -17.849  0.3897E-02  0.3897E-02  0.8717E-02  0.8717E-02
    -17.748  0.3486E-02  0.3486E-02  0.9070E-02  0.9070E-02
    -17.647  0.7141E-02  0.7141E-02  0.9793E-02  0.9793E-02
    -17.545  0.6664E-02  0.6664E-02  0.1047E-01  0.1047E-01
    -17.444  0.3626E-02  0.3626E-02  0.1083E-01  0.1083E-01
    -17.343  0.3645E-02  0.3645E-02  0.1120E-01  0.1120E-01
    -17.242  0.4522E-02  0.4522E-02  0.1166E-01  0.1166E-01
    -17.140  0.6844E-02  0.6844E-02  0.1235E-01  0.1235E-01
    -17.039  0.6843E-02  0.6843E-02  0.1305E-01  0.1305E-01
    -16.938  0.4743E-02  0.4743E-02  0.1353E-01  0.1353E-01
    -16.837  0.2487E-02  0.2487E-02  0.1378E-01  0.1378E-01
    -16.735  0.4120E-02  0.4120E-02  0.1420E-01  0.1420E-01
    -16.634  0.7149E-02  0.7149E-02  0.1492E-01  0.1492E-01
    -16.533  0.6709E-02  0.6709E-02  0.1560E-01  0.1560E-01
    -16.432  0.5566E-02  0.5566E-02  0.1616E-01  0.1616E-01
    -16.330  0.4637E-02  0.4637E-02  0.1663E-01  0.1663E-01
    -16.229  0.3094E-02  0.3094E-02  0.1695E-01  0.1695E-01
    -16.128  0.3225E-02  0.3225E-02  0.1727E-01  0.1727E-01
    -16.027  0.1027E-01  0.1027E-01  0.1831E-01  0.1831E-01
    -15.925  0.1214E-01  0.1214E-01  0.1954E-01  0.1954E-01
    -15.824  0.1098E-01  0.1098E-01  0.2065E-01  0.2065E-01
    -15.723  0.1065E-01  0.1065E-01  0.2173E-01  0.2173E-01
    -15.622  0.1103E-01  0.1103E-01  0.2285E-01  0.2285E-01
    -15.521  0.1009E-01  0.1009E-01  0.2387E-01  0.2387E-01
    -15.419  0.1304E-01  0.1304E-01  0.2519E-01  0.2519E-01
    -15.318  0.1727E-01  0.1727E-01  0.2694E-01  0.2694E-01
    -15.217  0.1603E-01  0.1603E-01  0.2856E-01  0.2856E-01
    -15.116  0.1360E-01  0.1360E-01  0.2994E-01  0.2994E-01
    -15.014  0.9944E-02  0.9944E-02  0.3095E-01  0.3095E-01
    -14.913  0.8025E-02  0.8025E-02  0.3176E-01  0.3176E-01
    -14.812  0.6271E-02  0.6271E-02  0.3239E-01  0.3239E-01
    -14.711  0.9842E-02  0.9842E-02  0.3339E-01  0.3339E-01
    -14.609  0.1172E-01  0.1172E-01  0.3458E-01  0.3458E-01
    -14.508  0.1240E-01  0.1240E-01  0.3583E-01  0.3583E-01
    -14.407  0.1286E-01  0.1286E-01  0.3713E-01  0.3713E-01
    -14.306  0.1032E-01  0.1032E-01  0.3818E-01  0.3818E-01
    -14.204  0.8805E-02  0.8805E-02  0.3907E-01  0.3907E-01
    -14.103  0.1049E-01  0.1049E-01  0.4013E-01  0.4013E-01
    -14.002  0.1392E-01  0.1392E-01  0.4154E-01  0.4154E-01
    -13.901  0.7945E-02  0.7945E-02  0.4234E-01  0.4234E-01
    -13.799  0.3564E-02  0.3564E-02  0.4271E-01  0.4271E-01
    -13.698  0.2876E-02  0.2876E-02  0.4300E-01  0.4300E-01
    -13.597  0.6077E-02  0.6077E-02  0.4361E-01  0.4361E-01
    -13.496  0.5924E-02  0.5924E-02  0.4421E-01  0.4421E-01
    -13.394  0.6164E-02  0.6164E-02  0.4484E-01  0.4484E-01
    -13.293  0.6159E-02  0.6159E-02  0.4546E-01  0.4546E-01
    -13.192  0.7594E-02  0.7594E-02  0.4623E-01  0.4623E-01
    -13.091  0.7039E-02  0.7039E-02  0.4694E-01  0.4694E-01
    -12.989  0.6385E-02  0.6385E-02  0.4759E-01  0.4759E-01
    -12.888  0.6640E-02  0.6640E-02  0.4826E-01  0.4826E-01
    -12.787  0.8869E-02  0.8869E-02  0.4916E-01  0.4916E-01
    -12.686  0.1299E-01  0.1299E-01  0.5047E-01  0.5047E-01
    -12.584  0.1241E-01  0.1241E-01  0.5173E-01  0.5173E-01
    -12.483  0.1481E-01  0.1481E-01  0.5323E-01  0.5323E-01
    -12.382  0.1477E-01  0.1477E-01  0.5473E-01  0.5473E-01
    -12.281  0.1409E-01  0.1409E-01  0.5615E-01  0.5615E-01
    -12.179  0.1773E-01  0.1773E-01  0.5795E-01  0.5795E-01
    -12.078  0.1500E-01  0.1500E-01  0.5947E-01  0.5947E-01
    -11.977  0.1639E-01  0.1639E-01  0.6113E-01  0.6113E-01
    -11.876  0.1675E-01  0.1675E-01  0.6282E-01  0.6282E-01
    -11.774  0.9865E-02  0.9865E-02  0.6382E-01  0.6382E-01
    -11.673  0.5963E-02  0.5963E-02  0.6442E-01  0.6442E-01
    -11.572  0.4972E-02  0.4972E-02  0.6493E-01  0.6493E-01
    -11.471  0.6673E-02  0.6673E-02  0.6560E-01  0.6560E-01
    -11.369  0.6033E-02  0.6033E-02  0.6621E-01  0.6621E-01
    -11.268  0.5565E-02  0.5565E-02  0.6678E-01  0.6678E-01
    -11.167  0.4525E-02  0.4525E-02  0.6723E-01  0.6723E-01
    -11.066  0.4185E-02  0.4185E-02  0.6766E-01  0.6766E-01
    -10.964  0.5617E-02  0.5617E-02  0.6823E-01  0.6823E-01
    -10.863  0.1097E-01  0.1097E-01  0.6934E-01  0.6934E-01
    -10.762  0.1216E-01  0.1216E-01  0.7057E-01  0.7057E-01
    -10.661  0.1237E-01  0.1237E-01  0.7182E-01  0.7182E-01
    -10.559  0.1472E-01  0.1472E-01  0.7331E-01  0.7331E-01
    -10.458  0.1300E-01  0.1300E-01  0.7463E-01  0.7463E-01
    -10.357  0.1172E-01  0.1172E-01  0.7581E-01  0.7581E-01
    -10.256  0.1055E-01  0.1055E-01  0.7688E-01  0.7688E-01
    -10.154  0.1031E-01  0.1031E-01  0.7793E-01  0.7793E-01
    -10.053  0.9451E-02  0.9451E-02  0.7888E-01  0.7888E-01
     -9.952  0.6107E-02  0.6107E-02  0.7950E-01  0.7950E-01
     -9.851  0.1157E-01  0.1157E-01  0.8067E-01  0.8067E-01
     -9.749  0.1144E-01  0.1144E-01  0.8183E-01  0.8183E-01
     -9.648  0.1517E-01  0.1517E-01  0.8337E-01  0.8337E-01
     -9.547  0.1782E-01  0.1782E-01  0.8517E-01  0.8517E-01
     -9.446  0.1131E-01  0.1131E-01  0.8632E-01  0.8632E-01
     -9.344  0.1717E-01  0.1717E-01  0.8805E-01  0.8805E-01
     -9.243  0.1695E-01  0.1695E-01  0.8977E-01  0.8977E-01
     -9.142  0.1204E-01  0.1204E-01  0.9099E-01  0.9099E-01
     -9.041  0.1053E-01  0.1053E-01  0.9205E-01  0.9205E-01
     -8.939  0.1905E-01  0.1905E-01  0.9398E-01  0.9398E-01
     -8.838  0.2282E-01  0.2282E-01  0.9629E-01  0.9629E-01
     -8.737  0.9599E-02  0.9599E-02  0.9727E-01  0.9727E-01
     -8.636  0.6216E-02  0.6216E-02  0.9790E-01  0.9790E-01
     -8.534  0.1402E-01  0.1402E-01  0.9932E-01  0.9932E-01
     -8.433  0.1750E-01  0.1750E-01  0.1011E+00  0.1011E+00
     -8.332  0.1515E-01  0.1515E-01  0.1026E+00  0.1026E+00
     -8.231  0.1598E-01  0.1598E-01  0.1042E+00  0.1042E+00
     -8.129  0.1225E-01  0.1225E-01  0.1055E+00  0.1055E+00
     -8.028  0.1022E-01  0.1022E-01  0.1065E+00  0.1065E+00
     -7.927  0.1345E-01  0.1345E-01  0.1079E+00  0.1079E+00
     -7.826  0.1813E-01  0.1813E-01  0.1097E+00  0.1097E+00
     -7.724  0.2338E-01  0.2338E-01  0.1121E+00  0.1121E+00
     -7.623  0.1689E-01  0.1689E-01  0.1138E+00  0.1138E+00
     -7.522  0.1371E-01  0.1371E-01  0.1152E+00  0.1152E+00
     -7.421  0.1255E-01  0.1255E-01  0.1164E+00  0.1164E+00
     -7.319  0.1633E-01  0.1633E-01  0.1181E+00  0.1181E+00
     -7.218  0.2090E-01  0.2090E-01  0.1202E+00  0.1202E+00
     -7.117  0.1634E-01  0.1634E-01  0.1219E+00  0.1219E+00
     -7.016  0.1845E-01  0.1845E-01  0.1237E+00  0.1237E+00
     -6.914  0.1946E-01  0.1946E-01  0.1257E+00  0.1257E+00
     -6.813  0.2210E-01  0.2210E-01  0.1279E+00  0.1279E+00
     -6.712  0.2668E-01  0.2668E-01  0.1306E+00  0.1306E+00
     -6.611  0.3490E-01  0.3490E-01  0.1342E+00  0.1342E+00
     -6.509  0.3557E-01  0.3557E-01  0.1378E+00  0.1378E+00
     -6.408  0.2063E-01  0.2063E-01  0.1399E+00  0.1399E+00
     -6.307  0.1586E-01  0.1586E-01  0.1415E+00  0.1415E+00
     -6.206  0.1801E-01  0.1801E-01  0.1433E+00  0.1433E+00
     -6.105  0.1796E-01  0.1796E-01  0.1451E+00  0.1451E+00
     -6.003  0.1790E-01  0.1790E-01  0.1469E+00  0.1469E+00
     -5.902  0.1493E-01  0.1493E-01  0.1484E+00  0.1484E+00
     -5.801  0.1605E-01  0.1605E-01  0.1501E+00  0.1501E+00
     -5.700  0.1949E-01  0.1949E-01  0.1520E+00  0.1520E+00
     -5.598  0.1397E-01  0.1397E-01  0.1535E+00  0.1535E+00
     -5.497  0.9188E-02  0.9188E-02  0.1544E+00  0.1544E+00
     -5.396  0.1352E-01  0.1352E-01  0.1558E+00  0.1558E+00
     -5.295  0.2029E-01  0.2029E-01  0.1578E+00  0.1578E+00
     -5.193  0.1730E-01  0.1730E-01  0.1596E+00  0.1596E+00
     -5.092  0.1210E-01  0.1210E-01  0.1608E+00  0.1608E+00
     -4.991  0.1549E-01  0.1549E-01  0.1624E+00  0.1624E+00
     -4.890  0.2122E-01  0.2122E-01  0.1645E+00  0.1645E+00
     -4.788  0.1285E-01  0.1285E-01  0.1658E+00  0.1658E+00
     -4.687  0.8015E-02  0.8015E-02  0.1666E+00  0.1666E+00
     -4.586  0.1648E-01  0.1648E-01  0.1683E+00  0.1683E+00
     -4.485  0.2015E-01  0.2015E-01  0.1703E+00  0.1703E+00
     -4.383  0.2043E-01  0.2043E-01  0.1724E+00  0.1724E+00
     -4.282  0.2322E-01  0.2322E-01  0.1747E+00  0.1747E+00
     -4.181  0.2038E-01  0.2038E-01  0.1768E+00  0.1768E+00
     -4.080  0.2158E-01  0.2157E-01  0.1790E+00  0.1790E+00
     -3.978  0.2421E-01  0.2421E-01  0.1814E+00  0.1814E+00
     -3.877  0.2891E-01  0.2891E-01  0.1844E+00  0.1844E+00
     -3.776  0.2653E-01  0.2653E-01  0.1871E+00  0.1871E+00
     -3.675  0.1985E-01  0.1985E-01  0.1891E+00  0.1891E+00
     -3.573  0.1974E-01  0.1974E-01  0.1911E+00  0.1911E+00
     -3.472  0.1681E-01  0.1681E-01  0.1928E+00  0.1928E+00
     -3.371  0.1320E-01  0.1320E-01  0.1941E+00  0.1941E+00
     -3.270  0.6708E-02  0.6708E-02  0.1948E+00  0.1948E+00
     -3.168  0.7922E-02  0.7922E-02  0.1956E+00  0.1956E+00
     -3.067  0.1418E-01  0.1418E-01  0.1970E+00  0.1970E+00
     -2.966  0.1635E-01  0.1635E-01  0.1987E+00  0.1987E+00
     -2.865  0.1266E-01  0.1266E-01  0.2000E+00  0.2000E+00
     -2.763  0.1235E-01  0.1235E-01  0.2012E+00  0.2012E+00
     -2.662  0.1120E-01  0.1120E-01  0.2023E+00  0.2023E+00
     -2.561  0.1092E-01  0.1092E-01  0.2034E+00  0.2034E+00
     -2.460  0.1486E-01  0.1486E-01  0.2050E+00  0.2050E+00
     -2.358  0.1407E-01  0.1407E-01  0.2064E+00  0.2064E+00
     -2.257  0.9909E-02  0.9909E-02  0.2074E+00  0.2074E+00
     -2.156  0.1143E-01  0.1143E-01  0.2085E+00  0.2085E+00
     -2.055  0.7877E-02  0.7877E-02  0.2093E+00  0.2093E+00
     -1.953  0.4756E-02  0.4756E-02  0.2098E+00  0.2098E+00
     -1.852  0.5566E-02  0.5566E-02  0.2104E+00  0.2104E+00
     -1.751  0.9258E-02  0.9258E-02  0.2113E+00  0.2113E+00
     -1.650  0.9428E-02  0.9428E-02  0.2123E+00  0.2123E+00
     -1.548  0.9331E-02  0.9331E-02  0.2132E+00  0.2132E+00
     -1.447  0.7322E-02  0.7322E-02  0.2140E+00  0.2140E+00
     -1.346  0.5097E-02  0.5097E-02  0.2145E+00  0.2145E+00
     -1.245  0.4930E-02  0.4930E-02  0.2150E+00  0.2150E+00
     -1.143  0.5678E-02  0.5678E-02  0.2155E+00  0.2155E+00
     -1.042  0.7739E-02  0.7739E-02  0.2163E+00  0.2163E+00
     -0.941  0.6476E-02  0.6476E-02  0.2170E+00  0.2170E+00
     -0.840  0.3555E-02  0.3555E-02  0.2173E+00  0.2173E+00
     -0.738  0.1778E-02  0.1778E-02  0.2175E+00  0.2175E+00
     -0.637  0.9259E-03  0.9259E-03  0.2176E+00  0.2176E+00
     -0.536  0.2981E-02  0.2981E-02  0.2179E+00  0.2179E+00
     -0.435  0.3806E-02  0.3806E-02  0.2183E+00  0.2183E+00
     -0.333  0.2034E-02  0.2034E-02  0.2185E+00  0.2185E+00
     -0.232  0.2976E-02  0.2976E-02  0.2188E+00  0.2188E+00
     -0.131  0.4360E-02  0.4360E-02  0.2193E+00  0.2193E+00
     -0.030  0.4078E-02  0.4078E-02  0.2197E+00  0.2197E+00
      0.072  0.3459E-02  0.3459E-02  0.2200E+00  0.2200E+00
      0.173  0.7296E-02  0.7296E-02  0.2208E+00  0.2208E+00
      0.274  0.1177E-01  0.1177E-01  0.2219E+00  0.2219E+00
      0.375  0.1190E-01  0.1190E-01  0.2232E+00  0.2232E+00
      0.477  0.1064E-01  0.1064E-01  0.2242E+00  0.2242E+00
      0.578  0.4675E-02  0.4675E-02  0.2247E+00  0.2247E+00
      0.679  0.5538E-02  0.5538E-02  0.2253E+00  0.2253E+00
      0.780  0.1103E-01  0.1103E-01  0.2264E+00  0.2264E+00
      0.882  0.7345E-02  0.7345E-02  0.2271E+00  0.2271E+00
      0.983  0.3314E-02  0.3314E-02  0.2275E+00  0.2275E+00
      1.084  0.5149E-02  0.5149E-02  0.2280E+00  0.2280E+00
      1.185  0.1342E-01  0.1342E-01  0.2293E+00  0.2293E+00
      1.287  0.1913E-01  0.1913E-01  0.2313E+00  0.2313E+00
      1.388  0.1756E-01  0.1756E-01  0.2331E+00  0.2331E+00
      1.489  0.1234E-01  0.1234E-01  0.2343E+00  0.2343E+00
      1.590  0.7740E-02  0.7740E-02  0.2351E+00  0.2351E+00
      1.692  0.1047E-01  0.1047E-01  0.2362E+00  0.2362E+00
      1.793  0.1069E-01  0.1069E-01  0.2372E+00  0.2372E+00
      1.894  0.9136E-02  0.9136E-02  0.2382E+00  0.2382E+00
      1.995  0.1479E-01  0.1479E-01  0.2397E+00  0.2397E+00
      2.097  0.1500E-01  0.1500E-01  0.2412E+00  0.2412E+00
      2.198  0.1197E-01  0.1197E-01  0.2424E+00  0.2424E+00
      2.299  0.7495E-02  0.7495E-02  0.2431E+00  0.2431E+00
      2.400  0.4631E-02  0.4631E-02  0.2436E+00  0.2436E+00
      2.502  0.9014E-02  0.9014E-02  0.2445E+00  0.2445E+00
      2.603  0.1214E-01  0.1214E-01  0.2458E+00  0.2458E+00
      2.704  0.1620E-01  0.1620E-01  0.2474E+00  0.2474E+00
      2.805  0.1637E-01  0.1637E-01  0.2491E+00  0.2491E+00
      2.906  0.1344E-01  0.1344E-01  0.2504E+00  0.2504E+00
      3.008  0.1296E-01  0.1296E-01  0.2517E+00  0.2517E+00
      3.109  0.1375E-01  0.1375E-01  0.2531E+00  0.2531E+00
      3.210  0.1317E-01  0.1317E-01  0.2545E+00  0.2545E+00
      3.311  0.1838E-01  0.1838E-01  0.2563E+00  0.2563E+00
      3.413  0.2023E-01  0.2023E-01  0.2584E+00  0.2584E+00
      3.514  0.1872E-01  0.1872E-01  0.2603E+00  0.2603E+00
      3.615  0.2276E-01  0.2276E-01  0.2626E+00  0.2626E+00
      3.716  0.2308E-01  0.2308E-01  0.2649E+00  0.2649E+00
      3.818  0.2413E-01  0.2413E-01  0.2673E+00  0.2673E+00
      3.919  0.2075E-01  0.2076E-01  0.2694E+00  0.2694E+00
      4.020  0.1841E-01  0.1841E-01  0.2713E+00  0.2713E+00
      4.121  0.1827E-01  0.1826E-01  0.2732E+00  0.2732E+00
      4.223  0.1846E-01  0.1846E-01  0.2750E+00  0.2750E+00
      4.324  0.2260E-01  0.2260E-01  0.2773E+00  0.2773E+00
      4.425  0.2449E-01  0.2449E-01  0.2798E+00  0.2798E+00
      4.526  0.1772E-01  0.1772E-01  0.2816E+00  0.2816E+00
      4.628  0.2077E-01  0.2077E-01  0.2837E+00  0.2837E+00
      4.729  0.2680E-01  0.2681E-01  0.2864E+00  0.2864E+00
      4.830  0.3251E-01  0.3252E-01  0.2897E+00  0.2897E+00
      4.931  0.2426E-01  0.2425E-01  0.2921E+00  0.2922E+00
      5.033  0.1825E-01  0.1826E-01  0.2940E+00  0.2940E+00
      5.134  0.2323E-01  0.2322E-01  0.2963E+00  0.2964E+00
      5.235  0.2269E-01  0.2268E-01  0.2986E+00  0.2986E+00
      5.336  0.2525E-01  0.2527E-01  0.3012E+00  0.3012E+00
      5.438  0.2616E-01  0.2615E-01  0.3039E+00  0.3039E+00
      5.539  0.2904E-01  0.2903E-01  0.3068E+00  0.3068E+00
      5.640  0.2827E-01  0.2828E-01  0.3097E+00  0.3097E+00
      5.741  0.2889E-01  0.2889E-01  0.3126E+00  0.3126E+00
      5.843  0.2312E-01  0.2310E-01  0.3149E+00  0.3149E+00
      5.944  0.1532E-01  0.1533E-01  0.3165E+00  0.3165E+00
      6.045  0.2310E-01  0.2311E-01  0.3188E+00  0.3188E+00
      6.146  0.2724E-01  0.2723E-01  0.3216E+00  0.3216E+00
      6.248  0.2557E-01  0.2557E-01  0.3242E+00  0.3242E+00
      6.349  0.3127E-01  0.3128E-01  0.3273E+00  0.3273E+00
      6.450  0.2884E-01  0.2883E-01  0.3302E+00  0.3302E+00
      6.551  0.2281E-01  0.2282E-01  0.3325E+00  0.3326E+00
      6.653  0.2459E-01  0.2460E-01  0.3350E+00  0.3350E+00
      6.754  0.2958E-01  0.2956E-01  0.3380E+00  0.3380E+00
      6.855  0.2829E-01  0.2830E-01  0.3409E+00  0.3409E+00
      6.956  0.3294E-01  0.3296E-01  0.3442E+00  0.3442E+00
      7.058  0.3937E-01  0.3937E-01  0.3482E+00  0.3482E+00
      7.159  0.3396E-01  0.3396E-01  0.3517E+00  0.3517E+00
      7.260  0.3440E-01  0.3441E-01  0.3551E+00  0.3551E+00
      7.361  0.3183E-01  0.3182E-01  0.3584E+00  0.3584E+00
      7.463  0.2757E-01  0.2757E-01  0.3612E+00  0.3612E+00
      7.564  0.3399E-01  0.3399E-01  0.3646E+00  0.3646E+00
      7.665  0.3172E-01  0.3170E-01  0.3678E+00  0.3678E+00
      7.766  0.2812E-01  0.2812E-01  0.3707E+00  0.3707E+00
      7.868  0.2167E-01  0.2166E-01  0.3729E+00  0.3729E+00
      7.969  0.1253E-01  0.1252E-01  0.3741E+00  0.3741E+00
      8.070  0.7160E-02  0.7152E-02  0.3748E+00  0.3748E+00
      8.171  0.1481E-02  0.1479E-02  0.3750E+00  0.3750E+00
      8.273  0.6755E-04  0.6749E-04  0.3750E+00  0.3750E+00
      8.374  0.5315E-06  0.5311E-06  0.3750E+00  0.3750E+00
      8.475  0.6244E-09  0.6240E-09  0.3750E+00  0.3750E+00
      8.576  0.1022E-12  0.1021E-12  0.3750E+00  0.3750E+00
      8.678  0.2142E-17  0.2142E-17  0.3750E+00  0.3750E+00
      8.779  0.0000E+00  0.0000E+00  0.3750E+00  0.3750E+00
      8.880  0.0000E+00  0.0000E+00  0.3750E+00  0.3750E+00
      8.981  0.0000E+00  0.0000E+00  0.3750E+00  0.3750E+00
      9.083  0.0000E+00  0.0000E+00  0.3750E+00  0.3750E+00
      9.184  0.0000E+00  0.0000E+00  0.3750E+00  0.3750E+00
      9.285  0.0000E+00  0.0000E+00  0.3750E+00  0.3750E+00
      9.386  0.0000E+00  0.0000E+00  0.3750E+00  0.3750E+00
