  16  16   0   4
  0.1997401E+02  0.4960000E-09  0.4960000E-09  0.1500000E-08  0.5000000E-15
  1.000000000000000E-004
  CAR 
 Lattice                                 
      9.87865641    -21.17354532  301     -0.28077756      1.00000000
    -21.174  0.0000E+00  0.0000E+00  0.0000E+00  0.0000E+00
    -21.070  0.0000E+00  0.0000E+00  0.0000E+00  0.0000E+00
    -20.967  0.0000E+00  0.0000E+00  0.0000E+00  0.0000E+00
    -20.863  0.0000E+00  0.0000E+00  0.0000E+00  0.0000E+00
    -20.760  0.0000E+00  0.0000E+00  0.0000E+00  0.0000E+00
    -20.656  0.0000E+00  0.0000E+00  0.0000E+00  0.0000E+00
    -20.553  0.0000E+00  0.0000E+00  0.0000E+00  0.0000E+00
    -20.449  0.0000E+00  0.0000E+00  0.0000E+00  0.0000E+00
    -20.345  0.2910E-19  0.2910E-19  0.3012E-20  0.3012E-20
    -20.242  0.3291E-14  0.3291E-14  0.3406E-15  0.3406E-15
    -20.138  0.3254E-10  0.3254E-10  0.3369E-11  0.3369E-11
    -20.035  0.4437E-07  0.4437E-07  0.4596E-08  0.4596E-08
    -19.931  0.9050E-05  0.9050E-05  0.9414E-06  0.9414E-06
    -19.828  0.3049E-03  0.3049E-03  0.3250E-04  0.3250E-04
    -19.724  0.2063E-02  0.2063E-02  0.2461E-03  0.2461E-03
    -19.621  0.4281E-02  0.4281E-02  0.6892E-03  0.6892E-03
    -19.517  0.4728E-02  0.4728E-02  0.1179E-02  0.1179E-02
    -19.414  0.5082E-02  0.5082E-02  0.1705E-02  0.1705E-02
    -19.310  0.4403E-02  0.4403E-02  0.2160E-02  0.2160E-02
    -19.207  0.5549E-02  0.5549E-02  0.2735E-02  0.2735E-02
    -19.103  0.4333E-02  0.4333E-02  0.3183E-02  0.3183E-02
    -19.000  0.4616E-02  0.4616E-02  0.3661E-02  0.3661E-02
    -18.896  0.6112E-02  0.6112E-02  0.4294E-02  0.4294E-02
    -18.793  0.3845E-02  0.3845E-02  0.4692E-02  0.4692E-02
    -18.689  0.4337E-02  0.4337E-02  0.5141E-02  0.5141E-02
    -18.586  0.6334E-02  0.6334E-02  0.5796E-02  0.5796E-02
    -18.482  0.5164E-02  0.5164E-02  0.6331E-02  0.6331E-02
    -18.379  0.3013E-02  0.3013E-02  0.6643E-02  0.6643E-02
    -18.275  0.5143E-02  0.5143E-02  0.7175E-02  0.7175E-02
    -18.172  0.6923E-02  0.6923E-02  0.7892E-02  0.7892E-02
    -18.068  0.4534E-02  0.4534E-02  0.8361E-02  0.8361E-02
    -17.965  0.3748E-02  0.3748E-02  0.8749E-02  0.8749E-02
    -17.861  0.3589E-02  0.3589E-02  0.9120E-02  0.9120E-02
    -17.758  0.7342E-02  0.7342E-02  0.9880E-02  0.9880E-02
    -17.654  0.6228E-02  0.6228E-02  0.1053E-01  0.1053E-01
    -17.551  0.3323E-02  0.3323E-02  0.1087E-01  0.1087E-01
    -17.447  0.3735E-02  0.3735E-02  0.1126E-01  0.1126E-01
    -17.344  0.4587E-02  0.4587E-02  0.1173E-01  0.1173E-01
    -17.240  0.7021E-02  0.7021E-02  0.1246E-01  0.1246E-01
    -17.137  0.6452E-02  0.6452E-02  0.1312E-01  0.1312E-01
    -17.033  0.4369E-02  0.4369E-02  0.1358E-01  0.1358E-01
    -16.930  0.2272E-02  0.2272E-02  0.1381E-01  0.1381E-01
    -16.826  0.4609E-02  0.4609E-02  0.1429E-01  0.1429E-01
    -16.723  0.7191E-02  0.7191E-02  0.1503E-01  0.1503E-01
    -16.619  0.6394E-02  0.6394E-02  0.1570E-01  0.1570E-01
    -16.516  0.5260E-02  0.5260E-02  0.1624E-01  0.1624E-01
    -16.412  0.4459E-02  0.4459E-02  0.1670E-01  0.1670E-01
    -16.309  0.2650E-02  0.2650E-02  0.1698E-01  0.1698E-01
    -16.205  0.3684E-02  0.3684E-02  0.1736E-01  0.1736E-01
    -16.102  0.9093E-02  0.9093E-02  0.1830E-01  0.1830E-01
    -15.998  0.7367E-02  0.7367E-02  0.1906E-01  0.1906E-01
    -15.895  0.8277E-02  0.8277E-02  0.1992E-01  0.1992E-01
    -15.791  0.9884E-02  0.9884E-02  0.2094E-01  0.2094E-01
    -15.688  0.1052E-01  0.1052E-01  0.2203E-01  0.2203E-01
    -15.584  0.9713E-02  0.9713E-02  0.2303E-01  0.2303E-01
    -15.481  0.1304E-01  0.1304E-01  0.2438E-01  0.2438E-01
    -15.377  0.1628E-01  0.1628E-01  0.2607E-01  0.2607E-01
    -15.274  0.1338E-01  0.1338E-01  0.2745E-01  0.2745E-01
    -15.170  0.1242E-01  0.1242E-01  0.2874E-01  0.2874E-01
    -15.067  0.1411E-01  0.1411E-01  0.3020E-01  0.3020E-01
    -14.963  0.1068E-01  0.1068E-01  0.3131E-01  0.3131E-01
    -14.860  0.9711E-02  0.9711E-02  0.3231E-01  0.3231E-01
    -14.756  0.1031E-01  0.1031E-01  0.3338E-01  0.3338E-01
    -14.653  0.1082E-01  0.1082E-01  0.3450E-01  0.3450E-01
    -14.549  0.8348E-02  0.8348E-02  0.3536E-01  0.3536E-01
    -14.446  0.9254E-02  0.9254E-02  0.3632E-01  0.3632E-01
    -14.342  0.8088E-02  0.8088E-02  0.3716E-01  0.3716E-01
    -14.239  0.9127E-02  0.9127E-02  0.3810E-01  0.3810E-01
    -14.135  0.1515E-01  0.1515E-01  0.3967E-01  0.3967E-01
    -14.032  0.1316E-01  0.1316E-01  0.4103E-01  0.4103E-01
    -13.928  0.6648E-02  0.6648E-02  0.4172E-01  0.4172E-01
    -13.825  0.5321E-02  0.5321E-02  0.4227E-01  0.4227E-01
    -13.721  0.4221E-02  0.4221E-02  0.4271E-01  0.4271E-01
    -13.618  0.4148E-02  0.4148E-02  0.4314E-01  0.4314E-01
    -13.514  0.7496E-02  0.7495E-02  0.4391E-01  0.4391E-01
    -13.410  0.9454E-02  0.9454E-02  0.4489E-01  0.4489E-01
    -13.307  0.6992E-02  0.6992E-02  0.4562E-01  0.4562E-01
    -13.203  0.5908E-02  0.5908E-02  0.4623E-01  0.4623E-01
    -13.100  0.7585E-02  0.7585E-02  0.4701E-01  0.4701E-01
    -12.996  0.8151E-02  0.8151E-02  0.4786E-01  0.4786E-01
    -12.893  0.6249E-02  0.6249E-02  0.4850E-01  0.4850E-01
    -12.789  0.8219E-02  0.8219E-02  0.4935E-01  0.4935E-01
    -12.686  0.8797E-02  0.8797E-02  0.5026E-01  0.5026E-01
    -12.582  0.1021E-01  0.1021E-01  0.5132E-01  0.5132E-01
    -12.479  0.1430E-01  0.1430E-01  0.5280E-01  0.5280E-01
    -12.375  0.1107E-01  0.1107E-01  0.5395E-01  0.5395E-01
    -12.272  0.1360E-01  0.1360E-01  0.5535E-01  0.5535E-01
    -12.168  0.1263E-01  0.1263E-01  0.5666E-01  0.5666E-01
    -12.065  0.1243E-01  0.1243E-01  0.5795E-01  0.5795E-01
    -11.961  0.1998E-01  0.1998E-01  0.6002E-01  0.6002E-01
    -11.858  0.1691E-01  0.1691E-01  0.6177E-01  0.6177E-01
    -11.754  0.1170E-01  0.1170E-01  0.6298E-01  0.6298E-01
    -11.651  0.1084E-01  0.1084E-01  0.6410E-01  0.6410E-01
    -11.547  0.9789E-02  0.9789E-02  0.6511E-01  0.6511E-01
    -11.444  0.8341E-02  0.8341E-02  0.6598E-01  0.6598E-01
    -11.340  0.4836E-02  0.4836E-02  0.6648E-01  0.6648E-01
    -11.237  0.3170E-02  0.3170E-02  0.6681E-01  0.6681E-01
    -11.133  0.4869E-02  0.4869E-02  0.6731E-01  0.6731E-01
    -11.030  0.5540E-02  0.5540E-02  0.6788E-01  0.6788E-01
    -10.926  0.5869E-02  0.5869E-02  0.6849E-01  0.6849E-01
    -10.823  0.7389E-02  0.7389E-02  0.6925E-01  0.6925E-01
    -10.719  0.9955E-02  0.9955E-02  0.7029E-01  0.7029E-01
    -10.616  0.9386E-02  0.9386E-02  0.7126E-01  0.7126E-01
    -10.512  0.1390E-01  0.1390E-01  0.7270E-01  0.7270E-01
    -10.409  0.1996E-01  0.1996E-01  0.7476E-01  0.7476E-01
    -10.305  0.1514E-01  0.1514E-01  0.7633E-01  0.7633E-01
    -10.202  0.6934E-02  0.6934E-02  0.7705E-01  0.7705E-01
    -10.098  0.4091E-02  0.4091E-02  0.7747E-01  0.7747E-01
     -9.995  0.1151E-01  0.1151E-01  0.7866E-01  0.7866E-01
     -9.891  0.1743E-01  0.1743E-01  0.8046E-01  0.8046E-01
     -9.788  0.9772E-02  0.9772E-02  0.8148E-01  0.8148E-01
     -9.684  0.5462E-02  0.5462E-02  0.8204E-01  0.8204E-01
     -9.581  0.6677E-02  0.6677E-02  0.8273E-01  0.8273E-01
     -9.477  0.1430E-01  0.1430E-01  0.8421E-01  0.8421E-01
     -9.374  0.1837E-01  0.1837E-01  0.8611E-01  0.8611E-01
     -9.270  0.1675E-01  0.1675E-01  0.8785E-01  0.8785E-01
     -9.167  0.1879E-01  0.1879E-01  0.8979E-01  0.8979E-01
     -9.063  0.1334E-01  0.1334E-01  0.9117E-01  0.9117E-01
     -8.960  0.9867E-02  0.9867E-02  0.9220E-01  0.9220E-01
     -8.856  0.1526E-01  0.1526E-01  0.9378E-01  0.9378E-01
     -8.753  0.1921E-01  0.1921E-01  0.9576E-01  0.9576E-01
     -8.649  0.1320E-01  0.1320E-01  0.9713E-01  0.9713E-01
     -8.546  0.9114E-02  0.9114E-02  0.9807E-01  0.9807E-01
     -8.442  0.1401E-01  0.1401E-01  0.9952E-01  0.9952E-01
     -8.339  0.2079E-01  0.2079E-01  0.1017E+00  0.1017E+00
     -8.235  0.1537E-01  0.1537E-01  0.1033E+00  0.1033E+00
     -8.132  0.8662E-02  0.8662E-02  0.1042E+00  0.1042E+00
     -8.028  0.1525E-01  0.1525E-01  0.1057E+00  0.1057E+00
     -7.925  0.1356E-01  0.1356E-01  0.1071E+00  0.1071E+00
     -7.821  0.1747E-01  0.1747E-01  0.1090E+00  0.1090E+00
     -7.718  0.2675E-01  0.2675E-01  0.1117E+00  0.1117E+00
     -7.614  0.1790E-01  0.1790E-01  0.1136E+00  0.1136E+00
     -7.511  0.1322E-01  0.1322E-01  0.1149E+00  0.1149E+00
     -7.407  0.1500E-01  0.1500E-01  0.1165E+00  0.1165E+00
     -7.304  0.1963E-01  0.1963E-01  0.1185E+00  0.1185E+00
     -7.200  0.1947E-01  0.1947E-01  0.1205E+00  0.1205E+00
     -7.097  0.1559E-01  0.1559E-01  0.1222E+00  0.1222E+00
     -6.993  0.1471E-01  0.1471E-01  0.1237E+00  0.1237E+00
     -6.890  0.1836E-01  0.1836E-01  0.1256E+00  0.1256E+00
     -6.786  0.2373E-01  0.2373E-01  0.1280E+00  0.1280E+00
     -6.683  0.2621E-01  0.2621E-01  0.1307E+00  0.1307E+00
     -6.579  0.2895E-01  0.2895E-01  0.1337E+00  0.1337E+00
     -6.476  0.2723E-01  0.2723E-01  0.1366E+00  0.1366E+00
     -6.372  0.2682E-01  0.2682E-01  0.1393E+00  0.1393E+00
     -6.268  0.2541E-01  0.2541E-01  0.1420E+00  0.1420E+00
     -6.165  0.1980E-01  0.1980E-01  0.1440E+00  0.1440E+00
     -6.061  0.1652E-01  0.1652E-01  0.1457E+00  0.1457E+00
     -5.958  0.1600E-01  0.1600E-01  0.1474E+00  0.1474E+00
     -5.854  0.1406E-01  0.1406E-01  0.1488E+00  0.1488E+00
     -5.751  0.1790E-01  0.1790E-01  0.1507E+00  0.1507E+00
     -5.647  0.2048E-01  0.2048E-01  0.1528E+00  0.1528E+00
     -5.544  0.1074E-01  0.1074E-01  0.1539E+00  0.1539E+00
     -5.440  0.7305E-02  0.7305E-02  0.1547E+00  0.1547E+00
     -5.337  0.1541E-01  0.1541E-01  0.1563E+00  0.1563E+00
     -5.233  0.2105E-01  0.2105E-01  0.1585E+00  0.1585E+00
     -5.130  0.1553E-01  0.1553E-01  0.1601E+00  0.1601E+00
     -5.026  0.1095E-01  0.1095E-01  0.1612E+00  0.1612E+00
     -4.923  0.1574E-01  0.1574E-01  0.1628E+00  0.1628E+00
     -4.819  0.1662E-01  0.1662E-01  0.1645E+00  0.1645E+00
     -4.716  0.1174E-01  0.1174E-01  0.1658E+00  0.1658E+00
     -4.612  0.1077E-01  0.1077E-01  0.1669E+00  0.1669E+00
     -4.509  0.1275E-01  0.1275E-01  0.1682E+00  0.1682E+00
     -4.405  0.1973E-01  0.1973E-01  0.1702E+00  0.1702E+00
     -4.302  0.2068E-01  0.2068E-01  0.1724E+00  0.1724E+00
     -4.198  0.1818E-01  0.1818E-01  0.1743E+00  0.1743E+00
     -4.095  0.1655E-01  0.1655E-01  0.1760E+00  0.1760E+00
     -3.991  0.1990E-01  0.1990E-01  0.1780E+00  0.1780E+00
     -3.888  0.2420E-01  0.2420E-01  0.1805E+00  0.1805E+00
     -3.784  0.2465E-01  0.2465E-01  0.1831E+00  0.1831E+00
     -3.681  0.2758E-01  0.2758E-01  0.1859E+00  0.1859E+00
     -3.577  0.2804E-01  0.2804E-01  0.1888E+00  0.1888E+00
     -3.474  0.2151E-01  0.2151E-01  0.1911E+00  0.1911E+00
     -3.370  0.1437E-01  0.1437E-01  0.1926E+00  0.1926E+00
     -3.267  0.1311E-01  0.1311E-01  0.1939E+00  0.1939E+00
     -3.163  0.1256E-01  0.1256E-01  0.1952E+00  0.1952E+00
     -3.060  0.1117E-01  0.1117E-01  0.1964E+00  0.1964E+00
     -2.956  0.1422E-01  0.1422E-01  0.1978E+00  0.1978E+00
     -2.853  0.1531E-01  0.1531E-01  0.1994E+00  0.1994E+00
     -2.749  0.1053E-01  0.1053E-01  0.2005E+00  0.2005E+00
     -2.646  0.8194E-02  0.8194E-02  0.2014E+00  0.2014E+00
     -2.542  0.1097E-01  0.1097E-01  0.2025E+00  0.2025E+00
     -2.439  0.1870E-01  0.1870E-01  0.2044E+00  0.2044E+00
     -2.335  0.1469E-01  0.1469E-01  0.2060E+00  0.2060E+00
     -2.232  0.6772E-02  0.6772E-02  0.2067E+00  0.2067E+00
     -2.128  0.8939E-02  0.8939E-02  0.2076E+00  0.2076E+00
     -2.025  0.8786E-02  0.8786E-02  0.2085E+00  0.2085E+00
     -1.921  0.7750E-02  0.7750E-02  0.2093E+00  0.2093E+00
     -1.818  0.8484E-02  0.8484E-02  0.2102E+00  0.2102E+00
     -1.714  0.8706E-02  0.8706E-02  0.2111E+00  0.2111E+00
     -1.611  0.7570E-02  0.7570E-02  0.2119E+00  0.2119E+00
     -1.507  0.8399E-02  0.8399E-02  0.2127E+00  0.2127E+00
     -1.404  0.9805E-02  0.9805E-02  0.2137E+00  0.2137E+00
     -1.300  0.5270E-02  0.5270E-02  0.2143E+00  0.2143E+00
     -1.197  0.5501E-02  0.5501E-02  0.2149E+00  0.2149E+00
     -1.093  0.6632E-02  0.6632E-02  0.2155E+00  0.2155E+00
     -0.990  0.6881E-02  0.6881E-02  0.2163E+00  0.2163E+00
     -0.886  0.6865E-02  0.6865E-02  0.2170E+00  0.2170E+00
     -0.783  0.3902E-02  0.3902E-02  0.2174E+00  0.2174E+00
     -0.679  0.1621E-02  0.1621E-02  0.2175E+00  0.2175E+00
     -0.576  0.1519E-02  0.1519E-02  0.2177E+00  0.2177E+00
     -0.472  0.3972E-02  0.3972E-02  0.2181E+00  0.2181E+00
     -0.369  0.3736E-02  0.3736E-02  0.2185E+00  0.2185E+00
     -0.265  0.2831E-02  0.2831E-02  0.2188E+00  0.2188E+00
     -0.162  0.2550E-02  0.2550E-02  0.2191E+00  0.2191E+00
     -0.058  0.3461E-02  0.3461E-02  0.2194E+00  0.2194E+00
      0.045  0.2901E-02  0.2901E-02  0.2197E+00  0.2197E+00
      0.149  0.3416E-02  0.3416E-02  0.2201E+00  0.2201E+00
      0.252  0.7623E-02  0.7623E-02  0.2209E+00  0.2209E+00
      0.356  0.1067E-01  0.1067E-01  0.2220E+00  0.2220E+00
      0.459  0.1112E-01  0.1112E-01  0.2231E+00  0.2231E+00
      0.563  0.9472E-02  0.9472E-02  0.2241E+00  0.2241E+00
      0.667  0.5226E-02  0.5226E-02  0.2246E+00  0.2246E+00
      0.770  0.5858E-02  0.5858E-02  0.2252E+00  0.2252E+00
      0.874  0.1096E-01  0.1096E-01  0.2264E+00  0.2264E+00
      0.977  0.8304E-02  0.8304E-02  0.2272E+00  0.2272E+00
      1.081  0.4362E-02  0.4362E-02  0.2277E+00  0.2277E+00
      1.184  0.8704E-02  0.8704E-02  0.2286E+00  0.2286E+00
      1.288  0.1603E-01  0.1603E-01  0.2302E+00  0.2302E+00
      1.391  0.1636E-01  0.1636E-01  0.2319E+00  0.2319E+00
      1.495  0.1290E-01  0.1290E-01  0.2333E+00  0.2333E+00
      1.598  0.1086E-01  0.1086E-01  0.2344E+00  0.2344E+00
      1.702  0.7168E-02  0.7168E-02  0.2351E+00  0.2351E+00
      1.805  0.9069E-02  0.9069E-02  0.2361E+00  0.2361E+00
      1.909  0.1097E-01  0.1097E-01  0.2372E+00  0.2372E+00
      2.012  0.1058E-01  0.1058E-01  0.2383E+00  0.2383E+00
      2.116  0.1335E-01  0.1335E-01  0.2397E+00  0.2397E+00
      2.219  0.8750E-02  0.8750E-02  0.2406E+00  0.2406E+00
      2.323  0.1101E-01  0.1101E-01  0.2417E+00  0.2417E+00
      2.426  0.9316E-02  0.9316E-02  0.2427E+00  0.2427E+00
      2.530  0.5529E-02  0.5529E-02  0.2433E+00  0.2433E+00
      2.633  0.1353E-01  0.1353E-01  0.2447E+00  0.2447E+00
      2.737  0.1382E-01  0.1382E-01  0.2461E+00  0.2461E+00
      2.840  0.1153E-01  0.1153E-01  0.2473E+00  0.2473E+00
      2.944  0.1142E-01  0.1142E-01  0.2485E+00  0.2485E+00
      3.047  0.9211E-02  0.9208E-02  0.2494E+00  0.2494E+00
      3.151  0.1121E-01  0.1121E-01  0.2506E+00  0.2506E+00
      3.254  0.1983E-01  0.1983E-01  0.2526E+00  0.2526E+00
      3.358  0.1878E-01  0.1878E-01  0.2546E+00  0.2546E+00
      3.461  0.1713E-01  0.1714E-01  0.2564E+00  0.2564E+00
      3.565  0.1204E-01  0.1204E-01  0.2576E+00  0.2576E+00
      3.668  0.1865E-01  0.1865E-01  0.2595E+00  0.2595E+00
      3.772  0.2290E-01  0.2290E-01  0.2619E+00  0.2619E+00
      3.875  0.2233E-01  0.2233E-01  0.2642E+00  0.2642E+00
      3.979  0.1965E-01  0.1965E-01  0.2663E+00  0.2663E+00
      4.082  0.1600E-01  0.1600E-01  0.2679E+00  0.2679E+00
      4.186  0.1709E-01  0.1709E-01  0.2697E+00  0.2697E+00
      4.289  0.2232E-01  0.2232E-01  0.2720E+00  0.2720E+00
      4.393  0.2808E-01  0.2808E-01  0.2749E+00  0.2749E+00
      4.496  0.2102E-01  0.2102E-01  0.2771E+00  0.2771E+00
      4.600  0.1776E-01  0.1775E-01  0.2789E+00  0.2789E+00
      4.703  0.2961E-01  0.2961E-01  0.2820E+00  0.2820E+00
      4.807  0.2807E-01  0.2806E-01  0.2849E+00  0.2849E+00
      4.910  0.1922E-01  0.1921E-01  0.2869E+00  0.2869E+00
      5.014  0.2141E-01  0.2142E-01  0.2891E+00  0.2891E+00
      5.117  0.3004E-01  0.3003E-01  0.2922E+00  0.2922E+00
      5.221  0.3273E-01  0.3273E-01  0.2956E+00  0.2956E+00
      5.324  0.2713E-01  0.2713E-01  0.2984E+00  0.2984E+00
      5.428  0.2489E-01  0.2488E-01  0.3010E+00  0.3010E+00
      5.531  0.2378E-01  0.2377E-01  0.3034E+00  0.3034E+00
      5.635  0.2614E-01  0.2615E-01  0.3061E+00  0.3061E+00
      5.738  0.2682E-01  0.2683E-01  0.3089E+00  0.3089E+00
      5.842  0.2368E-01  0.2367E-01  0.3114E+00  0.3114E+00
      5.945  0.2189E-01  0.2188E-01  0.3136E+00  0.3136E+00
      6.049  0.1907E-01  0.1905E-01  0.3156E+00  0.3156E+00
      6.152  0.2305E-01  0.2306E-01  0.3180E+00  0.3180E+00
      6.256  0.1944E-01  0.1946E-01  0.3200E+00  0.3200E+00
      6.359  0.1797E-01  0.1796E-01  0.3219E+00  0.3219E+00
      6.463  0.2050E-01  0.2049E-01  0.3240E+00  0.3240E+00
      6.566  0.2352E-01  0.2351E-01  0.3264E+00  0.3264E+00
      6.670  0.2193E-01  0.2194E-01  0.3287E+00  0.3287E+00
      6.773  0.2695E-01  0.2694E-01  0.3315E+00  0.3315E+00
      6.877  0.2965E-01  0.2965E-01  0.3345E+00  0.3345E+00
      6.980  0.2930E-01  0.2931E-01  0.3376E+00  0.3376E+00
      7.084  0.2771E-01  0.2771E-01  0.3404E+00  0.3404E+00
      7.187  0.2746E-01  0.2745E-01  0.3433E+00  0.3433E+00
      7.291  0.3050E-01  0.3050E-01  0.3464E+00  0.3464E+00
      7.394  0.3415E-01  0.3414E-01  0.3500E+00  0.3500E+00
      7.498  0.3346E-01  0.3347E-01  0.3534E+00  0.3534E+00
      7.601  0.4010E-01  0.4010E-01  0.3576E+00  0.3576E+00
      7.705  0.3534E-01  0.3533E-01  0.3612E+00  0.3612E+00
      7.809  0.3152E-01  0.3153E-01  0.3645E+00  0.3645E+00
      7.912  0.3433E-01  0.3434E-01  0.3681E+00  0.3681E+00
      8.016  0.2933E-01  0.2935E-01  0.3711E+00  0.3711E+00
      8.119  0.1868E-01  0.1868E-01  0.3730E+00  0.3730E+00
      8.223  0.1333E-01  0.1333E-01  0.3744E+00  0.3744E+00
      8.326  0.4651E-02  0.4656E-02  0.3749E+00  0.3749E+00
      8.430  0.6448E-03  0.6451E-03  0.3750E+00  0.3750E+00
      8.533  0.2891E-03  0.2891E-03  0.3750E+00  0.3750E+00
      8.637  0.8783E-04  0.8785E-04  0.3750E+00  0.3750E+00
      8.740  0.4320E-05  0.4322E-05  0.3750E+00  0.3750E+00
      8.844  0.2977E-07  0.2979E-07  0.3750E+00  0.3750E+00
      8.947  0.2673E-10  0.2675E-10  0.3750E+00  0.3750E+00
      9.051  0.3002E-14  0.3005E-14  0.3750E+00  0.3750E+00
      9.154  0.0000E+00  0.0000E+00  0.3750E+00  0.3750E+00
      9.258  0.0000E+00  0.0000E+00  0.3750E+00  0.3750E+00
      9.361  0.0000E+00  0.0000E+00  0.3750E+00  0.3750E+00
      9.465  0.0000E+00  0.0000E+00  0.3750E+00  0.3750E+00
      9.568  0.0000E+00  0.0000E+00  0.3750E+00  0.3750E+00
      9.672  0.0000E+00  0.0000E+00  0.3750E+00  0.3750E+00
      9.775  0.0000E+00  0.0000E+00  0.3750E+00  0.3750E+00
      9.879  0.0000E+00  0.0000E+00  0.3750E+00  0.3750E+00
