       N       E                     dE             d eps       ncg     rms          rms(c)
DAV:   1     0.202073207563E+03    0.20207E+03   -0.25665E+04 14208   0.859E+02
DAV:   2    -0.116216365299E+03   -0.31829E+03   -0.31671E+03 20352   0.162E+02
DAV:   3    -0.129169525937E+03   -0.12953E+02   -0.12938E+02 26784   0.429E+01
DAV:   4    -0.129193312399E+03   -0.23786E-01   -0.23783E-01 20304   0.180E+00
DAV:   5    -0.129193366797E+03   -0.54399E-04   -0.54399E-04 26256   0.857E-02    0.243E+01
DAV:   6    -0.919332838829E+02    0.37260E+02   -0.72780E+01 25488   0.255E+01    0.138E+01
DAV:   7    -0.100380707764E+03   -0.84474E+01   -0.97539E+00 21600   0.100E+01    0.807E+00
DAV:   8    -0.110422164583E+03   -0.10041E+02   -0.88537E+00 24096   0.897E+00    0.433E+00
DAV:   9    -0.117168626782E+03   -0.67465E+01   -0.39074E+00 19056   0.612E+00    0.277E+00
DAV:  10    -0.123488481945E+03   -0.63199E+01   -0.81364E+00 23664   0.707E+00    0.159E+00
DAV:  11    -0.125269968439E+03   -0.17815E+01   -0.28014E+00 25824   0.383E+00    0.989E-01
DAV:  12    -0.125430301044E+03   -0.16033E+00   -0.22592E-01 19632   0.138E+00    0.463E-01
DAV:  13    -0.125457391938E+03   -0.27091E-01   -0.23032E-02 18432   0.556E-01    0.187E-01
DAV:  14    -0.125479821255E+03   -0.22429E-01   -0.60147E-03 20544   0.284E-01    0.837E-02
DAV:  15    -0.125487252087E+03   -0.74308E-02   -0.30934E-03 19824   0.156E-01    0.436E-02
DAV:  16    -0.125489203585E+03   -0.19515E-02   -0.62402E-04 16848   0.805E-02    0.220E-02
DAV:  17    -0.125490444237E+03   -0.12407E-02   -0.16784E-04 14928   0.516E-02    0.168E-02
DAV:  18    -0.125491168596E+03   -0.72436E-03   -0.82961E-05 15648   0.380E-02    0.121E-02
DAV:  19    -0.125491591867E+03   -0.42327E-03   -0.40176E-05 19536   0.246E-02    0.712E-03
DAV:  20    -0.125491647189E+03   -0.55322E-04   -0.21278E-05 22272   0.177E-02    0.431E-03
DAV:  21    -0.125491667108E+03   -0.19919E-04   -0.58206E-06 20976   0.957E-03    0.215E-03
DAV:  22    -0.125491688361E+03   -0.21253E-04   -0.22067E-06 21744   0.556E-03    0.136E-03
DAV:  23    -0.125491702916E+03   -0.14556E-04   -0.16709E-06 21648   0.400E-03    0.715E-04
DAV:  24    -0.125491705819E+03   -0.29024E-05   -0.31994E-07 23664   0.214E-03    0.374E-04
DAV:  25    -0.125491706764E+03   -0.94585E-06   -0.11489E-07 21264   0.114E-03
   1 F= -.12708069E+03 E0= -.12707991E+03  d E =-.127081E+03  mag=    -0.0000
       N       E                     dE             d eps       ncg     rms          rms(c)
DAV:   1    -0.125502756960E+03   -0.11051E-01   -0.35675E+00 14208   0.581E+00    0.511E-01
DAV:   2    -0.125493383108E+03    0.93739E-02   -0.71317E-02 26592   0.752E-01    0.225E-01
DAV:   3    -0.125492328403E+03    0.10547E-02   -0.58140E-03 20496   0.212E-01    0.883E-02
DAV:   4    -0.125492282372E+03    0.46031E-04   -0.68464E-04 27168   0.741E-02    0.232E-02
DAV:   5    -0.125492285783E+03   -0.34118E-05   -0.19133E-05 24336   0.138E-02    0.773E-03
DAV:   6    -0.125492285753E+03    0.29941E-07   -0.39306E-06 22848   0.581E-03
   2 F= -.12708065E+03 E0= -.12707987E+03  d E =0.424970E-04  mag=    -0.0000
       N       E                     dE             d eps       ncg     rms          rms(c)
DAV:   1    -0.125502776644E+03   -0.10491E-01   -0.89623E-01 14208   0.291E+00    0.256E-01
DAV:   2    -0.125500363718E+03    0.24129E-02   -0.17841E-02 26304   0.376E-01    0.112E-01
DAV:   3    -0.125500108226E+03    0.25549E-03   -0.14443E-03 23952   0.107E-01    0.448E-02
DAV:   4    -0.125500096723E+03    0.11502E-04   -0.16302E-04 22272   0.362E-02    0.114E-02
DAV:   5    -0.125500097523E+03   -0.79957E-06   -0.55806E-06 23472   0.740E-03
   3 F= -.12708876E+03 E0= -.12708799E+03  d E =-.807570E-02  mag=    -0.0000
       N       E                     dE             d eps       ncg     rms          rms(c)
DAV:   1    -0.125506476861E+03   -0.63801E-02   -0.31016E-01 14208   0.197E+00    0.116E-01
DAV:   2    -0.125506532832E+03   -0.55971E-04   -0.20262E-03 27744   0.183E-01    0.676E-02
DAV:   3    -0.125506529846E+03    0.29852E-05   -0.19815E-04 22320   0.505E-02    0.173E-02
DAV:   4    -0.125506530823E+03   -0.97690E-06   -0.31117E-05 26640   0.204E-02    0.661E-03
DAV:   5    -0.125506531268E+03   -0.44455E-06   -0.11956E-06 23136   0.460E-03
   4 F= -.12709508E+03 E0= -.12709430E+03  d E =-.631351E-02  mag=    -0.0000
       N       E                     dE             d eps       ncg     rms          rms(c)
DAV:   1    -0.125514207794E+03   -0.76770E-02   -0.24138E+00 14208   0.548E+00    0.322E-01
DAV:   2    -0.125514748985E+03   -0.54119E-03   -0.15953E-02 27072   0.512E-01    0.187E-01
DAV:   3    -0.125514718865E+03    0.30120E-04   -0.15622E-03 21696   0.142E-01    0.477E-02
DAV:   4    -0.125514727146E+03   -0.82806E-05   -0.24111E-04 27360   0.566E-02    0.184E-02
DAV:   5    -0.125514730809E+03   -0.36637E-05   -0.86969E-06 22752   0.123E-02    0.805E-03
DAV:   6    -0.125514730970E+03   -0.16114E-06   -0.48833E-06 24720   0.779E-03
   5 F= -.12710292E+03 E0= -.12710214E+03  d E =-.141571E-01  mag=     0.0000
       N       E                     dE             d eps       ncg     rms          rms(c)
DAV:   1    -0.125516695730E+03   -0.19649E-02   -0.29660E-02 14496   0.642E-01    0.374E-02
DAV:   2    -0.125516700067E+03   -0.43369E-05   -0.24584E-04 27744   0.669E-02    0.211E-02
DAV:   3    -0.125516698339E+03    0.17279E-05   -0.24211E-05 22416   0.186E-02    0.635E-03
DAV:   4    -0.125516698815E+03   -0.47569E-06   -0.41028E-06 25488   0.751E-03
   6 F= -.12710486E+03 E0= -.12710408E+03  d E =-.193728E-02  mag=     0.0000
       N       E                     dE             d eps       ncg     rms          rms(c)
DAV:   1    -0.125521260382E+03   -0.45620E-02   -0.26725E-01 14208   0.193E+00    0.112E-01
DAV:   2    -0.125521295270E+03   -0.34888E-04   -0.21520E-03 27456   0.198E-01    0.630E-02
DAV:   3    -0.125521279412E+03    0.15858E-04   -0.20973E-04 19968   0.546E-02    0.188E-02
DAV:   4    -0.125521280463E+03   -0.10515E-05   -0.35509E-05 26256   0.218E-02    0.763E-03
DAV:   5    -0.125521281301E+03   -0.83799E-06   -0.12297E-06 21456   0.465E-03
   7 F= -.12710934E+03 E0= -.12710856E+03  d E =-.642014E-02  mag=     0.0000
       N       E                     dE             d eps       ncg     rms          rms(c)
DAV:   1    -0.125524525514E+03   -0.32451E-02   -0.10732E+00 14208   0.386E+00    0.223E-01
DAV:   2    -0.125524667796E+03   -0.14228E-03   -0.87674E-03 27120   0.400E-01    0.125E-01
DAV:   3    -0.125524601692E+03    0.66104E-04   -0.84473E-04 21984   0.110E-01    0.376E-02
DAV:   4    -0.125524605682E+03   -0.39898E-05   -0.13862E-04 25728   0.430E-02    0.152E-02
DAV:   5    -0.125524608311E+03   -0.26290E-05   -0.46519E-06 22800   0.915E-03    0.621E-03
DAV:   6    -0.125524607879E+03    0.43199E-06   -0.23922E-06 25056   0.594E-03
   8 F= -.12711243E+03 E0= -.12711167E+03  d E =-.951238E-02  mag=    -0.0000
       N       E                     dE             d eps       ncg     rms          rms(c)
DAV:   1    -0.125526566924E+03   -0.19586E-02   -0.98262E-02 14208   0.102E+00    0.595E-02
DAV:   2    -0.125526589155E+03   -0.22231E-04   -0.53134E-04 23568   0.840E-02    0.356E-02
DAV:   3    -0.125526586943E+03    0.22121E-05   -0.62356E-05 21216   0.244E-02    0.563E-03
DAV:   4    -0.125526587131E+03   -0.18769E-06   -0.40936E-06 25728   0.783E-03
   9 F= -.12711429E+03 E0= -.12711352E+03  d E =-.185748E-02  mag=     0.0000
       N       E                     dE             d eps       ncg     rms          rms(c)
DAV:   1    -0.125530751780E+03   -0.41648E-02   -0.88542E-01 14208   0.308E+00    0.177E-01
DAV:   2    -0.125530974556E+03   -0.22278E-03   -0.46614E-03 26928   0.250E-01    0.106E-01
DAV:   3    -0.125530953402E+03    0.21154E-04   -0.55313E-04 20688   0.720E-02    0.158E-02
DAV:   4    -0.125530954070E+03   -0.66818E-06   -0.33117E-05 24384   0.225E-02    0.841E-03
DAV:   5    -0.125530952307E+03    0.17631E-05   -0.44488E-06 22032   0.804E-03    0.302E-03
DAV:   6    -0.125530951786E+03    0.52092E-06   -0.13508E-06 24096   0.422E-03
  10 F= -.12711830E+03 E0= -.12711751E+03  d E =-.586204E-02  mag=     0.0000
       N       E                     dE             d eps       ncg     rms          rms(c)
DAV:   1    -0.125532614939E+03   -0.16626E-02   -0.35423E+00 14208   0.616E+00    0.349E-01
DAV:   2    -0.125533546028E+03   -0.93109E-03   -0.18028E-02 26544   0.494E-01    0.210E-01
DAV:   3    -0.125533467995E+03    0.78033E-04   -0.22523E-03 22272   0.145E-01    0.291E-02
DAV:   4    -0.125533467250E+03    0.74549E-06   -0.12599E-04 22128   0.443E-02    0.165E-02
DAV:   5    -0.125533462313E+03    0.49370E-05   -0.17128E-05 23568   0.159E-02    0.523E-03
DAV:   6    -0.125533461337E+03    0.97585E-06   -0.49312E-06 25488   0.806E-03
  11 F= -.12712011E+03 E0= -.12711937E+03  d E =-.767583E-02  mag=     0.0000
       N       E                     dE             d eps       ncg     rms          rms(c)
DAV:   1    -0.125535688716E+03   -0.22264E-02   -0.16402E-01 14208   0.143E+00    0.763E-02
DAV:   2    -0.125535732746E+03   -0.44030E-04   -0.10314E-03 25152   0.129E-01    0.460E-02
DAV:   3    -0.125535725569E+03    0.71774E-05   -0.12249E-04 19968   0.387E-02    0.931E-03
DAV:   4    -0.125535726859E+03   -0.12900E-05   -0.13217E-05 22800   0.144E-02    0.474E-03
DAV:   5    -0.125535728287E+03   -0.14281E-05   -0.82286E-07 20400   0.397E-03    0.256E-03
DAV:   6    -0.125535729854E+03   -0.15667E-05   -0.33649E-07 20736   0.226E-03    0.119E-03
DAV:   7    -0.125535731745E+03   -0.18907E-05   -0.28099E-07 19584   0.182E-03    0.529E-04
DAV:   8    -0.125535734717E+03   -0.29722E-05   -0.48286E-07 19440   0.193E-03    0.382E-04
DAV:   9    -0.125535736173E+03   -0.14567E-05   -0.11199E-07 21648   0.925E-04    0.215E-04
DAV:  10    -0.125535736803E+03   -0.62998E-06   -0.21033E-08 22656   0.419E-04
  12 F= -.12712224E+03 E0= -.12712148E+03  d E =-.213150E-02  mag=     0.0000
       N       E                     dE             d eps       ncg     rms          rms(c)
DAV:   1    -0.125538179498E+03   -0.24433E-02   -0.68602E-01 14208   0.293E+00    0.156E-01
DAV:   2    -0.125538356428E+03   -0.17693E-03   -0.41427E-03 24768   0.260E-01    0.941E-02
DAV:   3    -0.125538328270E+03    0.28158E-04   -0.50577E-04 20736   0.784E-02    0.181E-02
DAV:   4    -0.125538328221E+03    0.49478E-07   -0.54873E-05 22128   0.286E-02    0.909E-03
DAV:   5    -0.125538328420E+03   -0.19874E-06   -0.24858E-06 24048   0.670E-03
  13 F= -.12712454E+03 E0= -.12712375E+03  d E =-.442621E-02  mag=     0.0000
       N       E                     dE             d eps       ncg     rms          rms(c)
DAV:   1    -0.125538581348E+03   -0.25313E-03   -0.85529E-02 14208   0.103E+00    0.550E-02
DAV:   2    -0.125538605517E+03   -0.24169E-04   -0.53647E-04 26112   0.934E-02    0.333E-02
DAV:   3    -0.125538602361E+03    0.31560E-05   -0.65117E-05 24960   0.280E-02    0.653E-03
DAV:   4    -0.125538602483E+03   -0.12158E-06   -0.65775E-06 22704   0.100E-02
  14 F= -.12712470E+03 E0= -.12712392E+03  d E =-.459489E-02  mag=     0.0000
       N       E                     dE             d eps       ncg     rms          rms(c)
DAV:   1    -0.125538893012E+03   -0.29065E-03   -0.50324E-03 18528   0.286E-01    0.192E-02
DAV:   2    -0.125538883106E+03    0.99061E-05   -0.86287E-05 27312   0.367E-02    0.918E-03
DAV:   3    -0.125538881857E+03    0.12490E-05   -0.90071E-06 19968   0.115E-02    0.323E-03
DAV:   4    -0.125538882396E+03   -0.53866E-06   -0.12693E-06 22848   0.425E-03
  15 F= -.12712497E+03 E0= -.12712418E+03  d E =-.261712E-03  mag=     0.0000
       N       E                     dE             d eps       ncg     rms          rms(c)
DAV:   1    -0.125539131318E+03   -0.24946E-03   -0.15674E-02 17280   0.505E-01    0.338E-02
DAV:   2    -0.125539100342E+03    0.30976E-04   -0.26708E-04 27216   0.646E-02    0.161E-02
DAV:   3    -0.125539095227E+03    0.51150E-05   -0.27907E-05 22656   0.201E-02    0.566E-03
DAV:   4    -0.125539095363E+03   -0.13625E-06   -0.36072E-06 23088   0.717E-03
  16 F= -.12712515E+03 E0= -.12712436E+03  d E =-.441655E-03  mag=     0.0000
       N       E                     dE             d eps       ncg     rms          rms(c)
DAV:   1    -0.125539170015E+03   -0.74788E-04   -0.14709E-03 15936   0.158E-01    0.898E-03
DAV:   2    -0.125539168625E+03    0.13901E-05   -0.18972E-05 27312   0.178E-02    0.471E-03
DAV:   3    -0.125539168391E+03    0.23386E-06   -0.22107E-06 22032   0.572E-03
  17 F= -.12712521E+03 E0= -.12712442E+03  d E =-.603520E-04  mag=    -0.0000
       N       E                     dE             d eps       ncg     rms          rms(c)
DAV:   1    -0.125539238729E+03   -0.70105E-04   -0.45703E-03 16224   0.278E-01    0.162E-02
DAV:   2    -0.125539233736E+03    0.49929E-05   -0.58017E-05 26592   0.310E-02    0.839E-03
DAV:   3    -0.125539232600E+03    0.11365E-05   -0.68741E-06 22224   0.100E-02    0.254E-03
DAV:   4    -0.125539232705E+03   -0.10526E-06   -0.87716E-07 21744   0.366E-03
  18 F= -.12712525E+03 E0= -.12712447E+03  d E =-.102292E-03  mag=    -0.0000
       N       E                     dE             d eps       ncg     rms          rms(c)
DAV:   1    -0.125539287368E+03   -0.54768E-04   -0.12725E-03 14208   0.139E-01    0.640E-03
DAV:   2    -0.125539286852E+03    0.51563E-06   -0.10278E-05 27168   0.128E-02    0.370E-03
DAV:   3    -0.125539286789E+03    0.62614E-07   -0.12722E-06 20160   0.395E-03
  19 F= -.12712529E+03 E0= -.12712451E+03  d E =-.407945E-04  mag=     0.0000
       N       E                     dE             d eps       ncg     rms          rms(c)
DAV:   1    -0.125539377991E+03   -0.91139E-04   -0.10048E-02 14208   0.389E-01    0.181E-02
DAV:   2    -0.125539374335E+03    0.36562E-05   -0.78353E-05 24000   0.355E-02    0.104E-02
DAV:   3    -0.125539373343E+03    0.99155E-06   -0.10361E-05 23520   0.110E-02    0.267E-03
DAV:   4    -0.125539373487E+03   -0.14406E-06   -0.10823E-06 20352   0.408E-03
  20 F= -.12712534E+03 E0= -.12712456E+03  d E =-.902131E-04  mag=     0.0000
       N       E                     dE             d eps       ncg     rms          rms(c)
DAV:   1    -0.125539421732E+03   -0.48389E-04   -0.15277E-03 20352   0.164E-01    0.790E-03
DAV:   2    -0.125539421055E+03    0.67655E-06   -0.13766E-05 18720   0.159E-02    0.430E-03
DAV:   3    -0.125539420901E+03    0.15438E-06   -0.19488E-06 19488   0.564E-03
  21 F= -.12712536E+03 E0= -.12712457E+03  d E =-.178582E-04  mag=     0.0000
       N       E                     dE             d eps       ncg     rms          rms(c)
DAV:   1    -0.125539429036E+03   -0.79803E-05   -0.93119E-05 16704   0.405E-02    0.245E-03
DAV:   2    -0.125539429052E+03   -0.16188E-07   -0.99483E-07 15216   0.463E-03
  22 F= -.12712536E+03 E0= -.12712458E+03  d E =-.187423E-04  mag=     0.0000
       N       E                     dE             d eps       ncg     rms          rms(c)
DAV:   1    -0.125539487393E+03   -0.58358E-04   -0.10330E-03 14208   0.128E-01    0.539E-03
DAV:   2    -0.125539487453E+03   -0.59669E-07   -0.76195E-06 16224   0.119E-02
  23 F= -.12712537E+03 E0= -.12712459E+03  d E =-.154173E-04  mag=     0.0000
       N       E                     dE             d eps       ncg     rms          rms(c)
DAV:   1    -0.125539598077E+03   -0.11068E-03   -0.52565E-03 14208   0.290E-01    0.124E-02
DAV:   2    -0.125539598151E+03   -0.74113E-07   -0.37114E-05 23280   0.259E-02    0.763E-03
DAV:   3    -0.125539597826E+03    0.32546E-06   -0.42241E-06 17136   0.772E-03
  24 F= -.12712539E+03 E0= -.12712460E+03  d E =-.285098E-04  mag=    -0.0000
       N       E                     dE             d eps       ncg     rms          rms(c)
DAV:   1    -0.125539660146E+03   -0.61995E-04   -0.12485E-03 15072   0.146E-01    0.644E-03
DAV:   2    -0.125539660262E+03   -0.11584E-06   -0.10701E-05 21744   0.146E-02    0.413E-03
DAV:   3    -0.125539660208E+03    0.53435E-07   -0.15965E-06 14688   0.600E-03
  25 F= -.12712539E+03 E0= -.12712461E+03  d E =-.880865E-05  mag=     0.0000
       N       E                     dE             d eps       ncg     rms          rms(c)
DAV:   1    -0.125539675472E+03   -0.15211E-04   -0.97199E-05 16032   0.410E-02    0.191E-03
DAV:   2    -0.125539675449E+03    0.23658E-07   -0.10686E-06 22272   0.524E-03
  26 F= -.12712539E+03 E0= -.12712461E+03  d E =-.918128E-05  mag=    -0.0000
       N       E                     dE             d eps       ncg     rms          rms(c)
DAV:   1    -0.125539722105E+03   -0.46633E-04   -0.46970E-04 15552   0.913E-02    0.405E-03
DAV:   2    -0.125539722050E+03    0.54692E-07   -0.47284E-06 14784   0.100E-02
  27 F= -.12712540E+03 E0= -.12712462E+03  d E =-.749136E-05  mag=    -0.0000
       N       E                     dE             d eps       ncg     rms          rms(c)
DAV:   1    -0.125539848187E+03   -0.12608E-03   -0.42003E-03 14208   0.273E-01    0.120E-02
DAV:   2    -0.125539848668E+03   -0.48064E-06   -0.40778E-05 14256   0.278E-02    0.754E-03
DAV:   3    -0.125539848909E+03   -0.24087E-06   -0.42842E-06 14256   0.952E-03
  28 F= -.12712541E+03 E0= -.12712463E+03  d E =-.172914E-04  mag=    -0.0000
       N       E                     dE             d eps       ncg     rms          rms(c)
DAV:   1    -0.125539902722E+03   -0.54054E-04   -0.56018E-04 14208   0.988E-02    0.454E-03
DAV:   2    -0.125539902689E+03    0.32489E-07   -0.76361E-06 15216   0.131E-02
  29 F= -.12712542E+03 E0= -.12712464E+03  d E =-.639485E-05  mag=    -0.0000
       N       E                     dE             d eps       ncg     rms          rms(c)
DAV:   1    -0.125540054876E+03   -0.15215E-03   -0.49624E-03 14208   0.294E-01    0.133E-02
DAV:   2    -0.125540055798E+03   -0.92268E-06   -0.57641E-05 14448   0.332E-02    0.867E-03
DAV:   3    -0.125540056142E+03   -0.34392E-06   -0.66810E-06 14304   0.123E-02
  30 F= -.12712543E+03 E0= -.12712465E+03  d E =-.176562E-04  mag=     0.0000
       N       E                     dE             d eps       ncg     rms          rms(c)
DAV:   1    -0.125540101381E+03   -0.45582E-04   -0.35219E-04 14208   0.788E-02    0.382E-03
DAV:   2    -0.125540101053E+03    0.32748E-06   -0.60315E-06 14208   0.125E-02
  31 F= -.12712544E+03 E0= -.12712465E+03  d E =-.611559E-05  mag=     0.0000
       N       E                     dE             d eps       ncg     rms          rms(c)
DAV:   1    -0.125540234814E+03   -0.13343E-03   -0.30859E-03 14208   0.232E-01    0.102E-02
DAV:   2    -0.125540235322E+03   -0.50827E-06   -0.36252E-05 14208   0.271E-02    0.679E-03
DAV:   3    -0.125540236310E+03   -0.98820E-06   -0.54235E-06 14448   0.118E-02
  32 F= -.12712545E+03 E0= -.12712467E+03  d E =-.248998E-04  mag=     0.0000
       N       E                     dE             d eps       ncg     rms          rms(c)
DAV:   1    -0.125540492641E+03   -0.25732E-03   -0.12415E-02 14208   0.464E-01    0.192E-02
DAV:   2    -0.125540496538E+03   -0.38970E-05   -0.13622E-04 16176   0.503E-02    0.128E-02
DAV:   3    -0.125540497301E+03   -0.76294E-06   -0.12877E-05 15072   0.169E-02    0.381E-03
DAV:   4    -0.125540497771E+03   -0.46958E-06   -0.78372E-06 14208   0.144E-02
  33 F= -.12712548E+03 E0= -.12712470E+03  d E =-.535143E-04  mag=     0.0000
       N       E                     dE             d eps       ncg     rms          rms(c)
DAV:   1    -0.125540970068E+03   -0.47277E-03   -0.49606E-02 14208   0.927E-01    0.380E-02
DAV:   2    -0.125540990265E+03   -0.20197E-04   -0.55489E-04 22128   0.976E-02    0.256E-02
DAV:   3    -0.125540986167E+03    0.40986E-05   -0.35205E-05 18864   0.230E-02    0.724E-03
DAV:   4    -0.125540986927E+03   -0.76047E-06   -0.67964E-06 14736   0.121E-02
  34 F= -.12712551E+03 E0= -.12712472E+03  d E =-.771059E-04  mag=     0.0000
       N       E                     dE             d eps       ncg     rms          rms(c)
DAV:   1    -0.125541070144E+03   -0.83977E-04   -0.13003E-03 14208   0.151E-01    0.637E-03
DAV:   2    -0.125541070374E+03   -0.23043E-06   -0.16631E-05 14688   0.188E-02    0.432E-03
DAV:   3    -0.125541071098E+03   -0.72423E-06   -0.28294E-06 15168   0.876E-03
  35 F= -.12712552E+03 E0= -.12712473E+03  d E =-.887915E-05  mag=    -0.0000
       N       E                     dE             d eps       ncg     rms          rms(c)
DAV:   1    -0.125541314858E+03   -0.24448E-03   -0.11607E-02 14208   0.449E-01    0.184E-02
DAV:   2    -0.125541318834E+03   -0.39757E-05   -0.12504E-04 15168   0.478E-02    0.123E-02
DAV:   3    -0.125541319049E+03   -0.21503E-06   -0.10341E-05 14688   0.146E-02    0.360E-03
DAV:   4    -0.125541319384E+03   -0.33572E-06   -0.45218E-06 14400   0.109E-02
  36 F= -.12712554E+03 E0= -.12712476E+03  d E =-.314527E-04  mag=    -0.0000
       N       E                     dE             d eps       ncg     rms          rms(c)
DAV:   1    -0.125541779346E+03   -0.46030E-03   -0.46437E-02 14208   0.899E-01    0.367E-02
DAV:   2    -0.125541797764E+03   -0.18419E-04   -0.50178E-04 17520   0.938E-02    0.245E-02
DAV:   3    -0.125541794678E+03    0.30866E-05   -0.35404E-05 17664   0.238E-02    0.694E-03
DAV:   4    -0.125541795395E+03   -0.71754E-06   -0.67755E-06 14352   0.121E-02
  37 F= -.12712556E+03 E0= -.12712478E+03  d E =-.563477E-04  mag=    -0.0000
       N       E                     dE             d eps       ncg     rms          rms(c)
DAV:   1    -0.125541989466E+03   -0.19479E-03   -0.86423E-03 14208   0.388E-01    0.160E-02
DAV:   2    -0.125541992515E+03   -0.30481E-05   -0.96177E-05 14208   0.424E-02    0.107E-02
DAV:   3    -0.125541993148E+03   -0.63352E-06   -0.86595E-06 14208   0.139E-02
  38 F= -.12712557E+03 E0= -.12712479E+03  d E =-.598381E-04  mag=    -0.0000
       N       E                     dE             d eps       ncg     rms          rms(c)
DAV:   1    -0.125542213405E+03   -0.22089E-03   -0.90716E-03 14208   0.398E-01    0.166E-02
DAV:   2    -0.125542216564E+03   -0.31584E-05   -0.99391E-05 14208   0.438E-02    0.112E-02
DAV:   3    -0.125542217852E+03   -0.12879E-05   -0.97938E-06 15024   0.155E-02    0.342E-03
DAV:   4    -0.125542217855E+03   -0.35197E-08   -0.67227E-06 14208   0.133E-02
  39 F= -.12712559E+03 E0= -.12712481E+03  d E =-.227462E-04  mag=     0.0000
       N       E                     dE             d eps       ncg     rms          rms(c)
DAV:   1    -0.125542835898E+03   -0.61805E-03   -0.81428E-02 14208   0.119E+00    0.482E-02
DAV:   2    -0.125542873724E+03   -0.37826E-04   -0.89214E-04 20640   0.124E-01    0.326E-02
DAV:   3    -0.125542866961E+03    0.67634E-05   -0.55353E-05 26256   0.284E-02    0.910E-03
DAV:   4    -0.125542867705E+03   -0.74470E-06   -0.69452E-06 14880   0.115E-02
  40 F= -.12712563E+03 E0= -.12712485E+03  d E =-.672274E-04  mag=     0.0000
       N       E                     dE             d eps       ncg     rms          rms(c)
DAV:   1    -0.125543975001E+03   -0.11080E-02   -0.32594E-01 14208   0.238E+00    0.968E-02
DAV:   2    -0.125544105689E+03   -0.13069E-03   -0.33466E-03 15504   0.243E-01    0.645E-02
DAV:   3    -0.125544078682E+03    0.27007E-04   -0.23340E-04 25776   0.591E-02    0.180E-02
DAV:   4    -0.125544080378E+03   -0.16966E-05   -0.26209E-05 15792   0.217E-02    0.623E-03
DAV:   5    -0.125544081618E+03   -0.12395E-05   -0.61154E-06 16176   0.118E-02    0.199E-03
DAV:   6    -0.125544080790E+03    0.82745E-06   -0.38269E-06 14928   0.980E-03
  41 F= -.12712564E+03 E0= -.12712486E+03  d E =-.719083E-04  mag=     0.0000
       N       E                     dE             d eps       ncg     rms          rms(c)
DAV:   1    -0.125543512212E+03    0.56941E-03   -0.69260E-02 14208   0.110E+00    0.445E-02
DAV:   2    -0.125543541544E+03   -0.29331E-04   -0.73035E-04 21552   0.113E-01    0.300E-02
DAV:   3    -0.125543535798E+03    0.57458E-05   -0.42249E-05 15552   0.243E-02    0.806E-03
DAV:   4    -0.125543536388E+03   -0.59045E-06   -0.67496E-06 16128   0.946E-03
  42 F= -.12712565E+03 E0= -.12712487E+03  d E =-.845299E-04  mag=    -0.0000
       N       E                     dE             d eps       ncg     rms          rms(c)
DAV:   1    -0.125543803658E+03   -0.26786E-03   -0.12990E-02 14208   0.477E-01    0.190E-02
DAV:   2    -0.125543808466E+03   -0.48074E-05   -0.13645E-04 20832   0.487E-02    0.128E-02
DAV:   3    -0.125543807726E+03    0.73990E-06   -0.80815E-06 14880   0.109E-02
  43 F= -.12712568E+03 E0= -.12712489E+03  d E =-.265634E-04  mag=     0.0000
       N       E                     dE             d eps       ncg     rms          rms(c)
DAV:   1    -0.125544552716E+03   -0.74425E-03   -0.11743E-01 14208   0.143E+00    0.585E-02
DAV:   2    -0.125544602136E+03   -0.49420E-04   -0.11992E-03 15168   0.145E-01    0.392E-02
DAV:   3    -0.125544593141E+03    0.89954E-05   -0.80607E-05 25008   0.348E-02    0.109E-02
DAV:   4    -0.125544593965E+03   -0.82404E-06   -0.83502E-06 16224   0.114E-02
  44 F= -.12712573E+03 E0= -.12712495E+03  d E =-.791241E-04  mag=     0.0000
       N       E                     dE             d eps       ncg     rms          rms(c)
DAV:   1    -0.125545879724E+03   -0.12866E-02   -0.46985E-01 14208   0.287E+00    0.116E-01
DAV:   2    -0.125546078999E+03   -0.19927E-03   -0.48316E-03 17952   0.290E-01    0.777E-02
DAV:   3    -0.125546039631E+03    0.39369E-04   -0.31061E-04 26880   0.669E-02    0.214E-02
DAV:   4    -0.125546041169E+03   -0.15382E-05   -0.32561E-05 17472   0.225E-02    0.708E-03
DAV:   5    -0.125546041753E+03   -0.58437E-06   -0.48247E-06 17376   0.917E-03
  45 F= -.12712571E+03 E0= -.12712493E+03  d E =-.630637E-04  mag=    -0.0000
       N       E                     dE             d eps       ncg     rms          rms(c)
DAV:   1    -0.125545112220E+03    0.92895E-03   -0.17673E-01 14208   0.176E+00    0.711E-02
DAV:   2    -0.125545188694E+03   -0.76474E-04   -0.18416E-03 22512   0.180E-01    0.481E-02
DAV:   3    -0.125545173154E+03    0.15540E-04   -0.10540E-04 22560   0.388E-02    0.128E-02
DAV:   4    -0.125545174303E+03   -0.11492E-05   -0.16665E-05 14208   0.179E-02    0.425E-03
DAV:   5    -0.125545174535E+03   -0.23229E-06   -0.42803E-06 14976   0.103E-02
  46 F= -.12712574E+03 E0= -.12712496E+03  d E =-.937763E-04  mag=    -0.0000
       N       E                     dE             d eps       ncg     rms          rms(c)
DAV:   1    -0.125545441032E+03   -0.26673E-03   -0.13546E-02 14208   0.488E-01    0.197E-02
DAV:   2    -0.125545446625E+03   -0.55929E-05   -0.15100E-04 17280   0.516E-02    0.133E-02
DAV:   3    -0.125545446115E+03    0.51061E-06   -0.93697E-06 15792   0.129E-02
  47 F= -.12712577E+03 E0= -.12712499E+03  d E =-.260844E-04  mag=    -0.0000
       N       E                     dE             d eps       ncg     rms          rms(c)
DAV:   1    -0.125545921853E+03   -0.47523E-03   -0.49203E-02 14208   0.930E-01    0.384E-02
DAV:   2    -0.125545942752E+03   -0.20899E-04   -0.51971E-04 14496   0.962E-02    0.258E-02
DAV:   3    -0.125545939902E+03    0.28500E-05   -0.33354E-05 14400   0.241E-02    0.765E-03
DAV:   4    -0.125545940553E+03   -0.65083E-06   -0.65975E-06 14736   0.122E-02
  48 F= -.12712580E+03 E0= -.12712502E+03  d E =-.533608E-04  mag=    -0.0000
       N       E                     dE             d eps       ncg     rms          rms(c)
DAV:   1    -0.125546073452E+03   -0.13355E-03   -0.40130E-03 14208   0.266E-01    0.110E-02
DAV:   2    -0.125546075040E+03   -0.15888E-05   -0.47399E-05 15168   0.304E-02    0.745E-03
DAV:   3    -0.125546075621E+03   -0.58016E-06   -0.47837E-06 14592   0.112E-02
  49 F= -.12712580E+03 E0= -.12712502E+03  d E =-.555089E-04  mag=     0.0000
       N       E                     dE             d eps       ncg     rms          rms(c)
DAV:   1    -0.125546327468E+03   -0.25243E-03   -0.14077E-02 14208   0.500E-01    0.204E-02
DAV:   2    -0.125546332938E+03   -0.54692E-05   -0.14488E-04 15792   0.521E-02    0.138E-02
DAV:   3    -0.125546333293E+03   -0.35521E-06   -0.11636E-05 14880   0.163E-02    0.405E-03
DAV:   4    -0.125546333471E+03   -0.17774E-06   -0.61476E-06 14208   0.128E-02
  50 F= -.12712583E+03 E0= -.12712504E+03  d E =-.265954E-04  mag=    -0.0000
       N       E                     dE             d eps       ncg     rms          rms(c)
DAV:   1    -0.125546836872E+03   -0.50358E-03   -0.68191E-02 14208   0.110E+00    0.442E-02
DAV:   2    -0.125546869094E+03   -0.32222E-04   -0.71875E-04 21888   0.112E-01    0.301E-02
DAV:   3    -0.125546863347E+03    0.57470E-05   -0.41557E-05 25536   0.248E-02    0.827E-03
DAV:   4    -0.125546863909E+03   -0.56213E-06   -0.55281E-06 14592   0.106E-02
  51 F= -.12712585E+03 E0= -.12712507E+03  d E =-.485632E-04  mag=     0.0000
       N       E                     dE             d eps       ncg     rms          rms(c)
DAV:   1    -0.125547119045E+03   -0.25570E-03   -0.19801E-02 14208   0.593E-01    0.245E-02
DAV:   2    -0.125547125933E+03   -0.68881E-05   -0.20017E-04 14592   0.609E-02    0.163E-02
DAV:   3    -0.125547124997E+03    0.93658E-06   -0.15874E-05 14400   0.174E-02    0.456E-03
DAV:   4    -0.125547125286E+03   -0.28898E-06   -0.44035E-06 14304   0.105E-02
  52 F= -.12712587E+03 E0= -.12712508E+03  d E =-.175867E-04  mag=    -0.0000
       N       E                     dE             d eps       ncg     rms          rms(c)
DAV:   1    -0.125547131001E+03   -0.60038E-05   -0.14847E-05 14208   0.178E-02    0.129E-03
DAV:   2    -0.125547130754E+03    0.24628E-06   -0.11461E-06 16080   0.563E-03
  53 F= -.12712587E+03 E0= -.12712508E+03  d E =-.169818E-04  mag=    -0.0000
       N       E                     dE             d eps       ncg     rms          rms(c)
DAV:   1    -0.125547213105E+03   -0.82104E-04   -0.28421E-03 14208   0.226E-01    0.945E-03
DAV:   2    -0.125547213921E+03   -0.81656E-06   -0.25930E-05 18864   0.219E-02    0.633E-03
DAV:   3    -0.125547213901E+03    0.20759E-07   -0.21434E-06 18384   0.613E-03
  54 F= -.12712588E+03 E0= -.12712509E+03  d E =-.104593E-04  mag=    -0.0000
       N       E                     dE             d eps       ncg     rms          rms(c)
DAV:   1    -0.125547325627E+03   -0.11171E-03   -0.61050E-03 14208   0.331E-01    0.137E-02
DAV:   2    -0.125547327474E+03   -0.18465E-05   -0.55051E-05 22512   0.317E-02    0.924E-03
DAV:   3    -0.125547327214E+03    0.26011E-06   -0.41917E-06 16080   0.835E-03
  55 F= -.12712588E+03 E0= -.12712510E+03  d E =-.173171E-04  mag=    -0.0000
       N       E                     dE             d eps       ncg     rms          rms(c)
DAV:   1    -0.125547394200E+03   -0.66726E-04   -0.29674E-03 15024   0.231E-01    0.102E-02
DAV:   2    -0.125547394825E+03   -0.62589E-06   -0.24923E-05 14976   0.220E-02    0.671E-03
DAV:   3    -0.125547394872E+03   -0.46102E-07   -0.28186E-06 21648   0.783E-03
  56 F= -.12712589E+03 E0= -.12712511E+03  d E =-.931030E-05  mag=    -0.0000
       N       E                     dE             d eps       ncg     rms          rms(c)
DAV:   1    -0.125547426161E+03   -0.31336E-04   -0.79518E-04 14400   0.120E-01    0.533E-03
DAV:   2    -0.125547426324E+03   -0.16218E-06   -0.74856E-06 14640   0.128E-02
  57 F= -.12712589E+03 E0= -.12712511E+03  d E =-.105783E-04  mag=     0.0000
       N       E                     dE             d eps       ncg     rms          rms(c)
DAV:   1    -0.125547469454E+03   -0.43293E-04   -0.20866E-03 18768   0.195E-01    0.908E-03
DAV:   2    -0.125547469277E+03    0.17748E-06   -0.11275E-05 14400   0.153E-02    0.575E-03
DAV:   3    -0.125547469712E+03   -0.43539E-06   -0.30934E-06 19920   0.879E-03
  58 F= -.12712590E+03 E0= -.12712512E+03  d E =-.939805E-05  mag=    -0.0000
       N       E                     dE             d eps       ncg     rms          rms(c)
DAV:   1    -0.125547579713E+03   -0.11044E-03   -0.18826E-02 14208   0.584E-01    0.238E-02
DAV:   2    -0.125547585198E+03   -0.54854E-05   -0.14160E-04 19728   0.505E-02    0.163E-02
DAV:   3    -0.125547583528E+03    0.16707E-05   -0.10642E-05 15168   0.133E-02    0.398E-03
DAV:   4    -0.125547583528E+03   -0.87311E-09   -0.22549E-06 14208   0.730E-03
  59 F= -.12712592E+03 E0= -.12712513E+03  d E =-.212647E-04  mag=    -0.0000
       N       E                     dE             d eps       ncg     rms          rms(c)
DAV:   1    -0.125547601638E+03   -0.18110E-04   -0.51141E-04 14544   0.966E-02    0.416E-03
DAV:   2    -0.125547601804E+03   -0.16598E-06   -0.38119E-06 17760   0.876E-03
  60 F= -.12712592E+03 E0= -.12712514E+03  d E =-.453343E-05  mag=    -0.0000
       N       E                     dE             d eps       ncg     rms          rms(c)
DAV:   1    -0.125547654848E+03   -0.53210E-04   -0.45647E-03 14496   0.289E-01    0.120E-02
DAV:   2    -0.125547656067E+03   -0.12188E-05   -0.31574E-05 14208   0.242E-02    0.819E-03
DAV:   3    -0.125547655810E+03    0.25704E-06   -0.29740E-06 17904   0.780E-03
  61 F= -.12712593E+03 E0= -.12712515E+03  d E =-.173513E-04  mag=    -0.0000
       N       E                     dE             d eps       ncg     rms          rms(c)
DAV:   1    -0.125547753872E+03   -0.97806E-04   -0.18320E-02 14208   0.578E-01    0.231E-02
DAV:   2    -0.125547759819E+03   -0.59470E-05   -0.12987E-04 15600   0.484E-02    0.159E-02
DAV:   3    -0.125547758355E+03    0.14639E-05   -0.98259E-06 14880   0.129E-02    0.394E-03
DAV:   4    -0.125547758356E+03   -0.10150E-08   -0.18745E-06 14208   0.658E-03
  62 F= -.12712595E+03 E0= -.12712517E+03  d E =-.374661E-04  mag=     0.0000
       N       E                     dE             d eps       ncg     rms          rms(c)
DAV:   1    -0.125547925624E+03   -0.16727E-03   -0.73339E-02 14208   0.116E+00    0.463E-02
DAV:   2    -0.125547948200E+03   -0.22576E-04   -0.51110E-04 15168   0.959E-02    0.316E-02
DAV:   3    -0.125547941362E+03    0.68386E-05   -0.38151E-05 14592   0.242E-02    0.756E-03
DAV:   4    -0.125547941464E+03   -0.10262E-06   -0.49382E-06 14304   0.940E-03
  63 F= -.12712597E+03 E0= -.12712519E+03  d E =-.557578E-04  mag=     0.0000
       N       E                     dE             d eps       ncg     rms          rms(c)
DAV:   1    -0.125547984356E+03   -0.42994E-04   -0.34257E-03 14208   0.251E-01    0.101E-02
DAV:   2    -0.125547985656E+03   -0.12997E-05   -0.24878E-05 14304   0.218E-02    0.699E-03
DAV:   3    -0.125547985568E+03    0.87564E-07   -0.22571E-06 16560   0.719E-03
  64 F= -.12712598E+03 E0= -.12712520E+03  d E =-.117402E-04  mag=     0.0000
       N       E                     dE             d eps       ncg     rms          rms(c)
DAV:   1    -0.125548105110E+03   -0.11945E-03   -0.30694E-02 14208   0.750E-01    0.295E-02
DAV:   2    -0.125548115555E+03   -0.10445E-04   -0.21352E-04 15984   0.620E-02    0.204E-02
DAV:   3    -0.125548113051E+03    0.25037E-05   -0.15015E-05 14640   0.158E-02    0.501E-03
DAV:   4    -0.125548113085E+03   -0.33719E-07   -0.25804E-06 14208   0.755E-03
  65 F= -.12712601E+03 E0= -.12712523E+03  d E =-.421387E-04  mag=     0.0000
       N       E                     dE             d eps       ncg     rms          rms(c)
DAV:   1    -0.125548320563E+03   -0.20751E-03   -0.12290E-01 14208   0.150E+00    0.592E-02
DAV:   2    -0.125548360787E+03   -0.40224E-04   -0.83968E-04 14976   0.123E-01    0.406E-02
DAV:   3    -0.125548349699E+03    0.11088E-04   -0.58950E-05 14400   0.304E-02    0.986E-03
DAV:   4    -0.125548349861E+03   -0.16179E-06   -0.77161E-06 14208   0.119E-02
  66 F= -.12712606E+03 E0= -.12712527E+03  d E =-.848556E-04  mag=    -0.0000
       N       E                     dE             d eps       ncg     rms          rms(c)
DAV:   1    -0.125548631737E+03   -0.28204E-03   -0.49163E-01 14208   0.300E+00    0.118E-01
DAV:   2    -0.125548793835E+03   -0.16210E-03   -0.33497E-03 15792   0.246E-01    0.812E-02
DAV:   3    -0.125548746274E+03    0.47561E-04   -0.23360E-04 15840   0.594E-02    0.193E-02
DAV:   4    -0.125548746607E+03   -0.33326E-06   -0.28144E-05 14592   0.214E-02    0.659E-03
DAV:   5    -0.125548746583E+03    0.23757E-07   -0.44051E-06 16560   0.967E-03
  67 F= -.12712606E+03 E0= -.12712528E+03  d E =-.934894E-04  mag=    -0.0000
       N       E                     dE             d eps       ncg     rms          rms(c)
DAV:   1    -0.125548549777E+03    0.19683E-03   -0.10759E-01 14208   0.140E+00    0.552E-02
DAV:   2    -0.125548584350E+03   -0.34572E-04   -0.74707E-04 17328   0.116E-01    0.380E-02
DAV:   3    -0.125548574150E+03    0.10200E-04   -0.54830E-05 21552   0.298E-02    0.926E-03
DAV:   4    -0.125548573999E+03    0.15059E-06   -0.94341E-06 15744   0.145E-02
  68 F= -.12712607E+03 E0= -.12712529E+03  d E =-.102519E-03  mag=    -0.0000
       N       E                     dE             d eps       ncg     rms          rms(c)
DAV:   1    -0.125548649581E+03   -0.75432E-04   -0.10943E-02 14208   0.449E-01    0.170E-02
DAV:   2    -0.125548652930E+03   -0.33485E-05   -0.77169E-05 21936   0.380E-02    0.119E-02
DAV:   3    -0.125548652416E+03    0.51347E-06   -0.64818E-06 16224   0.120E-02
  69 F= -.12712609E+03 E0= -.12712531E+03  d E =-.210735E-04  mag=     0.0000
       N       E                     dE             d eps       ncg     rms          rms(c)
DAV:   1    -0.125548856214E+03   -0.20328E-03   -0.98663E-02 14208   0.135E+00    0.526E-02
DAV:   2    -0.125548891693E+03   -0.35480E-04   -0.66438E-04 16896   0.109E-01    0.366E-02
DAV:   3    -0.125548884138E+03    0.75556E-05   -0.43099E-05 15984   0.276E-02    0.851E-03
DAV:   4    -0.125548883949E+03    0.18916E-06   -0.87146E-06 14208   0.146E-02
  70 F= -.12712615E+03 E0= -.12712537E+03  d E =-.807619E-04  mag=     0.0000
       N       E                     dE             d eps       ncg     rms          rms(c)
DAV:   1    -0.125549225849E+03   -0.34171E-03   -0.39507E-01 14208   0.270E+00    0.105E-01
DAV:   2    -0.125549367681E+03   -0.14183E-03   -0.26417E-03 18720   0.217E-01    0.731E-02
DAV:   3    -0.125549331490E+03    0.36191E-04   -0.16291E-04 16176   0.500E-02    0.158E-02
DAV:   4    -0.125549331596E+03   -0.10591E-06   -0.22352E-05 14208   0.210E-02    0.526E-03
DAV:   5    -0.125549331577E+03    0.19550E-07   -0.57906E-06 14208   0.118E-02
  71 F= -.12712626E+03 E0= -.12712548E+03  d E =-.184819E-03  mag=     0.0000
       N       E                     dE             d eps       ncg     rms          rms(c)
DAV:   1    -0.125549764433E+03   -0.43284E-03   -0.15794E+00 14208   0.539E+00    0.210E-01
DAV:   2    -0.125550320668E+03   -0.55624E-03   -0.10473E-02 19008   0.432E-01    0.146E-01
DAV:   3    -0.125550165796E+03    0.15487E-03   -0.63859E-04 17040   0.962E-02    0.312E-02
DAV:   4    -0.125550167090E+03   -0.12943E-05   -0.73677E-05 14928   0.344E-02    0.102E-02
DAV:   5    -0.125550166876E+03    0.21452E-06   -0.10651E-05 16320   0.147E-02    0.437E-03
DAV:   6    -0.125550167618E+03   -0.74237E-06   -0.65713E-06 14400   0.127E-02
  72 F= -.12712641E+03 E0= -.12712563E+03  d E =-.335089E-03  mag=    -0.0000
       N       E                     dE             d eps       ncg     rms          rms(c)
DAV:   1    -0.125549996214E+03    0.17066E-03   -0.63146E+00 14208   0.108E+01    0.420E-01
DAV:   2    -0.125552227206E+03   -0.22310E-02   -0.41952E-02 18336   0.862E-01    0.291E-01
DAV:   3    -0.125551604127E+03    0.62308E-03   -0.25834E-03 22272   0.192E-01    0.659E-02
DAV:   4    -0.125551607013E+03   -0.28863E-05   -0.25719E-04 21984   0.600E-02    0.201E-02
DAV:   5    -0.125551604708E+03    0.23050E-05   -0.22192E-05 21120   0.173E-02    0.818E-03
DAV:   6    -0.125551605119E+03   -0.41029E-06   -0.43272E-06 18000   0.856E-03
  73 F= -.12712648E+03 E0= -.12712570E+03  d E =-.405503E-03  mag=     0.0000
       N       E                     dE             d eps       ncg     rms          rms(c)
DAV:   1    -0.125551737010E+03   -0.13230E-03   -0.43459E-02 14208   0.894E-01    0.346E-02
DAV:   2    -0.125551752731E+03   -0.15721E-04   -0.29274E-04 24096   0.719E-02    0.242E-02
DAV:   3    -0.125551749084E+03    0.36466E-05   -0.17034E-05 17520   0.159E-02    0.503E-03
DAV:   4    -0.125551749194E+03   -0.10969E-06   -0.25323E-06 14880   0.717E-03
  74 F= -.12712651E+03 E0= -.12712573E+03  d E =-.323155E-04  mag=     0.0000
       N       E                     dE             d eps       ncg     rms          rms(c)
DAV:   1    -0.125552066957E+03   -0.31787E-03   -0.39118E-01 14208   0.268E+00    0.105E-01
DAV:   2    -0.125552203972E+03   -0.13701E-03   -0.25687E-03 21216   0.213E-01    0.727E-02
DAV:   3    -0.125552167303E+03    0.36669E-04   -0.15578E-04 19344   0.472E-02    0.150E-02
DAV:   4    -0.125552167806E+03   -0.50272E-06   -0.16297E-05 14592   0.161E-02    0.492E-03
DAV:   5    -0.125552167849E+03   -0.43358E-07   -0.22242E-06 18240   0.662E-03
  75 F= -.12712659E+03 E0= -.12712581E+03  d E =-.115896E-03  mag=    -0.0000
       N       E                     dE             d eps       ncg     rms          rms(c)
DAV:   1    -0.125552545751E+03   -0.37795E-03   -0.15644E+00 14208   0.537E+00    0.209E-01
DAV:   2    -0.125553087836E+03   -0.54208E-03   -0.10208E-02 15840   0.427E-01    0.144E-01
DAV:   3    -0.125552942933E+03    0.14490E-03   -0.62136E-04 18384   0.974E-02    0.336E-02
DAV:   4    -0.125552945447E+03   -0.25140E-05   -0.60990E-05 15264   0.312E-02    0.102E-02
DAV:   5    -0.125552944923E+03    0.52467E-06   -0.91911E-06 19248   0.130E-02
  76 F= -.12712670E+03 E0= -.12712592E+03  d E =-.224076E-03  mag=     0.0000
       N       E                     dE             d eps       ncg     rms          rms(c)
DAV:   1    -0.125552660589E+03    0.28486E-03   -0.62559E+00 14208   0.107E+01    0.418E-01
DAV:   2    -0.125554853150E+03   -0.21926E-02   -0.41001E-02 16944   0.855E-01    0.289E-01
DAV:   3    -0.125554255079E+03    0.59807E-03   -0.24734E-03 21072   0.192E-01    0.667E-02
DAV:   4    -0.125554260549E+03   -0.54702E-05   -0.23642E-04 16416   0.612E-02    0.199E-02
DAV:   5    -0.125554258423E+03    0.21260E-05   -0.32809E-05 20064   0.244E-02    0.806E-03
DAV:   6    -0.125554260686E+03   -0.22631E-05   -0.15120E-05 15312   0.194E-02    0.305E-03
DAV:   7    -0.125554256359E+03    0.43271E-05   -0.55341E-06 19248   0.116E-02    0.102E-03
DAV:   8    -0.125554256223E+03    0.13617E-06   -0.27192E-07 23376   0.239E-03
  77 F= -.12712668E+03 E0= -.12712590E+03  d E =-.201850E-03  mag=    -0.0000
       N       E                     dE             d eps       ncg     rms          rms(c)
DAV:   1    -0.125553056467E+03    0.11999E-02   -0.20033E+00 14208   0.607E+00    0.236E-01
DAV:   2    -0.125553756460E+03   -0.69999E-03   -0.13134E-02 22416   0.480E-01    0.164E-01
DAV:   3    -0.125553553005E+03    0.20346E-03   -0.78511E-04 20544   0.104E-01    0.329E-02
DAV:   4    -0.125553553880E+03   -0.87509E-06   -0.81628E-05 18576   0.337E-02    0.110E-02
DAV:   5    -0.125553553534E+03    0.34635E-06   -0.65485E-06 20688   0.951E-03
  78 F= -.12712673E+03 E0= -.12712595E+03  d E =-.252840E-03  mag=     0.0000
       N       E                     dE             d eps       ncg     rms          rms(c)
DAV:   1    -0.125553603055E+03   -0.49175E-04   -0.88443E-04 17184   0.129E-01    0.562E-03
DAV:   2    -0.125553602984E+03    0.71690E-07   -0.72115E-06 24576   0.114E-02
  79 F= -.12712678E+03 E0= -.12712600E+03  d E =-.463981E-04  mag=     0.0000
       N       E                     dE             d eps       ncg     rms          rms(c)
DAV:   1    -0.125553721090E+03   -0.11803E-03   -0.79567E-03 14208   0.388E-01    0.173E-02
DAV:   2    -0.125553721535E+03   -0.44466E-06   -0.71026E-05 27648   0.360E-02    0.111E-02
DAV:   3    -0.125553720779E+03    0.75604E-06   -0.49467E-06 19584   0.869E-03
  80 F= -.12712689E+03 E0= -.12712610E+03  d E =-.154963E-03  mag=    -0.0000
       N       E                     dE             d eps       ncg     rms          rms(c)
DAV:   1    -0.125553822897E+03   -0.10136E-03   -0.32020E-02 14208   0.777E-01    0.337E-02
DAV:   2    -0.125553825303E+03   -0.24061E-05   -0.28817E-04 18240   0.732E-02    0.213E-02
DAV:   3    -0.125553822487E+03    0.28156E-05   -0.24007E-05 23616   0.193E-02    0.790E-03
DAV:   4    -0.125553822352E+03    0.13525E-06   -0.34009E-06 21024   0.734E-03
  81 F= -.12712697E+03 E0= -.12712619E+03  d E =-.237443E-03  mag=     0.0000
       N       E                     dE             d eps       ncg     rms          rms(c)
DAV:   1    -0.125553884789E+03   -0.62302E-04   -0.38146E-03 20592   0.269E-01    0.113E-02
DAV:   2    -0.125553884311E+03    0.47890E-06   -0.25408E-05 16416   0.217E-02    0.673E-03
DAV:   3    -0.125553884016E+03    0.29461E-06   -0.28178E-06 17808   0.718E-03
  82 F= -.12712704E+03 E0= -.12712626E+03  d E =-.740916E-04  mag=     0.0000
       N       E                     dE             d eps       ncg     rms          rms(c)
DAV:   1    -0.125553936293E+03   -0.51982E-04   -0.26924E-02 14208   0.714E-01    0.299E-02
DAV:   2    -0.125553940267E+03   -0.39742E-05   -0.23830E-04 19248   0.671E-02    0.190E-02
DAV:   3    -0.125553937694E+03    0.25735E-05   -0.19327E-05 21888   0.176E-02    0.674E-03
DAV:   4    -0.125553937572E+03    0.12130E-06   -0.34515E-06 21264   0.827E-03
  83 F= -.12712713E+03 E0= -.12712635E+03  d E =-.160205E-03  mag=     0.0000
       N       E                     dE             d eps       ncg     rms          rms(c)
DAV:   1    -0.125553938613E+03   -0.91984E-06   -0.88268E-04 16464   0.119E-01    0.616E-03
DAV:   2    -0.125553938438E+03    0.17519E-06   -0.11491E-05 14832   0.140E-02    0.355E-03
DAV:   3    -0.125553938278E+03    0.16042E-06   -0.17880E-06 15264   0.575E-03
  84 F= -.12712716E+03 E0= -.12712637E+03  d E =-.272295E-04  mag=    -0.0000
       N       E                     dE             d eps       ncg     rms          rms(c)
DAV:   1    -0.125553904915E+03    0.33523E-04   -0.51566E-03 14208   0.288E-01    0.152E-02
DAV:   2    -0.125553903729E+03    0.11866E-05   -0.66219E-05 19632   0.325E-02    0.874E-03
DAV:   3    -0.125553902595E+03    0.11340E-05   -0.76220E-06 17760   0.982E-03    0.281E-03
DAV:   4    -0.125553902683E+03   -0.88497E-07   -0.15766E-06 14304   0.521E-03
  85 F= -.12712719E+03 E0= -.12712640E+03  d E =-.557828E-04  mag=    -0.0000
       N       E                     dE             d eps       ncg     rms          rms(c)
DAV:   1    -0.125553876838E+03    0.25757E-04   -0.16767E-03 14208   0.163E-01    0.695E-03
DAV:   2    -0.125553876665E+03    0.17291E-06   -0.14155E-05 18864   0.160E-02    0.420E-03
DAV:   3    -0.125553876454E+03    0.21108E-06   -0.18979E-06 15024   0.570E-03
  86 F= -.12712721E+03 E0= -.12712643E+03  d E =-.249796E-04  mag=    -0.0000
       N       E                     dE             d eps       ncg     rms          rms(c)
DAV:   1    -0.125553769445E+03    0.10722E-03   -0.12936E-02 14208   0.453E-01    0.195E-02
DAV:   2    -0.125553767189E+03    0.22554E-05   -0.10433E-04 16512   0.430E-02    0.116E-02
DAV:   3    -0.125553765443E+03    0.17463E-05   -0.13773E-05 16656   0.138E-02    0.306E-03
DAV:   4    -0.125553765665E+03   -0.22190E-06   -0.23424E-06 17328   0.705E-03
  87 F= -.12712724E+03 E0= -.12712646E+03  d E =-.563753E-04  mag=     0.0000
       N       E                     dE             d eps       ncg     rms          rms(c)
DAV:   1    -0.125553738796E+03    0.26647E-04   -0.90446E-04 16944   0.121E-01    0.540E-03
DAV:   2    -0.125553738617E+03    0.17962E-06   -0.77700E-06 17904   0.122E-02
  88 F= -.12712726E+03 E0= -.12712648E+03  d E =-.168125E-04  mag=     0.0000
       N       E                     dE             d eps       ncg     rms          rms(c)
DAV:   1    -0.125553632049E+03    0.10675E-03   -0.80326E-03 14208   0.360E-01    0.161E-02
DAV:   2    -0.125553630749E+03    0.13001E-05   -0.68697E-05 15360   0.352E-02    0.981E-03
DAV:   3    -0.125553629710E+03    0.10397E-05   -0.10040E-05 17136   0.128E-02    0.247E-03
DAV:   4    -0.125553629882E+03   -0.17206E-06   -0.26871E-06 15264   0.818E-03
  89 F= -.12712728E+03 E0= -.12712650E+03  d E =-.396975E-04  mag=     0.0000
       N       E                     dE             d eps       ncg     rms          rms(c)
DAV:   1    -0.125553594344E+03    0.35365E-04   -0.49115E-04 21504   0.896E-02    0.427E-03
DAV:   2    -0.125553594210E+03    0.13390E-06   -0.41019E-06 14976   0.902E-03
  90 F= -.12712729E+03 E0= -.12712651E+03  d E =-.107202E-04  mag=     0.0000
       N       E                     dE             d eps       ncg     rms          rms(c)
DAV:   1    -0.125553478916E+03    0.11543E-03   -0.43361E-03 14208   0.267E-01    0.121E-02
DAV:   2    -0.125553478896E+03    0.20092E-07   -0.42925E-05 14304   0.278E-02    0.765E-03
DAV:   3    -0.125553478567E+03    0.32908E-06   -0.56507E-06 19776   0.100E-02
  91 F= -.12712732E+03 E0= -.12712653E+03  d E =-.342510E-04  mag=     0.0000
       N       E                     dE             d eps       ncg     rms          rms(c)
DAV:   1    -0.125553209111E+03    0.26979E-03   -0.17589E-02 14208   0.536E-01    0.241E-02
DAV:   2    -0.125553209284E+03   -0.17344E-06   -0.17241E-04 14640   0.555E-02    0.151E-02
DAV:   3    -0.125553207537E+03    0.17470E-05   -0.21070E-05 19632   0.183E-02    0.418E-03
DAV:   4    -0.125553207746E+03   -0.20928E-06   -0.44711E-06 14784   0.103E-02
  92 F= -.12712732E+03 E0= -.12712654E+03  d E =-.417546E-04  mag=    -0.0000
       N       E                     dE             d eps       ncg     rms          rms(c)
DAV:   1    -0.125553317209E+03   -0.10967E-03   -0.25248E-03 14208   0.203E-01    0.858E-03
DAV:   2    -0.125553317406E+03   -0.19707E-06   -0.27237E-05 20592   0.221E-02    0.544E-03
DAV:   3    -0.125553317145E+03    0.26140E-06   -0.31846E-06 14256   0.786E-03
  93 F= -.12712733E+03 E0= -.12712655E+03  d E =-.454496E-04  mag=     0.0000
       N       E                     dE             d eps       ncg     rms          rms(c)
DAV:   1    -0.125553287373E+03    0.30033E-04   -0.25921E-04 15120   0.650E-02    0.260E-03
DAV:   2    -0.125553287305E+03    0.68294E-07   -0.36708E-06 14208   0.909E-03
  94 F= -.12712733E+03 E0= -.12712655E+03  d E =-.744483E-05  mag=     0.0000
       N       E                     dE             d eps       ncg     rms          rms(c)
DAV:   1    -0.125553196356E+03    0.91018E-04   -0.23260E-03 14208   0.194E-01    0.895E-03
DAV:   2    -0.125553196377E+03   -0.21600E-07   -0.24294E-05 14208   0.210E-02    0.575E-03
DAV:   3    -0.125553196269E+03    0.10794E-06   -0.33486E-06 18048   0.806E-03
  95 F= -.12712735E+03 E0= -.12712657E+03  d E =-.282111E-04  mag=     0.0000
       N       E                     dE             d eps       ncg     rms          rms(c)
DAV:   1    -0.125553004062E+03    0.19231E-03   -0.94017E-03 14208   0.390E-01    0.173E-02
DAV:   2    -0.125553004952E+03   -0.88983E-06   -0.94524E-05 15072   0.409E-02    0.111E-02
DAV:   3    -0.125553004305E+03    0.64761E-06   -0.10892E-05 18672   0.135E-02    0.313E-03
DAV:   4    -0.125553004483E+03   -0.17797E-06   -0.30033E-06 14208   0.856E-03
  96 F= -.12712739E+03 E0= -.12712661E+03  d E =-.601996E-04  mag=    -0.0000
       N       E                     dE             d eps       ncg     rms          rms(c)
DAV:   1    -0.125552580830E+03    0.42347E-03   -0.37528E-02 14208   0.779E-01    0.343E-02
DAV:   2    -0.125552583698E+03   -0.28682E-05   -0.37039E-04 16512   0.799E-02    0.218E-02
DAV:   3    -0.125552580411E+03    0.32870E-05   -0.38899E-05 17568   0.233E-02    0.587E-03
DAV:   4    -0.125552580712E+03   -0.30105E-06   -0.61612E-06 18048   0.100E-02
  97 F= -.12712741E+03 E0= -.12712663E+03  d E =-.843063E-04  mag=    -0.0000
       N       E                     dE             d eps       ncg     rms          rms(c)
DAV:   1    -0.125552414998E+03    0.16541E-03   -0.67431E-03 14208   0.331E-01    0.146E-02
DAV:   2    -0.125552416618E+03   -0.16197E-05   -0.75143E-05 16944   0.362E-02    0.953E-03
DAV:   3    -0.125552416115E+03    0.50322E-06   -0.73269E-06 17904   0.109E-02
  98 F= -.12712745E+03 E0= -.12712666E+03  d E =-.340785E-04  mag=    -0.0000
       N       E                     dE             d eps       ncg     rms          rms(c)
DAV:   1    -0.125551872485E+03    0.54413E-03   -0.60674E-02 14208   0.992E-01    0.439E-02
DAV:   2    -0.125551882884E+03   -0.10399E-04   -0.65097E-04 19344   0.105E-01    0.283E-02
DAV:   3    -0.125551877808E+03    0.50765E-05   -0.62193E-05 19344   0.294E-02    0.788E-03
DAV:   4    -0.125551878269E+03   -0.46139E-06   -0.10592E-05 17712   0.136E-02    0.352E-03
DAV:   5    -0.125551878277E+03   -0.80090E-08   -0.17393E-06 14784   0.653E-03
  99 F= -.12712750E+03 E0= -.12712672E+03  d E =-.927787E-04  mag=     0.0000
       N       E                     dE             d eps       ncg     rms          rms(c)
DAV:   1    -0.125551647728E+03    0.23054E-03   -0.15604E-02 14208   0.506E-01    0.217E-02
DAV:   2    -0.125551649600E+03   -0.18718E-05   -0.16249E-04 19680   0.528E-02    0.140E-02
DAV:   3    -0.125551648293E+03    0.13061E-05   -0.15668E-05 19488   0.148E-02    0.385E-03
DAV:   4    -0.125551648483E+03   -0.18958E-06   -0.25017E-06 14880   0.679E-03
 100 F= -.12712757E+03 E0= -.12712679E+03  d E =-.703167E-04  mag=     0.0000
       N       E                     dE             d eps       ncg     rms          rms(c)
DAV:   1    -0.125550932337E+03    0.71596E-03   -0.10945E-01 14208   0.134E+00    0.581E-02
DAV:   2    -0.125550942580E+03   -0.10244E-04   -0.11106E-03 19488   0.137E-01    0.371E-02
DAV:   3    -0.125550931584E+03    0.10997E-04   -0.11179E-04 19440   0.388E-02    0.982E-03
DAV:   4    -0.125550932555E+03   -0.97130E-06   -0.16008E-05 18144   0.151E-02    0.443E-03
DAV:   5    -0.125550932842E+03   -0.28698E-06   -0.11147E-06 19152   0.511E-03
 101 F= -.12712765E+03 E0= -.12712687E+03  d E =-.149898E-03  mag=    -0.0000
       N       E                     dE             d eps       ncg     rms          rms(c)
DAV:   1    -0.125550797802E+03    0.13475E-03   -0.46874E-03 14208   0.276E-01    0.116E-02
DAV:   2    -0.125550798443E+03   -0.64171E-06   -0.48209E-05 19920   0.287E-02    0.743E-03
DAV:   3    -0.125550798103E+03    0.34011E-06   -0.44113E-06 17520   0.796E-03
 102 F= -.12712768E+03 E0= -.12712690E+03  d E =-.310459E-04  mag=     0.0000
       N       E                     dE             d eps       ncg     rms          rms(c)
DAV:   1    -0.125550377625E+03    0.42082E-03   -0.42169E-02 14208   0.828E-01    0.358E-02
DAV:   2    -0.125550380588E+03   -0.29634E-05   -0.41644E-04 19632   0.839E-02    0.228E-02
DAV:   3    -0.125550377141E+03    0.34471E-05   -0.41183E-05 19536   0.234E-02    0.594E-03
DAV:   4    -0.125550377621E+03   -0.47977E-06   -0.58121E-06 14784   0.973E-03
 103 F= -.12712776E+03 E0= -.12712698E+03  d E =-.108261E-03  mag=     0.0000
       N       E                     dE             d eps       ncg     rms          rms(c)
DAV:   1    -0.125549464195E+03    0.91295E-03   -0.16850E-01 14208   0.166E+00    0.712E-02
DAV:   2    -0.125549477634E+03   -0.13439E-04   -0.16629E-03 19680   0.167E-01    0.452E-02
DAV:   3    -0.125549460380E+03    0.17254E-04   -0.16370E-04 19632   0.463E-02    0.118E-02
DAV:   4    -0.125549461968E+03   -0.15881E-05   -0.21988E-05 20688   0.179E-02    0.498E-03
DAV:   5    -0.125549462317E+03   -0.34959E-06   -0.16778E-06 16848   0.625E-03
 104 F= -.12712784E+03 E0= -.12712706E+03  d E =-.190032E-03  mag=     0.0000
       N       E                     dE             d eps       ncg     rms          rms(c)
DAV:   1    -0.125549127437E+03    0.33453E-03   -0.19557E-02 14208   0.564E-01    0.237E-02
DAV:   2    -0.125549129402E+03   -0.19648E-05   -0.19748E-04 20112   0.576E-02    0.152E-02
DAV:   3    -0.125549127835E+03    0.15673E-05   -0.18443E-05 18096   0.156E-02    0.406E-03
DAV:   4    -0.125549128144E+03   -0.30874E-06   -0.25492E-06 18144   0.604E-03
 105 F= -.12712785E+03 E0= -.12712707E+03  d E =-.195981E-03  mag=     0.0000
       N       E                     dE             d eps       ncg     rms          rms(c)
DAV:   1    -0.125549000024E+03    0.12781E-03   -0.66236E-03 14208   0.332E-01    0.141E-02
DAV:   2    -0.125549000598E+03   -0.57449E-06   -0.69669E-05 19488   0.347E-02    0.900E-03
DAV:   3    -0.125549000119E+03    0.47940E-06   -0.69061E-06 16128   0.101E-02
 106 F= -.12712791E+03 E0= -.12712713E+03  d E =-.578467E-04  mag=    -0.0000
       N       E                     dE             d eps       ncg     rms          rms(c)
DAV:   1    -0.125548617189E+03    0.38341E-03   -0.39030E-02 14208   0.805E-01    0.350E-02
DAV:   2    -0.125548619519E+03   -0.23294E-05   -0.40269E-04 19632   0.834E-02    0.222E-02
DAV:   3    -0.125548616026E+03    0.34926E-05   -0.41786E-05 19680   0.242E-02    0.640E-03
DAV:   4    -0.125548616443E+03   -0.41652E-06   -0.68581E-06 16416   0.108E-02
 107 F= -.12712797E+03 E0= -.12712719E+03  d E =-.125162E-03  mag=     0.0000
       N       E                     dE             d eps       ncg     rms          rms(c)
DAV:   1    -0.125548451529E+03    0.16450E-03   -0.12424E-02 14208   0.456E-01    0.206E-02
DAV:   2    -0.125548451158E+03    0.37080E-06   -0.14001E-04 19968   0.493E-02    0.129E-02
DAV:   3    -0.125548449810E+03    0.13481E-05   -0.14417E-05 18144   0.146E-02    0.405E-03
DAV:   4    -0.125548449931E+03   -0.12097E-06   -0.28601E-06 14400   0.764E-03
 108 F= -.12712804E+03 E0= -.12712726E+03  d E =-.683090E-04  mag=     0.0000
       N       E                     dE             d eps       ncg     rms          rms(c)
DAV:   1    -0.125548303656E+03    0.14615E-03   -0.58420E-03 14208   0.313E-01    0.143E-02
DAV:   2    -0.125548303425E+03    0.23032E-06   -0.66524E-05 20784   0.339E-02    0.899E-03
DAV:   3    -0.125548302813E+03    0.61257E-06   -0.68721E-06 17040   0.101E-02
 109 F= -.12712806E+03 E0= -.12712728E+03  d E =-.822290E-04  mag=    -0.0000
       N       E                     dE             d eps       ncg     rms          rms(c)
DAV:   1    -0.125548214547E+03    0.88878E-04   -0.23032E-03 14304   0.195E-01    0.953E-03
DAV:   2    -0.125548214644E+03   -0.96901E-07   -0.25338E-05 18528   0.214E-02    0.606E-03
DAV:   3    -0.125548214334E+03    0.31060E-06   -0.30166E-06 17616   0.731E-03
 110 F= -.12712807E+03 E0= -.12712729E+03  d E =-.145968E-04  mag=    -0.0000
       N       E                     dE             d eps       ncg     rms          rms(c)
DAV:   1    -0.125548111823E+03    0.10282E-03   -0.25291E-03 14208   0.204E-01    0.969E-03
DAV:   2    -0.125548111991E+03   -0.16779E-06   -0.27883E-05 20256   0.225E-02    0.616E-03
DAV:   3    -0.125548111612E+03    0.37826E-06   -0.31353E-06 18048   0.753E-03
 111 F= -.12712808E+03 E0= -.12712730E+03  d E =-.200855E-04  mag=    -0.0000
       N       E                     dE             d eps       ncg     rms          rms(c)
DAV:   1    -0.125548001020E+03    0.11097E-03   -0.32698E-03 14208   0.236E-01    0.106E-02
DAV:   2    -0.125548001628E+03   -0.60771E-06   -0.35240E-05 19440   0.255E-02    0.686E-03
DAV:   3    -0.125548001241E+03    0.38749E-06   -0.37259E-06 18144   0.850E-03
 112 F= -.12712809E+03 E0= -.12712731E+03  d E =-.141246E-04  mag=     0.0000
       N       E                     dE             d eps       ncg     rms          rms(c)
DAV:   1    -0.125547960497E+03    0.41131E-04   -0.37557E-04 14304   0.801E-02    0.398E-03
DAV:   2    -0.125547960634E+03   -0.13686E-06   -0.44983E-06 17856   0.100E-02
 113 F= -.12712809E+03 E0= -.12712731E+03  d E =-.154386E-04  mag=    -0.0000
       N       E                     dE             d eps       ncg     rms          rms(c)
DAV:   1    -0.125547864203E+03    0.96294E-04   -0.24580E-03 14304   0.203E-01    0.970E-03
DAV:   2    -0.125547864182E+03    0.21333E-07   -0.27754E-05 14736   0.227E-02    0.607E-03
DAV:   3    -0.125547863888E+03    0.29381E-06   -0.37328E-06 15888   0.853E-03
 114 F= -.12712810E+03 E0= -.12712732E+03  d E =-.124374E-04  mag=    -0.0000
       N       E                     dE             d eps       ncg     rms          rms(c)
DAV:   1    -0.125547776025E+03    0.88157E-04   -0.17802E-03 14208   0.172E-01    0.823E-03
DAV:   2    -0.125547776087E+03   -0.62652E-07   -0.20190E-05 17184   0.197E-02    0.518E-03
DAV:   3    -0.125547775896E+03    0.19108E-06   -0.27997E-06 16560   0.765E-03
 115 F= -.12712811E+03 E0= -.12712733E+03  d E =-.167538E-04  mag=    -0.0000
       N       E                     dE             d eps       ncg     rms          rms(c)
DAV:   1    -0.125547672134E+03    0.10395E-03   -0.28316E-03 14208   0.220E-01    0.102E-02
DAV:   2    -0.125547672341E+03   -0.20668E-06   -0.33572E-05 18384   0.250E-02    0.653E-03
DAV:   3    -0.125547671923E+03    0.41770E-06   -0.37740E-06 17328   0.882E-03
 116 F= -.12712812E+03 E0= -.12712734E+03  d E =-.969315E-05  mag=    -0.0000
       N       E                     dE             d eps       ncg     rms          rms(c)
DAV:   1    -0.125547651801E+03    0.20540E-04   -0.95452E-05 14208   0.408E-02    0.237E-03
DAV:   2    -0.125547651835E+03   -0.34112E-07   -0.18135E-06 16320   0.702E-03
 117 F= -.12712812E+03 E0= -.12712734E+03  d E =-.101395E-04  mag=     0.0000
       N       E                     dE             d eps       ncg     rms          rms(c)
DAV:   1    -0.125547569096E+03    0.82705E-04   -0.15933E-03 14208   0.165E-01    0.745E-03
DAV:   2    -0.125547569401E+03   -0.30530E-06   -0.18882E-05 16032   0.186E-02    0.488E-03
DAV:   3    -0.125547569269E+03    0.13166E-06   -0.19033E-06 15408   0.644E-03
 118 F= -.12712813E+03 E0= -.12712735E+03  d E =-.821958E-05  mag=     0.0000
       N       E                     dE             d eps       ncg     rms          rms(c)
DAV:   1    -0.125547436534E+03    0.13287E-03   -0.36870E-03 14208   0.251E-01    0.109E-02
DAV:   2    -0.125547437322E+03   -0.78788E-06   -0.42208E-05 15552   0.277E-02    0.713E-03
DAV:   3    -0.125547437051E+03    0.27080E-06   -0.38202E-06 15840   0.880E-03
 119 F= -.12712813E+03 E0= -.12712735E+03  d E =-.138011E-04  mag=    -0.0000
       N       E                     dE             d eps       ncg     rms          rms(c)
DAV:   1    -0.125547338791E+03    0.98531E-04   -0.22872E-03 14208   0.199E-01    0.853E-03
DAV:   2    -0.125547339430E+03   -0.63941E-06   -0.26524E-05 15312   0.226E-02    0.570E-03
DAV:   3    -0.125547339309E+03    0.12067E-06   -0.29588E-06 15792   0.839E-03
 120 F= -.12712814E+03 E0= -.12712736E+03  d E =-.110321E-04  mag=     0.0000
       N       E                     dE             d eps       ncg     rms          rms(c)
DAV:   1    -0.125547026297E+03    0.31313E-03   -0.20532E-02 14208   0.595E-01    0.247E-02
DAV:   2    -0.125547031239E+03   -0.49416E-05   -0.22550E-04 17328   0.632E-02    0.163E-02
DAV:   3    -0.125547029457E+03    0.17815E-05   -0.18129E-05 17904   0.176E-02    0.509E-03
DAV:   4    -0.125547029667E+03   -0.20962E-06   -0.45503E-06 14208   0.106E-02
 121 F= -.12712816E+03 E0= -.12712738E+03  d E =-.277742E-04  mag=     0.0000
       N       E                     dE             d eps       ncg     rms          rms(c)
DAV:   1    -0.125546986617E+03    0.42840E-04   -0.44444E-04 15264   0.877E-02    0.407E-03
DAV:   2    -0.125546986807E+03   -0.19050E-06   -0.52415E-06 18624   0.101E-02
 122 F= -.12712817E+03 E0= -.12712738E+03  d E =-.528981E-05  mag=     0.0000
       N       E                     dE             d eps       ncg     rms          rms(c)
DAV:   1    -0.125546855525E+03    0.13109E-03   -0.39260E-03 14208   0.261E-01    0.111E-02
DAV:   2    -0.125546856788E+03   -0.12627E-05   -0.44398E-05 16224   0.279E-02    0.748E-03
DAV:   3    -0.125546856437E+03    0.35056E-06   -0.36809E-06 17040   0.830E-03
 123 F= -.12712818E+03 E0= -.12712740E+03  d E =-.193952E-04  mag=     0.0000
       N       E                     dE             d eps       ncg     rms          rms(c)
DAV:   1    -0.125546583874E+03    0.27291E-03   -0.15858E-02 14208   0.523E-01    0.217E-02
DAV:   2    -0.125546588546E+03   -0.46714E-05   -0.17405E-04 18336   0.553E-02    0.145E-02
DAV:   3    -0.125546587140E+03    0.14056E-05   -0.13138E-05 18528   0.147E-02    0.431E-03
DAV:   4    -0.125546587277E+03   -0.13650E-06   -0.30200E-06 14496   0.846E-03
 124 F= -.12712820E+03 E0= -.12712742E+03  d E =-.392826E-04  mag=    -0.0000
       N       E                     dE             d eps       ncg     rms          rms(c)
DAV:   1    -0.125546002935E+03    0.58420E-03   -0.63373E-02 14208   0.104E+00    0.430E-02
DAV:   2    -0.125546019636E+03   -0.16701E-04   -0.68431E-04 19344   0.108E-01    0.285E-02
DAV:   3    -0.125546013472E+03    0.61640E-05   -0.49721E-05 19344   0.266E-02    0.814E-03
DAV:   4    -0.125546013895E+03   -0.42311E-06   -0.73115E-06 20256   0.106E-02
 125 F= -.12712821E+03 E0= -.12712742E+03  d E =-.443091E-04  mag=    -0.0000
       N       E                     dE             d eps       ncg     rms          rms(c)
DAV:   1    -0.125546252130E+03   -0.23866E-03   -0.10553E-02 14208   0.427E-01    0.170E-02
DAV:   2    -0.125546255014E+03   -0.28845E-05   -0.11903E-04 19056   0.452E-02    0.114E-02
DAV:   3    -0.125546254060E+03    0.95389E-06   -0.85057E-06 15504   0.116E-02
 126 F= -.12712821E+03 E0= -.12712743E+03  d E =-.478643E-04  mag=    -0.0000
       N       E                     dE             d eps       ncg     rms          rms(c)
DAV:   1    -0.125546103978E+03    0.15104E-03   -0.48577E-03 17808   0.289E-01    0.112E-02
DAV:   2    -0.125546104765E+03   -0.78642E-06   -0.49551E-05 15360   0.292E-02    0.730E-03
DAV:   3    -0.125546104267E+03    0.49758E-06   -0.44807E-06 16512   0.909E-03
 127 F= -.12712822E+03 E0= -.12712744E+03  d E =-.128142E-04  mag=    -0.0000
       N       E                     dE             d eps       ncg     rms          rms(c)
DAV:   1    -0.125545702870E+03    0.40190E-03   -0.32062E-02 14208   0.742E-01    0.306E-02
DAV:   2    -0.125545712985E+03   -0.10116E-04   -0.34824E-04 19536   0.775E-02    0.206E-02
DAV:   3    -0.125545710301E+03    0.26846E-05   -0.24196E-05 19392   0.189E-02    0.599E-03
DAV:   4    -0.125545710480E+03   -0.17926E-06   -0.40344E-06 16128   0.878E-03
 128 F= -.12712825E+03 E0= -.12712746E+03  d E =-.365265E-04  mag=    -0.0000
