   8   8   0   0
  0.4338553E+02  0.5169000E-09  0.5169000E-09  0.1500000E-08  0.5000000E-15
  1.000000000000000E-004
  CAR 
 BC3                                     
      9.53089188    -21.28562137  301     -3.47927652      1.00000000
    -21.286  0.0000E+00  0.0000E+00
    -21.183  0.0000E+00  0.0000E+00
    -21.080  0.0000E+00  0.0000E+00
    -20.977  0.0000E+00  0.0000E+00
    -20.875  0.0000E+00  0.0000E+00
    -20.772  0.0000E+00  0.0000E+00
    -20.669  0.0000E+00  0.0000E+00
    -20.567  0.0000E+00  0.0000E+00
    -20.464  0.8444E-19  0.8674E-20
    -20.361  0.1485E-13  0.1525E-14
    -20.258  0.1442E-09  0.1481E-10
    -20.156  0.1911E-06  0.1965E-07
    -20.053  0.3710E-04  0.3831E-05
    -19.950  0.1199E-02  0.1270E-03
    -19.848  0.8108E-02  0.9598E-03
    -19.745  0.1714E-01  0.2720E-02
    -19.642  0.2080E-01  0.4857E-02
    -19.539  0.2343E-01  0.7263E-02
    -19.437  0.2879E-01  0.1022E-01
    -19.334  0.3995E-01  0.1432E-01
    -19.231  0.3924E-01  0.1836E-01
    -19.128  0.1455E-01  0.1985E-01
    -19.026  0.1434E-02  0.2000E-01
    -18.923  0.2899E-04  0.2000E-01
    -18.820  0.9758E-07  0.2000E-01
    -18.718  0.4800E-10  0.2000E-01
    -18.615  0.3202E-14  0.2000E-01
    -18.512  0.0000E+00  0.2000E-01
    -18.409  0.0000E+00  0.2000E-01
    -18.307  0.0000E+00  0.2000E-01
    -18.204  0.1267E-18  0.2000E-01
    -18.101  0.9498E-14  0.2000E-01
    -17.999  0.1035E-09  0.2000E-01
    -17.896  0.1580E-06  0.2000E-01
    -17.793  0.3605E-04  0.2000E-01
    -17.690  0.1365E-02  0.2014E-01
    -17.588  0.1060E-01  0.2123E-01
    -17.485  0.2531E-01  0.2383E-01
    -17.382  0.3224E-01  0.2714E-01
    -17.279  0.2732E-01  0.2995E-01
    -17.177  0.1960E-01  0.3196E-01
    -17.074  0.1863E-01  0.3388E-01
    -16.971  0.1893E-01  0.3582E-01
    -16.869  0.2025E-01  0.3790E-01
    -16.766  0.2142E-01  0.4010E-01
    -16.663  0.2355E-01  0.4252E-01
    -16.560  0.2800E-01  0.4540E-01
    -16.458  0.3405E-01  0.4890E-01
    -16.355  0.3443E-01  0.5243E-01
    -16.252  0.2552E-01  0.5505E-01
    -16.150  0.2083E-01  0.5719E-01
    -16.047  0.1628E-01  0.5887E-01
    -15.944  0.9117E-02  0.5980E-01
    -15.841  0.1837E-02  0.5999E-01
    -15.739  0.8749E-04  0.6000E-01
    -15.636  0.7646E-06  0.6000E-01
    -15.533  0.1029E-08  0.6000E-01
    -15.430  0.1940E-12  0.6000E-01
    -15.328  0.5151E-17  0.6000E-01
    -15.225  0.0000E+00  0.6000E-01
    -15.122  0.0000E+00  0.6000E-01
    -15.020  0.0000E+00  0.6000E-01
    -14.917  0.0000E+00  0.6000E-01
    -14.814  0.0000E+00  0.6000E-01
    -14.711  0.1815E-15  0.6000E-01
    -14.609  0.4105E-11  0.6000E-01
    -14.506  0.1222E-07  0.6000E-01
    -14.403  0.5018E-05  0.6000E-01
    -14.301  0.3187E-03  0.6003E-01
    -14.198  0.4031E-02  0.6045E-01
    -14.095  0.1465E-01  0.6195E-01
    -13.992  0.2083E-01  0.6409E-01
    -13.890  0.2330E-01  0.6649E-01
    -13.787  0.3280E-01  0.6985E-01
    -13.684  0.3262E-01  0.7320E-01
    -13.581  0.2704E-01  0.7598E-01
    -13.479  0.2200E-01  0.7824E-01
    -13.376  0.1250E-01  0.7953E-01
    -13.273  0.1450E-01  0.8102E-01
    -13.171  0.1507E-01  0.8256E-01
    -13.068  0.1319E-01  0.8392E-01
    -12.965  0.1280E-01  0.8523E-01
    -12.862  0.1036E-01  0.8630E-01
    -12.760  0.1807E-01  0.8815E-01
    -12.657  0.1765E-01  0.8997E-01
    -12.554  0.1674E-01  0.9169E-01
    -12.452  0.2271E-01  0.9402E-01
    -12.349  0.1663E-01  0.9573E-01
    -12.246  0.1463E-01  0.9723E-01
    -12.143  0.1581E-01  0.9885E-01
    -12.041  0.1445E-01  0.1003E+00
    -11.938  0.1407E-01  0.1018E+00
    -11.835  0.8935E-02  0.1027E+00
    -11.733  0.4076E-02  0.1031E+00
    -11.630  0.7301E-02  0.1039E+00
    -11.527  0.5620E-02  0.1044E+00
    -11.424  0.2641E-02  0.1047E+00
    -11.322  0.2209E-02  0.1049E+00
    -11.219  0.9126E-02  0.1059E+00
    -11.116  0.1094E-01  0.1070E+00
    -11.013  0.6630E-02  0.1077E+00
    -10.911  0.6974E-02  0.1084E+00
    -10.808  0.1146E-01  0.1096E+00
    -10.705  0.2019E-01  0.1117E+00
    -10.603  0.1961E-01  0.1137E+00
    -10.500  0.1411E-01  0.1151E+00
    -10.397  0.1245E-01  0.1164E+00
    -10.294  0.2795E-01  0.1193E+00
    -10.192  0.2713E-01  0.1221E+00
    -10.089  0.1406E-01  0.1235E+00
     -9.986  0.1110E-01  0.1246E+00
     -9.884  0.1464E-01  0.1261E+00
     -9.781  0.2993E-01  0.1292E+00
     -9.678  0.2718E-01  0.1320E+00
     -9.575  0.2025E-01  0.1341E+00
     -9.473  0.2321E-01  0.1365E+00
     -9.370  0.1736E-01  0.1383E+00
     -9.267  0.1568E-01  0.1399E+00
     -9.164  0.2335E-01  0.1423E+00
     -9.062  0.2087E-01  0.1444E+00
     -8.959  0.2468E-01  0.1469E+00
     -8.856  0.2786E-01  0.1498E+00
     -8.754  0.2185E-01  0.1521E+00
     -8.651  0.2495E-01  0.1546E+00
     -8.548  0.3437E-01  0.1581E+00
     -8.445  0.2788E-01  0.1610E+00
     -8.343  0.2104E-01  0.1632E+00
     -8.240  0.2094E-01  0.1653E+00
     -8.137  0.2068E-01  0.1674E+00
     -8.035  0.2468E-01  0.1700E+00
     -7.932  0.3035E-01  0.1731E+00
     -7.829  0.4264E-01  0.1775E+00
     -7.726  0.4249E-01  0.1818E+00
     -7.624  0.4295E-01  0.1863E+00
     -7.521  0.3885E-01  0.1902E+00
     -7.418  0.2716E-01  0.1930E+00
     -7.315  0.1676E-01  0.1948E+00
     -7.213  0.1883E-01  0.1967E+00
     -7.110  0.2220E-01  0.1990E+00
     -7.007  0.1860E-01  0.2009E+00
     -6.905  0.1262E-01  0.2022E+00
     -6.802  0.1840E-01  0.2041E+00
     -6.699  0.2097E-01  0.2062E+00
     -6.596  0.2256E-01  0.2085E+00
     -6.494  0.4391E-01  0.2131E+00
     -6.391  0.6999E-01  0.2202E+00
     -6.288  0.7726E-01  0.2282E+00
     -6.186  0.5812E-01  0.2341E+00
     -6.083  0.4057E-01  0.2383E+00
     -5.980  0.2607E-01  0.2410E+00
     -5.877  0.2171E-01  0.2432E+00
     -5.775  0.2725E-01  0.2460E+00
     -5.672  0.2297E-01  0.2484E+00
     -5.569  0.2163E-01  0.2506E+00
     -5.466  0.3060E-01  0.2537E+00
     -5.364  0.2937E-01  0.2568E+00
     -5.261  0.2542E-01  0.2594E+00
     -5.158  0.3223E-01  0.2627E+00
     -5.056  0.4129E-01  0.2669E+00
     -4.953  0.4103E-01  0.2711E+00
     -4.850  0.4028E-01  0.2753E+00
     -4.747  0.4878E-01  0.2803E+00
     -4.645  0.4850E-01  0.2853E+00
     -4.542  0.3671E-01  0.2890E+00
     -4.439  0.2912E-01  0.2920E+00
     -4.337  0.1510E-01  0.2936E+00
     -4.234  0.1417E-01  0.2950E+00
     -4.131  0.1062E-01  0.2961E+00
     -4.028  0.1238E-01  0.2974E+00
     -3.926  0.1099E-01  0.2985E+00
     -3.823  0.9380E-02  0.2995E+00
     -3.720  0.4299E-02  0.2999E+00
     -3.617  0.5762E-03  0.3000E+00
     -3.515  0.1681E-04  0.3000E+00
     -3.412  0.6748E-06  0.3000E+00
     -3.309  0.7065E-04  0.3000E+00
     -3.207  0.1386E-02  0.3001E+00
     -3.104  0.6434E-02  0.3008E+00
     -3.001  0.1422E-01  0.3023E+00
     -2.898  0.1709E-01  0.3040E+00
     -2.796  0.1479E-01  0.3055E+00
     -2.693  0.2532E-01  0.3081E+00
     -2.590  0.3023E-01  0.3113E+00
     -2.488  0.1787E-01  0.3131E+00
     -2.385  0.1553E-01  0.3147E+00
     -2.282  0.1608E-01  0.3163E+00
     -2.179  0.9890E-02  0.3173E+00
     -2.077  0.5506E-02  0.3179E+00
     -1.974  0.6928E-02  0.3186E+00
     -1.871  0.6423E-02  0.3193E+00
     -1.768  0.2233E-02  0.3195E+00
     -1.666  0.1079E-02  0.3196E+00
     -1.563  0.2422E-02  0.3199E+00
     -1.460  0.1128E-02  0.3200E+00
     -1.358  0.8938E-04  0.3200E+00
     -1.255  0.2165E-03  0.3200E+00
     -1.152  0.1682E-02  0.3202E+00
     -1.049  0.2185E-02  0.3204E+00
     -0.947  0.9147E-03  0.3205E+00
     -0.844  0.3348E-02  0.3209E+00
     -0.741  0.6525E-02  0.3215E+00
     -0.639  0.4008E-02  0.3219E+00
     -0.536  0.3431E-02  0.3223E+00
     -0.433  0.8148E-02  0.3231E+00
     -0.330  0.1445E-01  0.3246E+00
     -0.228  0.1282E-01  0.3259E+00
     -0.125  0.2305E-01  0.3283E+00
     -0.022  0.3352E-01  0.3317E+00
      0.080  0.2491E-01  0.3343E+00
      0.183  0.1286E-01  0.3356E+00
      0.286  0.1302E-01  0.3370E+00
      0.389  0.1639E-01  0.3386E+00
      0.491  0.1586E-01  0.3403E+00
      0.594  0.1185E-01  0.3415E+00
      0.697  0.1487E-01  0.3430E+00
      0.800  0.1253E-01  0.3443E+00
      0.902  0.1151E-01  0.3455E+00
      1.005  0.1984E-01  0.3475E+00
      1.108  0.1822E-01  0.3494E+00
      1.210  0.1750E-01  0.3512E+00
      1.313  0.2340E-01  0.3536E+00
      1.416  0.1969E-01  0.3556E+00
      1.519  0.2120E-01  0.3578E+00
      1.621  0.2694E-01  0.3606E+00
      1.724  0.2215E-01  0.3628E+00
      1.827  0.2222E-01  0.3651E+00
      1.929  0.3226E-01  0.3684E+00
      2.032  0.2924E-01  0.3714E+00
      2.135  0.2683E-01  0.3742E+00
      2.238  0.3120E-01  0.3774E+00
      2.340  0.3992E-01  0.3815E+00
      2.443  0.3995E-01  0.3856E+00
      2.546  0.3698E-01  0.3894E+00
      2.649  0.3740E-01  0.3932E+00
      2.751  0.3708E-01  0.3971E+00
      2.854  0.3879E-01  0.4010E+00
      2.957  0.4378E-01  0.4055E+00
      3.059  0.3584E-01  0.4092E+00
      3.162  0.3300E-01  0.4126E+00
      3.265  0.4204E-01  0.4169E+00
      3.368  0.3834E-01  0.4209E+00
      3.470  0.3492E-01  0.4245E+00
      3.573  0.3878E-01  0.4284E+00
      3.676  0.4385E-01  0.4329E+00
      3.778  0.3584E-01  0.4366E+00
      3.881  0.2987E-01  0.4397E+00
      3.984  0.4197E-01  0.4440E+00
      4.087  0.5008E-01  0.4491E+00
      4.189  0.3278E-01  0.4525E+00
      4.292  0.2327E-01  0.4549E+00
      4.395  0.3917E-01  0.4589E+00
      4.498  0.5579E-01  0.4647E+00
      4.600  0.5446E-01  0.4702E+00
      4.703  0.4684E-01  0.4751E+00
      4.806  0.4125E-01  0.4793E+00
      4.908  0.5380E-01  0.4848E+00
      5.011  0.6172E-01  0.4912E+00
      5.114  0.6809E-01  0.4982E+00
      5.217  0.6493E-01  0.5048E+00
      5.319  0.6842E-01  0.5119E+00
      5.422  0.6807E-01  0.5188E+00
      5.525  0.8349E-01  0.5274E+00
      5.627  0.8554E-01  0.5362E+00
      5.730  0.5845E-01  0.5422E+00
      5.833  0.5494E-01  0.5479E+00
      5.936  0.8234E-01  0.5563E+00
      6.038  0.8490E-01  0.5650E+00
      6.141  0.7298E-01  0.5725E+00
      6.244  0.6500E-01  0.5792E+00
      6.347  0.6678E-01  0.5861E+00
      6.449  0.7395E-01  0.5937E+00
      6.552  0.7563E-01  0.6014E+00
      6.655  0.6960E-01  0.6086E+00
      6.757  0.5775E-01  0.6145E+00
      6.860  0.6800E-01  0.6215E+00
      6.963  0.6316E-01  0.6280E+00
      7.066  0.4643E-01  0.6328E+00
      7.168  0.2580E-01  0.6354E+00
      7.271  0.9888E-02  0.6364E+00
      7.374  0.9183E-02  0.6374E+00
      7.476  0.7455E-02  0.6381E+00
      7.579  0.3076E-02  0.6385E+00
      7.682  0.5084E-02  0.6390E+00
      7.785  0.6054E-02  0.6396E+00
      7.887  0.1986E-02  0.6398E+00
      7.990  0.5257E-03  0.6399E+00
      8.093  0.6497E-03  0.6399E+00
      8.196  0.5890E-03  0.6400E+00
      8.298  0.1430E-03  0.6400E+00
      8.401  0.6749E-05  0.6400E+00
      8.504  0.4896E-07  0.6400E+00
      8.606  0.4849E-10  0.6400E+00
      8.709  0.6224E-14  0.6400E+00
      8.812  0.8444E-19  0.6400E+00
      8.915  0.0000E+00  0.6400E+00
      9.017  0.0000E+00  0.6400E+00
      9.120  0.0000E+00  0.6400E+00
      9.223  0.0000E+00  0.6400E+00
      9.325  0.0000E+00  0.6400E+00
      9.428  0.0000E+00  0.6400E+00
      9.531  0.0000E+00  0.6400E+00
