<?xml version="1.0" encoding="ISO-8859-1"?>
<modeling>
 <generator>
  <i name="program" type="string">vasp </i>
  <i name="version" type="string">5.4.4.18Apr17-6-g9f103f2a35  </i>
  <i name="subversion" type="string">(build Mar 30 2023 15:39:25) complex            parallel </i>
  <i name="platform" type="string">LinuxIFC </i>
  <i name="date" type="string">2023 07 19 </i>
  <i name="time" type="string">12:39:17 </i>
 </generator>
 <incar>
  <i type="string" name="SYSTEM"> BC3</i>
  <i type="int" name="ISTART">     0</i>
  <i type="string" name="PREC">accurate</i>
  <i type="string" name="ALGO"> Normal</i>
  <i type="int" name="ISPIN">     1</i>
  <i type="int" name="ICHARG">     2</i>
  <i type="int" name="IBRION">     2</i>
  <i name="EDIFF">      0.00000100</i>
  <i name="EDIFFG">     -0.01000000</i>
  <i type="int" name="NSW">   100</i>
  <i type="int" name="ISIF">     2</i>
  <i name="ENCUT">    450.00000000</i>
  <i type="int" name="ISMEAR">     0</i>
  <i name="SIGMA">      0.10000000</i>
  <i type="logical" name="LWAVE"> F  </i>
  <i type="logical" name="LCHARG"> F  </i>
  <v type="int" name="KPOINT_BSE">    -1     0     0     0</v>
  <i type="string" name="GGA"> PE</i>
 </incar>
 <structure name="primitive_cell" >
  <crystal>
   <varray name="basis" >
    <v>       4.47648500       2.58450000       0.00000000 </v>
    <v>      -4.47648500       2.58450000       0.00000000 </v>
    <v>       0.00000000       0.00000000      15.00000000 </v>
   </varray>
   <i name="volume">    347.08426447 </i>
   <varray name="rec_basis" >
    <v>       0.11169478       0.19346102       0.00000000 </v>
    <v>      -0.11169478       0.19346102       0.00000000 </v>
    <v>       0.00000000       0.00000000       0.06666667 </v>
   </varray>
  </crystal>
  <varray name="positions" >
   <v>       0.33833034      -0.33083568       0.25000000 </v>
   <v>       0.16373946       0.31999962       0.25000000 </v>
   <v>       0.16376430      -0.15623616       0.25000000 </v>
   <v>      -0.31250150      -0.15627000       0.25000000 </v>
   <v>      -0.15373264      -0.31500406       0.25000000 </v>
   <v>       0.32250218       0.16126397       0.25000000 </v>
   <v>      -0.15376137       0.16123684       0.25000000 </v>
   <v>      -0.32834478       0.33584146       0.25000000 </v>
  </varray>
 </structure>
 <varray name="primitive_index" >
  <v type="int" >        1 </v>
  <v type="int" >        3 </v>
  <v type="int" >        5 </v>
  <v type="int" >        7 </v>
  <v type="int" >        8 </v>
  <v type="int" >        4 </v>
  <v type="int" >        6 </v>
  <v type="int" >        2 </v>
 </varray>
 <kpoints>
  <generation param="Gamma">
   <v type="int" name="divisions">      16       16        1 </v>
   <v name="usershift">      0.00000000       0.00000000       0.00000000 </v>
   <v name="genvec1">      0.06250000       0.00000000       0.00000000 </v>
   <v name="genvec2">      0.00000000       0.06250000       0.00000000 </v>
   <v name="genvec3">      0.00000000       0.00000000       1.00000000 </v>
   <v name="shift">      0.00000000       0.00000000       0.00000000 </v>
  </generation>
  <varray name="kpointlist" >
   <v>       0.00000000       0.00000000       0.00000000 </v>
   <v>       0.06250000       0.00000000       0.00000000 </v>
   <v>       0.12500000       0.00000000       0.00000000 </v>
   <v>       0.18750000       0.00000000       0.00000000 </v>
   <v>       0.25000000       0.00000000       0.00000000 </v>
   <v>       0.31250000       0.00000000       0.00000000 </v>
   <v>       0.37500000       0.00000000       0.00000000 </v>
   <v>       0.43750000       0.00000000       0.00000000 </v>
   <v>       0.50000000       0.00000000       0.00000000 </v>
   <v>       0.00000000       0.06250000       0.00000000 </v>
   <v>       0.06250000       0.06250000       0.00000000 </v>
   <v>       0.12500000       0.06250000       0.00000000 </v>
   <v>       0.18750000       0.06250000       0.00000000 </v>
   <v>       0.25000000       0.06250000       0.00000000 </v>
   <v>       0.31250000       0.06250000       0.00000000 </v>
   <v>       0.37500000       0.06250000       0.00000000 </v>
   <v>       0.43750000       0.06250000       0.00000000 </v>
   <v>       0.50000000       0.06250000       0.00000000 </v>
   <v>      -0.43750000       0.06250000       0.00000000 </v>
   <v>      -0.37500000       0.06250000       0.00000000 </v>
   <v>      -0.31250000       0.06250000       0.00000000 </v>
   <v>      -0.25000000       0.06250000       0.00000000 </v>
   <v>      -0.18750000       0.06250000       0.00000000 </v>
   <v>      -0.12500000       0.06250000       0.00000000 </v>
   <v>      -0.06250000       0.06250000       0.00000000 </v>
   <v>       0.00000000       0.12500000       0.00000000 </v>
   <v>       0.06250000       0.12500000       0.00000000 </v>
   <v>       0.12500000       0.12500000       0.00000000 </v>
   <v>       0.18750000       0.12500000       0.00000000 </v>
   <v>       0.25000000       0.12500000       0.00000000 </v>
   <v>       0.31250000       0.12500000       0.00000000 </v>
   <v>       0.37500000       0.12500000       0.00000000 </v>
   <v>       0.43750000       0.12500000       0.00000000 </v>
   <v>       0.50000000       0.12500000       0.00000000 </v>
   <v>      -0.43750000       0.12500000       0.00000000 </v>
   <v>      -0.37500000       0.12500000       0.00000000 </v>
   <v>      -0.31250000       0.12500000       0.00000000 </v>
   <v>      -0.25000000       0.12500000       0.00000000 </v>
   <v>      -0.18750000       0.12500000       0.00000000 </v>
   <v>      -0.12500000       0.12500000       0.00000000 </v>
   <v>      -0.06250000       0.12500000       0.00000000 </v>
   <v>       0.00000000       0.18750000       0.00000000 </v>
   <v>       0.06250000       0.18750000       0.00000000 </v>
   <v>       0.12500000       0.18750000       0.00000000 </v>
   <v>       0.18750000       0.18750000       0.00000000 </v>
   <v>       0.25000000       0.18750000       0.00000000 </v>
   <v>       0.31250000       0.18750000       0.00000000 </v>
   <v>       0.37500000       0.18750000       0.00000000 </v>
   <v>       0.43750000       0.18750000       0.00000000 </v>
   <v>       0.50000000       0.18750000       0.00000000 </v>
   <v>      -0.43750000       0.18750000       0.00000000 </v>
   <v>      -0.37500000       0.18750000       0.00000000 </v>
   <v>      -0.31250000       0.18750000       0.00000000 </v>
   <v>      -0.25000000       0.18750000       0.00000000 </v>
   <v>      -0.18750000       0.18750000       0.00000000 </v>
   <v>      -0.12500000       0.18750000       0.00000000 </v>
   <v>      -0.06250000       0.18750000       0.00000000 </v>
   <v>       0.00000000       0.25000000       0.00000000 </v>
   <v>       0.06250000       0.25000000       0.00000000 </v>
   <v>       0.12500000       0.25000000       0.00000000 </v>
   <v>       0.18750000       0.25000000       0.00000000 </v>
   <v>       0.25000000       0.25000000       0.00000000 </v>
   <v>       0.31250000       0.25000000       0.00000000 </v>
   <v>       0.37500000       0.25000000       0.00000000 </v>
   <v>       0.43750000       0.25000000       0.00000000 </v>
   <v>       0.50000000       0.25000000       0.00000000 </v>
   <v>      -0.43750000       0.25000000       0.00000000 </v>
   <v>      -0.37500000       0.25000000       0.00000000 </v>
   <v>      -0.31250000       0.25000000       0.00000000 </v>
   <v>      -0.25000000       0.25000000       0.00000000 </v>
   <v>      -0.18750000       0.25000000       0.00000000 </v>
   <v>      -0.12500000       0.25000000       0.00000000 </v>
   <v>      -0.06250000       0.25000000       0.00000000 </v>
   <v>       0.00000000       0.31250000       0.00000000 </v>
   <v>       0.06250000       0.31250000       0.00000000 </v>
   <v>       0.12500000       0.31250000       0.00000000 </v>
   <v>       0.18750000       0.31250000       0.00000000 </v>
   <v>       0.25000000       0.31250000       0.00000000 </v>
   <v>       0.31250000       0.31250000       0.00000000 </v>
   <v>       0.37500000       0.31250000       0.00000000 </v>
   <v>       0.43750000       0.31250000       0.00000000 </v>
   <v>       0.50000000       0.31250000       0.00000000 </v>
   <v>      -0.43750000       0.31250000       0.00000000 </v>
   <v>      -0.37500000       0.31250000       0.00000000 </v>
   <v>      -0.31250000       0.31250000       0.00000000 </v>
   <v>      -0.25000000       0.31250000       0.00000000 </v>
   <v>      -0.18750000       0.31250000       0.00000000 </v>
   <v>      -0.12500000       0.31250000       0.00000000 </v>
   <v>      -0.06250000       0.31250000       0.00000000 </v>
   <v>       0.00000000       0.37500000       0.00000000 </v>
   <v>       0.06250000       0.37500000       0.00000000 </v>
   <v>       0.12500000       0.37500000       0.00000000 </v>
   <v>       0.18750000       0.37500000       0.00000000 </v>
   <v>       0.25000000       0.37500000       0.00000000 </v>
   <v>       0.31250000       0.37500000       0.00000000 </v>
   <v>       0.37500000       0.37500000       0.00000000 </v>
   <v>       0.43750000       0.37500000       0.00000000 </v>
   <v>       0.50000000       0.37500000       0.00000000 </v>
   <v>      -0.43750000       0.37500000       0.00000000 </v>
   <v>      -0.37500000       0.37500000       0.00000000 </v>
   <v>      -0.31250000       0.37500000       0.00000000 </v>
   <v>      -0.25000000       0.37500000       0.00000000 </v>
   <v>      -0.18750000       0.37500000       0.00000000 </v>
   <v>      -0.12500000       0.37500000       0.00000000 </v>
   <v>      -0.06250000       0.37500000       0.00000000 </v>
   <v>       0.00000000       0.43750000       0.00000000 </v>
   <v>       0.06250000       0.43750000       0.00000000 </v>
   <v>       0.12500000       0.43750000       0.00000000 </v>
   <v>       0.18750000       0.43750000       0.00000000 </v>
   <v>       0.25000000       0.43750000       0.00000000 </v>
   <v>       0.31250000       0.43750000       0.00000000 </v>
   <v>       0.37500000       0.43750000       0.00000000 </v>
   <v>       0.43750000       0.43750000       0.00000000 </v>
   <v>       0.50000000       0.43750000       0.00000000 </v>
   <v>      -0.43750000       0.43750000       0.00000000 </v>
   <v>      -0.37500000       0.43750000       0.00000000 </v>
   <v>      -0.31250000       0.43750000       0.00000000 </v>
   <v>      -0.25000000       0.43750000       0.00000000 </v>
   <v>      -0.18750000       0.43750000       0.00000000 </v>
   <v>      -0.12500000       0.43750000       0.00000000 </v>
   <v>      -0.06250000       0.43750000       0.00000000 </v>
   <v>       0.00000000       0.50000000       0.00000000 </v>
   <v>       0.06250000       0.50000000       0.00000000 </v>
   <v>       0.12500000       0.50000000       0.00000000 </v>
   <v>       0.18750000       0.50000000       0.00000000 </v>
   <v>       0.25000000       0.50000000       0.00000000 </v>
   <v>       0.31250000       0.50000000       0.00000000 </v>
   <v>       0.37500000       0.50000000       0.00000000 </v>
   <v>       0.43750000       0.50000000       0.00000000 </v>
   <v>       0.50000000       0.50000000       0.00000000 </v>
  </varray>
  <varray name="weights" >
   <v>       0.00390625 </v>
   <v>       0.00781250 </v>
   <v>       0.00781250 </v>
   <v>       0.00781250 </v>
   <v>       0.00781250 </v>
   <v>       0.00781250 </v>
   <v>       0.00781250 </v>
   <v>       0.00781250 </v>
   <v>       0.00390625 </v>
   <v>       0.00781250 </v>
   <v>       0.00781250 </v>
   <v>       0.00781250 </v>
   <v>       0.00781250 </v>
   <v>       0.00781250 </v>
   <v>       0.00781250 </v>
   <v>       0.00781250 </v>
   <v>       0.00781250 </v>
   <v>       0.00781250 </v>
   <v>       0.00781250 </v>
   <v>       0.00781250 </v>
   <v>       0.00781250 </v>
   <v>       0.00781250 </v>
   <v>       0.00781250 </v>
   <v>       0.00781250 </v>
   <v>       0.00781250 </v>
   <v>       0.00781250 </v>
   <v>       0.00781250 </v>
   <v>       0.00781250 </v>
   <v>       0.00781250 </v>
   <v>       0.00781250 </v>
   <v>       0.00781250 </v>
   <v>       0.00781250 </v>
   <v>       0.00781250 </v>
   <v>       0.00781250 </v>
   <v>       0.00781250 </v>
   <v>       0.00781250 </v>
   <v>       0.00781250 </v>
   <v>       0.00781250 </v>
   <v>       0.00781250 </v>
   <v>       0.00781250 </v>
   <v>       0.00781250 </v>
   <v>       0.00781250 </v>
   <v>       0.00781250 </v>
   <v>       0.00781250 </v>
   <v>       0.00781250 </v>
   <v>       0.00781250 </v>
   <v>       0.00781250 </v>
   <v>       0.00781250 </v>
   <v>       0.00781250 </v>
   <v>       0.00781250 </v>
   <v>       0.00781250 </v>
   <v>       0.00781250 </v>
   <v>       0.00781250 </v>
   <v>       0.00781250 </v>
   <v>       0.00781250 </v>
   <v>       0.00781250 </v>
   <v>       0.00781250 </v>
   <v>       0.00781250 </v>
   <v>       0.00781250 </v>
   <v>       0.00781250 </v>
   <v>       0.00781250 </v>
   <v>       0.00781250 </v>
   <v>       0.00781250 </v>
   <v>       0.00781250 </v>
   <v>       0.00781250 </v>
   <v>       0.00781250 </v>
   <v>       0.00781250 </v>
   <v>       0.00781250 </v>
   <v>       0.00781250 </v>
   <v>       0.00781250 </v>
   <v>       0.00781250 </v>
   <v>       0.00781250 </v>
   <v>       0.00781250 </v>
   <v>       0.00781250 </v>
   <v>       0.00781250 </v>
   <v>       0.00781250 </v>
   <v>       0.00781250 </v>
   <v>       0.00781250 </v>
   <v>       0.00781250 </v>
   <v>       0.00781250 </v>
   <v>       0.00781250 </v>
   <v>       0.00781250 </v>
   <v>       0.00781250 </v>
   <v>       0.00781250 </v>
   <v>       0.00781250 </v>
   <v>       0.00781250 </v>
   <v>       0.00781250 </v>
   <v>       0.00781250 </v>
   <v>       0.00781250 </v>
   <v>       0.00781250 </v>
   <v>       0.00781250 </v>
   <v>       0.00781250 </v>
   <v>       0.00781250 </v>
   <v>       0.00781250 </v>
   <v>       0.00781250 </v>
   <v>       0.00781250 </v>
   <v>       0.00781250 </v>
   <v>       0.00781250 </v>
   <v>       0.00781250 </v>
   <v>       0.00781250 </v>
   <v>       0.00781250 </v>
   <v>       0.00781250 </v>
   <v>       0.00781250 </v>
   <v>       0.00781250 </v>
   <v>       0.00781250 </v>
   <v>       0.00781250 </v>
   <v>       0.00781250 </v>
   <v>       0.00781250 </v>
   <v>       0.00781250 </v>
   <v>       0.00781250 </v>
   <v>       0.00781250 </v>
   <v>       0.00781250 </v>
   <v>       0.00781250 </v>
   <v>       0.00781250 </v>
   <v>       0.00781250 </v>
   <v>       0.00781250 </v>
   <v>       0.00781250 </v>
   <v>       0.00781250 </v>
   <v>       0.00781250 </v>
   <v>       0.00781250 </v>
   <v>       0.00781250 </v>
   <v>       0.00390625 </v>
   <v>       0.00781250 </v>
   <v>       0.00781250 </v>
   <v>       0.00781250 </v>
   <v>       0.00781250 </v>
   <v>       0.00781250 </v>
   <v>       0.00781250 </v>
   <v>       0.00781250 </v>
   <v>       0.00390625 </v>
  </varray>
 </kpoints>
 <parameters>
  <separator name="general" >
   <i type="string" name="SYSTEM">BC3</i>
   <i type="logical" name="LCOMPAT"> F  </i>
  </separator>
  <separator name="electronic" >
   <i type="string" name="PREC">accura</i>
   <i name="ENMAX">    450.00000000</i>
   <i name="ENAUG">    644.87300000</i>
   <i name="EDIFF">      0.00000100</i>
   <i type="int" name="IALGO">    38</i>
   <i type="int" name="IWAVPR">    11</i>
   <i type="int" name="NBANDS">    32</i>
   <i name="NELECT">     30.00000000</i>
   <i type="int" name="TURBO">     0</i>
   <i type="int" name="IRESTART">     0</i>
   <i type="int" name="NREBOOT">     0</i>
   <i type="int" name="NMIN">     0</i>
   <i name="EREF">      0.00000000</i>
   <separator name="electronic smearing" >
    <i type="int" name="ISMEAR">     0</i>
    <i name="SIGMA">      0.10000000</i>
    <i name="KSPACING">      0.50000000</i>
    <i type="logical" name="KGAMMA"> T  </i>
   </separator>
   <separator name="electronic projectors" >
    <i type="logical" name="LREAL"> F  </i>
    <v name="ROPT">      0.00000000      0.00000000</v>
    <i type="int" name="LMAXPAW">  -100</i>
    <i type="int" name="LMAXMIX">     2</i>
    <i type="logical" name="NLSPLINE"> F  </i>
   </separator>
   <separator name="electronic startup" >
    <i type="int" name="ISTART">     0</i>
    <i type="int" name="ICHARG">     2</i>
    <i type="int" name="INIWAV">     1</i>
   </separator>
   <separator name="electronic spin" >
    <i type="int" name="ISPIN">     1</i>
    <i type="logical" name="LNONCOLLINEAR"> F  </i>
    <v name="MAGMOM">      1.00000000      1.00000000      1.00000000      1.00000000      1.00000000      1.00000000      1.00000000      1.00000000</v>
    <i name="NUPDOWN">     -1.00000000</i>
    <i type="logical" name="LSORBIT"> F  </i>
    <v name="SAXIS">      0.00000000      0.00000000      1.00000000</v>
    <i type="logical" name="LSPIRAL"> F  </i>
    <v name="QSPIRAL">      0.00000000      0.00000000      0.00000000</v>
    <i type="logical" name="LZEROZ"> F  </i>
   </separator>
   <separator name="electronic exchange-correlation" >
    <i type="logical" name="LASPH"> F  </i>
    <i type="logical" name="LMETAGGA"> F  </i>
   </separator>
   <separator name="electronic convergence" >
    <i type="int" name="NELM">    60</i>
    <i type="int" name="NELMDL">    -5</i>
    <i type="int" name="NELMIN">     2</i>
    <i name="ENINI">    450.00000000</i>
    <separator name="electronic convergence detail" >
     <i type="logical" name="LDIAG"> T  </i>
     <i type="logical" name="LSUBROT"> F  </i>
     <i name="WEIMIN">      0.00100000</i>
     <i name="EBREAK">      0.00000001</i>
     <i name="DEPER">      0.30000000</i>
     <i type="int" name="NRMM">     4</i>
     <i name="TIME">      0.40000000</i>
    </separator>
   </separator>
   <separator name="electronic mixer" >
    <i name="AMIX">      0.40000000</i>
    <i name="BMIX">      1.00000000</i>
    <i name="AMIN">      0.10000000</i>
    <i name="AMIX_MAG">      1.60000000</i>
    <i name="BMIX_MAG">      1.00000000</i>
    <separator name="electronic mixer details" >
     <i type="int" name="IMIX">     4</i>
     <i type="logical" name="MIXFIRST"> F  </i>
     <i type="int" name="MAXMIX">   -45</i>
     <i name="WC">    100.00000000</i>
     <i type="int" name="INIMIX">     1</i>
     <i type="int" name="MIXPRE">     1</i>
     <i type="int" name="MREMOVE">     5</i>
    </separator>
   </separator>
   <separator name="electronic dipolcorrection" >
    <i type="logical" name="LDIPOL"> F  </i>
    <i type="logical" name="LMONO"> F  </i>
    <i type="int" name="IDIPOL">     0</i>
    <i name="EPSILON">      1.00000000</i>
    <v name="DIPOL">   -100.00000000   -100.00000000   -100.00000000</v>
    <i name="EFIELD">      0.00000000</i>
   </separator>
  </separator>
  <separator name="grids" >
   <i type="int" name="NGX">    36</i>
   <i type="int" name="NGY">    36</i>
   <i type="int" name="NGZ">   108</i>
   <i type="int" name="NGXF">    72</i>
   <i type="int" name="NGYF">    72</i>
   <i type="int" name="NGZF">   216</i>
   <i type="logical" name="ADDGRID"> F  </i>
  </separator>
  <separator name="ionic" >
   <i type="int" name="NSW">   100</i>
   <i type="int" name="IBRION">     2</i>
   <i type="int" name="MDALGO">     0</i>
   <i type="int" name="ISIF">     2</i>
   <i name="PSTRESS">      0.00000000</i>
   <i name="EDIFFG">     -0.01000000</i>
   <i type="int" name="NFREE">     1</i>
   <i name="POTIM">      0.50000000</i>
   <i name="SMASS">     -3.00000000</i>
   <i name="SCALEE">      1.00000000</i>
  </separator>
  <separator name="ionic md" >
   <i name="TEBEG">      0.00010000</i>
   <i name="TEEND">      0.00010000</i>
   <i type="int" name="NBLOCK">     1</i>
   <i type="int" name="KBLOCK">   100</i>
   <i type="int" name="NPACO">   256</i>
   <i name="APACO">     16.00000000</i>
  </separator>
  <separator name="symmetry" >
   <i type="int" name="ISYM">     2</i>
   <i name="SYMPREC">      0.00001000</i>
  </separator>
  <separator name="dos" >
   <i type="int" name="LORBIT">     0</i>
   <v name="RWIGS">     -1.00000000     -1.00000000</v>
   <i type="int" name="NEDOS">   301</i>
   <i name="EMIN">     10.00000000</i>
   <i name="EMAX">    -10.00000000</i>
   <i name="EFERMI">      0.00000000</i>
  </separator>
  <separator name="writing" >
   <i type="int" name="NWRITE">     2</i>
   <i type="logical" name="LWAVE"> F  </i>
   <i type="logical" name="LDOWNSAMPLE"> F  </i>
   <i type="logical" name="LCHARG"> F  </i>
   <i type="logical" name="LPARD"> F  </i>
   <i type="logical" name="LVTOT"> F  </i>
   <i type="logical" name="LVHAR"> F  </i>
   <i type="logical" name="LELF"> F  </i>
   <i type="logical" name="LOPTICS"> F  </i>
   <v name="STM">      0.00000000      0.00000000      0.00000000      0.00000000      0.00000000      0.00000000      0.00000000</v>
  </separator>
  <separator name="performance" >
   <i type="int" name="NPAR">    16</i>
   <i type="int" name="NSIM">     4</i>
   <i type="int" name="NBLK">    -1</i>
   <i type="logical" name="LPLANE"> T  </i>
   <i type="logical" name="LSCALAPACK"> T  </i>
   <i type="logical" name="LSCAAWARE"> F  </i>
   <i type="logical" name="LSCALU"> F  </i>
   <i type="logical" name="LASYNC"> F  </i>
   <i type="logical" name="LORBITALREAL"> F  </i>
  </separator>
  <separator name="miscellaneous" >
   <i type="int" name="IDIOT">     3</i>
   <i type="int" name="ISPECIAL">     0</i>
   <i type="logical" name="LMUSIC"> F  </i>
   <v name="POMASS">     10.81100000     12.01100000</v>
   <v name="DARWINR">      0.00000000      0.00000000</v>
   <v name="DARWINV">      1.00000000      1.00000000</v>
   <i type="logical" name="LCORR"> T  </i>
  </separator>
  <i type="logical" name="GGA_COMPAT"> T  </i>
  <i type="logical" name="LBERRY"> F  </i>
  <i type="int" name="ICORELEVEL">     0</i>
  <i type="logical" name="LDAU"> F  </i>
  <i type="int" name="I_CONSTRAINED_M">     0</i>
  <separator name="electronic exchange-correlation" >
   <i type="string" name="GGA">PE</i>
   <i type="int" name="VOSKOWN">     0</i>
   <i type="logical" name="LHFCALC"> F  </i>
   <i type="string" name="PRECFOCK"></i>
   <i type="logical" name="LSYMGRAD"> F  </i>
   <i type="logical" name="LHFONE"> F  </i>
   <i type="logical" name="LRHFCALC"> F  </i>
   <i type="logical" name="LTHOMAS"> F  </i>
   <i type="logical" name="LMODELHF"> F  </i>
   <i name="ENCUT4O">     -1.00000000</i>
   <i type="int" name="EXXOEP">     0</i>
   <i type="int" name="FOURORBIT">     0</i>
   <i name="AEXX">      0.00000000</i>
   <i name="HFALPHA">      0.00000000</i>
   <i name="MCALPHA">      0.00000000</i>
   <i name="ALDAX">      1.00000000</i>
   <i name="AGGAX">      1.00000000</i>
   <i name="ALDAC">      1.00000000</i>
   <i name="AGGAC">      1.00000000</i>
   <i type="int" name="NKREDX">     1</i>
   <i type="int" name="NKREDY">     1</i>
   <i type="int" name="NKREDZ">     1</i>
   <i type="logical" name="SHIFTRED"> F  </i>
   <i type="logical" name="ODDONLY"> F  </i>
   <i type="logical" name="EVENONLY"> F  </i>
   <i type="int" name="LMAXFOCK">     0</i>
   <i type="int" name="NMAXFOCKAE">     0</i>
   <i type="logical" name="LFOCKAEDFT"> F  </i>
   <i name="HFSCREEN">      0.00000000</i>
   <i name="HFSCREENC">      0.00000000</i>
   <i type="int" name="NBANDSGWLOW">     0</i>
  </separator>
  <separator name="vdW DFT" >
   <i type="logical" name="LUSE_VDW"> F  </i>
   <i name="Zab_VDW">     -0.84910000</i>
   <i name="PARAM1">      0.12340000</i>
   <i name="PARAM2">      1.00000000</i>
   <i name="PARAM3">      0.00000000</i>
  </separator>
  <separator name="model GW" >
   <i type="int" name="MODEL_GW">     0</i>
   <i name="MODEL_EPS0">     26.03131984</i>
   <i name="MODEL_ALPHA">      1.00000000</i>
  </separator>
  <separator name="linear response parameters" >
   <i type="logical" name="LEPSILON"> F  </i>
   <i type="logical" name="LRPA"> F  </i>
   <i type="logical" name="LNABLA"> F  </i>
   <i type="logical" name="LVEL"> F  </i>
   <i type="int" name="KINTER">     0</i>
   <i name="CSHIFT">      0.10000000</i>
   <i name="OMEGAMAX">     -1.00000000</i>
   <i name="DEG_THRESHOLD">      0.00200000</i>
   <i name="RTIME">     -0.10000000</i>
   <i name="WPLASMAI">      0.00000000</i>
   <v name="DFIELD">      0.00000000      0.00000000      0.00000000</v>
   <v name="WPLASMA">      0.00000000      0.00000000      0.00000000      0.00000000      0.00000000      0.00000000      0.00000000      0.00000000      0.00000000</v>
  </separator>
  <separator name="orbital magnetization" >
   <i type="logical" name="NUCIND"> F  </i>
   <v name="MAGPOS">      0.00000000      0.00000000      0.00000000</v>
   <i type="logical" name="LNICSALL"> T  </i>
   <i type="logical" name="ORBITALMAG"> F  </i>
   <i type="logical" name="LMAGBLOCH"> F  </i>
   <i type="logical" name="LCHIMAG"> F  </i>
   <i type="logical" name="LGAUGE"> T  </i>
   <i type="int" name="MAGATOM">     0</i>
   <v name="MAGDIPOL">      0.00000000      0.00000000      0.00000000</v>
   <v name="AVECCONST">      0.00000000      0.00000000      0.00000000</v>
  </separator>
  <separator name="response functions" >
   <i type="logical" name="LADDER"> F  </i>
   <i type="logical" name="LRPAFORCE"> F  </i>
   <i type="logical" name="LFXC"> F  </i>
   <i type="logical" name="LHARTREE"> T  </i>
   <i type="int" name="IBSE">     0</i>
   <v type="int" name="KPOINT">    -1     0     0     0</v>
   <i type="logical" name="LTCTE"> F  </i>
   <i type="logical" name="LTETE"> F  </i>
   <i type="logical" name="LTRIPLET"> F  </i>
   <i type="logical" name="LFXCEPS"> F  </i>
   <i type="logical" name="LFXHEG"> F  </i>
   <i type="int" name="NATURALO">     2</i>
   <i type="logical" name="L2ORDER"> F  </i>
   <i type="logical" name="LMP2LT"> F  </i>
   <i type="logical" name="LUSEW"> F  </i>
   <i name="ENCUTGW">     -2.00000000</i>
   <i name="ENCUTGWSOFT">     -2.00000000</i>
   <i name="ENCUTLF">     -1.00000000</i>
   <i type="int" name="LMAXMP2">    -1</i>
   <i name="SCISSOR">      0.00000000</i>
   <i type="int" name="NOMEGA">     0</i>
   <i type="int" name="NOMEGAR">     0</i>
   <i type="int" name="NBANDSGW">    -1</i>
   <i type="int" name="NBANDSO">    -1</i>
   <i type="int" name="NBANDSV">    -1</i>
   <i type="int" name="NELM">     1</i>
   <i type="int" name="NELMHF">     1</i>
   <i type="int" name="DIM">     3</i>
   <i type="int" name="ANTIRES">     0</i>
   <i name="OMEGAMAX">    -30.00000000</i>
   <i name="OMEGAMIN">    -30.00000000</i>
   <i name="OMEGATL">   -200.00000000</i>
   <i type="int" name="OMEGAGRID">   140</i>
   <i name="CSHIFT">     -0.10000000</i>
   <i type="logical" name="SELFENERGY"> F  </i>
   <i type="logical" name="LSPECTRAL"> F  </i>
   <i type="logical" name="LSPECTRALGW"> F  </i>
   <i type="logical" name="LSINGLES"> F  </i>
   <i type="logical" name="LFERMIGW"> F  </i>
   <i type="logical" name="ODDONLYGW"> F  </i>
   <i type="logical" name="EVENONLYGW"> F  </i>
   <i type="int" name="NKREDLFX">     1</i>
   <i type="int" name="NKREDLFY">     1</i>
   <i type="int" name="NKREDLFZ">     1</i>
   <i type="int" name="MAXMEM">  2800</i>
   <i type="int" name="TELESCOPE">     0</i>
   <i type="int" name="TAUPAR">     1</i>
   <i type="int" name="OMEGAPAR">    -1</i>
   <i name="LAMBDA">      1.00000000</i>
  </separator>
  <separator name="External order field" >
   <i name="OFIELD_KAPPA">      0.00000000</i>
   <v name="OFIELD_K">      0.00000000      0.00000000      0.00000000</v>
   <i name="OFIELD_Q6_NEAR">      0.00000000</i>
   <i name="OFIELD_Q6_FAR">      0.00000000</i>
   <i name="OFIELD_A">      0.00000000</i>
  </separator>
 </parameters>
 <atominfo>
  <atoms>       8 </atoms>
  <types>       2 </types>
  <array name="atoms" >
   <dimension dim="1">ion</dimension>
   <field type="string">element</field>
   <field type="int">atomtype</field>
   <set>
    <rc><c>B </c><c>   1</c></rc>
    <rc><c>B </c><c>   1</c></rc>
    <rc><c>C </c><c>   2</c></rc>
    <rc><c>C </c><c>   2</c></rc>
    <rc><c>C </c><c>   2</c></rc>
    <rc><c>C </c><c>   2</c></rc>
    <rc><c>C </c><c>   2</c></rc>
    <rc><c>C </c><c>   2</c></rc>
   </set>
  </array>
  <array name="atomtypes" >
   <dimension dim="1">type</dimension>
   <field type="int">atomspertype</field>
   <field type="string">element</field>
   <field>mass</field>
   <field>valence</field>
   <field type="string">pseudopotential</field>
   <set>
    <rc><c>   2</c><c>B </c><c>     10.81100000</c><c>      3.00000000</c><c>  PAW_PBE B 06Sep2000                   </c></rc>
    <rc><c>   6</c><c>C </c><c>     12.01100000</c><c>      4.00000000</c><c>  PAW_PBE C 08Apr2002                   </c></rc>
   </set>
  </array>
 </atominfo>
 <structure name="initialpos" >
  <crystal>
   <varray name="basis" >
    <v>       4.47648500       2.58450000       0.00000000 </v>
    <v>      -4.47648500       2.58450000       0.00000000 </v>
    <v>       0.00000000       0.00000000      15.00000000 </v>
   </varray>
   <i name="volume">    347.08426447 </i>
   <varray name="rec_basis" >
    <v>       0.11169478       0.19346102       0.00000000 </v>
    <v>      -0.11169478       0.19346102       0.00000000 </v>
    <v>       0.00000000       0.00000000       0.06666667 </v>
   </varray>
  </crystal>
  <varray name="positions" >
   <v>       0.33833034       0.66916432       0.25000000 </v>
   <v>       0.67165522       0.33584146       0.25000000 </v>
   <v>       0.16373946       0.31999962       0.25000000 </v>
   <v>       0.32250218       0.16126397       0.25000000 </v>
   <v>       0.16376430       0.84376384       0.25000000 </v>
   <v>       0.84623863       0.16123684       0.25000000 </v>
   <v>       0.68749850       0.84373000       0.25000000 </v>
   <v>       0.84626736       0.68499594       0.25000000 </v>
  </varray>
 </structure>
 <calculation>
  <scstep>
   <time name="dav">    9.17    9.18</time>
   <time name="total">    9.23    9.25</time>
   <energy>
    <i name="alphaZ">     14.61461864 </i>
    <i name="ewald">   2603.47533640 </i>
    <i name="hartreedc">  -3361.43975615 </i>
    <i name="XCdc">     91.18491800 </i>
    <i name="pawpsdc">    738.13200929 </i>
    <i name="pawaedc">   -739.83780425 </i>
    <i name="eentropy">     -0.01585113 </i>
    <i name="bandstr">   -190.25984488 </i>
    <i name="atom">   1025.20389953 </i>
    <i name="e_fr_energy">    181.05752544 </i>
    <i name="e_wo_entrp">    181.07337658 </i>
    <i name="e_0_energy">    181.06545101 </i>
   </energy>
  </scstep>
  <scstep>
   <time name="dav">   13.40   13.42</time>
   <time name="total">   13.40   13.42</time>
   <energy>
    <i name="e_fr_energy">    -50.29381137 </i>
    <i name="e_wo_entrp">    -50.29380126 </i>
    <i name="e_0_energy">    -50.29380631 </i>
   </energy>
  </scstep>
  <scstep>
   <time name="dav">   12.01   12.03</time>
   <time name="total">   12.01   12.03</time>
   <energy>
    <i name="e_fr_energy">    -72.92761425 </i>
    <i name="e_wo_entrp">    -72.92761425 </i>
    <i name="e_0_energy">    -72.92761425 </i>
   </energy>
  </scstep>
  <scstep>
   <time name="dav">   11.70   11.72</time>
   <time name="total">   11.70   11.73</time>
   <energy>
    <i name="e_fr_energy">    -73.46963916 </i>
    <i name="e_wo_entrp">    -73.46963916 </i>
    <i name="e_0_energy">    -73.46963916 </i>
   </energy>
  </scstep>
  <scstep>
   <time name="dav">   11.27   11.27</time>
   <time name="total">   11.67   11.68</time>
   <energy>
    <i name="e_fr_energy">    -73.48146309 </i>
    <i name="e_wo_entrp">    -73.48146309 </i>
    <i name="e_0_energy">    -73.48146309 </i>
   </energy>
  </scstep>
  <scstep>
   <time name="dav">   12.15   12.16</time>
   <time name="total">   12.60   12.62</time>
   <energy>
    <i name="e_fr_energy">    -68.97508073 </i>
    <i name="e_wo_entrp">    -68.97508073 </i>
    <i name="e_0_energy">    -68.97508073 </i>
   </energy>
  </scstep>
  <scstep>
   <time name="dav">   12.23   12.24</time>
   <time name="total">   12.68   12.69</time>
   <energy>
    <i name="e_fr_energy">    -67.33116364 </i>
    <i name="e_wo_entrp">    -67.33116363 </i>
    <i name="e_0_energy">    -67.33116363 </i>
   </energy>
  </scstep>
  <scstep>
   <time name="dav">   11.56   11.58</time>
   <time name="total">   12.01   12.04</time>
   <energy>
    <i name="e_fr_energy">    -67.25180308 </i>
    <i name="e_wo_entrp">    -67.25180307 </i>
    <i name="e_0_energy">    -67.25180307 </i>
   </energy>
  </scstep>
  <scstep>
   <time name="dav">   10.88   10.90</time>
   <time name="total">   11.34   11.35</time>
   <energy>
    <i name="e_fr_energy">    -67.23694256 </i>
    <i name="e_wo_entrp">    -67.23694254 </i>
    <i name="e_0_energy">    -67.23694255 </i>
   </energy>
  </scstep>
  <scstep>
   <time name="dav">   11.35   11.36</time>
   <time name="total">   11.81   11.81</time>
   <energy>
    <i name="e_fr_energy">    -67.22588312 </i>
    <i name="e_wo_entrp">    -67.22588308 </i>
    <i name="e_0_energy">    -67.22588310 </i>
   </energy>
  </scstep>
  <scstep>
   <time name="dav">   11.41   11.42</time>
   <time name="total">   11.87   11.88</time>
   <energy>
    <i name="e_fr_energy">    -67.22520524 </i>
    <i name="e_wo_entrp">    -67.22520518 </i>
    <i name="e_0_energy">    -67.22520521 </i>
   </energy>
  </scstep>
  <scstep>
   <time name="dav">    9.83    9.83</time>
   <time name="total">   10.28   10.29</time>
   <energy>
    <i name="e_fr_energy">    -67.22315604 </i>
    <i name="e_wo_entrp">    -67.22315598 </i>
    <i name="e_0_energy">    -67.22315601 </i>
   </energy>
  </scstep>
  <scstep>
   <time name="dav">   10.80   10.82</time>
   <time name="total">   11.25   11.28</time>
   <energy>
    <i name="e_fr_energy">    -67.22589681 </i>
    <i name="e_wo_entrp">    -67.22589675 </i>
    <i name="e_0_energy">    -67.22589678 </i>
   </energy>
  </scstep>
  <scstep>
   <time name="dav">   11.15   11.15</time>
   <time name="total">   11.60   11.60</time>
   <energy>
    <i name="e_fr_energy">    -67.22878290 </i>
    <i name="e_wo_entrp">    -67.22878284 </i>
    <i name="e_0_energy">    -67.22878287 </i>
   </energy>
  </scstep>
  <scstep>
   <time name="dav">   11.42   11.42</time>
   <time name="total">   11.87   11.87</time>
   <energy>
    <i name="e_fr_energy">    -67.22902336 </i>
    <i name="e_wo_entrp">    -67.22902330 </i>
    <i name="e_0_energy">    -67.22902333 </i>
   </energy>
  </scstep>
  <scstep>
   <time name="dav">   10.61   10.61</time>
   <time name="total">   11.06   11.06</time>
   <energy>
    <i name="e_fr_energy">    -67.22959810 </i>
    <i name="e_wo_entrp">    -67.22959804 </i>
    <i name="e_0_energy">    -67.22959807 </i>
   </energy>
  </scstep>
  <scstep>
   <time name="dav">   10.46   10.48</time>
   <time name="total">   10.91   10.93</time>
   <energy>
    <i name="e_fr_energy">    -67.22965329 </i>
    <i name="e_wo_entrp">    -67.22965322 </i>
    <i name="e_0_energy">    -67.22965326 </i>
   </energy>
  </scstep>
  <scstep>
   <time name="dav">    9.79    9.80</time>
   <time name="total">   10.24   10.25</time>
   <energy>
    <i name="e_fr_energy">    -67.22968004 </i>
    <i name="e_wo_entrp">    -67.22967997 </i>
    <i name="e_0_energy">    -67.22968001 </i>
   </energy>
  </scstep>
  <scstep>
   <time name="dav">    9.55    9.56</time>
   <time name="total">   10.00   10.02</time>
   <energy>
    <i name="e_fr_energy">    -67.22968146 </i>
    <i name="e_wo_entrp">    -67.22968140 </i>
    <i name="e_0_energy">    -67.22968143 </i>
   </energy>
  </scstep>
  <scstep>
   <time name="dav">    8.08    8.08</time>
   <time name="total">    8.53    8.53</time>
   <energy>
    <i name="e_fr_energy">    -67.22968276 </i>
    <i name="e_wo_entrp">    -67.22968269 </i>
    <i name="e_0_energy">    -67.22968272 </i>
   </energy>
  </scstep>
  <scstep>
   <time name="dav">    8.76    8.77</time>
   <time name="total">    8.82    8.82</time>
   <energy>
    <i name="alphaZ">     14.61461864 </i>
    <i name="ewald">   2603.47533640 </i>
    <i name="hartreedc">  -3498.85850415 </i>
    <i name="XCdc">     96.07904855 </i>
    <i name="pawpsdc">   2906.45910676 </i>
    <i name="pawaedc">  -2908.99160406 </i>
    <i name="eentropy">     -0.00000006 </i>
    <i name="bandstr">   -305.21158447 </i>
    <i name="atom">   1025.20389953 </i>
    <i name="e_fr_energy">    -67.22968287 </i>
    <i name="e_wo_entrp">    -67.22968281 </i>
    <i name="e_0_energy">    -67.22968284 </i>
   </energy>
  </scstep>
  <structure>
   <crystal>
    <varray name="basis" >
     <v>       4.47648500       2.58450000       0.00000000 </v>
     <v>      -4.47648500       2.58450000       0.00000000 </v>
     <v>       0.00000000       0.00000000      15.00000000 </v>
    </varray>
    <i name="volume">    347.08426447 </i>
    <varray name="rec_basis" >
     <v>       0.11169478       0.19346102       0.00000000 </v>
     <v>      -0.11169478       0.19346102       0.00000000 </v>
     <v>       0.00000000       0.00000000       0.06666667 </v>
    </varray>
   </crystal>
   <varray name="positions" >
    <v>       0.33833034       0.66916432       0.25000000 </v>
    <v>       0.67165522       0.33584146       0.25000000 </v>
    <v>       0.16373946       0.31999962       0.25000000 </v>
    <v>       0.32250218       0.16126397       0.25000000 </v>
    <v>       0.16376430       0.84376384       0.25000000 </v>
    <v>       0.84623863       0.16123684       0.25000000 </v>
    <v>       0.68749850       0.84373000       0.25000000 </v>
    <v>       0.84626736       0.68499594       0.25000000 </v>
   </varray>
  </structure>
  <varray name="forces" >
   <v>       0.00031609       0.00043602       0.00000000 </v>
   <v>       0.00425098       0.00025212       0.00000000 </v>
   <v>      -0.00013665       0.00011665       0.00000000 </v>
   <v>      -0.00003241      -0.00083107       0.00000000 </v>
   <v>       0.00114940      -0.00037449       0.00000000 </v>
   <v>      -0.00184265      -0.00022362       0.00000000 </v>
   <v>      -0.00141762       0.00139795       0.00000000 </v>
   <v>      -0.00228714      -0.00077356       0.00000000 </v>
  </varray>
  <varray name="stress" >
   <v>      -0.78701102       0.00226790       0.00000000 </v>
   <v>       0.00226789      -0.78235707       0.00000000 </v>
   <v>       0.00000000       0.00000000      -0.86910884 </v>
  </varray>
  <energy>
   <i name="e_fr_energy">    -67.90771966 </i>
   <i name="e_wo_entrp">    -67.90771963 </i>
   <i name="e_0_energy">     -0.00000006 </i>
  </energy>
  <time name="totalsc">  244.09  244.37</time>
  <eigenvalues>
   <array>
    <dimension dim="1">band</dimension>
    <dimension dim="2">kpoint</dimension>
    <dimension dim="3">spin</dimension>
    <field>eigene</field>
    <field>occ</field>
    <set>
     <set comment="spin 1">
      <set comment="kpoint 1">
       <r>  -19.8849    1.0000 </r>
       <r>  -15.9833    1.0000 </r>
       <r>  -15.9831    1.0000 </r>
       <r>  -13.6419    1.0000 </r>
       <r>  -13.6418    1.0000 </r>
       <r>  -12.5734    1.0000 </r>
       <r>  -11.2501    1.0000 </r>
       <r>   -8.6888    1.0000 </r>
       <r>   -8.4567    1.0000 </r>
       <r>   -6.3045    1.0000 </r>
       <r>   -6.3041    1.0000 </r>
       <r>   -4.4808    1.0000 </r>
       <r>   -4.4807    1.0000 </r>
       <r>   -3.7922    1.0000 </r>
       <r>   -3.7917    1.0000 </r>
       <r>   -1.9639    0.0000 </r>
       <r>   -0.2279    0.0000 </r>
       <r>   -0.2277    0.0000 </r>
       <r>    0.4316    0.0000 </r>
       <r>    0.8396    0.0000 </r>
       <r>    1.8428    0.0000 </r>
       <r>    2.2425    0.0000 </r>
       <r>    4.2278    0.0000 </r>
       <r>    4.8425    0.0000 </r>
       <r>    5.0087    0.0000 </r>
       <r>    5.0092    0.0000 </r>
       <r>    6.2958    0.0000 </r>
       <r>    6.7700    0.0000 </r>
       <r>    6.7707    0.0000 </r>
       <r>    7.8737    0.0000 </r>
       <r>    8.0493    0.0000 </r>
       <r>    8.1301    0.0000 </r>
      </set>
      <set comment="kpoint 2">
       <r>  -19.8695    1.0000 </r>
       <r>  -16.0600    1.0000 </r>
       <r>  -16.0078    1.0000 </r>
       <r>  -13.6633    1.0000 </r>
       <r>  -13.5855    1.0000 </r>
       <r>  -12.4972    1.0000 </r>
       <r>  -11.1584    1.0000 </r>
       <r>   -8.6655    1.0000 </r>
       <r>   -8.4889    1.0000 </r>
       <r>   -6.3744    1.0000 </r>
       <r>   -6.3176    1.0000 </r>
       <r>   -4.5518    1.0000 </r>
       <r>   -4.4927    1.0000 </r>
       <r>   -3.8730    1.0000 </r>
       <r>   -3.8309    1.0000 </r>
       <r>   -2.0896    0.0000 </r>
       <r>   -0.1940    0.0000 </r>
       <r>   -0.0393    0.0000 </r>
       <r>    0.4977    0.0000 </r>
       <r>    0.8688    0.0000 </r>
       <r>    1.8745    0.0000 </r>
       <r>    2.2719    0.0000 </r>
       <r>    4.2566    0.0000 </r>
       <r>    4.8735    0.0000 </r>
       <r>    5.0506    0.0000 </r>
       <r>    5.1013    0.0000 </r>
       <r>    6.3226    0.0000 </r>
       <r>    6.7750    0.0000 </r>
       <r>    6.8601    0.0000 </r>
       <r>    7.2955    0.0000 </r>
       <r>    7.7124    0.0000 </r>
       <r>    7.7241    0.0000 </r>
      </set>
      <set comment="kpoint 3">
       <r>  -19.8242    1.0000 </r>
       <r>  -16.2638    1.0000 </r>
       <r>  -16.0736    1.0000 </r>
       <r>  -13.7309    1.0000 </r>
       <r>  -13.4256    1.0000 </r>
       <r>  -12.2732    1.0000 </r>
       <r>  -10.9025    1.0000 </r>
       <r>   -8.5961    1.0000 </r>
       <r>   -8.5891    1.0000 </r>
       <r>   -6.5763    1.0000 </r>
       <r>   -6.3468    1.0000 </r>
       <r>   -4.7547    1.0000 </r>
       <r>   -4.5256    1.0000 </r>
       <r>   -4.1087    1.0000 </r>
       <r>   -3.9438    1.0000 </r>
       <r>   -2.3454    0.0000 </r>
       <r>   -0.0972    0.0000 </r>
       <r>    0.3396    0.0000 </r>
       <r>    0.7477    0.0000 </r>
       <r>    0.9561    0.0000 </r>
       <r>    1.9707    0.0000 </r>
       <r>    2.3597    0.0000 </r>
       <r>    4.3429    0.0000 </r>
       <r>    4.9598    0.0000 </r>
       <r>    5.1620    0.0000 </r>
       <r>    5.3715    0.0000 </r>
       <r>    6.2428    0.0000 </r>
       <r>    6.6387    0.0000 </r>
       <r>    6.8863    0.0000 </r>
       <r>    7.1019    0.0000 </r>
       <r>    7.2776    0.0000 </r>
       <r>    7.4412    0.0000 </r>
      </set>
      <set comment="kpoint 4">
       <r>  -19.7510    1.0000 </r>
       <r>  -16.5405    1.0000 </r>
       <r>  -16.1620    1.0000 </r>
       <r>  -13.8331    1.0000 </r>
       <r>  -13.1840    1.0000 </r>
       <r>  -11.9305    1.0000 </r>
       <r>  -10.5208    1.0000 </r>
       <r>   -8.7641    1.0000 </r>
       <r>   -8.4816    1.0000 </r>
       <r>   -6.8885    1.0000 </r>
       <r>   -6.3664    1.0000 </r>
       <r>   -5.0604    1.0000 </r>
       <r>   -4.5732    1.0000 </r>
       <r>   -4.4802    1.0000 </r>
       <r>   -4.1167    1.0000 </r>
       <r>   -2.5979    0.0000 </r>
       <r>    0.0494    0.0000 </r>
       <r>    0.6413    0.0000 </r>
       <r>    1.1012    0.0000 </r>
       <r>    1.2698    0.0000 </r>
       <r>    2.1388    0.0000 </r>
       <r>    2.5059    0.0000 </r>
       <r>    4.4865    0.0000 </r>
       <r>    5.0915    0.0000 </r>
       <r>    5.3050    0.0000 </r>
       <r>    5.6275    0.0000 </r>
       <r>    5.7983    0.0000 </r>
       <r>    6.5321    0.0000 </r>
       <r>    6.6799    0.0000 </r>
       <r>    6.8672    0.0000 </r>
       <r>    7.0197    0.0000 </r>
       <r>    7.1421    0.0000 </r>
      </set>
      <set comment="kpoint 5">
       <r>  -19.6547    1.0000 </r>
       <r>  -16.8421    1.0000 </r>
       <r>  -16.2545    1.0000 </r>
       <r>  -13.9443    1.0000 </r>
       <r>  -12.8855    1.0000 </r>
       <r>  -11.5108    1.0000 </r>
       <r>  -10.0489    1.0000 </r>
       <r>   -9.0123    1.0000 </r>
       <r>   -8.3246    1.0000 </r>
       <r>   -7.2812    1.0000 </r>
       <r>   -6.3531    1.0000 </r>
       <r>   -5.4286    1.0000 </r>
       <r>   -4.9612    1.0000 </r>
       <r>   -4.6267    1.0000 </r>
       <r>   -4.3302    1.0000 </r>
       <r>   -2.8051    0.0000 </r>
       <r>    0.2259    0.0000 </r>
       <r>    0.9007    0.0000 </r>
       <r>    1.3035    0.0000 </r>
       <r>    1.8931    0.0000 </r>
       <r>    2.4162    0.0000 </r>
       <r>    2.7101    0.0000 </r>
       <r>    4.6858    0.0000 </r>
       <r>    4.9352    0.0000 </r>
       <r>    5.2538    0.0000 </r>
       <r>    5.4725    0.0000 </r>
       <r>    5.8369    0.0000 </r>
       <r>    6.3331    0.0000 </r>
       <r>    6.4016    0.0000 </r>
       <r>    6.6776    0.0000 </r>
       <r>    6.8069    0.0000 </r>
       <r>    6.8942    0.0000 </r>
      </set>
      <set comment="kpoint 6">
       <r>  -19.5435    1.0000 </r>
       <r>  -17.1324    1.0000 </r>
       <r>  -16.3375    1.0000 </r>
       <r>  -14.0445    1.0000 </r>
       <r>  -12.5564    1.0000 </r>
       <r>  -11.0465    1.0000 </r>
       <r>   -9.5222    1.0000 </r>
       <r>   -9.3146    1.0000 </r>
       <r>   -8.1304    1.0000 </r>
       <r>   -7.7161    1.0000 </r>
       <r>   -6.2990    1.0000 </r>
       <r>   -5.8192    1.0000 </r>
       <r>   -5.5234    1.0000 </r>
       <r>   -4.6778    1.0000 </r>
       <r>   -4.5606    1.0000 </r>
       <r>   -2.9620    0.0000 </r>
       <r>    0.4071    0.0000 </r>
       <r>    1.1495    0.0000 </r>
       <r>    1.5628    0.0000 </r>
       <r>    2.3871    0.0000 </r>
       <r>    2.9318    0.0000 </r>
       <r>    2.9722    0.0000 </r>
       <r>    4.2944    0.0000 </r>
       <r>    4.9252    0.0000 </r>
       <r>    5.2145    0.0000 </r>
       <r>    5.4035    0.0000 </r>
       <r>    5.6607    0.0000 </r>
       <r>    5.7540    0.0000 </r>
       <r>    6.5249    0.0000 </r>
       <r>    6.5791    0.0000 </r>
       <r>    6.8592    0.0000 </r>
       <r>    7.1224    0.0000 </r>
      </set>
      <set comment="kpoint 7">
       <r>  -19.4321    1.0000 </r>
       <r>  -17.3803    1.0000 </r>
       <r>  -16.4019    1.0000 </r>
       <r>  -14.1220    1.0000 </r>
       <r>  -12.2304    1.0000 </r>
       <r>  -10.5608    1.0000 </r>
       <r>   -9.6318    1.0000 </r>
       <r>   -9.0245    1.0000 </r>
       <r>   -8.1025    1.0000 </r>
       <r>   -7.9109    1.0000 </r>
       <r>   -6.2148    1.0000 </r>
       <r>   -6.1944    1.0000 </r>
       <r>   -6.1387    1.0000 </r>
       <r>   -4.7787    1.0000 </r>
       <r>   -4.7196    1.0000 </r>
       <r>   -3.0715    0.0000 </r>
       <r>    0.5658    0.0000 </r>
       <r>    1.3666    0.0000 </r>
       <r>    1.8787    0.0000 </r>
       <r>    2.7570    0.0000 </r>
       <r>    3.2921    0.0000 </r>
       <r>    3.6293    0.0000 </r>
       <r>    3.7022    0.0000 </r>
       <r>    4.6079    0.0000 </r>
       <r>    5.1461    0.0000 </r>
       <r>    5.2749    0.0000 </r>
       <r>    5.4998    0.0000 </r>
       <r>    5.9263    0.0000 </r>
       <r>    6.4079    0.0000 </r>
       <r>    6.4980    0.0000 </r>
       <r>    6.5670    0.0000 </r>
       <r>    6.8184    0.0000 </r>
      </set>
      <set comment="kpoint 8">
       <r>  -19.3446    1.0000 </r>
       <r>  -17.5528    1.0000 </r>
       <r>  -16.4424    1.0000 </r>
       <r>  -14.1704    1.0000 </r>
       <r>  -11.9649    1.0000 </r>
       <r>  -10.0860    1.0000 </r>
       <r>   -9.8969    1.0000 </r>
       <r>   -8.9674    1.0000 </r>
       <r>   -8.0125    1.0000 </r>
       <r>   -7.7000    1.0000 </r>
       <r>   -6.7779    1.0000 </r>
       <r>   -6.5043    1.0000 </r>
       <r>   -6.1305    1.0000 </r>
       <r>   -4.9461    1.0000 </r>
       <r>   -4.7467    1.0000 </r>
       <r>   -3.1363    0.0000 </r>
       <r>    0.6751    0.0000 </r>
       <r>    1.5180    0.0000 </r>
       <r>    2.2510    0.0000 </r>
       <r>    3.1326    0.0000 </r>
       <r>    3.1633    0.0000 </r>
       <r>    3.6697    0.0000 </r>
       <r>    3.9718    0.0000 </r>
       <r>    4.4948    0.0000 </r>
       <r>    4.5972    0.0000 </r>
       <r>    5.5485    0.0000 </r>
       <r>    5.6236    0.0000 </r>
       <r>    5.9381    0.0000 </r>
       <r>    6.2299    0.0000 </r>
       <r>    6.3281    0.0000 </r>
       <r>    6.4559    0.0000 </r>
       <r>    6.6248    0.0000 </r>
      </set>
      <set comment="kpoint 9">
       <r>  -19.3103    1.0000 </r>
       <r>  -17.6158    1.0000 </r>
       <r>  -16.4562    1.0000 </r>
       <r>  -14.1869    1.0000 </r>
       <r>  -11.8551    1.0000 </r>
       <r>  -10.0074    1.0000 </r>
       <r>   -9.7933    1.0000 </r>
       <r>   -9.1897    1.0000 </r>
       <r>   -7.5966    1.0000 </r>
       <r>   -7.5607    1.0000 </r>
       <r>   -7.3070    1.0000 </r>
       <r>   -6.6416    1.0000 </r>
       <r>   -6.0928    1.0000 </r>
       <r>   -5.0118    1.0000 </r>
       <r>   -4.7561    1.0000 </r>
       <r>   -3.1577    0.0000 </r>
       <r>    0.7139    0.0000 </r>
       <r>    1.5727    0.0000 </r>
       <r>    2.6775    0.0000 </r>
       <r>    2.6812    0.0000 </r>
       <r>    3.5188    0.0000 </r>
       <r>    3.5769    0.0000 </r>
       <r>    4.1029    0.0000 </r>
       <r>    4.1067    0.0000 </r>
       <r>    5.0837    0.0000 </r>
       <r>    5.3151    0.0000 </r>
       <r>    5.5634    0.0000 </r>
       <r>    5.9692    0.0000 </r>
       <r>    6.2492    0.0000 </r>
       <r>    6.3010    0.0000 </r>
       <r>    6.4221    0.0000 </r>
       <r>    6.4451    0.0000 </r>
      </set>
      <set comment="kpoint 10">
       <r>  -19.8695    1.0000 </r>
       <r>  -16.0601    1.0000 </r>
       <r>  -16.0077    1.0000 </r>
       <r>  -13.6632    1.0000 </r>
       <r>  -13.5856    1.0000 </r>
       <r>  -12.4972    1.0000 </r>
       <r>  -11.1584    1.0000 </r>
       <r>   -8.6655    1.0000 </r>
       <r>   -8.4889    1.0000 </r>
       <r>   -6.3745    1.0000 </r>
       <r>   -6.3176    1.0000 </r>
       <r>   -4.5518    1.0000 </r>
       <r>   -4.4926    1.0000 </r>
       <r>   -3.8729    1.0000 </r>
       <r>   -3.8311    1.0000 </r>
       <r>   -2.0896    0.0000 </r>
       <r>   -0.1941    0.0000 </r>
       <r>   -0.0392    0.0000 </r>
       <r>    0.4977    0.0000 </r>
       <r>    0.8688    0.0000 </r>
       <r>    1.8745    0.0000 </r>
       <r>    2.2719    0.0000 </r>
       <r>    4.2566    0.0000 </r>
       <r>    4.8735    0.0000 </r>
       <r>    5.0507    0.0000 </r>
       <r>    5.1012    0.0000 </r>
       <r>    6.3226    0.0000 </r>
       <r>    6.7749    0.0000 </r>
       <r>    6.8603    0.0000 </r>
       <r>    7.2955    0.0000 </r>
       <r>    7.7124    0.0000 </r>
       <r>    7.7241    0.0000 </r>
      </set>
      <set comment="kpoint 11">
       <r>  -19.8392    1.0000 </r>
       <r>  -16.1948    1.0000 </r>
       <r>  -16.0588    1.0000 </r>
       <r>  -13.6882    1.0000 </r>
       <r>  -13.4994    1.0000 </r>
       <r>  -12.3436    1.0000 </r>
       <r>  -10.9854    1.0000 </r>
       <r>   -8.6191    1.0000 </r>
       <r>   -8.5555    1.0000 </r>
       <r>   -6.5024    1.0000 </r>
       <r>   -6.3465    1.0000 </r>
       <r>   -4.6814    1.0000 </r>
       <r>   -4.5238    1.0000 </r>
       <r>   -4.0283    1.0000 </r>
       <r>   -3.9100    1.0000 </r>
       <r>   -2.2695    0.0000 </r>
       <r>   -0.1589    0.0000 </r>
       <r>    0.2849    0.0000 </r>
       <r>    0.6365    0.0000 </r>
       <r>    0.9271    0.0000 </r>
       <r>    1.9383    0.0000 </r>
       <r>    2.3304    0.0000 </r>
       <r>    4.3142    0.0000 </r>
       <r>    4.9340    0.0000 </r>
       <r>    5.1367    0.0000 </r>
       <r>    5.2696    0.0000 </r>
       <r>    6.3381    0.0000 </r>
       <r>    6.7748    0.0000 </r>
       <r>    6.8194    0.0000 </r>
       <r>    7.0720    0.0000 </r>
       <r>    7.1201    0.0000 </r>
       <r>    7.6428    0.0000 </r>
      </set>
      <set comment="kpoint 12">
       <r>  -19.7799    1.0000 </r>
       <r>  -16.4238    1.0000 </r>
       <r>  -16.1485    1.0000 </r>
       <r>  -13.7424    1.0000 </r>
       <r>  -13.3364    1.0000 </r>
       <r>  -12.0480    1.0000 </r>
       <r>  -10.6703    1.0000 </r>
       <r>   -8.6963    1.0000 </r>
       <r>   -8.5271    1.0000 </r>
       <r>   -6.7389    1.0000 </r>
       <r>   -6.3886    1.0000 </r>
       <r>   -4.9208    1.0000 </r>
       <r>   -4.5865    1.0000 </r>
       <r>   -4.3241    1.0000 </r>
       <r>   -4.0606    1.0000 </r>
       <r>   -2.4903    0.0000 </r>
       <r>   -0.0977    0.0000 </r>
       <r>    0.6993    0.0000 </r>
       <r>    0.9852    0.0000 </r>
       <r>    1.0432    0.0000 </r>
       <r>    2.0687    0.0000 </r>
       <r>    2.4475    0.0000 </r>
       <r>    4.4291    0.0000 </r>
       <r>    5.0492    0.0000 </r>
       <r>    5.2858    0.0000 </r>
       <r>    5.5796    0.0000 </r>
       <r>    5.9871    0.0000 </r>
       <r>    6.4218    0.0000 </r>
       <r>    6.8106    0.0000 </r>
       <r>    6.9139    0.0000 </r>
       <r>    7.0389    0.0000 </r>
       <r>    7.3781    0.0000 </r>
      </set>
      <set comment="kpoint 13">
       <r>  -19.6949    1.0000 </r>
       <r>  -16.7032    1.0000 </r>
       <r>  -16.2512    1.0000 </r>
       <r>  -13.8300    1.0000 </r>
       <r>  -13.0903    1.0000 </r>
       <r>  -11.6533    1.0000 </r>
       <r>  -10.2493    1.0000 </r>
       <r>   -8.9162    1.0000 </r>
       <r>   -8.3913    1.0000 </r>
       <r>   -7.0672    1.0000 </r>
       <r>   -6.4088    1.0000 </r>
       <r>   -5.2464    1.0000 </r>
       <r>   -4.7406    1.0000 </r>
       <r>   -4.6634    1.0000 </r>
       <r>   -4.2633    1.0000 </r>
       <r>   -2.6774    0.0000 </r>
       <r>    0.0045    0.0000 </r>
       <r>    0.9959    0.0000 </r>
       <r>    1.2170    0.0000 </r>
       <r>    1.5859    0.0000 </r>
       <r>    2.2796    0.0000 </r>
       <r>    2.6227    0.0000 </r>
       <r>    4.6007    0.0000 </r>
       <r>    5.2069    0.0000 </r>
       <r>    5.2860    0.0000 </r>
       <r>    5.4612    0.0000 </r>
       <r>    6.0233    0.0000 </r>
       <r>    6.1946    0.0000 </r>
       <r>    6.2153    0.0000 </r>
       <r>    6.7583    0.0000 </r>
       <r>    6.9193    0.0000 </r>
       <r>    7.0423    0.0000 </r>
      </set>
      <set comment="kpoint 14">
       <r>  -19.5906    1.0000 </r>
       <r>  -16.9927    1.0000 </r>
       <r>  -16.3484    1.0000 </r>
       <r>  -13.9249    1.0000 </r>
       <r>  -12.7867    1.0000 </r>
       <r>  -11.2020    1.0000 </r>
       <r>   -9.7547    1.0000 </r>
       <r>   -9.2044    1.0000 </r>
       <r>   -8.2153    1.0000 </r>
       <r>   -7.4606    1.0000 </r>
       <r>   -6.3867    1.0000 </r>
       <r>   -5.6197    1.0000 </r>
       <r>   -5.2517    1.0000 </r>
       <r>   -4.7400    1.0000 </r>
       <r>   -4.4948    1.0000 </r>
       <r>   -2.8187    0.0000 </r>
       <r>    0.1365    0.0000 </r>
       <r>    1.2696    0.0000 </r>
       <r>    1.4478    0.0000 </r>
       <r>    2.1816    0.0000 </r>
       <r>    2.6450    0.0000 </r>
       <r>    2.8559    0.0000 </r>
       <r>    4.6309    0.0000 </r>
       <r>    4.8256    0.0000 </r>
       <r>    5.3879    0.0000 </r>
       <r>    5.5302    0.0000 </r>
       <r>    5.5964    0.0000 </r>
       <r>    6.0269    0.0000 </r>
       <r>    6.0989    0.0000 </r>
       <r>    6.5750    0.0000 </r>
       <r>    6.7858    0.0000 </r>
       <r>    6.9694    0.0000 </r>
      </set>
      <set comment="kpoint 15">
       <r>  -19.4780    1.0000 </r>
       <r>  -17.2588    1.0000 </r>
       <r>  -16.4286    1.0000 </r>
       <r>  -14.0075    1.0000 </r>
       <r>  -12.4587    1.0000 </r>
       <r>  -10.7242    1.0000 </r>
       <r>   -9.5344    1.0000 </r>
       <r>   -9.2242    1.0000 </r>
       <r>   -8.0069    1.0000 </r>
       <r>   -7.8725    1.0000 </r>
       <r>   -6.3284    1.0000 </r>
       <r>   -6.0010    1.0000 </r>
       <r>   -5.8249    1.0000 </r>
       <r>   -4.8055    1.0000 </r>
       <r>   -4.7284    1.0000 </r>
       <r>   -2.9193    0.0000 </r>
       <r>    0.2742    0.0000 </r>
       <r>    1.5208    0.0000 </r>
       <r>    1.7354    0.0000 </r>
       <r>    2.6013    0.0000 </r>
       <r>    3.1469    0.0000 </r>
       <r>    3.2674    0.0000 </r>
       <r>    4.0135    0.0000 </r>
       <r>    4.8832    0.0000 </r>
       <r>    5.1486    0.0000 </r>
       <r>    5.4624    0.0000 </r>
       <r>    5.5059    0.0000 </r>
       <r>    5.7808    0.0000 </r>
       <r>    5.9453    0.0000 </r>
       <r>    6.5559    0.0000 </r>
       <r>    6.8647    0.0000 </r>
       <r>    6.9896    0.0000 </r>
      </set>
      <set comment="kpoint 16">
       <r>  -19.3761    1.0000 </r>
       <r>  -17.4689    1.0000 </r>
       <r>  -16.4851    1.0000 </r>
       <r>  -14.0669    1.0000 </r>
       <r>  -12.1524    1.0000 </r>
       <r>  -10.2536    1.0000 </r>
       <r>   -9.8349    1.0000 </r>
       <r>   -8.8486    1.0000 </r>
       <r>   -8.1117    1.0000 </r>
       <r>   -7.7859    1.0000 </r>
       <r>   -6.4871    1.0000 </r>
       <r>   -6.3478    1.0000 </r>
       <r>   -6.2004    1.0000 </r>
       <r>   -4.9310    1.0000 </r>
       <r>   -4.8528    1.0000 </r>
       <r>   -2.9846    0.0000 </r>
       <r>    0.3889    0.0000 </r>
       <r>    1.7197    0.0000 </r>
       <r>    2.0796    0.0000 </r>
       <r>    2.9662    0.0000 </r>
       <r>    3.4477    0.0000 </r>
       <r>    3.4957    0.0000 </r>
       <r>    3.9468    0.0000 </r>
       <r>    4.4057    0.0000 </r>
       <r>    4.8868    0.0000 </r>
       <r>    5.4651    0.0000 </r>
       <r>    5.5223    0.0000 </r>
       <r>    5.8638    0.0000 </r>
       <r>    6.1221    0.0000 </r>
       <r>    6.1846    0.0000 </r>
       <r>    6.5777    0.0000 </r>
       <r>    6.8934    0.0000 </r>
      </set>
      <set comment="kpoint 17">
       <r>  -19.3126    1.0000 </r>
       <r>  -17.5880    1.0000 </r>
       <r>  -16.5142    1.0000 </r>
       <r>  -14.0978    1.0000 </r>
       <r>  -11.9481    1.0000 </r>
       <r>  -10.0928    1.0000 </r>
       <r>   -9.7887    1.0000 </r>
       <r>   -9.0093    1.0000 </r>
       <r>   -7.7501    1.0000 </r>
       <r>   -7.6122    1.0000 </r>
       <r>   -7.0914    1.0000 </r>
       <r>   -6.5874    1.0000 </r>
       <r>   -6.1519    1.0000 </r>
       <r>   -5.0565    1.0000 </r>
       <r>   -4.8775    1.0000 </r>
       <r>   -3.0169    0.0000 </r>
       <r>    0.4541    0.0000 </r>
       <r>    1.8314    0.0000 </r>
       <r>    2.4799    0.0000 </r>
       <r>    2.9362    0.0000 </r>
       <r>    3.3569    0.0000 </r>
       <r>    3.7915    0.0000 </r>
       <r>    3.9021    0.0000 </r>
       <r>    4.3659    0.0000 </r>
       <r>    4.8048    0.0000 </r>
       <r>    5.5090    0.0000 </r>
       <r>    5.5276    0.0000 </r>
       <r>    5.8723    0.0000 </r>
       <r>    5.8750    0.0000 </r>
       <r>    6.3806    0.0000 </r>
       <r>    6.4231    0.0000 </r>
       <r>    6.5049    0.0000 </r>
      </set>
      <set comment="kpoint 18">
       <r>  -19.3126    1.0000 </r>
       <r>  -17.5880    1.0000 </r>
       <r>  -16.5142    1.0000 </r>
       <r>  -14.0978    1.0000 </r>
       <r>  -11.9481    1.0000 </r>
       <r>  -10.0929    1.0000 </r>
       <r>   -9.7884    1.0000 </r>
       <r>   -9.0094    1.0000 </r>
       <r>   -7.7501    1.0000 </r>
       <r>   -7.6122    1.0000 </r>
       <r>   -7.0914    1.0000 </r>
       <r>   -6.5873    1.0000 </r>
       <r>   -6.1519    1.0000 </r>
       <r>   -5.0565    1.0000 </r>
       <r>   -4.8775    1.0000 </r>
       <r>   -3.0169    0.0000 </r>
       <r>    0.4541    0.0000 </r>
       <r>    1.8314    0.0000 </r>
       <r>    2.4799    0.0000 </r>
       <r>    2.9362    0.0000 </r>
       <r>    3.3569    0.0000 </r>
       <r>    3.7915    0.0000 </r>
       <r>    3.9021    0.0000 </r>
       <r>    4.3659    0.0000 </r>
       <r>    4.8048    0.0000 </r>
       <r>    5.5090    0.0000 </r>
       <r>    5.5276    0.0000 </r>
       <r>    5.8723    0.0000 </r>
       <r>    5.8750    0.0000 </r>
       <r>    6.3805    0.0000 </r>
       <r>    6.4231    0.0000 </r>
       <r>    6.5050    0.0000 </r>
      </set>
      <set comment="kpoint 19">
       <r>  -19.3761    1.0000 </r>
       <r>  -17.4688    1.0000 </r>
       <r>  -16.4851    1.0000 </r>
       <r>  -14.0669    1.0000 </r>
       <r>  -12.1524    1.0000 </r>
       <r>  -10.2536    1.0000 </r>
       <r>   -9.8346    1.0000 </r>
       <r>   -8.8489    1.0000 </r>
       <r>   -8.1116    1.0000 </r>
       <r>   -7.7859    1.0000 </r>
       <r>   -6.4872    1.0000 </r>
       <r>   -6.3478    1.0000 </r>
       <r>   -6.2004    1.0000 </r>
       <r>   -4.9310    1.0000 </r>
       <r>   -4.8528    1.0000 </r>
       <r>   -2.9846    0.0000 </r>
       <r>    0.3889    0.0000 </r>
       <r>    1.7198    0.0000 </r>
       <r>    2.0796    0.0000 </r>
       <r>    2.9662    0.0000 </r>
       <r>    3.4477    0.0000 </r>
       <r>    3.4957    0.0000 </r>
       <r>    3.9468    0.0000 </r>
       <r>    4.4057    0.0000 </r>
       <r>    4.8868    0.0000 </r>
       <r>    5.4651    0.0000 </r>
       <r>    5.5224    0.0000 </r>
       <r>    5.8637    0.0000 </r>
       <r>    6.1221    0.0000 </r>
       <r>    6.1845    0.0000 </r>
       <r>    6.5778    0.0000 </r>
       <r>    6.8641    0.0000 </r>
      </set>
      <set comment="kpoint 20">
       <r>  -19.4780    1.0000 </r>
       <r>  -17.2587    1.0000 </r>
       <r>  -16.4287    1.0000 </r>
       <r>  -14.0075    1.0000 </r>
       <r>  -12.4588    1.0000 </r>
       <r>  -10.7241    1.0000 </r>
       <r>   -9.5341    1.0000 </r>
       <r>   -9.2244    1.0000 </r>
       <r>   -8.0069    1.0000 </r>
       <r>   -7.8724    1.0000 </r>
       <r>   -6.3284    1.0000 </r>
       <r>   -6.0010    1.0000 </r>
       <r>   -5.8248    1.0000 </r>
       <r>   -4.8055    1.0000 </r>
       <r>   -4.7284    1.0000 </r>
       <r>   -2.9193    0.0000 </r>
       <r>    0.2741    0.0000 </r>
       <r>    1.5209    0.0000 </r>
       <r>    1.7354    0.0000 </r>
       <r>    2.6013    0.0000 </r>
       <r>    3.1469    0.0000 </r>
       <r>    3.2674    0.0000 </r>
       <r>    4.0135    0.0000 </r>
       <r>    4.8832    0.0000 </r>
       <r>    5.1486    0.0000 </r>
       <r>    5.4624    0.0000 </r>
       <r>    5.5060    0.0000 </r>
       <r>    5.7808    0.0000 </r>
       <r>    5.9453    0.0000 </r>
       <r>    6.5558    0.0000 </r>
       <r>    6.8647    0.0000 </r>
       <r>    6.9897    0.0000 </r>
      </set>
      <set comment="kpoint 21">
       <r>  -19.5906    1.0000 </r>
       <r>  -16.9927    1.0000 </r>
       <r>  -16.3485    1.0000 </r>
       <r>  -13.9249    1.0000 </r>
       <r>  -12.7868    1.0000 </r>
       <r>  -11.2019    1.0000 </r>
       <r>   -9.7547    1.0000 </r>
       <r>   -9.2044    1.0000 </r>
       <r>   -8.2153    1.0000 </r>
       <r>   -7.4605    1.0000 </r>
       <r>   -6.3868    1.0000 </r>
       <r>   -5.6197    1.0000 </r>
       <r>   -5.2516    1.0000 </r>
       <r>   -4.7401    1.0000 </r>
       <r>   -4.4949    1.0000 </r>
       <r>   -2.8186    0.0000 </r>
       <r>    0.1364    0.0000 </r>
       <r>    1.2697    0.0000 </r>
       <r>    1.4478    0.0000 </r>
       <r>    2.1815    0.0000 </r>
       <r>    2.6450    0.0000 </r>
       <r>    2.8559    0.0000 </r>
       <r>    4.6309    0.0000 </r>
       <r>    4.8256    0.0000 </r>
       <r>    5.3879    0.0000 </r>
       <r>    5.5302    0.0000 </r>
       <r>    5.5963    0.0000 </r>
       <r>    6.0269    0.0000 </r>
       <r>    6.0989    0.0000 </r>
       <r>    6.5750    0.0000 </r>
       <r>    6.7858    0.0000 </r>
       <r>    6.9694    0.0000 </r>
      </set>
      <set comment="kpoint 22">
       <r>  -19.6949    1.0000 </r>
       <r>  -16.7031    1.0000 </r>
       <r>  -16.2513    1.0000 </r>
       <r>  -13.8300    1.0000 </r>
       <r>  -13.0904    1.0000 </r>
       <r>  -11.6532    1.0000 </r>
       <r>  -10.2493    1.0000 </r>
       <r>   -8.9161    1.0000 </r>
       <r>   -8.3913    1.0000 </r>
       <r>   -7.0671    1.0000 </r>
       <r>   -6.4089    1.0000 </r>
       <r>   -5.2463    1.0000 </r>
       <r>   -4.7405    1.0000 </r>
       <r>   -4.6635    1.0000 </r>
       <r>   -4.2634    1.0000 </r>
       <r>   -2.6774    0.0000 </r>
       <r>    0.0044    0.0000 </r>
       <r>    0.9960    0.0000 </r>
       <r>    1.2170    0.0000 </r>
       <r>    1.5859    0.0000 </r>
       <r>    2.2796    0.0000 </r>
       <r>    2.6227    0.0000 </r>
       <r>    4.6007    0.0000 </r>
       <r>    5.2069    0.0000 </r>
       <r>    5.2860    0.0000 </r>
       <r>    5.4612    0.0000 </r>
       <r>    6.0234    0.0000 </r>
       <r>    6.1946    0.0000 </r>
       <r>    6.2152    0.0000 </r>
       <r>    6.7583    0.0000 </r>
       <r>    6.9192    0.0000 </r>
       <r>    7.0423    0.0000 </r>
      </set>
      <set comment="kpoint 23">
       <r>  -19.7799    1.0000 </r>
       <r>  -16.4237    1.0000 </r>
       <r>  -16.1486    1.0000 </r>
       <r>  -13.7424    1.0000 </r>
       <r>  -13.3365    1.0000 </r>
       <r>  -12.0480    1.0000 </r>
       <r>  -10.6703    1.0000 </r>
       <r>   -8.6962    1.0000 </r>
       <r>   -8.5271    1.0000 </r>
       <r>   -6.7387    1.0000 </r>
       <r>   -6.3888    1.0000 </r>
       <r>   -4.9207    1.0000 </r>
       <r>   -4.5866    1.0000 </r>
       <r>   -4.3239    1.0000 </r>
       <r>   -4.0608    1.0000 </r>
       <r>   -2.4902    0.0000 </r>
       <r>   -0.0978    0.0000 </r>
       <r>    0.6994    0.0000 </r>
       <r>    0.9853    0.0000 </r>
       <r>    1.0432    0.0000 </r>
       <r>    2.0687    0.0000 </r>
       <r>    2.4475    0.0000 </r>
       <r>    4.4291    0.0000 </r>
       <r>    5.0493    0.0000 </r>
       <r>    5.2855    0.0000 </r>
       <r>    5.5798    0.0000 </r>
       <r>    5.9871    0.0000 </r>
       <r>    6.4218    0.0000 </r>
       <r>    6.8103    0.0000 </r>
       <r>    6.9139    0.0000 </r>
       <r>    7.0388    0.0000 </r>
       <r>    7.3785    0.0000 </r>
      </set>
      <set comment="kpoint 24">
       <r>  -19.8392    1.0000 </r>
       <r>  -16.1946    1.0000 </r>
       <r>  -16.0590    1.0000 </r>
       <r>  -13.6882    1.0000 </r>
       <r>  -13.4994    1.0000 </r>
       <r>  -12.3436    1.0000 </r>
       <r>  -10.9854    1.0000 </r>
       <r>   -8.6191    1.0000 </r>
       <r>   -8.5555    1.0000 </r>
       <r>   -6.5020    1.0000 </r>
       <r>   -6.3468    1.0000 </r>
       <r>   -4.6812    1.0000 </r>
       <r>   -4.5240    1.0000 </r>
       <r>   -4.0280    1.0000 </r>
       <r>   -3.9103    1.0000 </r>
       <r>   -2.2695    0.0000 </r>
       <r>   -0.1590    0.0000 </r>
       <r>    0.2848    0.0000 </r>
       <r>    0.6366    0.0000 </r>
       <r>    0.9271    0.0000 </r>
       <r>    1.9383    0.0000 </r>
       <r>    2.3304    0.0000 </r>
       <r>    4.3142    0.0000 </r>
       <r>    4.9340    0.0000 </r>
       <r>    5.1362    0.0000 </r>
       <r>    5.2701    0.0000 </r>
       <r>    6.3381    0.0000 </r>
       <r>    6.7744    0.0000 </r>
       <r>    6.8195    0.0000 </r>
       <r>    7.0724    0.0000 </r>
       <r>    7.1200    0.0000 </r>
       <r>    7.6428    0.0000 </r>
      </set>
      <set comment="kpoint 25">
       <r>  -19.8695    1.0000 </r>
       <r>  -16.0599    1.0000 </r>
       <r>  -16.0079    1.0000 </r>
       <r>  -13.6633    1.0000 </r>
       <r>  -13.5855    1.0000 </r>
       <r>  -12.4972    1.0000 </r>
       <r>  -11.1584    1.0000 </r>
       <r>   -8.6655    1.0000 </r>
       <r>   -8.4889    1.0000 </r>
       <r>   -6.3741    1.0000 </r>
       <r>   -6.3179    1.0000 </r>
       <r>   -4.5517    1.0000 </r>
       <r>   -4.4927    1.0000 </r>
       <r>   -3.8725    1.0000 </r>
       <r>   -3.8314    1.0000 </r>
       <r>   -2.0895    0.0000 </r>
       <r>   -0.1940    0.0000 </r>
       <r>   -0.0393    0.0000 </r>
       <r>    0.4977    0.0000 </r>
       <r>    0.8688    0.0000 </r>
       <r>    1.8745    0.0000 </r>
       <r>    2.2719    0.0000 </r>
       <r>    4.2566    0.0000 </r>
       <r>    4.8735    0.0000 </r>
       <r>    5.0503    0.0000 </r>
       <r>    5.1017    0.0000 </r>
       <r>    6.3226    0.0000 </r>
       <r>    6.7744    0.0000 </r>
       <r>    6.8607    0.0000 </r>
       <r>    7.2954    0.0000 </r>
       <r>    7.7124    0.0000 </r>
       <r>    7.7241    0.0000 </r>
      </set>
      <set comment="kpoint 26">
       <r>  -19.8242    1.0000 </r>
       <r>  -16.2638    1.0000 </r>
       <r>  -16.0735    1.0000 </r>
       <r>  -13.7308    1.0000 </r>
       <r>  -13.4257    1.0000 </r>
       <r>  -12.2732    1.0000 </r>
       <r>  -10.9025    1.0000 </r>
       <r>   -8.5961    1.0000 </r>
       <r>   -8.5891    1.0000 </r>
       <r>   -6.5763    1.0000 </r>
       <r>   -6.3468    1.0000 </r>
       <r>   -4.7548    1.0000 </r>
       <r>   -4.5255    1.0000 </r>
       <r>   -4.1086    1.0000 </r>
       <r>   -3.9439    1.0000 </r>
       <r>   -2.3454    0.0000 </r>
       <r>   -0.0973    0.0000 </r>
       <r>    0.3397    0.0000 </r>
       <r>    0.7477    0.0000 </r>
       <r>    0.9561    0.0000 </r>
       <r>    1.9707    0.0000 </r>
       <r>    2.3597    0.0000 </r>
       <r>    4.3429    0.0000 </r>
       <r>    4.9598    0.0000 </r>
       <r>    5.1621    0.0000 </r>
       <r>    5.3714    0.0000 </r>
       <r>    6.2428    0.0000 </r>
       <r>    6.6386    0.0000 </r>
       <r>    6.8862    0.0000 </r>
       <r>    7.1020    0.0000 </r>
       <r>    7.2776    0.0000 </r>
       <r>    7.4393    0.0000 </r>
      </set>
      <set comment="kpoint 27">
       <r>  -19.7799    1.0000 </r>
       <r>  -16.4239    1.0000 </r>
       <r>  -16.1484    1.0000 </r>
       <r>  -13.7423    1.0000 </r>
       <r>  -13.3365    1.0000 </r>
       <r>  -12.0481    1.0000 </r>
       <r>  -10.6703    1.0000 </r>
       <r>   -8.6963    1.0000 </r>
       <r>   -8.5271    1.0000 </r>
       <r>   -6.7389    1.0000 </r>
       <r>   -6.3886    1.0000 </r>
       <r>   -4.9209    1.0000 </r>
       <r>   -4.5865    1.0000 </r>
       <r>   -4.3241    1.0000 </r>
       <r>   -4.0606    1.0000 </r>
       <r>   -2.4903    0.0000 </r>
       <r>   -0.0978    0.0000 </r>
       <r>    0.6993    0.0000 </r>
       <r>    0.9853    0.0000 </r>
       <r>    1.0432    0.0000 </r>
       <r>    2.0687    0.0000 </r>
       <r>    2.4475    0.0000 </r>
       <r>    4.4291    0.0000 </r>
       <r>    5.0492    0.0000 </r>
       <r>    5.2858    0.0000 </r>
       <r>    5.5796    0.0000 </r>
       <r>    5.9871    0.0000 </r>
       <r>    6.4218    0.0000 </r>
       <r>    6.8106    0.0000 </r>
       <r>    6.9139    0.0000 </r>
       <r>    7.0388    0.0000 </r>
       <r>    7.3782    0.0000 </r>
      </set>
      <set comment="kpoint 28">
       <r>  -19.7086    1.0000 </r>
       <r>  -16.6365    1.0000 </r>
       <r>  -16.2737    1.0000 </r>
       <r>  -13.7179    1.0000 </r>
       <r>  -13.2395    1.0000 </r>
       <r>  -11.6857    1.0000 </r>
       <r>  -10.3217    1.0000 </r>
       <r>   -8.8886    1.0000 </r>
       <r>   -8.4137    1.0000 </r>
       <r>   -6.9515    1.0000 </r>
       <r>   -6.4655    1.0000 </r>
       <r>   -5.1525    1.0000 </r>
       <r>   -4.7189    1.0000 </r>
       <r>   -4.6510    1.0000 </r>
       <r>   -4.2547    1.0000 </r>
       <r>   -2.6002    0.0000 </r>
       <r>   -0.1333    0.0000 </r>
       <r>    1.1881    0.0000 </r>
       <r>    1.2603    0.0000 </r>
       <r>    1.2871    0.0000 </r>
       <r>    2.2356    0.0000 </r>
       <r>    2.5935    0.0000 </r>
       <r>    4.5722    0.0000 </r>
       <r>    5.1988    0.0000 </r>
       <r>    5.4762    0.0000 </r>
       <r>    5.6716    0.0000 </r>
       <r>    5.8141    0.0000 </r>
       <r>    5.8347    0.0000 </r>
       <r>    6.5607    0.0000 </r>
       <r>    6.6421    0.0000 </r>
       <r>    6.9657    0.0000 </r>
       <r>    7.0989    0.0000 </r>
      </set>
      <set comment="kpoint 29">
       <r>  -19.6151    1.0000 </r>
       <r>  -16.8817    1.0000 </r>
       <r>  -16.4072    1.0000 </r>
       <r>  -13.7296    1.0000 </r>
       <r>  -13.0502    1.0000 </r>
       <r>  -11.2423    1.0000 </r>
       <r>   -9.8870    1.0000 </r>
       <r>   -9.1645    1.0000 </r>
       <r>   -8.2584    1.0000 </r>
       <r>   -7.2246    1.0000 </r>
       <r>   -6.5203    1.0000 </r>
       <r>   -5.4520    1.0000 </r>
       <r>   -5.0751    1.0000 </r>
       <r>   -4.8708    1.0000 </r>
       <r>   -4.4973    1.0000 </r>
       <r>   -2.6557    0.0000 </r>
       <r>   -0.1341    0.0000 </r>
       <r>    1.3904    0.0000 </r>
       <r>    1.5634    0.0000 </r>
       <r>    1.9277    0.0000 </r>
       <r>    2.4900    0.0000 </r>
       <r>    2.7978    0.0000 </r>
       <r>    4.7708    0.0000 </r>
       <r>    5.0189    0.0000 </r>
       <r>    5.3810    0.0000 </r>
       <r>    5.4581    0.0000 </r>
       <r>    5.8048    0.0000 </r>
       <r>    5.9054    0.0000 </r>
       <r>    6.1870    0.0000 </r>
       <r>    6.3381    0.0000 </r>
       <r>    6.5019    0.0000 </r>
       <r>    6.9609    0.0000 </r>
      </set>
      <set comment="kpoint 30">
       <r>  -19.5078    1.0000 </r>
       <r>  -17.1319    1.0000 </r>
       <r>  -16.5215    1.0000 </r>
       <r>  -13.7768    1.0000 </r>
       <r>  -12.7732    1.0000 </r>
       <r>  -10.7659    1.0000 </r>
       <r>   -9.5041    1.0000 </r>
       <r>   -9.3865    1.0000 </r>
       <r>   -8.0667    1.0000 </r>
       <r>   -7.5607    1.0000 </r>
       <r>   -6.5202    1.0000 </r>
       <r>   -5.7983    1.0000 </r>
       <r>   -5.5746    1.0000 </r>
       <r>   -4.9993    1.0000 </r>
       <r>   -4.7554    1.0000 </r>
       <r>   -2.6792    0.0000 </r>
       <r>   -0.0971    0.0000 </r>
       <r>    1.6496    0.0000 </r>
       <r>    1.8511    0.0000 </r>
       <r>    2.4814    0.0000 </r>
       <r>    2.9326    0.0000 </r>
       <r>    3.0599    0.0000 </r>
       <r>    4.3806    0.0000 </r>
       <r>    5.0091    0.0000 </r>
       <r>    5.2566    0.0000 </r>
       <r>    5.2855    0.0000 </r>
       <r>    5.6490    0.0000 </r>
       <r>    5.8388    0.0000 </r>
       <r>    5.9328    0.0000 </r>
       <r>    6.1179    0.0000 </r>
       <r>    6.6882    0.0000 </r>
       <r>    6.7741    0.0000 </r>
      </set>
      <set comment="kpoint 31">
       <r>  -19.4011    1.0000 </r>
       <r>  -17.3535    1.0000 </r>
       <r>  -16.6062    1.0000 </r>
       <r>  -13.8271    1.0000 </r>
       <r>  -12.4645    1.0000 </r>
       <r>  -10.3141    1.0000 </r>
       <r>   -9.8142    1.0000 </r>
       <r>   -8.8983    1.0000 </r>
       <r>   -7.9006    1.0000 </r>
       <r>   -7.8511    1.0000 </r>
       <r>   -6.5106    1.0000 </r>
       <r>   -6.1478    1.0000 </r>
       <r>   -6.0892    1.0000 </r>
       <r>   -5.0924    1.0000 </r>
       <r>   -4.9963    1.0000 </r>
       <r>   -2.6901    0.0000 </r>
       <r>   -0.0415    0.0000 </r>
       <r>    1.9656    0.0000 </r>
       <r>    2.1031    0.0000 </r>
       <r>    2.8667    0.0000 </r>
       <r>    3.3799    0.0000 </r>
       <r>    3.5956    0.0000 </r>
       <r>    3.7890    0.0000 </r>
       <r>    4.6777    0.0000 </r>
       <r>    5.1250    0.0000 </r>
       <r>    5.2355    0.0000 </r>
       <r>    5.3503    0.0000 </r>
       <r>    5.8844    0.0000 </r>
       <r>    5.9419    0.0000 </r>
       <r>    6.0780    0.0000 </r>
       <r>    6.5940    0.0000 </r>
       <r>    6.6370    0.0000 </r>
      </set>
      <set comment="kpoint 32">
       <r>  -19.3180    1.0000 </r>
       <r>  -17.5103    1.0000 </r>
       <r>  -16.6579    1.0000 </r>
       <r>  -13.8625    1.0000 </r>
       <r>  -12.1973    1.0000 </r>
       <r>  -10.2401    1.0000 </r>
       <r>   -9.7243    1.0000 </r>
       <r>   -8.7048    1.0000 </r>
       <r>   -7.9235    1.0000 </r>
       <r>   -7.6460    1.0000 </r>
       <r>   -6.8335    1.0000 </r>
       <r>   -6.4417    1.0000 </r>
       <r>   -6.2836    1.0000 </r>
       <r>   -5.1795    1.0000 </r>
       <r>   -5.1485    1.0000 </r>
       <r>   -2.6959    0.0000 </r>
       <r>    0.0064    0.0000 </r>
       <r>    2.2813    0.0000 </r>
       <r>    2.3379    0.0000 </r>
       <r>    3.2332    0.0000 </r>
       <r>    3.2503    0.0000 </r>
       <r>    3.7576    0.0000 </r>
       <r>    4.0461    0.0000 </r>
       <r>    4.4368    0.0000 </r>
       <r>    4.6854    0.0000 </r>
       <r>    5.0453    0.0000 </r>
       <r>    5.6046    0.0000 </r>
       <r>    5.7988    0.0000 </r>
       <r>    5.9909    0.0000 </r>
       <r>    6.0873    0.0000 </r>
       <r>    6.3628    0.0000 </r>
       <r>    6.5562    0.0000 </r>
      </set>
      <set comment="kpoint 33">
       <r>  -19.2858    1.0000 </r>
       <r>  -17.5678    1.0000 </r>
       <r>  -16.6753    1.0000 </r>
       <r>  -13.8750    1.0000 </r>
       <r>  -12.0827    1.0000 </r>
       <r>  -10.3396    1.0000 </r>
       <r>   -9.4867    1.0000 </r>
       <r>   -8.8512    1.0000 </r>
       <r>   -7.5514    1.0000 </r>
       <r>   -7.5470    1.0000 </r>
       <r>   -7.2872    1.0000 </r>
       <r>   -6.5716    1.0000 </r>
       <r>   -6.2710    1.0000 </r>
       <r>   -5.2514    1.0000 </r>
       <r>   -5.1672    1.0000 </r>
       <r>   -2.6979    0.0000 </r>
       <r>    0.0252    0.0000 </r>
       <r>    2.3465    0.0000 </r>
       <r>    2.7628    0.0000 </r>
       <r>    2.7698    0.0000 </r>
       <r>    3.6003    0.0000 </r>
       <r>    3.6793    0.0000 </r>
       <r>    4.1919    0.0000 </r>
       <r>    4.1938    0.0000 </r>
       <r>    5.0182    0.0000 </r>
       <r>    5.0307    0.0000 </r>
       <r>    5.1453    0.0000 </r>
       <r>    5.9188    0.0000 </r>
       <r>    6.0160    0.0000 </r>
       <r>    6.1043    0.0000 </r>
       <r>    6.2968    0.0000 </r>
       <r>    6.5279    0.0000 </r>
      </set>
      <set comment="kpoint 34">
       <r>  -19.3181    1.0000 </r>
       <r>  -17.5103    1.0000 </r>
       <r>  -16.6580    1.0000 </r>
       <r>  -13.8625    1.0000 </r>
       <r>  -12.1974    1.0000 </r>
       <r>  -10.2401    1.0000 </r>
       <r>   -9.7240    1.0000 </r>
       <r>   -8.7051    1.0000 </r>
       <r>   -7.9233    1.0000 </r>
       <r>   -7.6461    1.0000 </r>
       <r>   -6.8335    1.0000 </r>
       <r>   -6.4416    1.0000 </r>
       <r>   -6.2836    1.0000 </r>
       <r>   -5.1796    1.0000 </r>
       <r>   -5.1485    1.0000 </r>
       <r>   -2.6959    0.0000 </r>
       <r>    0.0063    0.0000 </r>
       <r>    2.2814    0.0000 </r>
       <r>    2.3379    0.0000 </r>
       <r>    3.2332    0.0000 </r>
       <r>    3.2503    0.0000 </r>
       <r>    3.7576    0.0000 </r>
       <r>    4.0461    0.0000 </r>
       <r>    4.4368    0.0000 </r>
       <r>    4.6854    0.0000 </r>
       <r>    5.0453    0.0000 </r>
       <r>    5.6046    0.0000 </r>
       <r>    5.7988    0.0000 </r>
       <r>    5.9909    0.0000 </r>
       <r>    6.0874    0.0000 </r>
       <r>    6.3628    0.0000 </r>
       <r>    6.5562    0.0000 </r>
      </set>
      <set comment="kpoint 35">
       <r>  -19.4011    1.0000 </r>
       <r>  -17.3534    1.0000 </r>
       <r>  -16.6063    1.0000 </r>
       <r>  -13.8271    1.0000 </r>
       <r>  -12.4646    1.0000 </r>
[...]
       <r>  -19.3181    1.0000 </r>
       <r>  -17.5102    1.0000 </r>
       <r>  -16.6580    1.0000 </r>
       <r>  -13.8625    1.0000 </r>
       <r>  -12.1975    1.0000 </r>
       <r>  -10.2400    1.0000 </r>
       <r>   -9.7241    1.0000 </r>
       <r>   -8.7050    1.0000 </r>
       <r>   -7.9230    1.0000 </r>
       <r>   -7.6461    1.0000 </r>
       <r>   -6.8334    1.0000 </r>
       <r>   -6.4416    1.0000 </r>
       <r>   -6.2838    1.0000 </r>
       <r>   -5.1799    1.0000 </r>
       <r>   -5.1485    1.0000 </r>
       <r>   -2.6958    0.0000 </r>
       <r>    0.0062    0.0000 </r>
       <r>    2.2812    0.0000 </r>
       <r>    2.3379    0.0000 </r>
       <r>    3.2331    0.0000 </r>
       <r>    3.2503    0.0000 </r>
       <r>    3.7576    0.0000 </r>
       <r>    4.0461    0.0000 </r>
       <r>    4.4369    0.0000 </r>
       <r>    4.6854    0.0000 </r>
       <r>    5.0453    0.0000 </r>
       <r>    5.6046    0.0000 </r>
       <r>    5.7989    0.0000 </r>
       <r>    5.9906    0.0000 </r>
       <r>    6.0874    0.0000 </r>
       <r>    6.3627    0.0000 </r>
       <r>    6.5562    0.0000 </r>
      </set>
      <set comment="kpoint 129">
       <r>  -19.3126    1.0000 </r>
       <r>  -17.5879    1.0000 </r>
       <r>  -16.5142    1.0000 </r>
       <r>  -14.0979    1.0000 </r>
       <r>  -11.9482    1.0000 </r>
       <r>  -10.0927    1.0000 </r>
       <r>   -9.7885    1.0000 </r>
       <r>   -9.0092    1.0000 </r>
       <r>   -7.7498    1.0000 </r>
       <r>   -7.6122    1.0000 </r>
       <r>   -7.0912    1.0000 </r>
       <r>   -6.5873    1.0000 </r>
       <r>   -6.1522    1.0000 </r>
       <r>   -5.0568    1.0000 </r>
       <r>   -4.8775    1.0000 </r>
       <r>   -3.0168    0.0000 </r>
       <r>    0.4540    0.0000 </r>
       <r>    1.8312    0.0000 </r>
       <r>    2.4799    0.0000 </r>
       <r>    2.9362    0.0000 </r>
       <r>    3.3569    0.0000 </r>
       <r>    3.7914    0.0000 </r>
       <r>    3.9021    0.0000 </r>
       <r>    4.3659    0.0000 </r>
       <r>    4.8050    0.0000 </r>
       <r>    5.5089    0.0000 </r>
       <r>    5.5277    0.0000 </r>
       <r>    5.8723    0.0000 </r>
       <r>    5.8747    0.0000 </r>
       <r>    6.3806    0.0000 </r>
       <r>    6.4231    0.0000 </r>
       <r>    6.5050    0.0000 </r>
      </set>
      <set comment="kpoint 130">
       <r>  -19.3104    1.0000 </r>
       <r>  -17.6157    1.0000 </r>
       <r>  -16.4563    1.0000 </r>
       <r>  -14.1870    1.0000 </r>
       <r>  -11.8553    1.0000 </r>
       <r>  -10.0073    1.0000 </r>
       <r>   -9.7934    1.0000 </r>
       <r>   -9.1894    1.0000 </r>
       <r>   -7.5967    1.0000 </r>
       <r>   -7.5606    1.0000 </r>
       <r>   -7.3067    1.0000 </r>
       <r>   -6.6415    1.0000 </r>
       <r>   -6.0932    1.0000 </r>
       <r>   -5.0121    1.0000 </r>
       <r>   -4.7561    1.0000 </r>
       <r>   -3.1576    0.0000 </r>
       <r>    0.7139    0.0000 </r>
       <r>    1.5724    0.0000 </r>
       <r>    2.6775    0.0000 </r>
       <r>    2.6812    0.0000 </r>
       <r>    3.5188    0.0000 </r>
       <r>    3.5768    0.0000 </r>
       <r>    4.1029    0.0000 </r>
       <r>    4.1067    0.0000 </r>
       <r>    5.0839    0.0000 </r>
       <r>    5.3151    0.0000 </r>
       <r>    5.5631    0.0000 </r>
       <r>    5.9692    0.0000 </r>
       <r>    6.2493    0.0000 </r>
       <r>    6.3010    0.0000 </r>
       <r>    6.4220    0.0000 </r>
       <r>    6.4450    0.0000 </r>
      </set>
     </set>
    </set>
   </array>
  </eigenvalues>
  <separator name="orbital magnetization" >
   <v name="MAGDIPOLOUT">      0.00000000      0.00000000      0.00000000</v>
  </separator>
  <dos>
   <i name="efermi">     -3.47927652 </i>
   <total>
    <array>
     <dimension dim="1">gridpoints</dimension>
     <dimension dim="2">spin</dimension>
     <field>energy</field>
     <field>total</field>
     <field>integrated</field>
     <set>
      <set comment="spin 1">
       <r>   -21.2856     0.0000     0.0000 </r>
       <r>   -21.1829     0.0000     0.0000 </r>
       <r>   -21.0802     0.0000     0.0000 </r>
       <r>   -20.9775     0.0000     0.0000 </r>
       <r>   -20.8747     0.0000     0.0000 </r>
       <r>   -20.7720     0.0000     0.0000 </r>
       <r>   -20.6693     0.0000     0.0000 </r>
       <r>   -20.5666     0.0000     0.0000 </r>
       <r>   -20.4638     0.0000     0.0000 </r>
       <r>   -20.3611     0.0000     0.0000 </r>
       <r>   -20.2584     0.0000     0.0000 </r>
       <r>   -20.1557     0.0000     0.0000 </r>
       <r>   -20.0530     0.0037     0.0004 </r>
       <r>   -19.9502     0.1199     0.0127 </r>
       <r>   -19.8475     0.8108     0.0960 </r>
       <r>   -19.7448     1.7138     0.2720 </r>
       <r>   -19.6421     2.0797     0.4857 </r>
       <r>   -19.5394     2.3428     0.7263 </r>
       <r>   -19.4366     2.8793     1.0221 </r>
       <r>   -19.3339     3.9948     1.4324 </r>
       <r>   -19.2312     3.9240     1.8355 </r>
       <r>   -19.1285     1.4550     1.9850 </r>
       <r>   -19.0257     0.1434     1.9997 </r>
       <r>   -18.9230     0.0029     2.0000 </r>
       <r>   -18.8203     0.0000     2.0000 </r>
       <r>   -18.7176     0.0000     2.0000 </r>
       <r>   -18.6149     0.0000     2.0000 </r>
       <r>   -18.5121     0.0000     2.0000 </r>
       <r>   -18.4094     0.0000     2.0000 </r>
       <r>   -18.3067     0.0000     2.0000 </r>
       <r>   -18.2040     0.0000     2.0000 </r>
       <r>   -18.1012     0.0000     2.0000 </r>
       <r>   -17.9985     0.0000     2.0000 </r>
       <r>   -17.8958     0.0000     2.0000 </r>
       <r>   -17.7931     0.0036     2.0004 </r>
       <r>   -17.6904     0.1365     2.0144 </r>
       <r>   -17.5876     1.0598     2.1233 </r>
       <r>   -17.4849     2.5309     2.3832 </r>
       <r>   -17.3822     3.2238     2.7144 </r>
       <r>   -17.2795     2.7323     2.9951 </r>
       <r>   -17.1768     1.9599     3.1964 </r>
       <r>   -17.0740     1.8629     3.3877 </r>
       <r>   -16.9713     1.8931     3.5822 </r>
       <r>   -16.8686     2.0247     3.7902 </r>
       <r>   -16.7659     2.1422     4.0102 </r>
       <r>   -16.6631     2.3546     4.2521 </r>
       <r>   -16.5604     2.8002     4.5398 </r>
       <r>   -16.4577     3.4051     4.8895 </r>
       <r>   -16.3550     3.4433     5.2432 </r>
       <r>   -16.2523     2.5521     5.5054 </r>
       <r>   -16.1495     2.0825     5.7193 </r>
       <r>   -16.0468     1.6283     5.8866 </r>
       <r>   -15.9441     0.9117     5.9802 </r>
       <r>   -15.8414     0.1837     5.9991 </r>
       <r>   -15.7386     0.0087     6.0000 </r>
       <r>   -15.6359     0.0001     6.0000 </r>
       <r>   -15.5332     0.0000     6.0000 </r>
       <r>   -15.4305     0.0000     6.0000 </r>
       <r>   -15.3278     0.0000     6.0000 </r>
       <r>   -15.2250     0.0000     6.0000 </r>
       <r>   -15.1223     0.0000     6.0000 </r>
       <r>   -15.0196     0.0000     6.0000 </r>
       <r>   -14.9169     0.0000     6.0000 </r>
       <r>   -14.8142     0.0000     6.0000 </r>
       <r>   -14.7114     0.0000     6.0000 </r>
       <r>   -14.6087     0.0000     6.0000 </r>
       <r>   -14.5060     0.0000     6.0000 </r>
       <r>   -14.4033     0.0005     6.0001 </r>
       <r>   -14.3005     0.0319     6.0033 </r>
       <r>   -14.1978     0.4031     6.0447 </r>
       <r>   -14.0951     1.4652     6.1952 </r>
       <r>   -13.9924     2.0833     6.4092 </r>
       <r>   -13.8897     2.3300     6.6486 </r>
       <r>   -13.7869     3.2796     6.9855 </r>
       <r>   -13.6842     3.2616     7.3205 </r>
       <r>   -13.5815     2.7041     7.5983 </r>
       <r>   -13.4788     2.2000     7.8243 </r>
       <r>   -13.3760     1.2496     7.9526 </r>
       <r>   -13.2733     1.4501     8.1016 </r>
       <r>   -13.1706     1.5074     8.2564 </r>
       <r>   -13.0679     1.3189     8.3919 </r>
       <r>   -12.9652     1.2796     8.5233 </r>
       <r>   -12.8624     1.0359     8.6298 </r>
       <r>   -12.7597     1.8071     8.8154 </r>
       <r>   -12.6570     1.7654     8.9967 </r>
       <r>   -12.5543     1.6744     9.1687 </r>
       <r>   -12.4516     2.2712     9.4020 </r>
       <r>   -12.3488     1.6625     9.5728 </r>
       <r>   -12.2461     1.4627     9.7230 </r>
       <r>   -12.1434     1.5811     9.8855 </r>
       <r>   -12.0407     1.4452    10.0339 </r>
       <r>   -11.9379     1.4068    10.1784 </r>
       <r>   -11.8352     0.8935    10.2702 </r>
       <r>   -11.7325     0.4076    10.3121 </r>
       <r>   -11.6298     0.7301    10.3871 </r>
       <r>   -11.5271     0.5620    10.4448 </r>
       <r>   -11.4243     0.2641    10.4719 </r>
       <r>   -11.3216     0.2209    10.4946 </r>
       <r>   -11.2189     0.9126    10.5884 </r>
       <r>   -11.1162     1.0941    10.7007 </r>
       <r>   -11.0135     0.6630    10.7689 </r>
       <r>   -10.9107     0.6974    10.8405 </r>
       <r>   -10.8080     1.1460    10.9582 </r>
       <r>   -10.7053     2.0193    11.1656 </r>
       <r>   -10.6026     1.9607    11.3670 </r>
       <r>   -10.4998     1.4113    11.5120 </r>
       <r>   -10.3971     1.2447    11.6399 </r>
       <r>   -10.2944     2.7949    11.9269 </r>
       <r>   -10.1917     2.7133    12.2057 </r>
       <r>   -10.0890     1.4064    12.3501 </r>
       <r>    -9.9862     1.1101    12.4642 </r>
       <r>    -9.8835     1.4643    12.6146 </r>
       <r>    -9.7808     2.9931    12.9220 </r>
       <r>    -9.6781     2.7177    13.2012 </r>
       <r>    -9.5753     2.0248    13.4092 </r>
       <r>    -9.4726     2.3211    13.6476 </r>
       <r>    -9.3699     1.7357    13.8259 </r>
       <r>    -9.2672     1.5680    13.9870 </r>
       <r>    -9.1645     2.3350    14.2268 </r>
       <r>    -9.0617     2.0867    14.4412 </r>
       <r>    -8.9590     2.4681    14.6947 </r>
       <r>    -8.8563     2.7859    14.9809 </r>
       <r>    -8.7536     2.1850    15.2053 </r>
       <r>    -8.6509     2.4950    15.4616 </r>
       <r>    -8.5481     3.4371    15.8147 </r>
       <r>    -8.4454     2.7881    16.1011 </r>
       <r>    -8.3427     2.1039    16.3172 </r>
       <r>    -8.2400     2.0939    16.5323 </r>
       <r>    -8.1372     2.0684    16.7448 </r>
       <r>    -8.0345     2.4685    16.9983 </r>
       <r>    -7.9318     3.0352    17.3101 </r>
       <r>    -7.8291     4.2639    17.7481 </r>
       <r>    -7.7264     4.2495    18.1846 </r>
       <r>    -7.6236     4.2949    18.6258 </r>
       <r>    -7.5209     3.8852    19.0249 </r>
       <r>    -7.4182     2.7156    19.3038 </r>
       <r>    -7.3155     1.6756    19.4760 </r>
       <r>    -7.2127     1.8826    19.6693 </r>
       <r>    -7.1100     2.2203    19.8974 </r>
       <r>    -7.0073     1.8598    20.0885 </r>
       <r>    -6.9046     1.2624    20.2181 </r>
       <r>    -6.8019     1.8399    20.4071 </r>
       <r>    -6.6991     2.0968    20.6225 </r>
       <r>    -6.5964     2.2564    20.8543 </r>
       <r>    -6.4937     4.3908    21.3053 </r>
       <r>    -6.3910     6.9991    22.0243 </r>
       <r>    -6.2883     7.7261    22.8179 </r>
       <r>    -6.1855     5.8118    23.4149 </r>
       <r>    -6.0828     4.0574    23.8317 </r>
       <r>    -5.9801     2.6068    24.0995 </r>
       <r>    -5.8774     2.1708    24.3225 </r>
       <r>    -5.7746     2.7254    24.6024 </r>
       <r>    -5.6719     2.2965    24.8383 </r>
       <r>    -5.5692     2.1628    25.0605 </r>
       <r>    -5.4665     3.0603    25.3749 </r>
       <r>    -5.3638     2.9370    25.6765 </r>
       <r>    -5.2610     2.5417    25.9376 </r>
       <r>    -5.1583     3.2231    26.2687 </r>
       <r>    -5.0556     4.1290    26.6928 </r>
       <r>    -4.9529     4.1028    27.1143 </r>
       <r>    -4.8501     4.0277    27.5280 </r>
       <r>    -4.7474     4.8782    28.0291 </r>
       <r>    -4.6447     4.8497    28.5273 </r>
       <r>    -4.5420     3.6709    28.9044 </r>
       <r>    -4.4393     2.9123    29.2035 </r>
       <r>    -4.3365     1.5100    29.3586 </r>
       <r>    -4.2338     1.4174    29.5042 </r>
       <r>    -4.1311     1.0617    29.6133 </r>
       <r>    -4.0284     1.2383    29.7405 </r>
       <r>    -3.9257     1.0992    29.8534 </r>
       <r>    -3.8229     0.9380    29.9498 </r>
       <r>    -3.7202     0.4299    29.9939 </r>
       <r>    -3.6175     0.0576    29.9998 </r>
       <r>    -3.5148     0.0017    30.0000 </r>
       <r>    -3.4120     0.0001    30.0000 </r>
       <r>    -3.3093     0.0071    30.0007 </r>
       <r>    -3.2066     0.1386    30.0150 </r>
       <r>    -3.1039     0.6434    30.0811 </r>
       <r>    -3.0012     1.4216    30.2271 </r>
       <r>    -2.8984     1.7086    30.4026 </r>
       <r>    -2.7957     1.4790    30.5545 </r>
       <r>    -2.6930     2.5318    30.8146 </r>
       <r>    -2.5903     3.0225    31.1251 </r>
       <r>    -2.4875     1.7871    31.3086 </r>
       <r>    -2.3848     1.5531    31.4682 </r>
       <r>    -2.2821     1.6078    31.6333 </r>
       <r>    -2.1794     0.9890    31.7349 </r>
       <r>    -2.0767     0.5506    31.7915 </r>
       <r>    -1.9739     0.6928    31.8627 </r>
       <r>    -1.8712     0.6423    31.9286 </r>
       <r>    -1.7685     0.2233    31.9516 </r>
       <r>    -1.6658     0.1079    31.9626 </r>
       <r>    -1.5631     0.2422    31.9875 </r>
       <r>    -1.4603     0.1128    31.9991 </r>
       <r>    -1.3576     0.0089    32.0000 </r>
       <r>    -1.2549     0.0217    32.0023 </r>
       <r>    -1.1522     0.1682    32.0195 </r>
       <r>    -1.0494     0.2185    32.0420 </r>
       <r>    -0.9467     0.0915    32.0514 </r>
       <r>    -0.8440     0.3348    32.0858 </r>
       <r>    -0.7413     0.6525    32.1528 </r>
       <r>    -0.6386     0.4008    32.1940 </r>
       <r>    -0.5358     0.3431    32.2292 </r>
       <r>    -0.4331     0.8148    32.3129 </r>
       <r>    -0.3304     1.4449    32.4613 </r>
       <r>    -0.2277     1.2816    32.5930 </r>
       <r>    -0.1249     2.3046    32.8297 </r>
       <r>    -0.0222     3.3522    33.1740 </r>
       <r>     0.0805     2.4911    33.4299 </r>
       <r>     0.1832     1.2857    33.5620 </r>
       <r>     0.2859     1.3016    33.6957 </r>
       <r>     0.3887     1.6389    33.8641 </r>
       <r>     0.4914     1.5862    34.0270 </r>
       <r>     0.5941     1.1849    34.1487 </r>
       <r>     0.6968     1.4867    34.3014 </r>
       <r>     0.7995     1.2534    34.4302 </r>
       <r>     0.9023     1.1508    34.5484 </r>
       <r>     1.0050     1.9837    34.7522 </r>
       <r>     1.1077     1.8218    34.9393 </r>
       <r>     1.2104     1.7504    35.1191 </r>
       <r>     1.3132     2.3396    35.3594 </r>
       <r>     1.4159     1.9693    35.5617 </r>
       <r>     1.5186     2.1202    35.7795 </r>
       <r>     1.6213     2.6941    36.0563 </r>
       <r>     1.7240     2.2151    36.2838 </r>
       <r>     1.8268     2.2224    36.5121 </r>
       <r>     1.9295     3.2257    36.8434 </r>
       <r>     2.0322     2.9237    37.1438 </r>
       <r>     2.1349     2.6831    37.4194 </r>
       <r>     2.2377     3.1200    37.7399 </r>
       <r>     2.3404     3.9920    38.1499 </r>
       <r>     2.4431     3.9948    38.5603 </r>
       <r>     2.5458     3.6983    38.9402 </r>
       <r>     2.6485     3.7396    39.3243 </r>
       <r>     2.7513     3.7083    39.7052 </r>
       <r>     2.8540     3.8794    40.1037 </r>
       <r>     2.9567     4.3783    40.5535 </r>
       <r>     3.0594     3.5843    40.9217 </r>
       <r>     3.1621     3.3003    41.2607 </r>
       <r>     3.2649     4.2040    41.6925 </r>
       <r>     3.3676     3.8340    42.0863 </r>
       <r>     3.4703     3.4917    42.4450 </r>
       <r>     3.5730     3.8781    42.8434 </r>
       <r>     3.6758     4.3851    43.2938 </r>
       <r>     3.7785     3.5837    43.6619 </r>
       <r>     3.8812     2.9871    43.9688 </r>
       <r>     3.9839     4.1972    44.3999 </r>
       <r>     4.0866     5.0079    44.9143 </r>
       <r>     4.1894     3.2784    45.2511 </r>
       <r>     4.2921     2.3266    45.4901 </r>
       <r>     4.3948     3.9169    45.8924 </r>
       <r>     4.4975     5.5787    46.4655 </r>
       <r>     4.6002     5.4457    47.0249 </r>
       <r>     4.7030     4.6842    47.5061 </r>
       <r>     4.8057     4.1253    47.9298 </r>
       <r>     4.9084     5.3805    48.4825 </r>
       <r>     5.0111     6.1715    49.1165 </r>
       <r>     5.1139     6.8094    49.8159 </r>
       <r>     5.2166     6.4930    50.4829 </r>
       <r>     5.3193     6.8420    51.1857 </r>
       <r>     5.4220     6.8073    51.8850 </r>
       <r>     5.5247     8.3492    52.7426 </r>
       <r>     5.6275     8.5538    53.6213 </r>
       <r>     5.7302     5.8446    54.2217 </r>
       <r>     5.8329     5.4940    54.7860 </r>
       <r>     5.9356     8.2336    55.6318 </r>
       <r>     6.0384     8.4904    56.5039 </r>
       <r>     6.1411     7.2979    57.2536 </r>
       <r>     6.2438     6.5004    57.9213 </r>
       <r>     6.3465     6.6783    58.6073 </r>
       <r>     6.4492     7.3955    59.3670 </r>
       <r>     6.5520     7.5633    60.1439 </r>
       <r>     6.6547     6.9599    60.8588 </r>
       <r>     6.7574     5.7753    61.4521 </r>
       <r>     6.8601     6.8002    62.1506 </r>
       <r>     6.9628     6.3160    62.7994 </r>
       <r>     7.0656     4.6434    63.2764 </r>
       <r>     7.1683     2.5804    63.5415 </r>
       <r>     7.2710     0.9888    63.6430 </r>
       <r>     7.3737     0.9183    63.7374 </r>
       <r>     7.4765     0.7455    63.8139 </r>
       <r>     7.5792     0.3076    63.8455 </r>
       <r>     7.6819     0.5084    63.8977 </r>
       <r>     7.7846     0.6054    63.9599 </r>
       <r>     7.8873     0.1986    63.9803 </r>
       <r>     7.9901     0.0526    63.9857 </r>
       <r>     8.0928     0.0650    63.9924 </r>
       <r>     8.1955     0.0589    63.9985 </r>
       <r>     8.2982     0.0143    63.9999 </r>
       <r>     8.4010     0.0007    64.0000 </r>
       <r>     8.5037     0.0000    64.0000 </r>
       <r>     8.6064     0.0000    64.0000 </r>
       <r>     8.7091     0.0000    64.0000 </r>
       <r>     8.8118     0.0000    64.0000 </r>
       <r>     8.9146     0.0000    64.0000 </r>
       <r>     9.0173     0.0000    64.0000 </r>
       <r>     9.1200     0.0000    64.0000 </r>
       <r>     9.2227     0.0000    64.0000 </r>
       <r>     9.3254     0.0000    64.0000 </r>
       <r>     9.4282     0.0000    64.0000 </r>
       <r>     9.5309     0.0000    64.0000 </r>
      </set>
     </set>
    </array>
   </total>
  </dos>
 </calculation>
 <structure name="finalpos" >
  <crystal>
   <varray name="basis" >
    <v>       4.47648500       2.58450000       0.00000000 </v>
    <v>      -4.47648500       2.58450000       0.00000000 </v>
    <v>       0.00000000       0.00000000      15.00000000 </v>
   </varray>
   <i name="volume">    347.08426447 </i>
   <varray name="rec_basis" >
    <v>       0.11169478       0.19346102       0.00000000 </v>
    <v>      -0.11169478       0.19346102       0.00000000 </v>
    <v>       0.00000000       0.00000000       0.06666667 </v>
   </varray>
  </crystal>
  <varray name="positions" >
   <v>       0.33833034       0.66916432       0.25000000 </v>
   <v>       0.67165522       0.33584146       0.25000000 </v>
   <v>       0.16373946       0.31999962       0.25000000 </v>
   <v>       0.32250218       0.16126397       0.25000000 </v>
   <v>       0.16376430       0.84376384       0.25000000 </v>
   <v>       0.84623863       0.16123684       0.25000000 </v>
   <v>       0.68749850       0.84373000       0.25000000 </v>
   <v>       0.84626736       0.68499594       0.25000000 </v>
  </varray>
 </structure>
</modeling>
