Lattice                                 
           1
     4.197625    2.423500    0.000000
    -4.197625    2.423500    0.000000
     0.000000    0.000000   15.000000
   B    C 
     4    11
Direct configuration=     1
   0.00415361  0.00267210  0.12034134
   0.35695335  0.00285503  0.09748893
   0.00423858  0.35550699  0.09749256
   0.65142295  0.65006557  0.09747688
   0.32808646  0.32671938  0.10030508
   0.68027775  0.00278085  0.10027562
   0.00416530  0.67883808  0.10026559
   0.16666600  0.33333300  0.33720000
   0.33333300  0.16666600  0.33720000
   0.16666600  0.83333300  0.33720000
   0.33333300  0.66666600  0.33720000
   0.66666600  0.33333300  0.33720000
   0.83333300  0.16666600  0.33720000
   0.66666600  0.83333300  0.33720000
   0.83333300  0.66666600  0.33720000
Direct configuration=     2
   0.00418463  0.00275022  0.11897016
   0.35588401  0.00280336  0.09785153
   0.00419533  0.35445060  0.09785441
   0.65246358  0.65107484  0.09784709
   0.32469497  0.32329220  0.10032148
   0.68368946  0.00280182  0.10030260
   0.00420261  0.68227623  0.10029626
   0.16659276  0.33342331  0.33726139
   0.33342374  0.16659548  0.33726243
   0.16682173  0.83339313  0.33726415
   0.33333491  0.66667220  0.33711392
   0.66667134  0.33333137  0.33711390
   0.83339046  0.16681934  0.33726402
   0.66657367  0.83317547  0.33726179
   0.83317080  0.66657442  0.33726086
Direct configuration=     3
   0.00416989  0.00271311  0.11962155
   0.35639201  0.00282791  0.09767928
   0.00421588  0.35495245  0.09768251
   0.65196922  0.65059538  0.09767122
   0.32630612  0.32492030  0.10031369
   0.68206870  0.00279186  0.10028978
   0.00418489  0.68064291  0.10028169
   0.16662755  0.33338041  0.33723223
   0.33338063  0.16662898  0.33723277
   0.16674775  0.83336456  0.33723367
   0.33333400  0.66666925  0.33715481
   0.66666880  0.33333215  0.33715480
   0.83336316  0.16674650  0.33723361
   0.66661753  0.83325030  0.33723244
   0.83324786  0.66661793  0.33723195
Direct configuration=     4
   0.00418647  0.00277313  0.11832251
   0.35693986  0.00278312  0.09804171
   0.00418259  0.35552178  0.09804413
   0.65142393  0.65002028  0.09804171
   0.32646046  0.32504611  0.10029297
   0.68192852  0.00279693  0.10028017
   0.00420485  0.68051609  0.10027535
   0.16670806  0.33328581  0.33729222
   0.33328433  0.16670880  0.33729367
   0.16657148  0.83328781  0.33729595
   0.33332889  0.66666048  0.33709293
   0.66665950  0.33333142  0.33709292
   0.83328764  0.16657395  0.33729573
   0.66670699  0.83342019  0.33729263
   0.83342043  0.66670811  0.33729140
Direct configuration=     5
   0.00423622  0.00295318  0.11442540
   0.35858340  0.00264875  0.09912901
   0.00408275  0.35722977  0.09912901
   0.64978807  0.64829498  0.09915319
   0.32692349  0.32542353  0.10023081
   0.68150796  0.00281214  0.10025134
   0.00426472  0.68013562  0.10025635
   0.16694960  0.33300202  0.33747222
   0.33299541  0.16694824  0.33747634
   0.16604265  0.83305756  0.33748276
   0.33331354  0.66663416  0.33690729
   0.66663161  0.33332926  0.33690725
   0.83306108  0.16605630  0.33748208
   0.66697537  0.83392984  0.33747321
   0.83393814  0.66697867  0.33746975
Direct configuration=     6
   0.00423685  0.00295767  0.11377735
   0.35871509  0.00264306  0.09926068
   0.00408355  0.35736930  0.09926050
   0.64966506  0.64816448  0.09928717
   0.32707114  0.32556894  0.10027061
   0.68136450  0.00280482  0.10029522
   0.00426067  0.67999660  0.10030126
   0.16676399  0.33317230  0.33748968
   0.33316661  0.16676498  0.33749392
   0.16639699  0.83322791  0.33750043
   0.33331522  0.66664673  0.33691596
   0.66664295  0.33332514  0.33691593
   0.83322678  0.16640543  0.33749968
   0.66680430  0.83357858  0.33749057
   0.83358030  0.66680805  0.33748705
Direct configuration=     7
   0.00423800  0.00296595  0.11258502
   0.35895739  0.00263260  0.09950294
   0.00408503  0.35762603  0.09950243
   0.64943873  0.64792437  0.09953369
   0.32734279  0.32583649  0.10034384
   0.68110055  0.00279135  0.10037594
   0.00425321  0.67974082  0.10038390
   0.16642251  0.33348559  0.33752180
   0.33348160  0.16642779  0.33752626
   0.16704894  0.83354135  0.33753294
   0.33331830  0.66666984  0.33693191
   0.66666383  0.33331757  0.33693189
   0.83353166  0.16704780  0.33753205
   0.66648955  0.83293232  0.33752250
   0.83292193  0.66649412  0.33751889
Direct configuration=     8
   0.00423350  0.00294540  0.11185907
   0.35890760  0.00264839  0.09959296
   0.00410633  0.35757753  0.09959260
   0.64950094  0.64798962  0.09962389
   0.32747152  0.32597714  0.10044751
   0.68097117  0.00277703  0.10048187
   0.00423659  0.67961059  0.10049019
   0.16644789  0.33351834  0.33752585
   0.33351487  0.16645555  0.33753004
   0.16704503  0.83350807  0.33753613
   0.33332121  0.66667041  0.33699075
   0.66666377  0.33331865  0.33699075
   0.83349788  0.16704372  0.33753519
   0.66645512  0.83293298  0.33752624
   0.83292058  0.66646058  0.33752297
Direct configuration=     9
   0.00422000  0.00288376  0.10968120
   0.35875823  0.00269573  0.09986301
   0.00417023  0.35743201  0.09986309
   0.64968758  0.64818536  0.09989446
   0.32785771  0.32639910  0.10075849
   0.68058303  0.00273405  0.10079968
   0.00418674  0.67921991  0.10080905
   0.16652403  0.33361658  0.33753802
   0.33361468  0.16653883  0.33754138
   0.16703330  0.83340823  0.33754570
   0.33332996  0.66667210  0.33716728
   0.66666359  0.33332189  0.33716733
   0.83339654  0.16703150  0.33754461
   0.66635181  0.83293497  0.33753747
   0.83291656  0.66635997  0.33753522
Direct configuration=    10
   0.00419301  0.00276048  0.10532547
   0.35845949  0.00279041  0.10040312
   0.00429804  0.35714098  0.10040408
   0.65006085  0.64857684  0.10043561
   0.32863009  0.32724302  0.10138046
   0.67980676  0.00264810  0.10143530
   0.00408703  0.67843854  0.10144677
   0.16667631  0.33381307  0.33756236
   0.33381431  0.16670537  0.33756405
   0.16700985  0.83320856  0.33756485
   0.33334745  0.66667550  0.33752035
   0.66666323  0.33332838  0.33752049
   0.83319387  0.16700705  0.33756345
   0.66614520  0.83293895  0.33755993
   0.83290851  0.66615875  0.33755971
Direct configuration=    11
   0.00422635  0.00279039  0.10371228
   0.35869113  0.00283586  0.10068601
   0.00432204  0.35732260  0.10068766
   0.64979811  0.64834758  0.10071487
   0.32834936  0.32697838  0.10152449
   0.68006162  0.00269183  0.10157847
   0.00411637  0.67865186  0.10158939
   0.16664619  0.33305257  0.33758097
   0.33303590  0.16664937  0.33758210
   0.16640424  0.83332015  0.33758198
   0.33327855  0.66663617  0.33763503
   0.66662930  0.33330224  0.33763516
   0.83331076  0.16641834  0.33758058
   0.66689177  0.83353813  0.33757832
   0.83353231  0.66689851  0.33757869
Direct configuration=    12
   0.00421901  0.00278381  0.10406715
   0.35864017  0.00282586  0.10062378
   0.00431676  0.35728265  0.10062528
   0.64985591  0.64839801  0.10065344
   0.32841111  0.32703660  0.10149281
   0.68000555  0.00268221  0.10154698
   0.00410991  0.67860493  0.10155802
   0.16665282  0.33321987  0.33757688
   0.33320713  0.16666169  0.33757813
   0.16653746  0.83329561  0.33757821
   0.33329371  0.66664482  0.33760980
   0.66663676  0.33330799  0.33760993
   0.83328505  0.16654785  0.33757681
   0.66672754  0.83340632  0.33757428
   0.83339509  0.66673578  0.33757451
Direct configuration=    13
   0.00423971  0.00282221  0.10379631
   0.35898246  0.00282807  0.10076129
   0.00429031  0.35758685  0.10076304
   0.64947625  0.64803974  0.10078705
   0.32801783  0.32662973  0.10142306
   0.68039402  0.00274368  0.10147153
   0.00416595  0.67896925  0.10148131
   0.16656891  0.33324077  0.33759386
   0.33322910  0.16657660  0.33759518
   0.16663387  0.83338405  0.33759566
   0.33329471  0.66663749  0.33759984
   0.66662487  0.33330841  0.33759992
   0.83337394  0.16664727  0.33759437
   0.66669789  0.83331017  0.33759176
   0.83330418  0.66670971  0.33759182
Direct configuration=    14
   0.00426193  0.00286344  0.10350552
   0.35934996  0.00283043  0.10090893
   0.00426190  0.35791346  0.10091095
   0.64906863  0.64765509  0.10093050
   0.32759557  0.32619288  0.10134818
   0.68081110  0.00280968  0.10139053
   0.00422611  0.67936041  0.10139895
   0.16647883  0.33326321  0.33761208
   0.33325269  0.16648524  0.33761348
   0.16673738  0.83347902  0.33761440
   0.33329579  0.66662962  0.33758914
   0.66661210  0.33330885  0.33758917
   0.83346938  0.16675401  0.33761322
   0.66666605  0.83320693  0.33761054
   0.83320657  0.66668173  0.33761041
Direct configuration=    15
   0.00422780  0.00281287  0.10335618
   0.35957238  0.00281097  0.10102062
   0.00422910  0.35813920  0.10102266
   0.64885758  0.64744779  0.10103787
   0.32770685  0.32628424  0.10127001
   0.68074061  0.00282755  0.10130449
   0.00424867  0.67930822  0.10131122
   0.16671568  0.33336068  0.33763200
   0.33334774  0.16672818  0.33763358
   0.16660637  0.83321265  0.33763522
   0.33329489  0.66665475  0.33756306
   0.66664693  0.33330502  0.33756307
   0.83319732  0.16661196  0.33763412
   0.66658672  0.83333517  0.33763117
   0.83331534  0.66659475  0.33763073
Direct configuration=    16
   0.00423380  0.00282176  0.10338245
   0.35953326  0.00281439  0.10100097
   0.00423487  0.35809949  0.10100301
   0.64889470  0.64748425  0.10101898
   0.32768727  0.32626817  0.10128376
   0.68075301  0.00282441  0.10131962
   0.00424471  0.67931740  0.10132665
   0.16667402  0.33334353  0.33762850
   0.33333102  0.16668545  0.33763005
   0.16662942  0.83325950  0.33763156
   0.33329505  0.66665033  0.33756765
   0.66664080  0.33330569  0.33756766
   0.83324518  0.16663694  0.33763045
   0.66660068  0.83331261  0.33762754
   0.83329621  0.66661005  0.33762715
Direct configuration=    17
   0.00420745  0.00277965  0.10331572
   0.35951147  0.00280249  0.10104907
   0.00422235  0.35809115  0.10105109
   0.64893664  0.64752097  0.10106412
   0.32787741  0.32644959  0.10124762
   0.68059067  0.00281699  0.10127721
   0.00424131  0.67917293  0.10128295
   0.16660333  0.33330654  0.33764207
   0.33329643  0.16661768  0.33764376
   0.16664176  0.83332888  0.33764577
   0.33330263  0.66664252  0.33754970
   0.66663024  0.33331154  0.33754970
   0.83331814  0.16665377  0.33764472
   0.66663201  0.83329462  0.33764156
   0.83328216  0.66664466  0.33764093
Direct configuration=    18
   0.00420234  0.00277148  0.10330278
   0.35950724  0.00280018  0.10105841
   0.00421992  0.35808953  0.10106041
   0.64894478  0.64752810  0.10107288
   0.32791429  0.32648478  0.10124061
   0.68055918  0.00281555  0.10126898
   0.00424066  0.67914491  0.10127447
   0.16658962  0.33329936  0.33764470
   0.33328971  0.16660454  0.33764642
   0.16664415  0.83334235  0.33764852
   0.33330410  0.66664101  0.33754622
   0.66662819  0.33331268  0.33754622
   0.83333230  0.16665703  0.33764749
   0.66663808  0.83329113  0.33764428
   0.83327944  0.66665138  0.33764361
Direct configuration=    19
   0.00420917  0.00278133  0.10324592
   0.35939487  0.00280377  0.10107659
   0.00422340  0.35797562  0.10107858
   0.64905875  0.64763912  0.10108876
   0.32791154  0.32648354  0.10123105
   0.68055905  0.00281374  0.10125392
   0.00423741  0.67914154  0.10125831
   0.16660259  0.33330180  0.33765468
   0.33328822  0.16661165  0.33765648
   0.16666335  0.83333837  0.33765886
   0.33329009  0.66664320  0.33753837
   0.66663158  0.33330355  0.33753837
   0.83332413  0.16667365  0.33765790
   0.66663489  0.83327731  0.33765452
   0.83326495  0.66664581  0.33765368
Direct configuration=    20
   0.00421416  0.00278853  0.10320440
   0.35931283  0.00280638  0.10108987
   0.00422594  0.35789245  0.10109185
   0.64914196  0.64772018  0.10110036
   0.32790953  0.32648264  0.10122407
   0.68055896  0.00281242  0.10124293
   0.00423504  0.67913909  0.10124651
   0.16661206  0.33330358  0.33766197
   0.33328712  0.16661684  0.33766383
   0.16667738  0.83333546  0.33766641
   0.33327987  0.66664480  0.33753264
   0.66663405  0.33329688  0.33753264
   0.83331818  0.16668579  0.33766550
   0.66663256  0.83326722  0.33766200
   0.83325437  0.66664175  0.33766103
Direct configuration=    21
   0.00422686  0.00280751  0.10312882
   0.35928179  0.00281210  0.10109508
   0.00423264  0.35785762  0.10109706
   0.64917208  0.64774831  0.10110338
   0.32789260  0.32646907  0.10122906
   0.68056713  0.00281183  0.10124199
   0.00423307  0.67914065  0.10124440
   0.16660364  0.33331575  0.33767140
   0.33330870  0.16662268  0.33767329
   0.16662017  0.83331983  0.33767594
   0.33331052  0.66663501  0.33753427
   0.66661846  0.33331619  0.33753427
   0.83331204  0.16663629  0.33767510
   0.66661579  0.83330848  0.33767151
   0.83329852  0.66663268  0.33767044
Direct configuration=    22
   0.00422794  0.00280912  0.10312241
   0.35927915  0.00281258  0.10109553
   0.00423321  0.35785466  0.10109751
   0.64917464  0.64775069  0.10110364
   0.32789117  0.32646792  0.10122948
   0.68056782  0.00281178  0.10124191
   0.00423291  0.67914078  0.10124422
   0.16660292  0.33331679  0.33767220
   0.33331054  0.16662317  0.33767409
   0.16661531  0.83331850  0.33767674
   0.33331312  0.66663418  0.33753441
   0.66661713  0.33331783  0.33753441
   0.83331152  0.16663209  0.33767591
   0.66661436  0.83331199  0.33767231
   0.83330227  0.66663191  0.33767124
Direct configuration=    23
   0.00423254  0.00281574  0.10307571
   0.35928456  0.00281453  0.10109651
   0.00423616  0.35785927  0.10109849
   0.64916994  0.64774489  0.10110350
   0.32788888  0.32646692  0.10123428
   0.68056769  0.00281091  0.10124345
   0.00423193  0.67913867  0.10124511
   0.16660202  0.33331406  0.33767735
   0.33330736  0.16662305  0.33767923
   0.16661319  0.83331614  0.33768189
   0.33331299  0.66663576  0.33753777
   0.66661963  0.33331776  0.33753777
   0.83330876  0.16662950  0.33768109
   0.66661751  0.83331226  0.33767748
   0.83330084  0.66663455  0.33767637
Direct configuration=    24
   0.00424636  0.00283561  0.10293560
   0.35930079  0.00282036  0.10109946
   0.00424502  0.35787309  0.10110146
   0.64915584  0.64772747  0.10110309
   0.32788203  0.32646390  0.10124868
   0.68056729  0.00280828  0.10124807
   0.00422898  0.67913232  0.10124781
   0.16659931  0.33330590  0.33769278
   0.33329782  0.16662270  0.33769467
   0.16660682  0.83330907  0.33769732
   0.33331260  0.66664049  0.33754784
   0.66662714  0.33331753  0.33754784
   0.83330049  0.16662174  0.33769664
   0.66662695  0.83331307  0.33769298
   0.83329657  0.66664249  0.33769177
Direct configuration=    25
   0.00427400  0.00287535  0.10265538
   0.35933324  0.00283201  0.10110536
   0.00426273  0.35790073  0.10110738
   0.64912764  0.64769262  0.10110227
   0.32786832  0.32645788  0.10127747
   0.68056649  0.00280302  0.10125732
   0.00422309  0.67911963  0.10125320
   0.16659390  0.33328956  0.33772365
   0.33327875  0.16662198  0.33772555
   0.16659408  0.83329491  0.33772817
   0.33331183  0.66664996  0.33756800
   0.66664214  0.33331707  0.33756800
   0.83328395  0.16660622  0.33772773
   0.66664584  0.83331469  0.33772398
   0.83328801  0.66665836  0.33772255
Direct configuration=    26
   0.00432928  0.00295483  0.10209494
   0.35939815  0.00285533  0.10111716
   0.00429816  0.35795602  0.10111923
   0.64907123  0.64762293  0.10110063
   0.32784090  0.32644583  0.10133506
   0.68056488  0.00279250  0.10127581
   0.00421131  0.67909425  0.10126398
   0.16658307  0.33325689  0.33778538
   0.33324060  0.16662055  0.33778730
   0.16656861  0.83326660  0.33778989
   0.33331029  0.66666889  0.33760830
   0.66667215  0.33331615  0.33760831
   0.83325086  0.16657518  0.33778992
   0.66668361  0.83331794  0.33778598
   0.83327090  0.66669011  0.33778411
Direct configuration=    27
   0.00432296  0.00294391  0.10201961
   0.35940607  0.00285206  0.10112275
   0.00429668  0.35796842  0.10112483
   0.64906991  0.64761995  0.10110511
   0.32785109  0.32645382  0.10133681
   0.68056458  0.00278991  0.10127378
   0.00421088  0.67909933  0.10126120
   0.16658217  0.33326689  0.33779309
   0.33325029  0.16661485  0.33779499
   0.16658624  0.83328074  0.33779753
   0.33330244  0.66665894  0.33761662
   0.66665679  0.33331089  0.33761663
   0.83326444  0.16659556  0.33779761
   0.66666460  0.83330471  0.33779367
   0.83326487  0.66667400  0.33779178
Direct configuration=    28
   0.00430400  0.00291113  0.10179364
   0.35942983  0.00284224  0.10113952
   0.00429223  0.35800564  0.10114161
   0.64906594  0.64761101  0.10111855
   0.32788166  0.32647780  0.10134205
   0.68056368  0.00278217  0.10126768
   0.00420961  0.67911459  0.10125287
   0.16657948  0.33329689  0.33781621
   0.33327936  0.16659774  0.33781804
   0.16663913  0.83332317  0.33782048
   0.33327888  0.66662907  0.33764158
   0.66661071  0.33329511  0.33764159
   0.83330515  0.16665671  0.33782067
   0.66660757  0.83326502  0.33781673
   0.83324678  0.66662570  0.33781478
Direct configuration=    29
   0.00426608  0.00284558  0.10134171
   0.35947735  0.00282260  0.10117304
   0.00428335  0.35808006  0.10117518
   0.64905800  0.64759314  0.10114543
   0.32794279  0.32652575  0.10135254
   0.68056188  0.00276667  0.10125549
   0.00420706  0.67914510  0.10123621
   0.16657409  0.33335690  0.33786244
   0.33333750  0.16656352  0.33786414
   0.16674490  0.83340802  0.33786636
   0.33323177  0.66656934  0.33769150
   0.66651856  0.33326356  0.33769152
   0.83338658  0.16677902  0.33786680
   0.66649350  0.83318564  0.33786284
   0.83321058  0.66652910  0.33786078
Direct configuration=    30
   0.00428547  0.00287910  0.10157277
   0.35945305  0.00283264  0.10115590
   0.00428789  0.35804201  0.10115802
   0.64906206  0.64760228  0.10113169
   0.32791154  0.32650124  0.10134718
   0.68056280  0.00277459  0.10126173
   0.00420836  0.67912950  0.10124473
   0.16657684  0.33332622  0.33783880
   0.33330778  0.16658101  0.33784057
   0.16669082  0.83336464  0.33784290
   0.33325586  0.66659988  0.33766598
   0.66656568  0.33327969  0.33766599
   0.83334495  0.16671649  0.33784321
   0.66655182  0.83322623  0.33783926
   0.83322909  0.66657849  0.33783726
Direct configuration=    31
   0.00426449  0.00284478  0.10141632
   0.35945780  0.00282204  0.10117676
   0.00427827  0.35805581  0.10117891
   0.64907117  0.64761123  0.10115205
   0.32793359  0.32651431  0.10133619
   0.68056933  0.00277576  0.10124674
   0.00421473  0.67915006  0.10122897
   0.16658519  0.33332113  0.33785392
   0.33330096  0.16658779  0.33785563
   0.16668462  0.83335693  0.33785778
   0.33324851  0.66659809  0.33768905
   0.66656308  0.33327484  0.33768906
   0.83333542  0.16671036  0.33785813
   0.66655250  0.83323159  0.33785424
   0.83323435  0.66657929  0.33785226
Direct configuration=    32
   0.00420157  0.00274182  0.10094697
   0.35947203  0.00279022  0.10123935
   0.00424942  0.35809720  0.10124160
   0.64909849  0.64763807  0.10121312
   0.32799977  0.32655354  0.10130321
   0.68058890  0.00277924  0.10120180
   0.00423383  0.67921173  0.10118169
   0.16661022  0.33330586  0.33789928
   0.33328049  0.16660814  0.33790078
   0.16666602  0.83333380  0.33790241
   0.33322646  0.66659273  0.33775824
   0.66655528  0.33326027  0.33775826
   0.83330685  0.16669198  0.33790286
   0.66655455  0.83324768  0.33789916
   0.83325013  0.66658170  0.33789725
Direct configuration=    33
   0.00407573  0.00253592  0.10000828
   0.35950049  0.00272659  0.10136453
   0.00419170  0.35817999  0.10136698
   0.64915314  0.64769177  0.10133527
   0.32813211  0.32663200  0.10123726
   0.68062806  0.00278622  0.10111191
   0.00427202  0.67933507  0.10108713
   0.16666030  0.33327532  0.33799001
   0.33323956  0.16664883  0.33799110
   0.16662881  0.83328755  0.33799166
   0.33318236  0.66658202  0.33789664
   0.66653968  0.33323113  0.33789665
   0.83324971  0.16665522  0.33799232
   0.66655865  0.83327987  0.33798902
   0.83328168  0.66658651  0.33798724
Direct configuration=    34
   0.00414141  0.00264339  0.10049822
   0.35948564  0.00275980  0.10129919
   0.00422183  0.35813678  0.10130154
   0.64912462  0.64766374  0.10127152
   0.32806304  0.32659105  0.10127168
   0.68060762  0.00278258  0.10115883
   0.00425209  0.67927069  0.10113648
   0.16663416  0.33329126  0.33794266
   0.33326092  0.16662759  0.33794396
   0.16664823  0.83331169  0.33794508
   0.33320537  0.66658761  0.33782441
   0.66654782  0.33324634  0.33782442
   0.83327953  0.16667441  0.33794563
   0.66655651  0.83326307  0.33794212
   0.83326521  0.66658400  0.33794027
Direct configuration=    35
   0.00420328  0.00273982  0.10019162
   0.35946557  0.00278878  0.10134542
   0.00423620  0.35807206  0.10134782
   0.64911206  0.64766698  0.10132109
   0.32799296  0.32652555  0.10123145
   0.68063540  0.00283116  0.10112176
   0.00428930  0.67925053  0.10110007
   0.16655249  0.33326353  0.33797347
   0.33324022  0.16658523  0.33797466
   0.16658529  0.83329231  0.33797540
   0.33326606  0.66662089  0.33787214
   0.66660031  0.33328580  0.33787216
   0.83326833  0.16660804  0.33797593
   0.66660790  0.83327189  0.33797237
   0.83323864  0.66663142  0.33797064
Direct configuration=    36
   0.00422365  0.00277158  0.10009066
   0.35945897  0.00279833  0.10136064
   0.00424093  0.35805075  0.10136307
   0.64910792  0.64766804  0.10133741
   0.32796989  0.32650399  0.10121820
   0.68064454  0.00284715  0.10110956
   0.00430155  0.67924389  0.10108808
   0.16652560  0.33325440  0.33798362
   0.33323341  0.16657129  0.33798477
   0.16656456  0.83328593  0.33798539
   0.33328604  0.66663185  0.33788786
   0.66661760  0.33329880  0.33788787
   0.83326463  0.16658619  0.33798591
   0.66662482  0.83327480  0.33798233
   0.83322989  0.66664704  0.33798063
Direct configuration=    37
   0.00428307  0.00286139  0.09999231
   0.35943751  0.00283141  0.10137222
   0.00426616  0.35799432  0.10137465
   0.64910206  0.64766955  0.10135395
   0.32792080  0.32646956  0.10119689
   0.68064191  0.00286923  0.10110034
   0.00431069  0.67919830  0.10108141
   0.16655921  0.33327954  0.33799545
   0.33325406  0.16658680  0.33799660
   0.16660705  0.83329555  0.33799728
   0.33325285  0.66661205  0.33790069
   0.66658650  0.33327700  0.33790070
   0.83326906  0.16663219  0.33799761
   0.66658024  0.83325071  0.33799371
   0.83322283  0.66660642  0.33799218
Direct configuration=    38
   0.00428048  0.00285748  0.09999659
   0.35943844  0.00282997  0.10137172
   0.00426506  0.35799677  0.10137415
   0.64910232  0.64766949  0.10135323
   0.32792293  0.32647105  0.10119782
   0.68064202  0.00286827  0.10110074
   0.00431030  0.67920028  0.10108170
   0.16655775  0.33327844  0.33799494
   0.33325316  0.16658612  0.33799608
   0.16660520  0.83329513  0.33799676
   0.33325430  0.66661292  0.33790013
   0.66658785  0.33327794  0.33790014
   0.83326887  0.16663019  0.33799710
   0.66658218  0.83325175  0.33799322
   0.83322314  0.66660819  0.33799168
Direct configuration=    39
   0.00428172  0.00285934  0.09999455
   0.35943800  0.00283066  0.10137196
   0.00426558  0.35799560  0.10137439
   0.64910220  0.64766952  0.10135358
   0.32792191  0.32647034  0.10119738
   0.68064197  0.00286873  0.10110055
   0.00431048  0.67919934  0.10108156
   0.16655845  0.33327896  0.33799518
   0.33325359  0.16658644  0.33799633
   0.16660608  0.83329533  0.33799701
   0.33325361  0.66661250  0.33790040
   0.66658721  0.33327749  0.33790041
   0.83326896  0.16663114  0.33799735
   0.66658125  0.83325125  0.33799345
   0.83322299  0.66660734  0.33799192
Direct configuration=    40
   0.00428001  0.00285221  0.09998185
   0.35943057  0.00283611  0.10136838
   0.00427367  0.35799089  0.10137083
   0.64911704  0.64768104  0.10135370
   0.32793656  0.32648966  0.10118914
   0.68062872  0.00285899  0.10110337
   0.00429960  0.67918755  0.10108661
   0.16656623  0.33327314  0.33799868
   0.33324647  0.16658947  0.33799993
   0.16660401  0.83329825  0.33800074
   0.33324460  0.66660681  0.33789968
   0.66657860  0.33327190  0.33789969
   0.83327066  0.16662998  0.33800095
   0.66658232  0.83325886  0.33799696
   0.83323492  0.66660915  0.33799548
Direct configuration=    41
   0.00427775  0.00284270  0.09996493
   0.35942067  0.00284337  0.10136361
   0.00428443  0.35798461  0.10136609
   0.64913682  0.64769639  0.10135386
   0.32795608  0.32651539  0.10117818
   0.68061107  0.00284600  0.10110714
   0.00428511  0.67917185  0.10109334
   0.16657661  0.33326538  0.33800335
   0.33323699  0.16659350  0.33800473
   0.16660125  0.83330214  0.33800571
   0.33323259  0.66659923  0.33789873
   0.66656714  0.33326446  0.33789874
   0.83327293  0.16662844  0.33800575
   0.66658373  0.83326899  0.33800163
   0.83325082  0.66661155  0.33800021
Direct configuration=    42
   0.00427614  0.00283713  0.09995617
   0.35941758  0.00284697  0.10136002
   0.00428976  0.35798336  0.10136251
   0.64914595  0.64770335  0.10135343
   0.32796248  0.32652487  0.10117061
   0.68060571  0.00283953  0.10110960
   0.00427805  0.67916772  0.10109783
   0.16657039  0.33326626  0.33800624
   0.33323842  0.16659025  0.33800770
   0.16660056  0.83330085  0.33800880
   0.33323695  0.66660194  0.33789831
   0.66657112  0.33326703  0.33789831
   0.83327219  0.16662759  0.33800872
   0.66658416  0.83326530  0.33800456
   0.83324454  0.66661184  0.33800318
Direct configuration=    43
   0.00427228  0.00282377  0.09993517
   0.35941017  0.00285561  0.10135141
   0.00430253  0.35798037  0.10135393
   0.64916785  0.64772005  0.10135240
   0.32797784  0.32654759  0.10115245
   0.68059285  0.00282402  0.10111552
   0.00426111  0.67915781  0.10110859
   0.16655549  0.33326839  0.33801316
   0.33324185  0.16658248  0.33801482
   0.16659889  0.83329776  0.33801622
   0.33324740  0.66660842  0.33789730
   0.66658067  0.33327321  0.33789729
   0.83327041  0.16662555  0.33801586
   0.66658517  0.83325646  0.33801157
   0.83322949  0.66661252  0.33801031
Direct configuration=    44
   0.00427600  0.00283013  0.09993101
   0.35941535  0.00285654  0.10134933
   0.00430210  0.35798255  0.10135182
   0.64916083  0.64771454  0.10135188
   0.32796572  0.32653510  0.10114631
   0.68060223  0.00282830  0.10111581
   0.00426530  0.67916415  0.10111019
   0.16655543  0.33327200  0.33801483
   0.33324529  0.16658335  0.33801650
   0.16659994  0.83329500  0.33801798
   0.33324854  0.66660917  0.33789867
   0.66658221  0.33327408  0.33789867
   0.83326756  0.16662618  0.33801757
   0.66658229  0.83325359  0.33801333
   0.83322520  0.66660931  0.33801210
Direct configuration=    45
   0.00428565  0.00284662  0.09992026
   0.35942878  0.00285897  0.10134393
   0.00430099  0.35798820  0.10134637
   0.64914268  0.64770026  0.10135054
   0.32793431  0.32650273  0.10113040
   0.68062652  0.00283939  0.10111656
   0.00427614  0.67918056  0.10111432
   0.16655529  0.33328135  0.33801914
   0.33325419  0.16658561  0.33802087
   0.16660265  0.83328787  0.33802255
   0.33325151  0.66661111  0.33790223
   0.66658620  0.33327633  0.33790224
   0.83326017  0.16662783  0.33802198
   0.66657483  0.83324617  0.33801788
   0.83321409  0.66660100  0.33801673
Direct configuration=    46
   0.00428725  0.00285024  0.09991593
   0.35943523  0.00285722  0.10134172
   0.00429770  0.35799299  0.10134412
   0.64913369  0.64769300  0.10134964
   0.32792946  0.32649537  0.10112283
   0.68063283  0.00284517  0.10111573
   0.00428290  0.67918542  0.10111485
   0.16655659  0.33327560  0.33802108
   0.33324833  0.16658536  0.33802282
   0.16659926  0.83329022  0.33802459
   0.33324793  0.66660865  0.33790493
   0.66658185  0.33327379  0.33790494
   0.83326234  0.16662556  0.33802397
   0.66657718  0.83325108  0.33801997
   0.83322145  0.66660433  0.33801886
Direct configuration=    47
   0.00428949  0.00285533  0.09990985
   0.35944429  0.00285477  0.10133862
   0.00429308  0.35799971  0.10134096
   0.64912106  0.64768278  0.10134839
   0.32792264  0.32648502  0.10111218
   0.68064172  0.00285331  0.10111457
   0.00429240  0.67919226  0.10111560
   0.16655843  0.33326752  0.33802380
   0.33324008  0.16658501  0.33802556
   0.16659448  0.83329353  0.33802747
   0.33324289  0.66660519  0.33790873
   0.66657574  0.33327021  0.33790875
   0.83326539  0.16662238  0.33802677
   0.66658049  0.83325798  0.33802291
   0.83323180  0.66660901  0.33802185
Direct configuration=    48
   0.00428515  0.00284902  0.09990617
   0.35944614  0.00285061  0.10133663
   0.00428901  0.35800352  0.10133892
   0.64911987  0.64768157  0.10134692
   0.32793533  0.32649418  0.10110551
   0.68063778  0.00285508  0.10111245
   0.00429605  0.67919227  0.10111438
   0.16655628  0.33326592  0.33802573
   0.33323802  0.16658276  0.33802750
   0.16659508  0.83329493  0.33802952
   0.33324197  0.66660499  0.33791223
   0.66657562  0.33326974  0.33791224
   0.83326625  0.16662290  0.33802878
   0.66658137  0.83325672  0.33802503
   0.83323008  0.66660980  0.33802400
Direct configuration=    49
   0.00427503  0.00283434  0.09989758
   0.35945044  0.00284095  0.10133201
   0.00427953  0.35801238  0.10133419
   0.64911711  0.64767874  0.10134349
   0.32796484  0.32651551  0.10108998
   0.68062860  0.00285919  0.10110751
   0.00430454  0.67919227  0.10111155
   0.16655130  0.33326220  0.33803022
   0.33323323  0.16657753  0.33803201
   0.16659647  0.83329818  0.33803429
   0.33323981  0.66660453  0.33792035
   0.66657534  0.33326863  0.33792036
   0.83326825  0.16662411  0.33803347
   0.66658341  0.83325379  0.33802996
   0.83322607  0.66661165  0.33802901
Direct configuration=    50
   0.00427347  0.00283183  0.09989323
   0.35944615  0.00283984  0.10132922
   0.00427913  0.35800882  0.10133134
   0.64912402  0.64768482  0.10134071
   0.32797012  0.32651915  0.10108326
   0.68062826  0.00285950  0.10110413
   0.00430550  0.67919397  0.10110883
   0.16655169  0.33326759  0.33803292
   0.33323901  0.16658003  0.33803471
   0.16659545  0.83329287  0.33803713
   0.33324186  0.66660492  0.33792469
   0.66657593  0.33326974  0.33792470