<?xml version="1.0" encoding="ISO-8859-1"?>
<modeling>
 <generator>
  <i name="program" type="string">vasp </i>
  <i name="version" type="string">6.3.2  </i>
  <i name="subversion" type="string">27Jun22 (build Dec 22 2022 13:13:19) complex                          parallel </i>
  <i name="platform" type="string">LinuxIFC </i>
  <i name="date" type="string">2023 08 21 </i>
  <i name="time" type="string">15:23:12 </i>
 </generator>
 <incar>
  <i type="string" name="SYSTEM">Lattice</i>
  <i type="int" name="ISTART">     0</i>
  <i type="string" name="PREC">Accurate</i>
  <i type="string" name="ALGO">Normal</i>
  <i type="int" name="ISPIN">     2</i>
  <i type="int" name="ICHARG">     2</i>
  <i type="int" name="NELM">    64</i>
  <i type="int" name="IBRION">     2</i>
  <i name="EDIFF">      0.00000100</i>
  <i name="EDIFFG">     -0.00100000</i>
  <i type="int" name="NSW">   128</i>
  <i type="int" name="ISIF">     2</i>
  <i name="ENCUT">    450.00000000</i>
  <i name="POTIM">      0.50000000</i>
  <i type="int" name="ISMEAR">     0</i>
  <i name="SIGMA">      0.10000000</i>
  <i type="logical" name="LWAVE"> F  </i>
  <i type="logical" name="LCHARG"> F  </i>
  <i type="string" name="GGA">PE</i>
  <i type="int" name="IVDW">    12</i>
 </incar>
 <primitive_cell>
  <structure name="primitive_cell" >
   <crystal>
    <varray name="basis" >
     <v>       4.29548600       2.48000000       0.00000000 </v>
     <v>      -4.29548600       2.48000000       0.00000000 </v>
     <v>       0.00000000       0.00000000      15.00000000 </v>
    </varray>
    <i name="volume">    319.58415861 </i>
    <varray name="rec_basis" >
     <v>       0.11640126       0.20161290       0.00000000 </v>
     <v>      -0.11640126       0.20161290       0.00000000 </v>
     <v>       0.00000000       0.00000000       0.06666667 </v>
    </varray>
   </crystal>
   <varray name="positions" >
    <v>       0.66888689       1.00000000       0.10000000 </v>
    <v>       0.33111211       1.00000000       0.10000000 </v>
    <v>       1.00000000       0.33111211       0.10000000 </v>
    <v>       1.00000000       0.66888689       0.10000000 </v>
    <v>       0.33111211       0.33111211       0.10000000 </v>
    <v>       0.66888689       0.66888689       0.10000000 </v>
    <v>       0.66666600       0.33333300       0.09922189 </v>
    <v>       0.33333300       0.66666600       0.10077811 </v>
    <v>       0.16666600       0.33333300       0.46773333 </v>
    <v>       0.33333300       0.16666600       0.46773333 </v>
    <v>       0.16666600       0.83333300       0.46773333 </v>
    <v>       0.33333300       0.66666600       0.46773333 </v>
    <v>       0.66666600       0.33333300       0.46773333 </v>
    <v>       0.83333300       0.16666600       0.46773333 </v>
    <v>       0.66666600       0.83333300       0.46773333 </v>
    <v>       0.83333300       0.66666600       0.46773333 </v>
   </varray>
  </structure>
  <varray name="primitive_index" >
   <v type="int" >        1 </v>
   <v type="int" >        2 </v>
   <v type="int" >        3 </v>
   <v type="int" >        4 </v>
   <v type="int" >        5 </v>
   <v type="int" >        6 </v>
   <v type="int" >        7 </v>
   <v type="int" >        8 </v>
   <v type="int" >        9 </v>
   <v type="int" >       10 </v>
   <v type="int" >       11 </v>
   <v type="int" >       12 </v>
   <v type="int" >       13 </v>
   <v type="int" >       14 </v>
   <v type="int" >       15 </v>
   <v type="int" >       16 </v>
  </varray>
 </primitive_cell>
 <kpoints>
  <generation param="Gamma">
   <v type="int" name="divisions">      12       12        1 </v>
   <v name="usershift">      0.00000000       0.00000000       0.00000000 </v>
   <v name="genvec1">      0.08333333      -0.00000000       0.00000000 </v>
   <v name="genvec2">     -0.00000000       0.08333333       0.00000000 </v>
   <v name="genvec3">      0.00000000       0.00000000       1.00000000 </v>
   <v name="shift">      0.00000000       0.00000000       0.00000000 </v>
  </generation>
  <varray name="kpointlist" >
   <v>       0.00000000       0.00000000       0.00000000 </v>
   <v>       0.08333333      -0.00000000       0.00000000 </v>
   <v>       0.16666667      -0.00000000       0.00000000 </v>
   <v>       0.25000000      -0.00000000       0.00000000 </v>
   <v>       0.33333333      -0.00000000       0.00000000 </v>
   <v>       0.41666667      -0.00000000       0.00000000 </v>
   <v>       0.50000000      -0.00000000       0.00000000 </v>
   <v>       0.08333333       0.08333333       0.00000000 </v>
   <v>       0.16666667       0.08333333       0.00000000 </v>
   <v>       0.25000000       0.08333333       0.00000000 </v>
   <v>       0.33333333       0.08333333       0.00000000 </v>
   <v>       0.41666667       0.08333333       0.00000000 </v>
   <v>       0.16666667       0.16666667       0.00000000 </v>
   <v>       0.25000000       0.16666667       0.00000000 </v>
   <v>       0.33333333       0.16666667       0.00000000 </v>
   <v>       0.41666667       0.16666667       0.00000000 </v>
   <v>       0.25000000       0.25000000       0.00000000 </v>
   <v>       0.33333333       0.25000000       0.00000000 </v>
   <v>       0.33333333       0.33333333       0.00000000 </v>
  </varray>
  <varray name="weights" >
   <v>       0.00694444 </v>
   <v>       0.04166667 </v>
   <v>       0.04166667 </v>
   <v>       0.04166667 </v>
   <v>       0.04166667 </v>
   <v>       0.04166667 </v>
   <v>       0.02083333 </v>
   <v>       0.04166667 </v>
   <v>       0.08333333 </v>
   <v>       0.08333333 </v>
   <v>       0.08333333 </v>
   <v>       0.08333333 </v>
   <v>       0.04166667 </v>
   <v>       0.08333333 </v>
   <v>       0.08333333 </v>
   <v>       0.04166667 </v>
   <v>       0.04166667 </v>
   <v>       0.08333333 </v>
   <v>       0.01388889 </v>
  </varray>
 </kpoints>
 <parameters>
  <separator name="general" >
   <i type="string" name="SYSTEM">Lattice</i>
   <i type="logical" name="LCOMPAT"> F  </i>
  </separator>
  <separator name="electronic" >
   <i type="string" name="PREC">accura</i>
   <i name="ENMAX">    450.00000000</i>
   <i name="ENAUG">    644.87300000</i>
   <i name="EDIFF">      0.00000100</i>
   <i type="int" name="IALGO">    38</i>
   <i type="int" name="IWAVPR">    11</i>
   <i type="int" name="NBANDS">    48</i>
   <i type="int" name="NBANDSLOW">    -1</i>
   <i type="int" name="NBANDSHIGH">    -1</i>
   <i name="NELECT">     56.00000000</i>
   <i type="int" name="TURBO">     0</i>
   <i type="int" name="IRESTART">     0</i>
   <i type="int" name="NREBOOT">     0</i>
   <i type="int" name="NMIN">     0</i>
   <i name="EREF">      0.00000000</i>
   <separator name="electronic smearing" >
    <i type="int" name="ISMEAR">     0</i>
    <i name="SIGMA">      0.10000000</i>
    <i name="KSPACING">      0.50000000</i>
    <i type="logical" name="KGAMMA"> T  </i>
    <i type="logical" name="KBLOWUP"> T  </i>
   </separator>
   <separator name="electronic projectors" >
    <i type="logical" name="LREAL"> F  </i>
    <v name="ROPT">      0.00000000      0.00000000</v>
    <i type="int" name="LMAXPAW">  -100</i>
    <i type="int" name="LMAXMIX">     2</i>
    <i type="logical" name="NLSPLINE"> F  </i>
   </separator>
   <separator name="electronic startup" >
    <i type="int" name="ISTART">     0</i>
    <i type="int" name="ICHARG">     2</i>
    <i type="int" name="INIWAV">     1</i>
   </separator>
   <separator name="electronic spin" >
    <i type="int" name="ISPIN">     2</i>
    <i type="logical" name="LNONCOLLINEAR"> F  </i>
    <v name="MAGMOM">      1.00000000      1.00000000      1.00000000      1.00000000      1.00000000      1.00000000      1.00000000      1.00000000      1.00000000      1.00000000      1.00000000      1.00000000      1.00000000      1.00000000      1.00000000      1.00000000</v>
    <i name="NUPDOWN">     -1.00000000</i>
    <i type="logical" name="LSORBIT"> F  </i>
    <v name="SAXIS">      0.00000000      0.00000000      1.00000000</v>
    <i type="logical" name="LSPIRAL"> F  </i>
    <v name="QSPIRAL">      0.00000000      0.00000000      0.00000000</v>
    <i type="logical" name="LZEROZ"> F  </i>
   </separator>
   <separator name="electronic exchange-correlation" >
    <i type="logical" name="LASPH"> F  </i>
    <i type="logical" name="LMETAGGA"> F  </i>
   </separator>
   <separator name="electronic convergence" >
    <i type="int" name="NELM">    64</i>
    <i type="int" name="NELMDL">    -5</i>
    <i type="int" name="NELMIN">     2</i>
    <i name="ENINI">    450.00000000</i>
    <separator name="electronic convergence detail" >
     <i type="logical" name="LDIAG"> T  </i>
     <i type="logical" name="LSUBROT"> F  </i>
     <i name="WEIMIN">      0.00100000</i>
     <i name="EBREAK">      0.00000001</i>
     <i name="DEPER">      0.30000000</i>
     <i type="int" name="NRMM">     4</i>
     <i name="TIME">      0.40000000</i>
    </separator>
   </separator>
   <separator name="electronic mixer" >
    <i name="AMIX">      0.40000000</i>
    <i name="BMIX">      1.00000000</i>
    <i name="AMIN">      0.10000000</i>
    <i name="AMIX_MAG">      1.60000000</i>
    <i name="BMIX_MAG">      1.00000000</i>
    <separator name="electronic mixer details" >
     <i type="int" name="IMIX">     4</i>
     <i type="logical" name="MIXFIRST"> F  </i>
     <i type="int" name="MAXMIX">   -45</i>
     <i name="WC">    100.00000000</i>
     <i type="int" name="INIMIX">     1</i>
     <i type="int" name="MIXPRE">     1</i>
     <i type="int" name="MREMOVE">     5</i>
    </separator>
   </separator>
   <separator name="electronic dipolcorrection" >
    <i type="logical" name="LDIPOL"> F  </i>
    <i type="logical" name="LMONO"> F  </i>
    <i type="int" name="IDIPOL">     0</i>
    <i name="EPSILON">      1.00000000</i>
    <v name="DIPOL">   -100.00000000   -100.00000000   -100.00000000</v>
    <i name="EFIELD">      0.00000000</i>
   </separator>
  </separator>
  <separator name="grids" >
   <i type="int" name="NGX">    36</i>
   <i type="int" name="NGY">    36</i>
   <i type="int" name="NGZ">   108</i>
   <i type="int" name="NGXF">    72</i>
   <i type="int" name="NGYF">    72</i>
   <i type="int" name="NGZF">   216</i>
   <i type="logical" name="ADDGRID"> F  </i>
  </separator>
  <separator name="ionic" >
   <i type="int" name="NSW">   128</i>
   <i type="int" name="IBRION">     2</i>
   <i type="int" name="MDALGO">     0</i>
   <i type="int" name="ISIF">     2</i>
   <i name="PSTRESS">      0.00000000</i>
   <i name="EDIFFG">     -0.00100000</i>
   <i type="int" name="NFREE">     1</i>
   <i name="POTIM">      0.50000000</i>
   <i name="SMASS">     -3.00000000</i>
   <i name="SCALEE">      1.00000000</i>
  </separator>
  <separator name="ionic md" >
   <i name="TEBEG">      0.00010000</i>
   <i name="TEEND">      0.00010000</i>
   <i type="int" name="NBLOCK">     1</i>
   <i type="int" name="KBLOCK">   128</i>
   <i type="int" name="NPACO">   256</i>
   <i name="APACO">     10.00000000</i>
  </separator>
  <separator name="symmetry" >
   <i type="int" name="ISYM">     2</i>
   <i name="SYMPREC">      0.00001000</i>
  </separator>
  <separator name="dos" >
   <i type="int" name="LORBIT">     0</i>
   <v name="RWIGS">     -1.00000000     -1.00000000</v>
   <i type="int" name="NEDOS">   301</i>
   <i name="EMIN">     10.00000000</i>
   <i name="EMAX">    -10.00000000</i>
   <i name="EFERMI">      0.00000000</i>
  </separator>
  <separator name="writing" >
   <i type="int" name="NWRITE">     2</i>
   <i type="logical" name="LWAVE"> F  </i>
   <i type="logical" name="LDOWNSAMPLE"> F  </i>
   <i type="logical" name="LCHARG"> F  </i>
   <i type="logical" name="LPARD"> F  </i>
   <i type="logical" name="LVTOT"> F  </i>
   <i type="logical" name="LVHAR"> F  </i>
   <i type="logical" name="LELF"> F  </i>
   <i type="logical" name="LOPTICS"> F  </i>
   <v name="STM">      0.00000000      0.00000000      0.00000000      0.00000000      0.00000000      0.00000000      0.00000000</v>
  </separator>
  <separator name="performance" >
   <i type="int" name="NPAR">    48</i>
   <i type="int" name="NSIM">     4</i>
   <i type="int" name="NBLK">    -1</i>
   <i type="logical" name="LPLANE"> T  </i>
   <i type="logical" name="LSCALAPACK"> T  </i>
   <i type="logical" name="LSCAAWARE"> F  </i>
   <i type="logical" name="LSCALU"> F  </i>
   <i type="logical" name="LASYNC"> F  </i>
   <i type="logical" name="LORBITALREAL"> F  </i>
  </separator>
  <separator name="miscellaneous" >
   <i type="int" name="IDIOT">     3</i>
   <i type="int" name="PHON_NSTRUCT">    -1</i>
   <i type="logical" name="LMUSIC"> F  </i>
   <v name="POMASS">     10.81100000     12.01100000</v>
   <v name="DARWINR">      0.00000000      0.00000000</v>
   <v name="DARWINV">      1.00000000      1.00000000</v>
   <i type="logical" name="LCORR"> T  </i>
  </separator>
  <i type="logical" name="GGA_COMPAT"> T  </i>
  <i type="logical" name="LBERRY"> F  </i>
  <i type="int" name="ICORELEVEL">     0</i>
  <i type="logical" name="LDAU"> F  </i>
  <i type="int" name="I_CONSTRAINED_M">     0</i>
  <separator name="electronic exchange-correlation" >
   <i type="string" name="GGA">PE</i>
   <i type="int" name="VOSKOWN">     0</i>
   <i type="logical" name="LHFCALC"> F  </i>
   <i type="string" name="PRECFOCK"></i>
   <i type="logical" name="LSYMGRAD"> F  </i>
   <i type="logical" name="LHFONE"> F  </i>
   <i type="logical" name="LRHFCALC"> F  </i>
   <i type="logical" name="LTHOMAS"> F  </i>
   <i type="logical" name="LMODELHF"> F  </i>
   <i type="logical" name="LFOCKACE"> F  </i>
   <i name="ENCUT4O">     -1.00000000</i>
   <i type="int" name="EXXOEP">     0</i>
   <i type="int" name="FOURORBIT">     0</i>
   <i name="AEXX">      0.00000000</i>
   <i name="HFALPHA">      0.00000000</i>
   <i name="MCALPHA">      0.00000000</i>
   <i name="ALDAX">      1.00000000</i>
   <i name="AGGAX">      1.00000000</i>
   <i name="ALDAC">      1.00000000</i>
   <i name="AGGAC">      1.00000000</i>
   <i type="int" name="NKREDX">     1</i>
   <i type="int" name="NKREDY">     1</i>
   <i type="int" name="NKREDZ">     1</i>
   <i type="logical" name="SHIFTRED"> F  </i>
   <i type="logical" name="ODDONLY"> F  </i>
   <i type="logical" name="EVENONLY"> F  </i>
   <i type="int" name="LMAXFOCK">     0</i>
   <i type="int" name="NMAXFOCKAE">     0</i>
   <i type="logical" name="LFOCKAEDFT"> F  </i>
   <i name="HFSCREEN">      0.00000000</i>
   <i name="HFSCREENC">      0.00000000</i>
   <i type="int" name="NBANDSGWLOW">     0</i>
  </separator>
  <separator name="vdW DFT" >
   <i type="logical" name="LUSE_VDW"> F  </i>
   <i name="Zab_VDW">     -0.84910000</i>
   <i name="PARAM1">      0.12340000</i>
   <i name="PARAM2">      1.00000000</i>
   <i name="PARAM3">      0.00000000</i>
  </separator>
  <separator name="model GW" >
   <i type="int" name="MODEL_GW">     0</i>
   <i name="MODEL_EPS0">     11.98440595</i>
   <i name="MODEL_ALPHA">      1.00000000</i>
  </separator>
  <separator name="linear response parameters" >
   <i type="logical" name="LEPSILON"> F  </i>
   <i type="logical" name="LRPA"> F  </i>
   <i type="logical" name="LNABLA"> F  </i>
   <i type="logical" name="LVEL"> F  </i>
   <i name="CSHIFT">      0.10000000</i>
   <i name="OMEGAMAX">     -1.00000000</i>
   <i name="DEG_THRESHOLD">      0.00200000</i>
   <i name="RTIME">     -0.10000000</i>
   <i name="WPLASMAI">      0.00000000</i>
   <v name="DFIELD">      0.00000000      0.00000000      0.00000000</v>
   <v name="WPLASMA">      0.00000000      0.00000000      0.00000000      0.00000000      0.00000000      0.00000000      0.00000000      0.00000000      0.00000000</v>
  </separator>
  <separator name="orbital magnetization" >
   <i type="logical" name="NUCIND"> F  </i>
   <v name="MAGPOS">      0.00000000      0.00000000      0.00000000</v>
   <i type="logical" name="LNICSALL"> T  </i>
   <i type="logical" name="ORBITALMAG"> F  </i>
   <i type="logical" name="LMAGBLOCH"> F  </i>
   <i type="logical" name="LCHIMAG"> F  </i>
   <i type="logical" name="LGAUGE"> T  </i>
   <i type="int" name="MAGATOM">     0</i>
   <v name="MAGDIPOL">      0.00000000      0.00000000      0.00000000</v>
   <v name="AVECCONST">      0.00000000      0.00000000      0.00000000</v>
  </separator>
  <separator name="response functions" >
   <i type="logical" name="LFINITE_TEMPERATURE"> F  </i>
   <i type="logical" name="LADDER"> F  </i>
   <i type="logical" name="LRPAFORCE"> F  </i>
   <i type="logical" name="LFXC"> F  </i>
   <i type="logical" name="LHARTREE"> T  </i>
   <i type="int" name="IBSE">     0</i>
   <v type="int" name="KPOINT">    -1     0     0     0</v>
   <i type="logical" name="LTCTC"> F  </i>
   <i type="logical" name="LTCTE"> F  </i>
   <i type="logical" name="LTETE"> F  </i>
   <i type="logical" name="LTRIPLET"> F  </i>
   <i type="logical" name="LFXCEPS"> F  </i>
   <i type="logical" name="LFXHEG"> F  </i>
   <i type="int" name="NATURALO">     2</i>
   <i type="logical" name="LHOLEGF"> F  </i>
   <i type="logical" name="L2ORDER"> F  </i>
   <i type="logical" name="LDMP1"> F  </i>
   <i type="logical" name="LMP2LT"> F  </i>
   <i type="logical" name="LSMP2LT"> F  </i>
   <i type="logical" name="LGWLF"> F  </i>
   <i name="ENCUTGW">     -2.00000000</i>
   <i name="ENCUTGWSOFT">     -2.00000000</i>
   <i name="ENCUTLF">     -1.00000000</i>
   <i type="logical" name="LESF_SPLINES"> F  </i>
   <i type="int" name="LMAXMP2">    -1</i>
   <i name="SCISSOR">      0.00000000</i>
   <i type="int" name="NOMEGA">     0</i>
   <i type="int" name="NOMEGAR">     0</i>
   <i type="int" name="NBANDSGW">    -1</i>
   <i type="int" name="NBANDSO">    -1</i>
   <i type="int" name="NBANDSV">    -1</i>
   <i type="int" name="NELMGW">     1</i>
   <i type="int" name="NELMHF">     1</i>
   <i type="int" name="DIM">     3</i>
   <i type="int" name="IESPILON">     4</i>
   <i type="int" name="ANTIRES">     0</i>
   <i name="OMEGAMAX">    -30.00000000</i>
   <i name="OMEGAMIN">    -30.00000000</i>
   <i name="OMEGATL">   -200.00000000</i>
   <i type="int" name="OMEGAGRID">     0</i>
   <i name="CSHIFT">     -0.10000000</i>
   <i type="logical" name="LSELFENERGY"> F  </i>
   <i type="logical" name="LSPECTRAL"> F  </i>
   <i type="logical" name="LSPECTRALGW"> F  </i>
   <i type="logical" name="LSINGLES"> F  </i>
   <i type="logical" name="LFERMIGW"> F  </i>
   <i type="logical" name="ODDONLYGW"> F  </i>
   <i type="logical" name="EVENONLYGW"> F  </i>
   <i type="int" name="NKREDLFX">     1</i>
   <i type="int" name="NKREDLFY">     1</i>
   <i type="int" name="NKREDLFZ">     1</i>
   <i type="int" name="MAXMEM">  2800</i>
   <i type="int" name="TELESCOPE">     0</i>
   <i type="int" name="NTAUPAR">    -1</i>
   <i type="int" name="NOMEGAPAR">    -1</i>
   <i name="DAMP_NEWTON">      0.80000001</i>
   <i name="LAMBDA">      1.00000000</i>
  </separator>
  <separator name="External order field" >
   <i name="OFIELD_KAPPA">      0.00000000</i>
   <v name="OFIELD_K">      0.00000000      0.00000000      0.00000000</v>
   <i name="OFIELD_Q6_NEAR">      0.00000000</i>
   <i name="OFIELD_Q6_FAR">      0.00000000</i>
   <i name="OFIELD_A">      0.00000000</i>
  </separator>
  <separator name="optional k-points parameters" >
   <i type="int" name="KPOINTS_OPT_MODE">     1</i>
   <i type="logical" name="LKPOINTS_OPT"> F  </i>
  </separator>
  <separator name="solvation model" >
   <i type="logical" name="LSOL"> F  </i>
  </separator>
 </parameters>
 <atominfo>
  <atoms>      16 </atoms>
  <types>       2 </types>
  <array name="atoms" >
   <dimension dim="1">ion</dimension>
   <field type="string">element</field>
   <field type="int">atomtype</field>
   <set>
    <rc><c>B </c><c>   1</c></rc>
    <rc><c>B </c><c>   1</c></rc>
    <rc><c>B </c><c>   1</c></rc>
    <rc><c>B </c><c>   1</c></rc>
    <rc><c>B </c><c>   1</c></rc>
    <rc><c>B </c><c>   1</c></rc>
    <rc><c>B </c><c>   1</c></rc>
    <rc><c>B </c><c>   1</c></rc>
    <rc><c>C </c><c>   2</c></rc>
    <rc><c>C </c><c>   2</c></rc>
    <rc><c>C </c><c>   2</c></rc>
    <rc><c>C </c><c>   2</c></rc>
    <rc><c>C </c><c>   2</c></rc>
    <rc><c>C </c><c>   2</c></rc>
    <rc><c>C </c><c>   2</c></rc>
    <rc><c>C </c><c>   2</c></rc>
   </set>
  </array>
  <array name="atomtypes" >
   <dimension dim="1">type</dimension>
   <field type="int">atomspertype</field>
   <field type="string">element</field>
   <field>mass</field>
   <field>valence</field>
   <field type="string">pseudopotential</field>
   <set>
    <rc><c>   8</c><c>B </c><c>     10.81100000</c><c>      3.00000000</c><c>  PAW_PBE B 06Sep2000                   </c></rc>
    <rc><c>   8</c><c>C </c><c>     12.01100000</c><c>      4.00000000</c><c>  PAW_PBE C 08Apr2002                   </c></rc>
   </set>
  </array>
 </atominfo>
 <structure name="initialpos" >
  <crystal>
   <varray name="basis" >
    <v>       4.29548600       2.48000000       0.00000000 </v>
    <v>      -4.29548600       2.48000000       0.00000000 </v>
    <v>       0.00000000       0.00000000      15.00000000 </v>
   </varray>
   <i name="volume">    319.58415861 </i>
   <varray name="rec_basis" >
    <v>       0.11640126       0.20161290       0.00000000 </v>
    <v>      -0.11640126       0.20161290       0.00000000 </v>
    <v>       0.00000000       0.00000000       0.06666667 </v>
   </varray>
  </crystal>
  <varray name="positions" >
   <v>       0.66888689       0.00000000       0.10000000 </v>
   <v>       0.33111211       0.00000000       0.10000000 </v>
   <v>       0.00000000       0.33111211       0.10000000 </v>
   <v>       0.00000000       0.66888689       0.10000000 </v>
   <v>       0.33111211       0.33111211       0.10000000 </v>
   <v>       0.66888689       0.66888689       0.10000000 </v>
   <v>       0.66666600       0.33333300       0.09922189 </v>
   <v>       0.33333300       0.66666600       0.10077811 </v>
   <v>       0.16666600       0.33333300       0.46773333 </v>
   <v>       0.33333300       0.16666600       0.46773333 </v>
   <v>       0.16666600       0.83333300       0.46773333 </v>
   <v>       0.33333300       0.66666600       0.46773333 </v>
   <v>       0.66666600       0.33333300       0.46773333 </v>
   <v>       0.83333300       0.16666600       0.46773333 </v>
   <v>       0.66666600       0.83333300       0.46773333 </v>
   <v>       0.83333300       0.66666600       0.46773333 </v>
  </varray>
 </structure>
 <calculation>
  <scstep>
   <time name="dav">    1.45    1.46</time>
   <time name="total">    1.49    1.51</time>
   <energy>
    <i name="alphaZ">     60.93491439 </i>
    <i name="ewald">   1920.11745538 </i>
    <i name="hartreedc">  -3331.13688487 </i>
    <i name="XCdc">    163.82856664 </i>
    <i name="pawpsdc">   1214.24570090 </i>
    <i name="pawaedc">  -1211.68112031 </i>
    <i name="eentropy">     -0.01573391 </i>
    <i name="bandstr">   -376.96518238 </i>
    <i name="atom">   1746.50554237 </i>
    <i name="e_fr_energy">    185.83325821 </i>
    <i name="e_wo_entrp">    185.84899212 </i>
    <i name="e_0_energy">    185.84112516 </i>
   </energy>
  </scstep>
  <scstep>
   <time name="dav">    2.35    2.38</time>
   <time name="total">    2.35    2.38</time>
   <energy>
    <i name="e_fr_energy">   -118.82346281 </i>
    <i name="e_wo_entrp">   -118.81146436 </i>
    <i name="e_0_energy">   -118.81746358 </i>
   </energy>
  </scstep>
  <scstep>
   <time name="dav">    2.46    2.48</time>
   <time name="total">    2.46    2.48</time>
   <energy>
    <i name="e_fr_energy">   -128.22671138 </i>
    <i name="e_wo_entrp">   -128.21442385 </i>
    <i name="e_0_energy">   -128.22056761 </i>
   </energy>
  </scstep>
  <scstep>
   <time name="dav">    2.53    2.56</time>
   <time name="total">    2.53    2.56</time>
   <energy>
    <i name="e_fr_energy">   -128.26111804 </i>
    <i name="e_wo_entrp">   -128.24891460 </i>
    <i name="e_0_energy">   -128.25501632 </i>
   </energy>
  </scstep>
  <scstep>
   <time name="dav">    2.23    2.25</time>
   <time name="total">    2.34    2.38</time>
   <energy>
    <i name="e_fr_energy">   -128.26115303 </i>
    <i name="e_wo_entrp">   -128.24894959 </i>
    <i name="e_0_energy">   -128.25505131 </i>
   </energy>
  </scstep>
  <scstep>
   <time name="dav">    1.98    2.00</time>
   <time name="total">    2.12    2.17</time>
   <energy>
    <i name="e_fr_energy">    -94.67937819 </i>
    <i name="e_wo_entrp">    -94.66773572 </i>
    <i name="e_0_energy">    -94.67355696 </i>
   </energy>
  </scstep>
  <scstep>
   <time name="dav">    2.26    2.29</time>
   <time name="total">    2.40    2.45</time>
   <energy>
    <i name="e_fr_energy">   -105.70370776 </i>
    <i name="e_wo_entrp">   -105.69434921 </i>
    <i name="e_0_energy">   -105.69902849 </i>
   </energy>
  </scstep>
  <scstep>
   <time name="dav">    2.24    2.26</time>
   <time name="total">    2.37    2.40</time>
   <energy>
    <i name="e_fr_energy">   -111.45790646 </i>
    <i name="e_wo_entrp">   -111.44861355 </i>
    <i name="e_0_energy">   -111.45326000 </i>
   </energy>
  </scstep>
  <scstep>
   <time name="dav">    1.91    1.94</time>
   <time name="total">    2.05    2.08</time>
   <energy>
    <i name="e_fr_energy">   -116.70086735 </i>
    <i name="e_wo_entrp">   -116.69843436 </i>
    <i name="e_0_energy">   -116.69965086 </i>
   </energy>
  </scstep>
  <scstep>
   <time name="dav">    2.36    2.38</time>
   <time name="total">    2.49    2.52</time>
   <energy>
    <i name="e_fr_energy">   -120.91394219 </i>
    <i name="e_wo_entrp">   -120.90903696 </i>
    <i name="e_0_energy">   -120.91148958 </i>
   </energy>
  </scstep>
  <scstep>
   <time name="dav">    2.28    2.30</time>
   <time name="total">    2.43    2.47</time>
   <energy>
    <i name="e_fr_energy">   -122.73542524 </i>
    <i name="e_wo_entrp">   -122.73221574 </i>
    <i name="e_0_energy">   -122.73382049 </i>
   </energy>
  </scstep>
  <scstep>
   <time name="dav">    2.35    2.38</time>
   <time name="total">    2.48    2.51</time>
   <energy>
    <i name="e_fr_energy">   -123.73454158 </i>
    <i name="e_wo_entrp">   -123.72969745 </i>
    <i name="e_0_energy">   -123.73211951 </i>
   </energy>
  </scstep>
  <scstep>
   <time name="dav">    2.22    2.25</time>
   <time name="total">    2.37    2.40</time>
   <energy>
    <i name="e_fr_energy">   -124.03788303 </i>
    <i name="e_wo_entrp">   -124.03182684 </i>
    <i name="e_0_energy">   -124.03485493 </i>
   </energy>
  </scstep>
  <scstep>
   <time name="dav">    1.87    1.88</time>
   <time name="total">    2.00    2.02</time>
   <energy>
    <i name="e_fr_energy">   -124.08944267 </i>
    <i name="e_wo_entrp">   -124.08336853 </i>
    <i name="e_0_energy">   -124.08640560 </i>
   </energy>
  </scstep>
  <scstep>
   <time name="dav">    1.63    1.64</time>
   <time name="total">    1.77    1.79</time>
   <energy>
    <i name="e_fr_energy">   -124.11308791 </i>
    <i name="e_wo_entrp">   -124.10703189 </i>
    <i name="e_0_energy">   -124.11005990 </i>
   </energy>
  </scstep>
  <scstep>
   <time name="dav">    1.73    1.74</time>
   <time name="total">    1.86    1.88</time>
   <energy>
    <i name="e_fr_energy">   -124.11464957 </i>
    <i name="e_wo_entrp">   -124.10860323 </i>
    <i name="e_0_energy">   -124.11162640 </i>
   </energy>
  </scstep>
  <scstep>
   <time name="dav">    1.57    1.58</time>
   <time name="total">    1.70    1.72</time>
   <energy>
    <i name="e_fr_energy">   -124.11511832 </i>
    <i name="e_wo_entrp">   -124.10907456 </i>
    <i name="e_0_energy">   -124.11209644 </i>
   </energy>
  </scstep>
  <scstep>
   <time name="dav">    1.59    1.60</time>
   <time name="total">    1.72    1.74</time>
   <energy>
    <i name="e_fr_energy">   -124.11518522 </i>
    <i name="e_wo_entrp">   -124.10913220 </i>
    <i name="e_0_energy">   -124.11215871 </i>
   </energy>
  </scstep>
  <scstep>
   <time name="dav">    1.54    1.56</time>
   <time name="total">    1.67    1.70</time>
   <energy>
    <i name="e_fr_energy">   -124.11524922 </i>
    <i name="e_wo_entrp">   -124.10919294 </i>
    <i name="e_0_energy">   -124.11222108 </i>
   </energy>
  </scstep>
  <scstep>
   <time name="dav">    1.58    1.59</time>
   <time name="total">    1.71    1.73</time>
   <energy>
    <i name="e_fr_energy">   -124.11528119 </i>
    <i name="e_wo_entrp">   -124.10922795 </i>
    <i name="e_0_energy">   -124.11225457 </i>
   </energy>
  </scstep>
  <scstep>
   <time name="dav">    1.54    1.55</time>
   <time name="total">    1.68    1.70</time>
   <energy>
    <i name="e_fr_energy">   -124.11532619 </i>
    <i name="e_wo_entrp">   -124.10927464 </i>
    <i name="e_0_energy">   -124.11230041 </i>
   </energy>
  </scstep>
  <scstep>
   <time name="dav">    1.83    1.85</time>
   <time name="total">    1.97    1.99</time>
   <energy>
    <i name="e_fr_energy">   -124.11535001 </i>
    <i name="e_wo_entrp">   -124.10929789 </i>
    <i name="e_0_energy">   -124.11232395 </i>
   </energy>
  </scstep>
  <scstep>
   <time name="dav">    2.15    2.17</time>
   <time name="total">    2.28    2.30</time>
   <energy>
    <i name="e_fr_energy">   -124.11535497 </i>
    <i name="e_wo_entrp">   -124.10930260 </i>
    <i name="e_0_energy">   -124.11232878 </i>
   </energy>
  </scstep>
  <scstep>
   <time name="dav">    2.06    2.08</time>
   <time name="total">    2.19    2.22</time>
   <energy>
    <i name="e_fr_energy">   -124.11535809 </i>
    <i name="e_wo_entrp">   -124.10930557 </i>
    <i name="e_0_energy">   -124.11233183 </i>
   </energy>
  </scstep>
  <scstep>
   <time name="dav">    1.95    1.96</time>
   <time name="total">    2.08    2.10</time>
   <energy>
    <i name="e_fr_energy">   -124.11535970 </i>
    <i name="e_wo_entrp">   -124.10930724 </i>
    <i name="e_0_energy">   -124.11233347 </i>
   </energy>
  </scstep>
  <scstep>
   <time name="dav">    2.25    2.27</time>
   <time name="total">    2.28    2.31</time>
   <energy>
    <i name="alphaZ">     60.93491439 </i>
    <i name="ewald">   1920.11745538 </i>
    <i name="hartreedc">  -3530.88125449 </i>
    <i name="XCdc">    168.78781125 </i>
    <i name="pawpsdc">   5918.29892862 </i>
    <i name="pawaedc">  -5917.71979420 </i>
    <i name="eentropy">     -0.00605232 </i>
    <i name="bandstr">   -490.15291109 </i>
    <i name="atom">   1746.50554237 </i>
    <i name="e_fr_energy">   -124.11536009 </i>
    <i name="e_wo_entrp">   -124.10930777 </i>
    <i name="e_0_energy">   -124.11233393 </i>
   </energy>
  </scstep>
  <structure>
   <crystal>
    <varray name="basis" >
     <v>       4.29548600       2.48000000       0.00000000 </v>
     <v>      -4.29548600       2.48000000       0.00000000 </v>
     <v>       0.00000000       0.00000000      15.00000000 </v>
    </varray>
    <i name="volume">    319.58415861 </i>
    <varray name="rec_basis" >
     <v>       0.11640126       0.20161290       0.00000000 </v>
     <v>      -0.11640126       0.20161290       0.00000000 </v>
     <v>       0.00000000       0.00000000       0.06666667 </v>
    </varray>
   </crystal>
   <varray name="positions" >
    <v>       0.66888689       0.00000000       0.10000000 </v>
    <v>       0.33111211       0.00000000       0.10000000 </v>
    <v>       0.00000000       0.33111211       0.10000000 </v>
    <v>       0.00000000       0.66888689       0.10000000 </v>
    <v>       0.33111211       0.33111211       0.10000000 </v>
    <v>       0.66888689       0.66888689       0.10000000 </v>
    <v>       0.66666600       0.33333300       0.09922189 </v>
    <v>       0.33333300       0.66666600       0.10077811 </v>
    <v>       0.16666600       0.33333300       0.46773333 </v>
    <v>       0.33333300       0.16666600       0.46773333 </v>
    <v>       0.16666600       0.83333300       0.46773333 </v>
    <v>       0.33333300       0.66666600       0.46773333 </v>
    <v>       0.66666600       0.33333300       0.46773333 </v>
    <v>       0.83333300       0.16666600       0.46773333 </v>
    <v>       0.66666600       0.83333300       0.46773333 </v>
    <v>       0.83333300       0.66666600       0.46773333 </v>
   </varray>
  </structure>
  <varray name="forces" >
   <v>       0.19497804       0.11257534       0.00843367 </v>
   <v>      -0.19498213      -0.11256827       0.00843367 </v>
   <v>       0.19497804      -0.11257534       0.00843367 </v>
   <v>      -0.19498213       0.11256827       0.00843367 </v>
   <v>       0.00000409      -0.22514361       0.00843367 </v>
   <v>       0.00000409       0.22514361       0.00843367 </v>
   <v>       0.00000000      -0.00000000       0.00554894 </v>
   <v>       0.00000000      -0.00000000       0.01302514 </v>
   <v>       0.00020951      -0.00036289      -0.00865149 </v>
   <v>      -0.00020408      -0.00035348      -0.00864470 </v>
   <v>      -0.00041902      -0.00000000      -0.00865149 </v>
   <v>       0.00000000       0.00000000      -0.00865689 </v>
   <v>       0.00000000       0.00000000      -0.00863061 </v>
   <v>       0.00040817       0.00000000      -0.00864470 </v>
   <v>       0.00020951       0.00036289      -0.00865149 </v>
   <v>      -0.00020408       0.00035348      -0.00864470 </v>
  </varray>
  <varray name="stress" >
   <v>      21.33033959       0.00000000       0.00000000 </v>
   <v>       0.00000000      21.33033959       0.00000000 </v>
   <v>       0.00000000       0.00000000      -3.69032418 </v>
  </varray>
  <energy>
   <i name="e_fr_energy">   -125.61539911 </i>
   <i name="e_wo_entrp">   -125.60934679 </i>
   <i name="e_0_energy">   -125.61237295 </i>
  </energy>
  <time name="totalsc">   56.25   57.01</time>
 </calculation>
 <calculation>
  <scstep>
   <time name="dav">    1.50    1.51</time>
   <time name="total">    1.64    1.66</time>
   <energy>
    <i name="alphaZ">     60.93491439 </i>
    <i name="ewald">   1918.70558792 </i>
    <i name="hartreedc">  -3530.38008995 </i>
    <i name="XCdc">    168.74235606 </i>
    <i name="pawpsdc">   5918.30001520 </i>
    <i name="pawaedc">  -5917.72088441 </i>
    <i name="eentropy">     -0.00597213 </i>
    <i name="bandstr">   -489.20299039 </i>
    <i name="atom">   1746.50554237 </i>
    <i name="e_fr_energy">   -124.12152096 </i>
    <i name="e_wo_entrp">   -124.11554883 </i>
    <i name="e_0_energy">   -124.11853489 </i>
   </energy>
  </scstep>
  <scstep>
   <time name="dav">    2.28    2.29</time>
   <time name="total">    2.40    2.43</time>
   <energy>
    <i name="e_fr_energy">   -124.11586890 </i>
    <i name="e_wo_entrp">   -124.10981087 </i>
    <i name="e_0_energy">   -124.11283988 </i>
   </energy>
  </scstep>
  <scstep>
   <time name="dav">    2.04    2.06</time>
   <time name="total">    2.18    2.20</time>
   <energy>
    <i name="e_fr_energy">   -124.11499598 </i>
    <i name="e_wo_entrp">   -124.10895501 </i>
    <i name="e_0_energy">   -124.11197549 </i>
   </energy>
  </scstep>
  <scstep>
   <time name="dav">    2.25    2.28</time>
   <time name="total">    2.38    2.42</time>
   <energy>
    <i name="e_fr_energy">   -124.11496292 </i>
    <i name="e_wo_entrp">   -124.10893782 </i>
    <i name="e_0_energy">   -124.11195037 </i>
   </energy>
  </scstep>
  <scstep>
   <time name="dav">    2.23    2.25</time>
   <time name="total">    2.36    2.38</time>
   <energy>
    <i name="e_fr_energy">   -124.11496270 </i>
    <i name="e_wo_entrp">   -124.10893378 </i>
    <i name="e_0_energy">   -124.11194824 </i>
   </energy>
  </scstep>
  <scstep>
   <time name="dav">    1.74    1.75</time>
   <time name="total">    1.86    1.89</time>
   <energy>
    <i name="e_fr_energy">   -124.11496442 </i>
    <i name="e_wo_entrp">   -124.10893574 </i>
    <i name="e_0_energy">   -124.11195008 </i>
   </energy>
  </scstep>
  <scstep>
   <time name="dav">    1.89    1.90</time>
   <time name="total">    2.01    2.04</time>
   <energy>
    <i name="e_fr_energy">   -124.11496630 </i>
    <i name="e_wo_entrp">   -124.10893836 </i>
    <i name="e_0_energy">   -124.11195233 </i>
   </energy>
  </scstep>
  <scstep>
   <time name="dav">    1.59    1.60</time>
   <time name="total">    1.72    1.74</time>
   <energy>
    <i name="e_fr_energy">   -124.11496929 </i>
    <i name="e_wo_entrp">   -124.10894216 </i>
    <i name="e_0_energy">   -124.11195572 </i>
   </energy>
  </scstep>
  <scstep>
   <time name="dav">    1.64    1.65</time>
   <time name="total">    1.77    1.79</time>
   <energy>
    <i name="e_fr_energy">   -124.11497204 </i>
    <i name="e_wo_entrp">   -124.10894494 </i>
    <i name="e_0_energy">   -124.11195849 </i>
   </energy>
  </scstep>
  <scstep>
   <time name="dav">    1.74    1.75</time>
   <time name="total">    1.87    1.90</time>
   <energy>
    <i name="e_fr_energy">   -124.11497350 </i>
    <i name="e_wo_entrp">   -124.10894640 </i>
    <i name="e_0_energy">   -124.11195995 </i>
   </energy>
  </scstep>
  <scstep>
   <time name="dav">    1.81    1.82</time>
   <time name="total">    1.84    1.86</time>
   <energy>
    <i name="alphaZ">     60.93491439 </i>
    <i name="ewald">   1918.70558792 </i>
    <i name="hartreedc">  -3529.57033357 </i>
    <i name="XCdc">    168.72709407 </i>
    <i name="pawpsdc">   5896.38168317 </i>
    <i name="pawaedc">  -5895.79591921 </i>
    <i name="eentropy">     -0.00602705 </i>
    <i name="bandstr">   -489.99751608 </i>
    <i name="atom">   1746.50554237 </i>
    <i name="e_fr_energy">   -124.11497401 </i>
    <i name="e_wo_entrp">   -124.10894695 </i>
    <i name="e_0_energy">   -124.11196048 </i>
   </energy>
  </scstep>
  <structure>
   <crystal>
    <varray name="basis" >
     <v>       4.29548600       2.48000000       0.00000000 </v>
     <v>      -4.29548600       2.48000000       0.00000000 </v>
     <v>       0.00000000       0.00000000      15.00000000 </v>
    </varray>
    <i name="volume">    319.58415861 </i>
    <varray name="rec_basis" >
     <v>       0.11640126       0.20161290       0.00000000 </v>
     <v>      -0.11640126       0.20161290       0.00000000 </v>
     <v>       0.00000000       0.00000000       0.06666667 </v>
    </varray>
   </crystal>
   <varray name="positions" >
    <v>       0.67107673       0.00000005       0.10002712 </v>
    <v>       0.32892231       0.00000005       0.10002712 </v>
    <v>      -0.00000005       0.32892227       0.10002712 </v>
    <v>      -0.00000005       0.67107669       0.10002712 </v>
    <v>       0.32892231       0.32892227       0.10002712 </v>
    <v>       0.67107673       0.67107669       0.10002712 </v>
    <v>       0.66666600       0.33333300       0.09923973 </v>
    <v>       0.33333300       0.66666600       0.10082000 </v>
    <v>       0.16666365       0.33332829       0.46770551 </v>
    <v>       0.33332842       0.16666371       0.46770553 </v>
    <v>       0.16666365       0.83333535       0.46770551 </v>
    <v>       0.33333300       0.66666600       0.46770549 </v>
    <v>       0.66666600       0.33333300       0.46770558 </v>
    <v>       0.83333529       0.16666371       0.46770553 </v>
    <v>       0.66667071       0.83333535       0.46770551 </v>
    <v>       0.83333529       0.66667058       0.46770553 </v>
   </varray>
  </structure>
  <varray name="forces" >
   <v>      -0.19679756      -0.11363312       0.00851883 </v>
   <v>       0.19680795       0.11361513       0.00851883 </v>
   <v>      -0.19679756       0.11363312       0.00851883 </v>
   <v>       0.19680795      -0.11361513       0.00851883 </v>
   <v>      -0.00001039       0.22724825       0.00851883 </v>
   <v>      -0.00001039      -0.22724825       0.00851883 </v>
   <v>       0.00000000      -0.00000000       0.00801001 </v>
   <v>       0.00000000      -0.00000000       0.01004809 </v>
   <v>      -0.00055990       0.00096978      -0.00865192 </v>
   <v>       0.00054497       0.00094392      -0.00864648 </v>
   <v>       0.00111981      -0.00000000      -0.00865192 </v>
   <v>       0.00000000      -0.00000000      -0.00864439 </v>
   <v>       0.00000000      -0.00000000      -0.00863151 </v>
   <v>      -0.00108994      -0.00000000      -0.00864648 </v>
   <v>      -0.00055990      -0.00096978      -0.00865192 </v>
   <v>       0.00054497      -0.00094392      -0.00864648 </v>
  </varray>
  <varray name="stress" >
   <v>      19.46350634       0.00000000      -0.00000000 </v>
   <v>       0.00000000      19.46350634       0.00000000 </v>
   <v>      -0.00000000       0.00000000      -3.69105979 </v>
  </varray>
  <energy>
   <i name="e_fr_energy">   -125.61531065 </i>
   <i name="e_wo_entrp">   -125.60928359 </i>
   <i name="e_0_energy">   -125.61229712 </i>
  </energy>
  <time name="totalsc">   23.47   23.77</time>
 </calculation>
 <calculation>
  <scstep>
   <time name="dav">    1.48    1.50</time>
   <time name="total">    1.61    1.63</time>
   <energy>
    <i name="alphaZ">     60.93491439 </i>
    <i name="ewald">   1919.39712371 </i>
    <i name="hartreedc">  -3529.80453377 </i>
    <i name="XCdc">    168.74942219 </i>
    <i name="pawpsdc">   5896.38028814 </i>
    <i name="pawaedc">  -5895.79452555 </i>
    <i name="eentropy">     -0.00592378 </i>
    <i name="bandstr">   -490.48280183 </i>
    <i name="atom">   1746.50554237 </i>
    <i name="e_fr_energy">   -124.12049415 </i>
    <i name="e_wo_entrp">   -124.11457037 </i>
    <i name="e_0_energy">   -124.11753226 </i>
   </energy>
  </scstep>
  <scstep>
   <time name="dav">    2.32    2.34</time>
   <time name="total">    2.45    2.49</time>
   <energy>
    <i name="e_fr_energy">   -124.11907845 </i>
    <i name="e_wo_entrp">   -124.11309251 </i>
    <i name="e_0_energy">   -124.11608548 </i>
   </energy>
  </scstep>
  <scstep>
   <time name="dav">    2.59    2.61</time>
   <time name="total">    2.71    2.74</time>
   <energy>
    <i name="e_fr_energy">   -124.11885750 </i>
    <i name="e_wo_entrp">   -124.11283345 </i>
    <i name="e_0_energy">   -124.11584548 </i>
   </energy>
  </scstep>
  <scstep>
   <time name="dav">    2.03    2.05</time>
   <time name="total">    2.15    2.18</time>
   <energy>
    <i name="e_fr_energy">   -124.11884971 </i>
    <i name="e_wo_entrp">   -124.11282188 </i>
    <i name="e_0_energy">   -124.11583579 </i>
   </energy>
  </scstep>
  <scstep>
   <time name="dav">    2.64    2.66</time>
   <time name="total">    2.67    2.69</time>
   <energy>
    <i name="alphaZ">     60.93491439 </i>
    <i name="ewald">   1919.39712371 </i>
    <i name="hartreedc">  -3530.19186504 </i>
    <i name="XCdc">    168.75686892 </i>
    <i name="pawpsdc">   5907.10216088 </i>
    <i name="pawaedc">  -5906.51957139 </i>
    <i name="eentropy">     -0.00602726 </i>
    <i name="bandstr">   -490.09799639 </i>
    <i name="atom">   1746.50554237 </i>
    <i name="e_fr_energy">   -124.11884982 </i>
    <i name="e_wo_entrp">   -124.11282255 </i>
    <i name="e_0_energy">   -124.11583619 </i>
   </energy>
  </scstep>
  <structure>
   <crystal>
    <varray name="basis" >
     <v>       4.29548600       2.48000000       0.00000000 </v>
     <v>      -4.29548600       2.48000000       0.00000000 </v>
     <v>       0.00000000       0.00000000      15.00000000 </v>
    </varray>
    <i name="volume">    319.58415861 </i>
    <varray name="rec_basis" >
     <v>       0.11640126       0.20161290       0.00000000 </v>
     <v>      -0.11640126       0.20161290       0.00000000 </v>
     <v>       0.00000000       0.00000000       0.06666667 </v>
    </varray>
   </crystal>
   <varray name="positions" >
    <v>       0.66997233       0.00000002       0.10001344 </v>
    <v>       0.33002669       0.00000002       0.10001344 </v>
    <v>      -0.00000002       0.33002667       0.10001344 </v>
    <v>      -0.00000002       0.66997231       0.10001344 </v>
    <v>       0.33002669       0.33002667       0.10001344 </v>
    <v>       0.66997233       0.66997231       0.10001344 </v>
    <v>       0.66666600       0.33333300       0.09923073 </v>
    <v>       0.33333300       0.66666600       0.10079888 </v>
    <v>       0.16666483       0.33333067       0.46771954 </v>
    <v>       0.33333073       0.16666486       0.46771955 </v>
    <v>       0.16666483       0.83333417       0.46771954 </v>
    <v>       0.33333300       0.66666600       0.46771953 </v>
    <v>       0.66666600       0.33333300       0.46771957 </v>
    <v>       0.83333414       0.16666486       0.46771955 </v>
    <v>       0.66666833       0.83333417       0.46771954 </v>
    <v>       0.83333414       0.66666827       0.46771955 </v>
   </varray>
  </structure>
  <varray name="forces" >
   <v>       0.00039792       0.00022433       0.00847822 </v>
   <v>      -0.00039323      -0.00023244       0.00847822 </v>
   <v>       0.00039792      -0.00022433       0.00847822 </v>
   <v>      -0.00039323       0.00023244       0.00847822 </v>
   <v>      -0.00000469      -0.00045677       0.00847822 </v>
   <v>      -0.00000469       0.00045677       0.00847822 </v>
   <v>       0.00000000      -0.00000000       0.00675475 </v>
   <v>      -0.00000000       0.00000000       0.01151572 </v>
   <v>      -0.00017102       0.00029621      -0.00864739 </v>
   <v>       0.00016638       0.00028818      -0.00864119 </v>
   <v>       0.00034204      -0.00000000      -0.00864739 </v>
   <v>      -0.00000000       0.00000000      -0.00864694 </v>
   <v>      -0.00000000       0.00000000      -0.00862710 </v>
   <v>      -0.00033276       0.00000000      -0.00864119 </v>
   <v>      -0.00017102      -0.00029621      -0.00864739 </v>
   <v>       0.00016638      -0.00028818      -0.00864119 </v>
  </varray>
  <varray name="stress" >
   <v>      20.33293490       0.00000000       0.00000000 </v>
   <v>       0.00000000      20.33293490       0.00000000 </v>
   <v>       0.00000000       0.00000000      -3.68098588 </v>
  </varray>
  <energy>
   <i name="e_fr_energy">   -125.61903813 </i>
   <i name="e_wo_entrp">   -125.61301087 </i>
   <i name="e_0_energy">   -125.61602450 </i>
  </energy>
  <time name="totalsc">   13.05   13.21</time>
 </calculation>
 <calculation>
  <scstep>
   <time name="dav">    1.60    1.62</time>
   <time name="total">    1.73    1.75</time>
   <energy>
    <i name="alphaZ">     60.93491439 </i>
    <i name="ewald">   1919.39288509 </i>
    <i name="hartreedc">  -3530.19297023 </i>
    <i name="XCdc">    168.75663716 </i>
    <i name="pawpsdc">   5907.18073230 </i>
    <i name="pawaedc">  -5906.59813906 </i>
    <i name="eentropy">     -0.00602743 </i>
    <i name="bandstr">   -490.09242364 </i>
    <i name="atom">   1746.50554237 </i>
    <i name="e_fr_energy">   -124.11884905 </i>
    <i name="e_wo_entrp">   -124.11282162 </i>
    <i name="e_0_energy">   -124.11583534 </i>
   </energy>
  </scstep>
  <scstep>
   <time name="dav">    2.02    2.04</time>
   <time name="total">    2.06    2.07</time>
   <energy>
    <i name="alphaZ">     60.93491439 </i>
    <i name="ewald">   1919.39288509 </i>
    <i name="hartreedc">  -3530.19468021 </i>
    <i name="XCdc">    168.75665434 </i>
    <i name="pawpsdc">   5907.13861793 </i>
    <i name="pawaedc">  -5906.55602064 </i>
    <i name="eentropy">     -0.00602763 </i>
    <i name="bandstr">   -490.09073484 </i>
    <i name="atom">   1746.50554237 </i>
    <i name="e_fr_energy">   -124.11884920 </i>
    <i name="e_wo_entrp">   -124.11282157 </i>
    <i name="e_0_energy">   -124.11583539 </i>
   </energy>
  </scstep>
  <structure>
   <crystal>
    <varray name="basis" >
     <v>       4.29548600       2.48000000       0.00000000 </v>
     <v>      -4.29548600       2.48000000       0.00000000 </v>
     <v>       0.00000000       0.00000000      15.00000000 </v>
    </varray>
    <i name="volume">    319.58415861 </i>
    <varray name="rec_basis" >
     <v>       0.11640126       0.20161290       0.00000000 </v>
     <v>      -0.11640126       0.20161290       0.00000000 </v>
     <v>       0.00000000       0.00000000       0.06666667 </v>
    </varray>
   </crystal>
   <varray name="positions" >
    <v>       0.66997890       0.00000002       0.10001353 </v>
    <v>       0.33002012       0.00000002       0.10001353 </v>
    <v>      -0.00000002       0.33002010       0.10001353 </v>
    <v>      -0.00000002       0.66997888       0.10001353 </v>
    <v>       0.33002012       0.33002010       0.10001353 </v>
    <v>       0.66997890       0.66997888       0.10001353 </v>
    <v>       0.66666600       0.33333300       0.09923079 </v>
    <v>       0.33333300       0.66666600       0.10079900 </v>
    <v>       0.16666483       0.33333065       0.46771946 </v>
    <v>       0.33333071       0.16666486       0.46771947 </v>
    <v>       0.16666483       0.83333417       0.46771946 </v>
    <v>       0.33333300       0.66666600       0.46771945 </v>
    <v>       0.66666600       0.33333300       0.46771949 </v>
    <v>       0.83333414       0.16666486       0.46771947 </v>
    <v>       0.66666835       0.83333417       0.46771946 </v>
    <v>       0.83333414       0.66666829       0.46771947 </v>
   </varray>
  </structure>
  <varray name="forces" >
   <v>      -0.00160232      -0.00092868       0.00847084 </v>
   <v>       0.00160542       0.00092331       0.00847084 </v>
   <v>      -0.00160232       0.00092868       0.00847084 </v>
   <v>       0.00160542      -0.00092331       0.00847084 </v>
   <v>      -0.00000310       0.00185198       0.00847084 </v>
   <v>      -0.00000310      -0.00185198       0.00847084 </v>
   <v>      -0.00000000       0.00000000       0.00676999 </v>
   <v>      -0.00000000       0.00000000       0.01149763 </v>
   <v>      -0.00017439       0.00030205      -0.00864177 </v>
   <v>       0.00016961       0.00029377      -0.00863561 </v>
   <v>       0.00034878       0.00000000      -0.00864177 </v>
   <v>      -0.00000000       0.00000000      -0.00864012 </v>
   <v>      -0.00000000       0.00000000      -0.00862042 </v>
   <v>      -0.00033922       0.00000000      -0.00863561 </v>
   <v>      -0.00017439      -0.00030205      -0.00864177 </v>
   <v>       0.00016961      -0.00029377      -0.00863561 </v>
  </varray>
  <varray name="stress" >
   <v>      20.33304799       0.00000000       0.00000000 </v>
   <v>       0.00000000      20.33304799       0.00000000 </v>
   <v>      -0.00000000       0.00000000      -3.68339263 </v>
  </varray>
  <energy>
   <i name="e_fr_energy">   -125.61903841 </i>
   <i name="e_wo_entrp">   -125.61301078 </i>
   <i name="e_0_energy">   -125.61602460 </i>
  </energy>
  <time name="totalsc">    5.25    5.31</time>
 </calculation>
 <calculation>
  <scstep>
   <time name="dav">    1.65    1.67</time>
   <time name="total">    1.78    1.80</time>
   <energy>
    <i name="alphaZ">     60.93491439 </i>
    <i name="ewald">   1919.39463650 </i>
    <i name="hartreedc">  -3530.19759674 </i>
    <i name="XCdc">    168.75673968 </i>
    <i name="pawpsdc">   5907.10737221 </i>
    <i name="pawaedc">  -5906.52477112 </i>
    <i name="eentropy">     -0.00602745 </i>
    <i name="bandstr">   -490.08965972 </i>
    <i name="atom">   1746.50554237 </i>
    <i name="e_fr_energy">   -124.11884989 </i>
    <i name="e_wo_entrp">   -124.11282244 </i>
    <i name="e_0_energy">   -124.11583616 </i>
   </energy>
  </scstep>
  <scstep>
   <time name="dav">    2.12    2.14</time>
   <time name="total">    2.16    2.17</time>
   <energy>
    <i name="alphaZ">     60.93491439 </i>
    <i name="ewald">   1919.39463650 </i>
    <i name="hartreedc">  -3530.19976883 </i>
    <i name="XCdc">    168.75677542 </i>
    <i name="pawpsdc">   5907.10891872 </i>
    <i name="pawaedc">  -5906.52632047 </i>
    <i name="eentropy">     -0.00602759 </i>
    <i name="bandstr">   -490.08752052 </i>
    <i name="atom">   1746.50554237 </i>
    <i name="e_fr_energy">   -124.11885003 </i>
    <i name="e_wo_entrp">   -124.11282244 </i>
    <i name="e_0_energy">   -124.11583623 </i>
   </energy>
  </scstep>
  <structure>
   <crystal>
    <varray name="basis" >
     <v>       4.29548600       2.48000000       0.00000000 </v>
     <v>      -4.29548600       2.48000000       0.00000000 </v>
     <v>       0.00000000       0.00000000      15.00000000 </v>
    </varray>
    <i name="volume">    319.58415861 </i>
    <varray name="rec_basis" >
     <v>       0.11640126       0.20161290       0.00000000 </v>
     <v>      -0.11640126       0.20161290       0.00000000 </v>
     <v>       0.00000000       0.00000000       0.06666667 </v>
    </varray>
   </crystal>
   <varray name="positions" >
    <v>       0.66997618       0.00000002       0.10001349 </v>
    <v>       0.33002284       0.00000002       0.10001349 </v>
    <v>      -0.00000002       0.33002282       0.10001349 </v>
    <v>      -0.00000002       0.66997616       0.10001349 </v>
    <v>       0.33002284       0.33002282       0.10001349 </v>
    <v>       0.66997618       0.66997616       0.10001349 </v>
    <v>       0.66666600       0.33333300       0.09923076 </v>
    <v>       0.33333300       0.66666600       0.10079895 </v>
    <v>       0.16666483       0.33333066       0.46771949 </v>
    <v>       0.33333072       0.16666486       0.46771950 </v>
    <v>       0.16666483       0.83333417       0.46771949 </v>
    <v>       0.33333300       0.66666600       0.46771948 </v>
    <v>       0.66666600       0.33333300       0.46771953 </v>
    <v>       0.83333414       0.16666486       0.46771950 </v>
    <v>       0.66666834       0.83333417       0.46771949 </v>
    <v>       0.83333414       0.66666828       0.46771950 </v>
   </varray>
  </structure>
  <varray name="forces" >
   <v>      -0.00140832      -0.00081650       0.00846927 </v>
   <v>       0.00141127       0.00081139       0.00846927 </v>
   <v>      -0.00140832       0.00081650       0.00846927 </v>
   <v>       0.00141127      -0.00081139       0.00846927 </v>
   <v>      -0.00000295       0.00162789       0.00846927 </v>
   <v>      -0.00000295      -0.00162789       0.00846927 </v>
   <v>       0.00000000       0.00000000       0.00677749 </v>
   <v>      -0.00000000      -0.00000000       0.01150447 </v>
   <v>      -0.00017337       0.00030029      -0.00864231 </v>
   <v>       0.00016861       0.00029205      -0.00863616 </v>
   <v>       0.00034674      -0.00000000      -0.00864231 </v>
   <v>       0.00000000      -0.00000000      -0.00864092 </v>
   <v>       0.00000000       0.00000000      -0.00862127 </v>
   <v>      -0.00033723       0.00000000      -0.00863616 </v>
   <v>      -0.00017337      -0.00030029      -0.00864231 </v>
   <v>       0.00016861      -0.00029205      -0.00863616 </v>
  </varray>
  <varray name="stress" >
   <v>      20.33549324       0.00000000       0.00000000 </v>
   <v>       0.00000000      20.33549324       0.00000000 </v>
   <v>       0.00000000       0.00000000      -3.68227753 </v>
  </varray>
  <energy>
   <i name="e_fr_energy">   -125.61903887 </i>
   <i name="e_wo_entrp">   -125.61301128 </i>
   <i name="e_0_energy">   -125.61602508 </i>
  </energy>
  <time name="totalsc">    5.39    5.45</time>
 </calculation>
 <calculation>
  <scstep>
   <time name="dav">    1.64    1.65</time>
   <time name="total">    1.76    1.79</time>
   <energy>
    <i name="alphaZ">     60.93491439 </i>
    <i name="ewald">   1919.39588004 </i>
    <i name="hartreedc">  -3530.20211173 </i>
    <i name="XCdc">    168.75684178 </i>
    <i name="pawpsdc">   5907.10702239 </i>
    <i name="pawaedc">  -5906.52442545 </i>
    <i name="eentropy">     -0.00602755 </i>
    <i name="bandstr">   -490.08648669 </i>
    <i name="atom">   1746.50554237 </i>
    <i name="e_fr_energy">   -124.11885045 </i>
    <i name="e_wo_entrp">   -124.11282290 </i>
    <i name="e_0_energy">   -124.11583668 </i>
   </energy>
  </scstep>
  <scstep>
   <time name="dav">    2.27    2.29</time>
   <time name="total">    2.30    2.32</time>
   <energy>
    <i name="alphaZ">     60.93491439 </i>
    <i name="ewald">   1919.39588004 </i>
    <i name="hartreedc">  -3530.20369980 </i>
    <i name="XCdc">    168.75686597 </i>
    <i name="pawpsdc">   5907.11475450 </i>
    <i name="pawaedc">  -5906.53216041 </i>
    <i name="eentropy">     -0.00602767 </i>
    <i name="bandstr">   -490.08491991 </i>
    <i name="atom">   1746.50554237 </i>
    <i name="e_fr_energy">   -124.11885054 </i>
    <i name="e_wo_entrp">   -124.11282286 </i>
    <i name="e_0_energy">   -124.11583670 </i>
   </energy>
  </scstep>
  <structure>
   <crystal>
    <varray name="basis" >
     <v>       4.29548600       2.48000000       0.00000000 </v>
     <v>      -4.29548600       2.48000000       0.00000000 </v>
     <v>       0.00000000       0.00000000      15.00000000 </v>
    </varray>
    <i name="volume">    319.58415861 </i>
    <varray name="rec_basis" >
     <v>       0.11640126       0.20161290       0.00000000 </v>
     <v>      -0.11640126       0.20161290       0.00000000 </v>
     <v>       0.00000000       0.00000000       0.06666667 </v>
    </varray>
   </crystal>
   <varray name="positions" >
    <v>       0.66997426       0.00000002       0.10001347 </v>
    <v>       0.33002477       0.00000002       0.10001347 </v>
    <v>      -0.00000002       0.33002474       0.10001347 </v>
    <v>      -0.00000002       0.66997423       0.10001347 </v>
    <v>       0.33002477       0.33002474       0.10001347 </v>
    <v>       0.66997426       0.66997423       0.10001347 </v>
    <v>       0.66666600       0.33333300       0.09923075 </v>
    <v>       0.33333300       0.66666600       0.10079891 </v>
    <v>       0.16666483       0.33333066       0.46771952 </v>
    <v>       0.33333072       0.16666486       0.46771953 </v>
    <v>       0.16666483       0.83333417       0.46771952 </v>
    <v>       0.33333300       0.66666600       0.46771951 </v>
    <v>       0.66666600       0.33333300       0.46771955 </v>
    <v>       0.83333414       0.16666486       0.46771953 </v>
    <v>       0.66666834       0.83333417       0.46771952 </v>
    <v>       0.83333414       0.66666828       0.46771953 </v>
   </varray>
  </structure>
  <varray name="forces" >
   <v>      -0.00105793      -0.00061426       0.00847014 </v>
   <v>       0.00106093       0.00060906       0.00847014 </v>
   <v>      -0.00105793       0.00061426       0.00847014 </v>
   <v>       0.00106093      -0.00060906       0.00847014 </v>
   <v>      -0.00000300       0.00122332       0.00847014 </v>
   <v>      -0.00000300      -0.00122332       0.00847014 </v>
   <v>      -0.00000000      -0.00000000       0.00677888 </v>
   <v>      -0.00000000       0.00000000       0.01151140 </v>
   <v>      -0.00017268       0.00029909      -0.00864397 </v>
   <v>       0.00016794       0.00029087      -0.00863782 </v>
   <v>       0.00034536       0.00000000      -0.00864397 </v>
   <v>       0.00000000       0.00000000      -0.00864271 </v>
   <v>      -0.00000000       0.00000000      -0.00862305 </v>
   <v>      -0.00033587       0.00000000      -0.00863782 </v>
   <v>      -0.00017268      -0.00029909      -0.00864397 </v>
   <v>       0.00016794      -0.00029087      -0.00863782 </v>
  </varray>
  <varray name="stress" >
   <v>      20.33718833       0.00000000       0.00000000 </v>
   <v>       0.00000000      20.33718833       0.00000000 </v>
   <v>      -0.00000000       0.00000000      -3.68459781 </v>
  </varray>
  <energy>
   <i name="e_fr_energy">   -125.61903912 </i>
   <i name="e_wo_entrp">   -125.61301144 </i>
   <i name="e_0_energy">   -125.61602528 </i>
  </energy>
  <time name="totalsc">    5.54    5.60</time>
 </calculation>
 <calculation>
  <scstep>
   <time name="dav">    1.62    1.63</time>
   <time name="total">    1.75    1.77</time>
   <energy>
    <i name="alphaZ">     60.93491439 </i>
    <i name="ewald">   1919.39650186 </i>
    <i name="hartreedc">  -3530.20558155 </i>
    <i name="XCdc">    168.75690678 </i>
    <i name="pawpsdc">   5907.11960255 </i>
    <i name="pawaedc">  -5906.53701003 </i>
    <i name="eentropy">     -0.00602770 </i>
    <i name="bandstr">   -490.08369944 </i>
    <i name="atom">   1746.50554237 </i>
    <i name="e_fr_energy">   -124.11885076 </i>
    <i name="e_wo_entrp">   -124.11282307 </i>
    <i name="e_0_energy">   -124.11583692 </i>
   </energy>
  </scstep>
  <scstep>
   <time name="dav">    2.31    2.32</time>
   <time name="total">    2.34    2.36</time>
   <energy>
    <i name="alphaZ">     60.93491439 </i>
    <i name="ewald">   1919.39650186 </i>
    <i name="hartreedc">  -3530.20656279 </i>
    <i name="XCdc">    168.75691975 </i>
    <i name="pawpsdc">   5907.12503652 </i>
    <i name="pawaedc">  -5906.54244536 </i>
    <i name="eentropy">     -0.00602776 </i>
    <i name="bandstr">   -490.08272979 </i>
    <i name="atom">   1746.50554237 </i>
    <i name="e_fr_energy">   -124.11885081 </i>
    <i name="e_wo_entrp">   -124.11282305 </i>
    <i name="e_0_energy">   -124.11583693 </i>
   </energy>
  </scstep>
  <structure>
   <crystal>
    <varray name="basis" >
     <v>       4.29548600       2.48000000       0.00000000 </v>
     <v>      -4.29548600       2.48000000       0.00000000 </v>
     <v>       0.00000000       0.00000000      15.00000000 </v>
    </varray>
    <i name="volume">    319.58415861 </i>
    <varray name="rec_basis" >
     <v>       0.11640126       0.20161290       0.00000000 </v>
     <v>      -0.11640126       0.20161290       0.00000000 </v>
     <v>       0.00000000       0.00000000       0.06666667 </v>
    </varray>
   </crystal>
   <varray name="positions" >
    <v>       0.66997329       0.00000002       0.10001346 </v>
    <v>       0.33002573       0.00000002       0.10001346 </v>
    <v>      -0.00000002       0.33002571       0.10001346 </v>
    <v>      -0.00000002       0.66997327       0.10001346 </v>
    <v>       0.33002573       0.33002571       0.10001346 </v>
    <v>       0.66997329       0.66997327       0.10001346 </v>
    <v>       0.66666600       0.33333300       0.09923074 </v>
    <v>       0.33333300       0.66666600       0.10079890 </v>
    <v>       0.16666483       0.33333067       0.46771953 </v>
    <v>       0.33333073       0.16666486       0.46771954 </v>
    <v>       0.16666483       0.83333417       0.46771953 </v>
    <v>       0.33333300       0.66666600       0.46771952 </v>
    <v>       0.66666600       0.33333300       0.46771956 </v>
    <v>       0.83333414       0.16666486       0.46771954 </v>
    <v>       0.66666833       0.83333417       0.46771953 </v>
    <v>       0.83333414       0.66666827       0.46771954 </v>
   </varray>
  </structure>
  <varray name="forces" >
   <v>      -0.00085123      -0.00049496       0.00847152 </v>
   <v>       0.00085426       0.00048971       0.00847152 </v>
   <v>      -0.00085123       0.00049496       0.00847152 </v>
   <v>       0.00085426      -0.00048971       0.00847152 </v>
   <v>      -0.00000303       0.00098467       0.00847152 </v>
   <v>      -0.00000303      -0.00098467       0.00847152 </v>
   <v>      -0.00000000       0.00000000       0.00678058 </v>
   <v>       0.00000000       0.00000000       0.01151598 </v>
   <v>      -0.00017233       0.00029849      -0.00864576 </v>
   <v>       0.00016760       0.00029028      -0.00863963 </v>
   <v>       0.00034467      -0.00000000      -0.00864576 </v>
   <v>      -0.00000000      -0.00000000      -0.00864459 </v>
   <v>       0.00000000      -0.00000000      -0.00862493 </v>
   <v>      -0.00033519      -0.00000000      -0.00863963 </v>
   <v>      -0.00017233      -0.00029849      -0.00864576 </v>
   <v>       0.00016760      -0.00029028      -0.00863963 </v>
  </varray>
  <varray name="stress" >
   <v>      20.33811874       0.00000000       0.00000000 </v>
   <v>       0.00000000      20.33811874       0.00000000 </v>
   <v>      -0.00000000       0.00000000      -3.68679759 </v>
  </varray>
  <energy>
   <i name="e_fr_energy">   -125.61903926 </i>
   <i name="e_wo_entrp">   -125.61301150 </i>
   <i name="e_0_energy">   -125.61602538 </i>
  </energy>
  <time name="totalsc">    5.54    5.60</time>
 </calculation>
 <calculation>
  <scstep>
   <time name="dav">    1.53    1.55</time>
   <time name="total">    1.66    1.68</time>
   <energy>
    <i name="alphaZ">     60.93491439 </i>
    <i name="ewald">   1920.04589915 </i>
    <i name="hartreedc">  -3530.85701964 </i>
    <i name="XCdc">    168.75692663 </i>
    <i name="pawpsdc">   5907.12846470 </i>
    <i name="pawaedc">  -5906.54587419 </i>
    <i name="eentropy">     -0.00602785 </i>
    <i name="bandstr">   -490.08168404 </i>
    <i name="atom">   1746.50554237 </i>
    <i name="e_fr_energy">   -124.11885849 </i>
    <i name="e_wo_entrp">   -124.11283064 </i>
    <i name="e_0_energy">   -124.11584456 </i>
   </energy>
  </scstep>
  <scstep>
   <time name="dav">    1.66    1.67</time>
   <time name="total">    1.80    1.81</time>
   <energy>
    <i name="e_fr_energy">   -124.11885705 </i>
    <i name="e_wo_entrp">   -124.11282896 </i>
    <i name="e_0_energy">   -124.11584300 </i>
   </energy>
  </scstep>
  <scstep>
   <time name="dav">    1.75    1.76</time>
   <time name="total">    1.78    1.79</time>
   <energy>
    <i name="alphaZ">     60.93491439 </i>
    <i name="ewald">   1920.04589915 </i>
    <i name="hartreedc">  -3530.86669307 </i>
    <i name="XCdc">    168.75695766 </i>
    <i name="pawpsdc">   5907.12226876 </i>
    <i name="pawaedc">  -5906.53967553 </i>
    <i name="eentropy">     -0.00602793 </i>
    <i name="bandstr">   -490.07204220 </i>
    <i name="atom">   1746.50554237 </i>
    <i name="e_fr_energy">   -124.11885640 </i>
    <i name="e_wo_entrp">   -124.11282848 </i>
    <i name="e_0_energy">   -124.11584244 </i>
   </energy>
  </scstep>
  <structure>
   <crystal>
    <varray name="basis" >
     <v>       4.29548600       2.48000000       0.00000000 </v>
     <v>      -4.29548600       2.48000000       0.00000000 </v>
     <v>       0.00000000       0.00000000      15.00000000 </v>
    </varray>
    <i name="volume">    319.58415861 </i>
    <varray name="rec_basis" >
     <v>       0.11640126       0.20161290       0.00000000 </v>
     <v>      -0.11640126       0.20161290       0.00000000 </v>
     <v>       0.00000000       0.00000000       0.06666667 </v>
    </varray>
   </crystal>
   <varray name="positions" >
    <v>       0.66997324      -0.00000001       0.10003806 </v>
    <v>       0.33002575      -0.00000001       0.10003806 </v>
    <v>       0.00000001       0.33002576       0.10003806 </v>
    <v>       0.00000001       0.66997325       0.10003806 </v>
    <v>       0.33002575       0.33002576       0.10003806 </v>
    <v>       0.66997324       0.66997325       0.10003806 </v>
    <v>       0.66666600       0.33333300       0.09925042 </v>
    <v>       0.33333300       0.66666600       0.10083236 </v>
    <v>       0.16666656       0.33333413       0.46769442 </v>
    <v>       0.33333409       0.16666655       0.46769444 </v>
    <v>       0.16666656       0.83333244       0.46769442 </v>
    <v>       0.33333300       0.66666600       0.46769441 </v>
    <v>       0.66666600       0.33333300       0.46769451 </v>
    <v>       0.83333245       0.16666655       0.46769444 </v>
    <v>       0.66666487       0.83333244       0.46769442 </v>
    <v>       0.83333245       0.66666491       0.46769444 </v>
   </varray>
  </structure>
  <varray name="forces" >
   <v>      -0.00081788      -0.00047235       0.00817340 </v>
   <v>       0.00081801       0.00047213       0.00817340 </v>
   <v>      -0.00081788       0.00047235       0.00817340 </v>
   <v>       0.00081801      -0.00047213       0.00817340 </v>
   <v>      -0.00000013       0.00094448       0.00817340 </v>
   <v>      -0.00000013      -0.00094448       0.00817340 </v>
   <v>      -0.00000000       0.00000000       0.00647552 </v>
   <v>      -0.00000000       0.00000000       0.01126775 </v>
   <v>       0.00042214      -0.00073116      -0.00835040 </v>
   <v>      -0.00041080      -0.00071153      -0.00834643 </v>
   <v>      -0.00084427       0.00000000      -0.00835040 </v>
   <v>       0.00000000       0.00000000      -0.00835210 </v>
   <v>      -0.00000000       0.00000000      -0.00834111 </v>
   <v>       0.00082160       0.00000000      -0.00834643 </v>
   <v>       0.00042214       0.00073116      -0.00835040 </v>
   <v>      -0.00041080       0.00071153      -0.00834643 </v>
  </varray>
  <varray name="stress" >
   <v>      20.33782816       0.00000000       0.00000000 </v>
   <v>       0.00000000      20.33782816       0.00000000 </v>
   <v>      -0.00000000       0.00000000      -3.69201796 </v>
  </varray>
  <energy>
   <i name="e_fr_energy">   -125.61909191 </i>
   <i name="e_wo_entrp">   -125.61306399 </i>
   <i name="e_0_energy">   -125.61607795 </i>
  </energy>
  <time name="totalsc">    6.68    6.76</time>
 </calculation>
 <calculation>
  <scstep>
   <time name="dav">    1.49    1.50</time>
   <time name="total">    1.62    1.64</time>
   <energy>
    <i name="alphaZ">     60.93491439 </i>
    <i name="ewald">   1921.99554607 </i>
    <i name="hartreedc">  -3532.81443127 </i>
    <i name="XCdc">    168.75694156 </i>
    <i name="pawpsdc">   5907.12584096 </i>
    <i name="pawaedc">  -5906.54324725 </i>
    <i name="eentropy">     -0.00602802 </i>
    <i name="bandstr">   -490.07396950 </i>
    <i name="atom">   1746.50554237 </i>
    <i name="e_fr_energy">   -124.11889070 </i>
    <i name="e_wo_entrp">   -124.11286268 </i>
    <i name="e_0_energy">   -124.11587669 </i>
   </energy>
  </scstep>
  <scstep>
   <time name="dav">    1.62    1.63</time>
   <time name="total">    1.75    1.77</time>
   <energy>
    <i name="e_fr_energy">   -124.11887837 </i>
    <i name="e_wo_entrp">   -124.11284967 </i>
    <i name="e_0_energy">   -124.11586402 </i>
   </energy>
  </scstep>
  <scstep>
   <time name="dav">    1.94    1.96</time>
   <time name="total">    2.07    2.09</time>
   <energy>
    <i name="e_fr_energy">   -124.11887160 </i>
    <i name="e_wo_entrp">   -124.11284342 </i>
    <i name="e_0_energy">   -124.11585751 </i>
   </energy>
  </scstep>
  <scstep>
   <time name="dav">    1.85    1.86</time>
   <time name="total">    1.88    1.90</time>
   <energy>
    <i name="alphaZ">     60.93491439 </i>
    <i name="ewald">   1921.99554607 </i>
    <i name="hartreedc">  -3532.83050602 </i>
    <i name="XCdc">    168.75699145 </i>
    <i name="pawpsdc">   5907.12070870 </i>
    <i name="pawaedc">  -5906.53810727 </i>
    <i name="eentropy">     -0.00602799 </i>
    <i name="bandstr">   -490.05793373 </i>
    <i name="atom">   1746.50554237 </i>
    <i name="e_fr_energy">   -124.11887204 </i>
    <i name="e_wo_entrp">   -124.11284405 </i>
    <i name="e_0_energy">   -124.11585804 </i>
   </energy>
  </scstep>
  <structure>
   <crystal>
    <varray name="basis" >
     <v>       4.29548600       2.48000000       0.00000000 </v>
     <v>      -4.29548600       2.48000000       0.00000000 </v>
     <v>       0.00000000       0.00000000      15.00000000 </v>
    </varray>
    <i name="volume">    319.58415861 </i>
    <varray name="rec_basis" >
     <v>       0.11640126       0.20161290       0.00000000 </v>
     <v>      -0.11640126       0.20161290       0.00000000 </v>
     <v>       0.00000000       0.00000000       0.06666667 </v>
    </varray>
   </crystal>
   <varray name="positions" >
    <v>       0.66997309      -0.00000010       0.10011188 </v>
    <v>       0.33002581      -0.00000010       0.10011188 </v>
    <v>       0.00000010       0.33002591       0.10011188 </v>
    <v>       0.00000010       0.66997319       0.10011188 </v>
    <v>       0.33002581       0.33002591       0.10011188 </v>
    <v>       0.66997309       0.66997319       0.10011188 </v>
    <v>       0.66666600       0.33333300       0.09930946 </v>
    <v>       0.33333300       0.66666600       0.10093277 </v>
    <v>       0.16667176       0.33334451       0.46761908 </v>
    <v>       0.33334419       0.16667160       0.46761916 </v>
    <v>       0.16667176       0.83332724       0.46761908 </v>
    <v>       0.33333300       0.66666600       0.46761908 </v>
    <v>       0.66666600       0.33333300       0.46761935 </v>
    <v>       0.83332740       0.16667160       0.46761916 </v>
    <v>       0.66665449       0.83332724       0.46761908 </v>
    <v>       0.83332740       0.66665481       0.46761916 </v>
   </varray>
  </structure>
  <varray name="forces" >
   <v>      -0.00082491      -0.00047355       0.00852794 </v>
   <v>       0.00082256       0.00047762       0.00852794 </v>
   <v>      -0.00082491       0.00047355       0.00852794 </v>
   <v>       0.00082256      -0.00047762       0.00852794 </v>
   <v>       0.00000235       0.00095116       0.00852794 </v>
   <v>       0.00000235      -0.00095116       0.00852794 </v>
   <v>       0.00000000      -0.00000000       0.00662113 </v>
   <v>       0.00000000      -0.00000000       0.01155691 </v>
   <v>       0.00211548      -0.00366411      -0.00866363 </v>
   <v>      -0.00205696      -0.00356275      -0.00866632 </v>
   <v>      -0.00423095      -0.00000000      -0.00866363 </v>
   <v>       0.00000000      -0.00000000      -0.00867073 </v>
   <v>       0.00000000      -0.00000000      -0.00868506 </v>
   <v>       0.00411391      -0.00000000      -0.00866632 </v>
   <v>       0.00211548       0.00366411      -0.00866363 </v>
   <v>      -0.00205696       0.00356275      -0.00866632 </v>
  </varray>
  <varray name="stress" >
   <v>      20.33745656       0.00000000       0.00000000 </v>
   <v>       0.00000000      20.33745656       0.00000000 </v>
   <v>       0.00000000       0.00000000      -3.69675184 </v>
  </varray>
  <energy>
   <i name="e_fr_energy">   -125.61924894 </i>
   <i name="e_wo_entrp">   -125.61322095 </i>
   <i name="e_0_energy">   -125.61623494 </i>
  </energy>
  <time name="totalsc">    8.76    8.86</time>
 </calculation>
 <calculation>
  <scstep>
   <time name="dav">    1.45    1.46</time>
   <time name="total">    1.57    1.59</time>
   <energy>
    <i name="alphaZ">     60.93491439 </i>
    <i name="ewald">   1925.90138769 </i>
    <i name="hartreedc">  -3536.73016056 </i>
    <i name="XCdc">    168.75696285 </i>
    <i name="pawpsdc">   5907.11844307 </i>
    <i name="pawaedc">  -5906.53584487 </i>
    <i name="eentropy">     -0.00602829 </i>
    <i name="bandstr">   -490.06418769 </i>
    <i name="atom">   1746.50554237 </i>
    <i name="e_fr_energy">   -124.11897105 </i>
    <i name="e_wo_entrp">   -124.11294276 </i>
    <i name="e_0_energy">   -124.11595691 </i>
   </energy>
  </scstep>
  <scstep>
   <time name="dav">    1.62    1.63</time>
   <time name="total">    1.75    1.77</time>
   <energy>
    <i name="e_fr_energy">   -124.11892760 </i>
    <i name="e_wo_entrp">   -124.11289798 </i>
    <i name="e_0_energy">   -124.11591279 </i>
   </energy>
  </scstep>
  <scstep>
   <time name="dav">    1.96    1.98</time>
   <time name="total">    2.10    2.12</time>
   <energy>
    <i name="e_fr_energy">   -124.11889759 </i>
    <i name="e_wo_entrp">   -124.11286899 </i>
    <i name="e_0_energy">   -124.11588329 </i>
   </energy>
  </scstep>
  <scstep>
   <time name="dav">    1.95    1.97</time>
   <time name="total">    2.08    2.10</time>
   <energy>
    <i name="e_fr_energy">   -124.11889884 </i>
    <i name="e_wo_entrp">   -124.11287062 </i>
    <i name="e_0_energy">   -124.11588473 </i>
   </energy>
  </scstep>
  <scstep>
   <time name="dav">    1.50    1.51</time>
   <time name="total">    1.53    1.54</time>
   <energy>
    <i name="alphaZ">     60.93491439 </i>
    <i name="ewald">   1925.90138769 </i>
    <i name="hartreedc">  -3536.74763174 </i>
    <i name="XCdc">    168.75704077 </i>
    <i name="pawpsdc">   5907.10121541 </i>
    <i name="pawaedc">  -5906.51860779 </i>
    <i name="eentropy">     -0.00602815 </i>
    <i name="bandstr">   -490.04673226 </i>
    <i name="atom">   1746.50554237 </i>
    <i name="e_fr_energy">   -124.11889932 </i>
    <i name="e_wo_entrp">   -124.11287117 </i>
    <i name="e_0_energy">   -124.11588525 </i>
   </energy>
  </scstep>
  <structure>
   <crystal>
    <varray name="basis" >
     <v>       4.29548600       2.48000000       0.00000000 </v>
     <v>      -4.29548600       2.48000000       0.00000000 </v>
     <v>       0.00000000       0.00000000      15.00000000 </v>
    </varray>
    <i name="volume">    319.58415861 </i>
    <varray name="rec_basis" >
     <v>       0.11640126       0.20161290       0.00000000 </v>
     <v>      -0.11640126       0.20161290       0.00000000 </v>
     <v>       0.00000000       0.00000000       0.06666667 </v>
    </varray>
   </crystal>
   <varray name="positions" >
    <v>       0.66997278      -0.00000028       0.10025952 </v>
    <v>       0.33002594      -0.00000028       0.10025952 </v>
    <v>       0.00000028       0.33002622       0.10025952 </v>
    <v>       0.00000028       0.66997306       0.10025952 </v>
    <v>       0.33002594       0.33002622       0.10025952 </v>
    <v>       0.66997278       0.66997306       0.10025952 </v>
    <v>       0.66666600       0.33333300       0.09942754 </v>
    <v>       0.33333300       0.66666600       0.10113358 </v>
    <v>       0.16668214       0.33336529       0.46746840 </v>
    <v>       0.33336440       0.16668170       0.46746859 </v>
    <v>       0.16668214       0.83331686       0.46746840 </v>
    <v>       0.33333300       0.66666600       0.46746842 </v>
    <v>       0.66666600       0.33333300       0.46746904 </v>
    <v>       0.83331730       0.16668170       0.46746859 </v>
    <v>       0.66663371       0.83331686       0.46746840 </v>
    <v>       0.83331730       0.66663460       0.46746859 </v>
   </varray>
  </structure>
  <varray name="forces" >
   <v>      -0.00084475      -0.00045964       0.00848858 </v>
   <v>       0.00082044       0.00050175       0.00848858 </v>
   <v>      -0.00084475       0.00045964       0.00848858 </v>
   <v>       0.00082044      -0.00050175       0.00848858 </v>
   <v>       0.00002431       0.00096140       0.00848858 </v>
   <v>       0.00002431      -0.00096140       0.00848858 </v>
   <v>       0.00000000      -0.00000000       0.00617092 </v>
   <v>       0.00000000      -0.00000000       0.01127658 </v>
   <v>       0.00554112      -0.00959749      -0.00852631 </v>
   <v>      -0.00538944      -0.00933479      -0.00854232 </v>
   <v>      -0.01108223       0.00000000      -0.00852631 </v>
   <v>       0.00000000       0.00000000      -0.00855382 </v>
   <v>       0.00000000       0.00000000      -0.00861925 </v>
   <v>       0.01077889      -0.00000000      -0.00854232 </v>
   <v>       0.00554112       0.00959749      -0.00852631 </v>
   <v>      -0.00538944       0.00933479      -0.00854232 </v>
  </varray>
  <varray name="stress" >
   <v>      20.33575334       0.00000000       0.00000000 </v>
   <v>       0.00000000      20.33575334       0.00000000 </v>
   <v>       0.00000000       0.00000000      -3.70772759 </v>
  </varray>
  <energy>
   <i name="e_fr_energy">   -125.61955994 </i>
   <i name="e_wo_entrp">   -125.61353179 </i>
   <i name="e_0_energy">   -125.61654586 </i>
  </energy>
  <time name="totalsc">   10.48   10.60</time>
 </calculation>
 <calculation>
  <scstep>
   <time name="dav">    1.46    1.48</time>
   <time name="total">    1.59    1.62</time>
   <energy>
    <i name="alphaZ">     60.93491439 </i>
    <i name="ewald">   1933.73926203 </i>
    <i name="hartreedc">  -3544.57821382 </i>
    <i name="XCdc">    168.75694452 </i>
    <i name="pawpsdc">   5907.09965788 </i>
    <i name="pawaedc">  -5906.51705184 </i>
    <i name="eentropy">     -0.00602891 </i>
    <i name="bandstr">   -490.05425358 </i>
    <i name="atom">   1746.50554237 </i>
    <i name="e_fr_energy">   -124.11922696 </i>
    <i name="e_wo_entrp">   -124.11319806 </i>
    <i name="e_0_energy">   -124.11621251 </i>
   </energy>
  </scstep>
  <scstep>
   <time name="dav">    1.58    1.60</time>
   <time name="total">    1.71    1.73</time>
   <energy>
[...]
       <r>     2.6552     1.8056    31.3408 </r>
       <r>     2.7589     1.7383    31.5210 </r>
       <r>     2.8625     1.4282    31.6691 </r>
       <r>     2.9662     1.5755    31.8325 </r>
       <r>     3.0699     1.1562    31.9523 </r>
       <r>     3.1736     1.6374    32.1221 </r>
       <r>     3.2773     2.4248    32.3735 </r>
       <r>     3.3809     2.2385    32.6056 </r>
       <r>     3.4846     2.1353    32.8270 </r>
       <r>     3.5883     1.6844    33.0016 </r>
       <r>     3.6920     2.5654    33.2676 </r>
       <r>     3.7957     2.9035    33.5686 </r>
       <r>     3.8993     2.8972    33.8690 </r>
       <r>     4.0030     2.3615    34.1139 </r>
       <r>     4.1067     1.9643    34.3175 </r>
       <r>     4.2104     2.2639    34.5522 </r>
       <r>     4.3141     3.0257    34.8659 </r>
       <r>     4.4177     3.4644    35.2251 </r>
       <r>     4.5214     2.5683    35.4914 </r>
       <r>     4.6251     2.4150    35.7418 </r>
       <r>     4.7288     3.9287    36.1491 </r>
       <r>     4.8325     3.2848    36.4897 </r>
       <r>     4.9361     2.4411    36.7428 </r>
       <r>     5.0398     2.8424    37.0375 </r>
       <r>     5.1435     3.8576    37.4375 </r>
       <r>     5.2472     4.0564    37.8580 </r>
       <r>     5.3509     3.4703    38.2178 </r>
       <r>     5.4545     3.1814    38.5477 </r>
       <r>     5.5582     3.0379    38.8627 </r>
       <r>     5.6619     3.5185    39.2275 </r>
       <r>     5.7656     3.4832    39.5886 </r>
       <r>     5.8693     2.9601    39.8955 </r>
       <r>     5.9730     2.6122    40.1663 </r>
       <r>     6.0766     2.1918    40.3936 </r>
       <r>     6.1803     3.0923    40.7142 </r>
       <r>     6.2840     2.6982    40.9940 </r>
       <r>     6.3877     2.2625    41.2285 </r>
       <r>     6.4914     2.6874    41.5072 </r>
       <r>     6.5950     2.8410    41.8017 </r>
       <r>     6.6987     2.8871    42.1011 </r>
       <r>     6.8024     3.7099    42.4857 </r>
       <r>     6.9061     3.8171    42.8815 </r>
       <r>     7.0098     3.9083    43.2867 </r>
       <r>     7.1134     3.3921    43.6384 </r>
       <r>     7.2171     3.4353    43.9945 </r>
       <r>     7.3208     3.9715    44.4063 </r>
       <r>     7.4245     4.2139    44.8432 </r>
       <r>     7.5282     4.5281    45.3127 </r>
       <r>     7.6318     5.2920    45.8614 </r>
       <r>     7.7355     4.4363    46.3213 </r>
       <r>     7.8392     4.2907    46.7662 </r>
       <r>     7.9429     4.3929    47.2216 </r>
       <r>     8.0466     3.3071    47.5645 </r>
       <r>     8.1502     2.1381    47.7862 </r>
       <r>     8.2539     1.4686    47.9385 </r>
       <r>     8.3576     0.4749    47.9877 </r>
       <r>     8.4613     0.0702    47.9950 </r>
       <r>     8.5650     0.0366    47.9988 </r>
       <r>     8.6686     0.0112    47.9999 </r>
       <r>     8.7723     0.0005    48.0000 </r>
       <r>     8.8760     0.0000    48.0000 </r>
       <r>     8.9797     0.0000    48.0000 </r>
       <r>     9.0834     0.0000    48.0000 </r>
       <r>     9.1870     0.0000    48.0000 </r>
       <r>     9.2907     0.0000    48.0000 </r>
       <r>     9.3944     0.0000    48.0000 </r>
       <r>     9.4981     0.0000    48.0000 </r>
       <r>     9.6018     0.0000    48.0000 </r>
       <r>     9.7054     0.0000    48.0000 </r>
       <r>     9.8091     0.0000    48.0000 </r>
       <r>     9.9128     0.0000    48.0000 </r>
      </set>
      <set comment="spin 2">
       <r>   -21.1913     0.0000     0.0000 </r>
       <r>   -21.0877     0.0000     0.0000 </r>
       <r>   -20.9840     0.0000     0.0000 </r>
       <r>   -20.8803     0.0000     0.0000 </r>
       <r>   -20.7766     0.0000     0.0000 </r>
       <r>   -20.6729     0.0000     0.0000 </r>
       <r>   -20.5693     0.0000     0.0000 </r>
       <r>   -20.4656     0.0000     0.0000 </r>
       <r>   -20.3619     0.0000     0.0000 </r>
       <r>   -20.2582     0.0000     0.0000 </r>
       <r>   -20.1545     0.0000     0.0000 </r>
       <r>   -20.0508     0.0000     0.0000 </r>
       <r>   -19.9472     0.0011     0.0001 </r>
       <r>   -19.8435     0.0389     0.0041 </r>
       <r>   -19.7398     0.2640     0.0315 </r>
       <r>   -19.6361     0.5482     0.0884 </r>
       <r>   -19.5324     0.6053     0.1511 </r>
       <r>   -19.4288     0.6503     0.2185 </r>
       <r>   -19.3251     0.5638     0.2770 </r>
       <r>   -19.2214     0.7108     0.3507 </r>
       <r>   -19.1177     0.5526     0.4080 </r>
       <r>   -19.0140     0.5941     0.4696 </r>
       <r>   -18.9104     0.7812     0.5506 </r>
       <r>   -18.8067     0.4883     0.6012 </r>
       <r>   -18.7030     0.5608     0.6594 </r>
       <r>   -18.5993     0.8112     0.7435 </r>
       <r>   -18.4956     0.6555     0.8114 </r>
       <r>   -18.3920     0.3834     0.8512 </r>
       <r>   -18.2883     0.6704     0.9207 </r>
       <r>   -18.1846     0.8812     1.0121 </r>
       <r>   -18.0809     0.5752     1.0717 </r>
       <r>   -17.9772     0.4756     1.1210 </r>
       <r>   -17.8736     0.4697     1.1697 </r>
       <r>   -17.7699     0.9481     1.2680 </r>
       <r>   -17.6662     0.7835     1.3492 </r>
       <r>   -17.5625     0.4187     1.3927 </r>
       <r>   -17.4588     0.4836     1.4428 </r>
       <r>   -17.3552     0.5949     1.5045 </r>
       <r>   -17.2515     0.9076     1.5986 </r>
       <r>   -17.1478     0.8141     1.6830 </r>
       <r>   -17.0441     0.5464     1.7396 </r>
       <r>   -16.9404     0.2890     1.7696 </r>
       <r>   -16.8368     0.6138     1.8332 </r>
       <r>   -16.7331     0.9226     1.9289 </r>
       <r>   -16.6294     0.8111     2.0130 </r>
       <r>   -16.5257     0.6652     2.0820 </r>
       <r>   -16.4220     0.5657     2.1406 </r>
       <r>   -16.3184     0.3240     2.1742 </r>
       <r>   -16.2147     0.5111     2.2272 </r>
       <r>   -16.1110     1.1726     2.3488 </r>
       <r>   -16.0073     0.8615     2.4381 </r>
       <r>   -15.9036     0.9449     2.5361 </r>
       <r>   -15.7999     1.2197     2.6625 </r>
       <r>   -15.6963     1.3398     2.8014 </r>
       <r>   -15.5926     1.2267     2.9286 </r>
       <r>   -15.4889     1.7302     3.1080 </r>
       <r>   -15.3852     2.0313     3.3186 </r>
       <r>   -15.2815     1.6855     3.4934 </r>
       <r>   -15.1779     1.5131     3.6503 </r>
       <r>   -15.0742     1.8306     3.8401 </r>
       <r>   -14.9705     1.4883     3.9944 </r>
       <r>   -14.8668     1.3314     4.1324 </r>
       <r>   -14.7631     1.4281     4.2805 </r>
       <r>   -14.6595     1.3537     4.4208 </r>
       <r>   -14.5558     1.0531     4.5300 </r>
       <r>   -14.4521     1.0370     4.6375 </r>
       <r>   -14.3484     0.9455     4.7356 </r>
       <r>   -14.2447     1.1412     4.8539 </r>
       <r>   -14.1411     2.0628     5.0678 </r>
       <r>   -14.0374     1.7197     5.2461 </r>
       <r>   -13.9337     0.7583     5.3247 </r>
       <r>   -13.8300     0.6850     5.3957 </r>
       <r>   -13.7263     0.6148     5.4595 </r>
       <r>   -13.6227     0.5595     5.5175 </r>
       <r>   -13.5190     0.9273     5.6136 </r>
       <r>   -13.4153     1.2777     5.7461 </r>
       <r>   -13.3116     0.9088     5.8403 </r>
       <r>   -13.2079     0.7362     5.9166 </r>
       <r>   -13.1043     0.9585     6.0160 </r>
       <r>   -13.0006     1.0542     6.1253 </r>
       <r>   -12.8969     0.8856     6.2171 </r>
       <r>   -12.7932     1.0341     6.3244 </r>
       <r>   -12.6895     1.0613     6.4344 </r>
       <r>   -12.5859     1.2781     6.5669 </r>
       <r>   -12.4822     1.7949     6.7530 </r>
       <r>   -12.3785     1.3502     6.8930 </r>
       <r>   -12.2748     1.7206     7.0714 </r>
       <r>   -12.1711     1.5519     7.2323 </r>
       <r>   -12.0675     1.6002     7.3982 </r>
       <r>   -11.9638     2.5377     7.6613 </r>
       <r>   -11.8601     2.0978     7.8788 </r>
       <r>   -11.7564     1.5675     8.0413 </r>
       <r>   -11.6527     1.4603     8.1927 </r>
       <r>   -11.5490     1.4031     8.3382 </r>
       <r>   -11.4454     1.1134     8.4536 </r>
       <r>   -11.3417     0.5993     8.5158 </r>
       <r>   -11.2380     0.3751     8.5547 </r>
       <r>   -11.1343     0.6184     8.6188 </r>
       <r>   -11.0306     0.7455     8.6961 </r>
       <r>   -10.9270     0.7852     8.7775 </r>
       <r>   -10.8233     0.8829     8.8690 </r>
       <r>   -10.7196     1.1335     8.9865 </r>
       <r>   -10.6159     1.1879     9.1097 </r>
       <r>   -10.5122     1.7358     9.2897 </r>
       <r>   -10.4086     2.5298     9.5520 </r>
       <r>   -10.3049     2.1713     9.7771 </r>
       <r>   -10.2012     0.8339     9.8635 </r>
       <r>   -10.0975     0.4538     9.9106 </r>
       <r>    -9.9938     1.4651    10.0625 </r>
       <r>    -9.8902     2.3879    10.3101 </r>
       <r>    -9.7865     1.2621    10.4409 </r>
       <r>    -9.6828     0.6609    10.5095 </r>
       <r>    -9.5791     0.6952    10.5815 </r>
       <r>    -9.4754     1.6184    10.7493 </r>
       <r>    -9.3718     2.5956    11.0184 </r>
       <r>    -9.2681     2.1681    11.2432 </r>
       <r>    -9.1644     2.2501    11.4765 </r>
       <r>    -9.0607     1.7493    11.6579 </r>
       <r>    -8.9570     1.5069    11.8141 </r>
       <r>    -8.8534     1.8396    12.0049 </r>
       <r>    -8.7497     2.1289    12.2256 </r>
       <r>    -8.6460     1.9127    12.4239 </r>
       <r>    -8.5423     1.3881    12.5678 </r>
       <r>    -8.4386     1.6599    12.7399 </r>
       <r>    -8.3350     2.6644    13.0161 </r>
       <r>    -8.2313     1.9795    13.2214 </r>
       <r>    -8.1276     1.1565    13.3413 </r>
       <r>    -8.0239     1.8376    13.5318 </r>
       <r>    -7.9202     1.8737    13.7261 </r>
       <r>    -7.8166     2.4248    13.9775 </r>
       <r>    -7.7129     3.3002    14.3196 </r>
       <r>    -7.6092     2.1731    14.5450 </r>
       <r>    -7.5055     1.7366    14.7250 </r>
       <r>    -7.4018     2.0571    14.9383 </r>
       <r>    -7.2981     2.6093    15.2088 </r>
       <r>    -7.1945     2.4429    15.4621 </r>
       <r>    -7.0908     1.9466    15.6639 </r>
       <r>    -6.9871     1.8153    15.8521 </r>
       <r>    -6.8834     2.4004    16.1010 </r>
       <r>    -6.7797     3.1930    16.4321 </r>
       <r>    -6.6761     3.3819    16.7827 </r>
       <r>    -6.5724     3.5030    17.1459 </r>
       <r>    -6.4687     3.1018    17.4675 </r>
       <r>    -6.3650     3.5171    17.8322 </r>
       <r>    -6.2613     3.5171    18.1968 </r>
       <r>    -6.1577     2.5791    18.4642 </r>
       <r>    -6.0540     2.1138    18.6834 </r>
       <r>    -5.9503     1.9258    18.8830 </r>
       <r>    -5.8466     1.9355    19.0837 </r>
       <r>    -5.7429     2.3503    19.3274 </r>
       <r>    -5.6393     2.4472    19.5811 </r>
       <r>    -5.5356     1.2781    19.7136 </r>
       <r>    -5.4319     1.0438    19.8219 </r>
       <r>    -5.3282     2.1103    20.0407 </r>
       <r>    -5.2245     2.5826    20.3084 </r>
       <r>    -5.1209     1.8928    20.5047 </r>
       <r>    -5.0172     1.4661    20.6567 </r>
       <r>    -4.9135     2.1582    20.8804 </r>
       <r>    -4.8098     1.9652    21.0842 </r>
       <r>    -4.7061     1.3873    21.2280 </r>
       <r>    -4.6025     1.5293    21.3866 </r>
       <r>    -4.4988     1.7589    21.5689 </r>
       <r>    -4.3951     2.4529    21.8233 </r>
       <r>    -4.2914     2.3743    22.0694 </r>
       <r>    -4.1877     2.3196    22.3099 </r>
       <r>    -4.0841     2.1589    22.5338 </r>
       <r>    -3.9804     2.6127    22.8046 </r>
       <r>    -3.8767     3.0676    23.1227 </r>
       <r>    -3.7730     3.0810    23.4421 </r>
       <r>    -3.6693     3.5177    23.8068 </r>
       <r>    -3.5657     3.6296    24.1832 </r>
       <r>    -3.4620     2.7544    24.4687 </r>
       <r>    -3.3583     1.7496    24.6501 </r>
       <r>    -3.2546     1.7424    24.8308 </r>
       <r>    -3.1509     1.7215    25.0093 </r>
       <r>    -3.0473     1.5596    25.1710 </r>
       <r>    -2.9436     1.7642    25.3539 </r>
       <r>    -2.8399     1.8979    25.5507 </r>
       <r>    -2.7362     1.2466    25.6799 </r>
       <r>    -2.6325     0.9750    25.7810 </r>
       <r>    -2.5288     1.5539    25.9421 </r>
       <r>    -2.4252     2.5918    26.2108 </r>
       <r>    -2.3215     1.5565    26.3722 </r>
       <r>    -2.2178     0.7698    26.4520 </r>
       <r>    -2.1141     1.0979    26.5659 </r>
       <r>    -2.0104     1.1144    26.6814 </r>
       <r>    -1.9068     1.0832    26.7937 </r>
       <r>    -1.8031     1.3052    26.9290 </r>
       <r>    -1.6994     1.0940    27.0425 </r>
       <r>    -1.5957     0.7567    27.1209 </r>
       <r>    -1.4920     1.0756    27.2324 </r>
       <r>    -1.3884     1.2833    27.3655 </r>
       <r>    -1.2847     0.6254    27.4303 </r>
       <r>    -1.1810     0.7627    27.5094 </r>
       <r>    -1.0773     0.9415    27.6070 </r>
       <r>    -0.9736     0.7752    27.6874 </r>
       <r>    -0.8700     0.8388    27.7744 </r>
       <r>    -0.7663     0.4932    27.8255 </r>
       <r>    -0.6626     0.2015    27.8464 </r>
       <r>    -0.5589     0.2407    27.8714 </r>
       <r>    -0.4552     0.5620    27.9296 </r>
       <r>    -0.3516     0.4947    27.9809 </r>
       <r>    -0.2479     0.3095    28.0130 </r>
       <r>    -0.1442     0.2269    28.0365 </r>
       <r>    -0.0405     0.4049    28.0785 </r>
       <r>     0.0632     0.3850    28.1184 </r>
       <r>     0.1668     0.5249    28.1728 </r>
       <r>     0.2705     0.9585    28.2722 </r>
       <r>     0.3742     1.1474    28.3912 </r>
       <r>     0.4779     1.2984    28.5258 </r>
       <r>     0.5816     1.2127    28.6515 </r>
       <r>     0.6852     0.8063    28.7351 </r>
       <r>     0.7889     0.7221    28.8100 </r>
       <r>     0.8926     1.4643    28.9618 </r>
       <r>     0.9963     1.1979    29.0860 </r>
       <r>     1.1000     0.9928    29.1889 </r>
       <r>     1.2036     1.6043    29.3553 </r>
       <r>     1.3073     2.1651    29.5798 </r>
       <r>     1.4110     1.9807    29.7851 </r>
       <r>     1.5147     1.4651    29.9370 </r>
       <r>     1.6184     0.9859    30.0392 </r>
       <r>     1.7221     0.8144    30.1237 </r>
       <r>     1.8257     1.1710    30.2451 </r>
       <r>     1.9294     1.4078    30.3911 </r>
       <r>     2.0331     1.3690    30.5330 </r>
       <r>     2.1368     1.5322    30.6919 </r>
       <r>     2.2405     1.2748    30.8240 </r>
       <r>     2.3441     1.6049    30.9904 </r>
       <r>     2.4478     0.8718    31.0808 </r>
       <r>     2.5515     0.7020    31.1536 </r>
       <r>     2.6552     1.8056    31.3408 </r>
       <r>     2.7589     1.7383    31.5210 </r>
       <r>     2.8625     1.4282    31.6691 </r>
       <r>     2.9662     1.5757    31.8325 </r>
       <r>     3.0699     1.1566    31.9524 </r>
       <r>     3.1736     1.6376    32.1222 </r>
       <r>     3.2773     2.4256    32.3737 </r>
       <r>     3.3809     2.2380    32.6057 </r>
       <r>     3.4846     2.1347    32.8270 </r>
       <r>     3.5883     1.6850    33.0017 </r>
       <r>     3.6920     2.5656    33.2677 </r>
       <r>     3.7957     2.9039    33.5688 </r>
       <r>     3.8993     2.8972    33.8692 </r>
       <r>     4.0030     2.3608    34.1140 </r>
       <r>     4.1067     1.9644    34.3176 </r>
       <r>     4.2104     2.2641    34.5524 </r>
       <r>     4.3141     3.0259    34.8661 </r>
       <r>     4.4177     3.4645    35.2253 </r>
       <r>     4.5214     2.5677    35.4915 </r>
       <r>     4.6251     2.4159    35.7420 </r>
       <r>     4.7288     3.9293    36.1494 </r>
       <r>     4.8325     3.2863    36.4901 </r>
       <r>     4.9361     2.4433    36.7435 </r>
       <r>     5.0398     2.8418    37.0381 </r>
       <r>     5.1435     3.8591    37.4382 </r>
       <r>     5.2472     4.0570    37.8588 </r>
       <r>     5.3509     3.4689    38.2185 </r>
       <r>     5.4545     3.1815    38.5484 </r>
       <r>     5.5582     3.0416    38.8637 </r>
       <r>     5.6619     3.5156    39.2282 </r>
       <r>     5.7656     3.4805    39.5891 </r>
       <r>     5.8693     2.9612    39.8961 </r>
       <r>     5.9730     2.6115    40.1669 </r>
       <r>     6.0766     2.1959    40.3945 </r>
       <r>     6.1803     3.0912    40.7150 </r>
       <r>     6.2840     2.6940    40.9943 </r>
       <r>     6.3877     2.2626    41.2289 </r>
       <r>     6.4914     2.6893    41.5078 </r>
       <r>     6.5950     2.8412    41.8023 </r>
       <r>     6.6987     2.8873    42.1017 </r>
       <r>     6.8024     3.7128    42.4866 </r>
       <r>     6.9061     3.8172    42.8824 </r>
       <r>     7.0098     3.9060    43.2874 </r>
       <r>     7.1134     3.3922    43.6391 </r>
       <r>     7.2171     3.4366    43.9954 </r>
       <r>     7.3208     3.9707    44.4071 </r>
       <r>     7.4245     4.2180    44.8444 </r>
       <r>     7.5282     4.5258    45.3136 </r>
       <r>     7.6318     5.2906    45.8622 </r>
       <r>     7.7355     4.4378    46.3223 </r>
       <r>     7.8392     4.2892    46.7670 </r>
       <r>     7.9429     4.3923    47.2224 </r>
       <r>     8.0466     3.3044    47.5650 </r>
       <r>     8.1502     2.1369    47.7865 </r>
       <r>     8.2539     1.4662    47.9386 </r>
       <r>     8.3576     0.4741    47.9877 </r>
       <r>     8.4613     0.0702    47.9950 </r>
       <r>     8.5650     0.0366    47.9988 </r>
       <r>     8.6686     0.0112    47.9999 </r>
       <r>     8.7723     0.0005    48.0000 </r>
       <r>     8.8760     0.0000    48.0000 </r>
       <r>     8.9797     0.0000    48.0000 </r>
       <r>     9.0834     0.0000    48.0000 </r>
       <r>     9.1870     0.0000    48.0000 </r>
       <r>     9.2907     0.0000    48.0000 </r>
       <r>     9.3944     0.0000    48.0000 </r>
       <r>     9.4981     0.0000    48.0000 </r>
       <r>     9.6018     0.0000    48.0000 </r>
       <r>     9.7054     0.0000    48.0000 </r>
       <r>     9.8091     0.0000    48.0000 </r>
       <r>     9.9128     0.0000    48.0000 </r>
      </set>
     </set>
    </array>
   </total>
  </dos>
 </calculation>
 <structure name="finalpos" >
  <crystal>
   <varray name="basis" >
    <v>       4.29548600       2.48000000       0.00000000 </v>
    <v>      -4.29548600       2.48000000       0.00000000 </v>
    <v>       0.00000000       0.00000000      15.00000000 </v>
   </varray>
   <i name="volume">    319.58415861 </i>
   <varray name="rec_basis" >
    <v>       0.11640126       0.20161290       0.00000000 </v>
    <v>      -0.11640126       0.20161290       0.00000000 </v>
    <v>       0.00000000       0.00000000       0.06666667 </v>
   </varray>
  </crystal>
  <varray name="positions" >
   <v>       0.66870162       0.00003685       0.16736049 </v>
   <v>       0.33133423       0.00003685       0.16736049 </v>
   <v>      -0.00003685       0.33129738       0.16736049 </v>
   <v>      -0.00003685       0.66866477       0.16736049 </v>
   <v>       0.33133423       0.33129738       0.16736049 </v>
   <v>       0.66870162       0.66866477       0.16736049 </v>
   <v>       0.66666600       0.33333300       0.15353226 </v>
   <v>       0.33333300       0.66666600       0.18107897 </v>
   <v>       0.16665014       0.33330128       0.40043120 </v>
   <v>       0.33331871       0.16665886       0.40033976 </v>
   <v>       0.16665014       0.83334886       0.40043120 </v>
   <v>       0.33333300       0.66666600       0.40046896 </v>
   <v>       0.66666600       0.33333300       0.40031067 </v>
   <v>       0.83334014       0.16665886       0.40033976 </v>
   <v>       0.66669772       0.83334886       0.40043120 </v>
   <v>       0.83334014       0.66668029       0.40033976 </v>
  </varray>
 </structure>
</modeling>
