Lattice                                 
           1
     4.372562    2.524500    0.000000
    -4.372562    2.524500    0.000000
     0.000000    0.000000   15.000000
   B    C 
     2    14
Direct configuration=     1
   0.33833034  0.66916432  0.10000000
   0.67165522  0.33584146  0.10000000
   0.16373946  0.31999962  0.10000000
   0.32250218  0.16126397  0.10000000
   0.16376430  0.84376384  0.10000000
   0.84623863  0.16123684  0.10000000
   0.68749850  0.84373000  0.10000000
   0.84626736  0.68499594  0.10000000
   0.16666600  0.33333300  0.32880000
   0.33333300  0.16666600  0.32880000
   0.16666600  0.83333300  0.32880000
   0.33333300  0.66666600  0.32880000
   0.66666600  0.33333300  0.32880000
   0.83333300  0.16666600  0.32880000
   0.66666600  0.83333300  0.32880000
   0.83333300  0.66666600  0.32880000
Direct configuration=     2
   0.33832810  0.66916286  0.10014685
   0.67167575  0.33581269  0.10014684
   0.16682475  0.32617959  0.09994554
   0.32867555  0.16434683  0.09994520
   0.16685508  0.84066312  0.09994556
   0.84314005  0.16432487  0.09994590
   0.68134300  0.84067161  0.09994609
   0.84316462  0.67883975  0.09994589
   0.16636022  0.33271788  0.32887231
   0.33271725  0.16635919  0.32887291
   0.16636026  0.83364028  0.32887230
   0.33332702  0.66666408  0.32860125
   0.66666154  0.33332977  0.32860125
   0.83363986  0.16636114  0.32887095
   0.66727912  0.83363855  0.32887020
   0.83363983  0.66727977  0.32887096
Direct configuration=     3
   0.33832973  0.66916392  0.10004026
   0.67166084  0.33583357  0.10004026
   0.16458528  0.32169384  0.09998507
   0.32419459  0.16210912  0.09998498
   0.16461163  0.84291379  0.09998508
   0.84538917  0.16208341  0.09998517
   0.68581099  0.84289156  0.09998522
   0.84541675  0.68330824  0.09998517
   0.16658217  0.33316437  0.32881982
   0.33316419  0.16658189  0.32881999
   0.16658218  0.83341724  0.32881982
   0.33333136  0.66666547  0.32874551
   0.66666478  0.33333212  0.32874551
   0.83341712  0.16658242  0.32881945
   0.66683409  0.83341677  0.32881925
   0.83341712  0.66683426  0.32881945
Direct configuration=     4
   0.33833481  0.66916457  0.10014031
   0.67166453  0.33583038  0.10014029
   0.16457861  0.32167909  0.09994781
   0.32418221  0.16209706  0.09994748
   0.16459667  0.84291739  0.09994782
   0.84540747  0.16208463  0.09994826
   0.68582057  0.84290633  0.09994839
   0.84542364  0.68332271  0.09994826
   0.16654524  0.33309234  0.32886657
   0.33309153  0.16654545  0.32886715
   0.16654523  0.83345258  0.32886657
   0.33333004  0.66666471  0.32861802
   0.66666335  0.33333150  0.32861802
   0.83345185  0.16654610  0.32886526
   0.66690437  0.83345202  0.32886453
   0.83345187  0.66690516  0.32886526
Direct configuration=     5
   0.33833654  0.66916479  0.10017432
   0.67166578  0.33582929  0.10017430
   0.16457634  0.32167407  0.09993515
   0.32417800  0.16209296  0.09993474
   0.16459158  0.84291861  0.09993515
   0.84541369  0.16208504  0.09993571
   0.68582383  0.84291135  0.09993588
   0.84542599  0.68332762  0.09993571
   0.16653268  0.33306786  0.32888246
   0.33306682  0.16653307  0.32888319
   0.16653267  0.83346459  0.32888246
   0.33332959  0.66666445  0.32857467
   0.66666287  0.33333129  0.32857467
   0.83346366  0.16653375  0.32888083
   0.66692826  0.83346400  0.32887993
   0.83346368  0.66692926  0.32888084
Direct configuration=     6
   0.33832003  0.66916562  0.10023824
   0.67166820  0.33583693  0.10023822
   0.16461724  0.32169139  0.09990997
   0.32418277  0.16210028  0.09990925
   0.16461166  0.84291027  0.09990998
   0.84539221  0.16208122  0.09991100
   0.68584131  0.84290534  0.09991129
   0.84539110  0.68331892  0.09991096
   0.16662209  0.33324873  0.32889711
   0.33324695  0.16662355  0.32889816
   0.16662210  0.83337237  0.32889711
   0.33332832  0.66666423  0.32854279
   0.66666198  0.33333052  0.32854279
   0.83337061  0.16662400  0.32889480
   0.66674484  0.83337193  0.32889354
   0.83337059  0.66674670  0.32889480
Direct configuration=     7
   0.33832963  0.66916513  0.10020108
   0.67166679  0.33583249  0.10020106
   0.16459346  0.32168132  0.09992461
   0.32418000  0.16209602  0.09992407
   0.16459999  0.84291512  0.09992461
   0.84540470  0.16208344  0.09992537
   0.68583115  0.84290884  0.09992558
   0.84541138  0.68332398  0.09992535
   0.16657011  0.33314357  0.32888859
   0.33314223  0.16657094  0.32888945
   0.16657011  0.83342599  0.32888859
   0.33332906  0.66666436  0.32856133
   0.66666250  0.33333097  0.32856132
   0.83342471  0.16657153  0.32888668
   0.66685148  0.83342546  0.32888563
   0.83342471  0.66685284  0.32888668
Direct configuration=     8
   0.33832988  0.66916512  0.10020010
   0.67166676  0.33583237  0.10020008
   0.16459284  0.32168105  0.09992499
   0.32417993  0.16209591  0.09992446
   0.16459968  0.84291525  0.09992500
   0.84540503  0.16208350  0.09992575
   0.68583088  0.84290893  0.09992596
   0.84541192  0.68332411  0.09992573
   0.16656874  0.33314081  0.32888837
   0.33313947  0.16656956  0.32888923
   0.16656874  0.83342740  0.32888837
   0.33332908  0.66666436  0.32856181
   0.66666251  0.33333098  0.32856181
   0.83342613  0.16657015  0.32888647
   0.66685429  0.83342687  0.32888542
   0.83342613  0.66685563  0.32888647
Direct configuration=     9
   0.33834058  0.66916791  0.10021996
   0.67166004  0.33583339  0.10021995
   0.16457557  0.32167891  0.09991561
   0.32419247  0.16209046  0.09991488
   0.16458204  0.84291167  0.09991560
   0.84542737  0.16209319  0.09991668
   0.68581414  0.84291171  0.09991707
   0.84543415  0.68332365  0.09991667
   0.16656780  0.33314091  0.32888629
   0.33313896  0.16656920  0.32888729
   0.16656781  0.83342661  0.32888629
   0.33332790  0.66666367  0.32857631
   0.66666122  0.33333047  0.32857631
   0.83342473  0.16656977  0.32888410
   0.66685248  0.83342610  0.32888291
   0.83342472  0.66685437  0.32888409
Direct configuration=    10
   0.33833986  0.66916773  0.10021862
   0.67166049  0.33583332  0.10021861
   0.16457674  0.32167905  0.09991624
   0.32419162  0.16209083  0.09991553
   0.16458323  0.84291191  0.09991624
   0.84542587  0.16209254  0.09991729
   0.68581527  0.84291153  0.09991767
   0.84543265  0.68332368  0.09991728
   0.16656786  0.33314090  0.32888643
   0.33313900  0.16656922  0.32888742
   0.16656787  0.83342666  0.32888643
   0.33332798  0.66666372  0.32857533
   0.66666131  0.33333050  0.32857533
   0.83342483  0.16656980  0.32888426
   0.66685260  0.83342615  0.32888308
   0.83342482  0.66685446  0.32888425
Direct configuration=    11
   0.33833680  0.66916780  0.10022819
   0.67166472  0.33583369  0.10022817
   0.16458680  0.32167987  0.09991132
   0.32418681  0.16209120  0.09991048
   0.16459012  0.84291296  0.09991131
   0.84542020  0.16209155  0.09991258
   0.68582246  0.84291235  0.09991306
   0.84542387  0.68332414  0.09991257
   0.16656551  0.33313732  0.32888547
   0.33313504  0.16656726  0.32888654
   0.16656551  0.83342788  0.32888547
   0.33332722  0.66666335  0.32858331
   0.66666054  0.33333012  0.32858331
   0.83342568  0.16656784  0.32888315
   0.66685504  0.83342737  0.32888191
   0.83342567  0.66685729  0.32888315
Direct configuration=    12
   0.33833478  0.66916786  0.10023450
   0.67166751  0.33583392  0.10023449
   0.16459344  0.32168042  0.09990807
   0.32418364  0.16209145  0.09990715
   0.16459466  0.84291366  0.09990806
   0.84541646  0.16209090  0.09990947
   0.68582721  0.84291290  0.09991001
   0.84541807  0.68332444  0.09990946
   0.16656395  0.33313496  0.32888484
   0.33313243  0.16656596  0.32888596
   0.16656396  0.83342869  0.32888484
   0.33332671  0.66666310  0.32858858
   0.66666003  0.33332987  0.32858858
   0.83342624  0.16656655  0.32888243
   0.66685665  0.83342818  0.32888113
   0.83342623  0.66685916  0.32888243
Direct configuration=    13
   0.33833485  0.66916785  0.10023429
   0.67166742  0.33583392  0.10023428
   0.16459322  0.32168040  0.09990818
   0.32418374  0.16209145  0.09990726
   0.16459451  0.84291363  0.09990817
   0.84541659  0.16209092  0.09990957
   0.68582705  0.84291288  0.09991011
   0.84541827  0.68332443  0.09990957
   0.16656400  0.33313504  0.32888486
   0.33313252  0.16656600  0.32888598
   0.16656401  0.83342866  0.32888486
   0.33332673  0.66666311  0.32858840
   0.66666005  0.33332987  0.32858840
   0.83342622  0.16656659  0.32888245
   0.66685660  0.83342815  0.32888116
   0.83342621  0.66685910  0.32888245
Direct configuration=    14
   0.33833583  0.66916783  0.10023124
   0.67166607  0.33583380  0.10023123
   0.16459001  0.32168014  0.09990975
   0.32418528  0.16209132  0.09990887
   0.16459231  0.84291330  0.09990974
   0.84541839  0.16209124  0.09991107
   0.68582476  0.84291262  0.09991158
   0.84542107  0.68332428  0.09991107
   0.16656475  0.33313618  0.32888517
   0.33313378  0.16656663  0.32888626
   0.16656476  0.83342827  0.32888517
   0.33332697  0.66666323  0.32858586
   0.66666030  0.33333000  0.32858585
   0.83342595  0.16656722  0.32888280
   0.66685582  0.83342776  0.32888153
   0.83342594  0.66685819  0.32888280
Direct configuration=    15
   0.33833492  0.66916785  0.10023409
   0.67166733  0.33583391  0.10023408
   0.16459301  0.32168038  0.09990828
   0.32418384  0.16209144  0.09990737
   0.16459436  0.84291361  0.09990828
   0.84541671  0.16209094  0.09990967
   0.68582690  0.84291286  0.09991021
   0.84541845  0.68332442  0.09990967
   0.16656405  0.33313511  0.32888488
   0.33313260  0.16656604  0.32888600
   0.16656406  0.83342863  0.32888488
   0.33332675  0.66666312  0.32858823
   0.66666007  0.33332988  0.32858823
   0.83342621  0.16656663  0.32888247
   0.66685655  0.83342812  0.32888118
   0.83342620  0.66685904  0.32888247
Direct configuration=    16
   0.33833489  0.66916785  0.10023417
   0.67166736  0.33583391  0.10023415
   0.16459309  0.32168039  0.09990824
   0.32418381  0.16209144  0.09990733
   0.16459442  0.84291362  0.09990824
   0.84541666  0.16209093  0.09990963
   0.68582696  0.84291287  0.09991017
   0.84541838  0.68332442  0.09990963
   0.16656403  0.33313508  0.32888488
   0.33313257  0.16656603  0.32888599
   0.16656404  0.83342864  0.32888488
   0.33332674  0.66666312  0.32858830
   0.66666006  0.33332988  0.32858829
   0.83342621  0.16656662  0.32888247
   0.66685657  0.83342813  0.32888118
   0.83342620  0.66685906  0.32888247
Direct configuration=    17
   0.33833462  0.66916730  0.10023304
   0.67166769  0.33583366  0.10023303
   0.16459386  0.32168128  0.09990800
   0.32418470  0.16209249  0.09990705
   0.16459491  0.84291306  0.09990799
   0.84541584  0.16208993  0.09990946
   0.68582908  0.84291359  0.09991003
   0.84541710  0.68332522  0.09990946
   0.16656380  0.33313494  0.32888554
   0.33313228  0.16656594  0.32888666
   0.16656381  0.83342845  0.32888554
   0.33332645  0.66666303  0.32858805
   0.66665984  0.33332971  0.32858805
   0.83342587  0.16656653  0.32888313
   0.66685628  0.83342794  0.32888184
   0.83342587  0.66685893  0.32888313
