   2   2   0  16
  0.3772471E+02  0.2410000E-09  0.2410000E-09  0.1500000E-08  0.5000000E-15
  1.000000000000000E-004
  CAR 
 Graphene                                
     44.73132451    -25.24972960  301     -1.99629972      1.00000000
    -25.250  0.0000E+00  0.0000E+00
    -25.016  0.0000E+00  0.0000E+00
    -24.783  0.0000E+00  0.0000E+00
    -24.550  0.0000E+00  0.0000E+00
    -24.317  0.0000E+00  0.0000E+00
    -24.083  0.0000E+00  0.0000E+00
    -23.850  0.0000E+00  0.0000E+00
    -23.617  0.0000E+00  0.0000E+00
    -23.384  0.0000E+00  0.0000E+00
    -23.150  0.0000E+00  0.0000E+00
    -22.917  0.0000E+00  0.0000E+00
    -22.684  0.0000E+00  0.0000E+00
    -22.450  0.2003E-10  0.4673E-11
    -22.217  0.1067E-04  0.2488E-05
    -21.984  0.9162E-03  0.2162E-03
    -21.751  0.3185E-02  0.9593E-03
    -21.517  0.2720E-02  0.1594E-02
    -21.284  0.4221E-02  0.2578E-02
    -21.051  0.3136E-03  0.2652E-02
    -20.818  0.5724E-02  0.3987E-02
    -20.584  0.2351E-02  0.4535E-02
    -20.351  0.2575E-02  0.5136E-02
    -20.118  0.5010E-03  0.5253E-02
    -19.885  0.6142E-02  0.6686E-02
    -19.651  0.4080E-02  0.7637E-02
    -19.418  0.9642E-03  0.7862E-02
    -19.185  0.2601E-02  0.8469E-02
    -18.951  0.1205E-02  0.8750E-02
    -18.718  0.5957E-02  0.1014E-01
    -18.485  0.5986E-02  0.1154E-01
    -18.252  0.1154E-02  0.1181E-01
    -18.018  0.2177E-03  0.1186E-01
    -17.785  0.3226E-02  0.1261E-01
    -17.552  0.3147E-02  0.1334E-01
    -17.319  0.7376E-02  0.1506E-01
    -17.085  0.8532E-03  0.1526E-01
    -16.852  0.6387E-02  0.1675E-01
    -16.619  0.3209E-03  0.1683E-01
    -16.385  0.1609E-02  0.1720E-01
    -16.152  0.1841E-02  0.1763E-01
    -15.919  0.8848E-02  0.1970E-01
    -15.686  0.8670E-03  0.1990E-01
    -15.452  0.1033E-02  0.2014E-01
    -15.219  0.2017E-02  0.2061E-01
    -14.986  0.2577E-02  0.2121E-01
    -14.753  0.7666E-02  0.2300E-01
    -14.519  0.8375E-03  0.2319E-01
    -14.286  0.6307E-03  0.2334E-01
    -14.053  0.7389E-02  0.2507E-01
    -13.819  0.2756E-02  0.2571E-01
    -13.586  0.5877E-02  0.2708E-01
    -13.353  0.1210E-02  0.2736E-01
    -13.120  0.2117E-03  0.2741E-01
    -12.886  0.3444E-02  0.2821E-01
    -12.653  0.6863E-02  0.2981E-01
    -12.420  0.1389E-02  0.3014E-01
    -12.187  0.6205E-04  0.3015E-01
    -11.953  0.5903E-02  0.3153E-01
    -11.720  0.5441E-02  0.3280E-01
    -11.487  0.6368E-02  0.3429E-01
    -11.254  0.2620E-02  0.3490E-01
    -11.020  0.1040E-02  0.3514E-01
    -10.787  0.1553E-03  0.3518E-01
    -10.554  0.6780E-02  0.3676E-01
    -10.320  0.6057E-02  0.3817E-01
    -10.087  0.5160E-02  0.3937E-01
     -9.854  0.4266E-02  0.4037E-01
     -9.621  0.9744E-02  0.4264E-01
     -9.387  0.7354E-02  0.4436E-01
     -9.154  0.5072E-02  0.4554E-01
     -8.921  0.6011E-02  0.4694E-01
     -8.688  0.8604E-02  0.4895E-01
     -8.454  0.1692E-01  0.5290E-01
     -8.221  0.7521E-02  0.5465E-01
     -7.988  0.7890E-02  0.5649E-01
     -7.754  0.4070E-02  0.5744E-01
     -7.521  0.5083E-02  0.5863E-01
     -7.288  0.8385E-02  0.6058E-01
     -7.055  0.1010E-01  0.6294E-01
     -6.821  0.4625E-02  0.6402E-01
     -6.588  0.3508E-02  0.6484E-01
     -6.355  0.3079E-02  0.6555E-01
     -6.122  0.8720E-02  0.6759E-01
     -5.888  0.9452E-02  0.6979E-01
     -5.655  0.2160E-02  0.7030E-01
     -5.422  0.3690E-02  0.7116E-01
     -5.188  0.5120E-02  0.7235E-01
     -4.955  0.2027E-02  0.7283E-01
     -4.722  0.9769E-02  0.7510E-01
     -4.489  0.7970E-02  0.7696E-01
     -4.255  0.1110E-02  0.7722E-01
     -4.022  0.4391E-04  0.7723E-01
     -3.789  0.3001E-02  0.7793E-01
     -3.556  0.8505E-03  0.7813E-01
     -3.322  0.6435E-02  0.7963E-01
     -3.089  0.3881E-03  0.7972E-01
     -2.856  0.3366E-08  0.7972E-01
     -2.623  0.0000E+00  0.7972E-01
     -2.389  0.3265E-10  0.7972E-01
     -2.156  0.2850E-04  0.7973E-01
     -1.923  0.1998E-02  0.8019E-01
     -1.689  0.3549E-03  0.8028E-01
     -1.456  0.1700E-07  0.8028E-01
     -1.223  0.2618E-16  0.8028E-01
     -0.990  0.1055E-08  0.8028E-01
     -0.756  0.2419E-03  0.8033E-01
     -0.523  0.7634E-02  0.8211E-01
     -0.290  0.3718E-02  0.8298E-01
     -0.057  0.1898E-02  0.8343E-01
      0.177  0.6060E-02  0.8484E-01
      0.410  0.9818E-04  0.8486E-01
      0.643  0.3062E-02  0.8558E-01
      0.877  0.5657E-02  0.8690E-01
      1.110  0.5907E-02  0.8827E-01
      1.343  0.3198E-02  0.8902E-01
      1.576  0.6635E-03  0.8917E-01
      1.810  0.3333E-02  0.8995E-01
      2.043  0.1054E-01  0.9241E-01
      2.276  0.4078E-02  0.9336E-01
      2.509  0.9651E-03  0.9359E-01
      2.743  0.1610E-01  0.9734E-01
      2.976  0.8516E-02  0.9933E-01
      3.209  0.7579E-02  0.1011E+00
      3.443  0.5540E-02  0.1024E+00
      3.676  0.7706E-02  0.1042E+00
      3.909  0.4203E-02  0.1052E+00
      4.142  0.1292E-01  0.1082E+00
      4.376  0.1224E-01  0.1110E+00
      4.609  0.4018E-02  0.1120E+00
      4.842  0.1280E-01  0.1150E+00
      5.075  0.8164E-02  0.1169E+00
      5.309  0.8667E-02  0.1189E+00
      5.542  0.1552E-01  0.1225E+00
      5.775  0.1219E-01  0.1253E+00
      6.008  0.1601E-01  0.1291E+00
      6.242  0.1344E-01  0.1322E+00
      6.475  0.1189E-01  0.1350E+00
      6.708  0.1610E-01  0.1387E+00
      6.942  0.3080E-01  0.1459E+00
      7.175  0.2104E-01  0.1508E+00
      7.408  0.2202E-01  0.1560E+00
      7.641  0.2544E-01  0.1619E+00
      7.875  0.4915E-02  0.1631E+00
      8.108  0.1149E-01  0.1657E+00
      8.341  0.1997E-01  0.1704E+00
      8.574  0.1582E-01  0.1741E+00
      8.808  0.2272E-01  0.1794E+00
      9.041  0.2472E-01  0.1852E+00
      9.274  0.2551E-01  0.1911E+00
      9.508  0.1234E-01  0.1940E+00
      9.741  0.1933E-01  0.1985E+00
      9.974  0.2204E-01  0.2036E+00
     10.207  0.2177E-01  0.2087E+00
     10.441  0.1961E-01  0.2133E+00
     10.674  0.8427E-02  0.2153E+00
     10.907  0.1164E-01  0.2180E+00
     11.140  0.3007E-01  0.2250E+00
     11.374  0.2749E-01  0.2314E+00
     11.607  0.1341E-01  0.2345E+00
     11.840  0.2526E-01  0.2404E+00
     12.073  0.2508E-01  0.2463E+00
     12.307  0.2720E-01  0.2526E+00
     12.540  0.2434E-01  0.2583E+00
     12.773  0.1748E-01  0.2624E+00
     13.007  0.6204E-02  0.2638E+00
     13.240  0.1362E-01  0.2670E+00
     13.473  0.1601E-01  0.2707E+00
     13.706  0.2049E-01  0.2755E+00
     13.940  0.2156E-01  0.2805E+00
     14.173  0.2434E-01  0.2862E+00
     14.406  0.2177E-01  0.2913E+00
     14.639  0.3211E-01  0.2988E+00
     14.873  0.8737E-02  0.3008E+00
     15.106  0.2852E-01  0.3075E+00
     15.339  0.1718E-01  0.3115E+00
     15.573  0.3068E-01  0.3186E+00
     15.806  0.1993E-01  0.3233E+00
     16.039  0.2503E-01  0.3291E+00
     16.272  0.1606E-01  0.3329E+00
     16.506  0.2455E-01  0.3386E+00
     16.739  0.2454E-01  0.3443E+00
     16.972  0.1861E-01  0.3487E+00
     17.205  0.2276E-01  0.3540E+00
     17.439  0.1650E-01  0.3578E+00
     17.672  0.2959E-01  0.3647E+00
     17.905  0.2980E-01  0.3717E+00
     18.139  0.3039E-01  0.3788E+00
     18.372  0.1337E-01  0.3819E+00
     18.605  0.7607E-02  0.3837E+00
     18.838  0.1485E-01  0.3871E+00
     19.072  0.2851E-01  0.3938E+00
     19.305  0.3182E-01  0.4012E+00
     19.538  0.2666E-01  0.4074E+00
     19.771  0.1996E-01  0.4121E+00
     20.005  0.1686E-01  0.4160E+00
     20.238  0.2688E-01  0.4223E+00
     20.471  0.4757E-01  0.4334E+00
     20.704  0.2112E-01  0.4383E+00
     20.938  0.2203E-01  0.4434E+00
     21.171  0.1309E-01  0.4465E+00
     21.404  0.3650E-01  0.4550E+00
     21.638  0.2341E-01  0.4605E+00
     21.871  0.2708E-01  0.4668E+00
     22.104  0.1221E-01  0.4696E+00
     22.337  0.1954E-01  0.4742E+00
     22.571  0.3636E-01  0.4827E+00
     22.804  0.3406E-01  0.4906E+00
     23.037  0.4458E-01  0.5010E+00
     23.270  0.1997E-01  0.5057E+00
     23.504  0.2619E-01  0.5118E+00
     23.737  0.2580E-01  0.5178E+00
     23.970  0.3024E-01  0.5248E+00
     24.204  0.2956E-01  0.5317E+00
     24.437  0.2933E-01  0.5386E+00
     24.670  0.1712E-01  0.5426E+00
     24.903  0.5039E-01  0.5543E+00
     25.137  0.3162E-01  0.5617E+00
     25.370  0.2943E-01  0.5686E+00
     25.603  0.2811E-01  0.5751E+00
     25.836  0.2761E-01  0.5816E+00
     26.070  0.1730E-01  0.5856E+00
     26.303  0.1209E-01  0.5884E+00
     26.536  0.2997E-01  0.5954E+00
     26.770  0.1601E-01  0.5991E+00
     27.003  0.2785E-01  0.6056E+00
     27.236  0.5249E-01  0.6179E+00
     27.469  0.2181E-01  0.6230E+00
     27.703  0.2748E-01  0.6294E+00
     27.936  0.3339E-01  0.6372E+00
     28.169  0.2400E-01  0.6428E+00
     28.402  0.2294E-01  0.6481E+00
     28.636  0.3193E-01  0.6556E+00
     28.869  0.2183E-01  0.6607E+00
     29.102  0.2101E-01  0.6656E+00
     29.335  0.2738E-01  0.6720E+00
     29.569  0.1902E-01  0.6764E+00
     29.802  0.4737E-01  0.6874E+00
     30.035  0.1571E-01  0.6911E+00
     30.269  0.2857E-01  0.6978E+00
     30.502  0.2485E-01  0.7036E+00
     30.735  0.2986E-01  0.7105E+00
     30.968  0.2235E-01  0.7157E+00
     31.202  0.2542E-01  0.7217E+00
     31.435  0.4181E-01  0.7314E+00
     31.668  0.4497E-01  0.7419E+00
     31.901  0.2411E-01  0.7475E+00
     32.135  0.2791E-01  0.7540E+00
     32.368  0.3049E-01  0.7612E+00
     32.601  0.1354E-01  0.7643E+00
     32.835  0.3567E-01  0.7726E+00
     33.068  0.4445E-01  0.7830E+00
     33.301  0.3359E-01  0.7908E+00
     33.534  0.2623E-01  0.7970E+00
     33.768  0.1288E-01  0.8000E+00
     34.001  0.3530E-01  0.8082E+00
     34.234  0.2627E-01  0.8143E+00
     34.467  0.3586E-01  0.8227E+00
     34.701  0.3105E-01  0.8299E+00
     34.934  0.2150E-01  0.8350E+00
     35.167  0.2232E-01  0.8402E+00
     35.401  0.3017E-01  0.8472E+00
     35.634  0.2302E-01  0.8526E+00
     35.867  0.3719E-01  0.8612E+00
     36.100  0.4282E-01  0.8712E+00
     36.334  0.2373E-01  0.8768E+00
     36.567  0.2625E-01  0.8829E+00
     36.800  0.4618E-01  0.8937E+00
     37.033  0.3759E-01  0.9024E+00
     37.267  0.1455E-01  0.9058E+00
     37.500  0.1681E-01  0.9098E+00
     37.733  0.3688E-01  0.9184E+00
     37.966  0.2764E-01  0.9248E+00
     38.200  0.2855E-01  0.9315E+00
     38.433  0.2841E-01  0.9381E+00
     38.666  0.1600E-01  0.9418E+00
     38.900  0.1688E-01  0.9458E+00
     39.133  0.7802E-02  0.9476E+00
     39.366  0.8018E-02  0.9494E+00
     39.599  0.7808E-02  0.9513E+00
     39.833  0.1351E-01  0.9544E+00
     40.066  0.8800E-02  0.9565E+00
     40.299  0.1182E-02  0.9568E+00
     40.532  0.3491E-02  0.9576E+00
     40.766  0.4482E-02  0.9586E+00
     40.999  0.2349E-02  0.9592E+00
     41.232  0.1227E-02  0.9594E+00
     41.466  0.2747E-03  0.9595E+00
     41.699  0.2065E-02  0.9600E+00
     41.932  0.4260E-04  0.9600E+00
     42.165  0.8004E-10  0.9600E+00
     42.399  0.0000E+00  0.9600E+00
     42.632  0.0000E+00  0.9600E+00
     42.865  0.0000E+00  0.9600E+00
     43.098  0.0000E+00  0.9600E+00
     43.332  0.0000E+00  0.9600E+00
     43.565  0.0000E+00  0.9600E+00
     43.798  0.0000E+00  0.9600E+00
     44.032  0.0000E+00  0.9600E+00
     44.265  0.0000E+00  0.9600E+00
     44.498  0.0000E+00  0.9600E+00
     44.731  0.0000E+00  0.9600E+00
