       N       E                     dE             d eps       ncg     rms          rms(c)
DAV:   1    -0.103620825698E+02   -0.10362E+02   -0.40414E+03  1824   0.112E+02
DAV:   2    -0.199239003307E+02   -0.95618E+01   -0.95603E+01  2736   0.176E+01
DAV:   3    -0.199309779678E+02   -0.70776E-02   -0.70775E-02  1872   0.630E-01
DAV:   4    -0.199309877358E+02   -0.97679E-05   -0.97673E-05  3504   0.234E-02
DAV:   5    -0.199309877352E+02    0.54479E-09   -0.17703E-09  1824   0.714E-05    0.692E+00
DAV:   6    -0.188098309760E+02    0.11212E+01   -0.10937E+00  2832   0.127E+00    0.412E+00
DAV:   7    -0.183790217182E+02    0.43081E+00   -0.14037E+00  2832   0.139E+00    0.107E+00
DAV:   8    -0.183699706390E+02    0.90511E-02   -0.66162E-03  2976   0.143E-01    0.127E-01
DAV:   9    -0.183665032439E+02    0.34674E-02   -0.27064E-03  2928   0.475E-02    0.102E-01
DAV:  10    -0.183649431462E+02    0.15601E-02   -0.19282E-03  2688   0.372E-02    0.345E-02
DAV:  11    -0.183650774323E+02   -0.13429E-03   -0.31492E-04  2352   0.161E-02    0.132E-02
DAV:  12    -0.183655207919E+02   -0.44336E-03   -0.41523E-05  2448   0.551E-03    0.100E-02
DAV:  13    -0.183662266992E+02   -0.70591E-03   -0.19316E-04  2832   0.916E-03    0.464E-03
DAV:  14    -0.183663559105E+02   -0.12921E-03   -0.60159E-06  2832   0.215E-03    0.387E-03
DAV:  15    -0.183663841403E+02   -0.28230E-04   -0.30966E-06  2640   0.132E-03    0.811E-04
DAV:  16    -0.183663917644E+02   -0.76240E-05   -0.22173E-07  2784   0.394E-04    0.969E-05
DAV:  17    -0.183663922364E+02   -0.47205E-06   -0.59364E-08  2400   0.807E-05
   1 F= -.18542985E+02 E0= -.18542201E+02  d E =-.185430E+02
