 ----------------------------------------------------
    OOO  PPPP  EEEEE N   N M   M PPPP
   O   O P   P E     NN  N MM MM P   P
   O   O PPPP  EEEEE N N N M M M PPPP   -- VERSION
   O   O P     E     N  NN M   M P
    OOO  P     EEEEE N   N M   M P
 ----------------------------------------------------
 running   48 mpi-ranks, with    1 threads/rank
 distrk:  each k-point on   48 cores,    1 groups
 distr:  one band on    1 cores,   48 groups
 vasp.6.3.2 27Jun22 (build Dec 22 2022 13:13:19) complex                        
  
 POSCAR found type information on POSCAR B C 
 POSCAR found :  2 types and      15 ions
 Reading from existing POTCAR
 scaLAPACK will be used
 Reading from existing POTCAR
 LDA part: xc-table for Pade appr. of Perdew
 POSCAR found type information on POSCAR B C 
 POSCAR found :  2 types and      15 ions
 WARNING: stress and forces are not correct
 POSCAR, INCAR and KPOINTS ok, starting setup
 FFT: planning ... GRIDC
 FFT: planning ... GRID_SOFT
 FFT: planning ... GRID
 WAVECAR not read
 charge-density read from file: SC                                      
 WARNING: random wavefunctions but no delay for mixing, default for NELMDL
 entering main loop
       N       E                     dE             d eps       ncg     rms          rms(c)
DAV:   1     0.172560193955E+03    0.17256E+03   -0.24446E+04 25440   0.861E+02
DAV:   2    -0.115444598978E+03   -0.28800E+03   -0.28668E+03 39696   0.143E+02
DAV:   3    -0.125504682132E+03   -0.10060E+02   -0.10058E+02 39168   0.376E+01
DAV:   4    -0.125549395711E+03   -0.44714E-01   -0.44714E-01 44016   0.232E+00
DAV:   5    -0.125549414249E+03   -0.18538E-04   -0.18538E-04 36096   0.533E-02
DAV:   6    -0.125549414350E+03   -0.10090E-06   -0.10089E-06 42768   0.326E-03
   1 F= -.12554941E+03 E0= -.12554941E+03  d E =-.121647E-04
