Automatically generated mesh
    1513
Reciprocal lattice
    0.00000000000000    0.00000000000000    0.00000000000000             1
    0.01818181818182    0.00000000000000    0.00000000000000             2
    0.00000000000000    0.01818181818182    0.00000000000000             2
   -0.01818181818182    0.01818181818182    0.00000000000000             2
    0.03636363636364    0.00000000000000    0.00000000000000             2
    0.00000000000000    0.03636363636364    0.00000000000000             2
   -0.03636363636364    0.03636363636364    0.00000000000000             2
    0.05454545454545    0.00000000000000    0.00000000000000             2
    0.00000000000000    0.05454545454545    0.00000000000000             2
   -0.05454545454545    0.05454545454545    0.00000000000000             2
    0.07272727272727    0.00000000000000    0.00000000000000             2
    0.00000000000000    0.07272727272727    0.00000000000000             2
   -0.07272727272727    0.07272727272727    0.00000000000000             2
    0.09090909090909   -0.00000000000000    0.00000000000000             2
   -0.00000000000000    0.09090909090909    0.00000000000000             2
   -0.09090909090909    0.09090909090909    0.00000000000000             2
    0.10909090909091    0.00000000000000    0.00000000000000             2
    0.00000000000000    0.10909090909091    0.00000000000000             2
   -0.10909090909091    0.10909090909091    0.00000000000000             2
    0.12727272727273    0.00000000000000    0.00000000000000             2
   -0.00000000000000    0.12727272727273    0.00000000000000             2
   -0.12727272727273    0.12727272727273    0.00000000000000             2
    0.14545454545455    0.00000000000000    0.00000000000000             2
    0.00000000000000    0.14545454545455    0.00000000000000             2
   -0.14545454545455    0.14545454545455    0.00000000000000             2
    0.16363636363636    0.00000000000000    0.00000000000000             2
    0.00000000000000    0.16363636363636    0.00000000000000             2
   -0.16363636363636    0.16363636363636    0.00000000000000             2
    0.18181818181818    0.00000000000000    0.00000000000000             2
    0.00000000000000    0.18181818181818    0.00000000000000             2
   -0.18181818181818    0.18181818181818    0.00000000000000             2
    0.20000000000000    0.00000000000000    0.00000000000000             2
    0.00000000000000    0.20000000000000    0.00000000000000             2
   -0.20000000000000    0.20000000000000    0.00000000000000             2
    0.21818181818182    0.00000000000000    0.00000000000000             2
    0.00000000000000    0.21818181818182    0.00000000000000             2
   -0.21818181818182    0.21818181818182    0.00000000000000             2
    0.23636363636363    0.00000000000000    0.00000000000000             2
    0.00000000000000    0.23636363636363    0.00000000000000             2
   -0.23636363636363    0.23636363636363    0.00000000000000             2
    0.25454545454546    0.00000000000000    0.00000000000000             2
   -0.00000000000000    0.25454545454546    0.00000000000000             2
   -0.25454545454546    0.25454545454546    0.00000000000000             2
    0.27272727272727    0.00000000000000    0.00000000000000             2
    0.00000000000000    0.27272727272727    0.00000000000000             2
   -0.27272727272727    0.27272727272727    0.00000000000000             2
    0.29090909090909    0.00000000000000    0.00000000000000             2
    0.00000000000000    0.29090909090909    0.00000000000000             2
   -0.29090909090909    0.29090909090909    0.00000000000000             2
    0.30909090909091   -0.00000000000000    0.00000000000000             2
   -0.00000000000000    0.30909090909091    0.00000000000000             2
   -0.30909090909091    0.30909090909091    0.00000000000000             2
    0.32727272727273    0.00000000000000    0.00000000000000             2
    0.00000000000000    0.32727272727273    0.00000000000000             2
   -0.32727272727273    0.32727272727273    0.00000000000000             2
    0.34545454545454   -0.00000000000000    0.00000000000000             2
   -0.00000000000000    0.34545454545454    0.00000000000000             2
   -0.34545454545454    0.34545454545454    0.00000000000000             2
    0.36363636363637    0.00000000000000    0.00000000000000             2
    0.00000000000000    0.36363636363637    0.00000000000000             2
   -0.36363636363637    0.36363636363637    0.00000000000000             2
    0.38181818181818    0.00000000000000    0.00000000000000             2
   -0.00000000000000    0.38181818181818    0.00000000000000             2
   -0.38181818181818    0.38181818181818    0.00000000000000             2
    0.40000000000000    0.00000000000000    0.00000000000000             2
    0.00000000000000    0.40000000000000    0.00000000000000             2
   -0.40000000000000    0.40000000000000    0.00000000000000             2
    0.41818181818182    0.00000000000000    0.00000000000000             2
    0.00000000000000    0.41818181818182    0.00000000000000             2
   -0.41818181818182    0.41818181818182    0.00000000000000             2
    0.43636363636364    0.00000000000000    0.00000000000000             2
    0.00000000000000    0.43636363636364    0.00000000000000             2
   -0.43636363636364    0.43636363636364    0.00000000000000             2
    0.45454545454545    0.00000000000000    0.00000000000000             2
   -0.00000000000000    0.45454545454545    0.00000000000000             2
   -0.45454545454545    0.45454545454545    0.00000000000000             2
    0.47272727272728    0.00000000000000    0.00000000000000             2
    0.00000000000000    0.47272727272728    0.00000000000000             2
   -0.47272727272728    0.47272727272728    0.00000000000000             2
    0.49090909090909    0.00000000000000    0.00000000000000             2
    0.00000000000000    0.49090909090909    0.00000000000000             2
   -0.49090909090909    0.49090909090909    0.00000000000000             2
    0.01818181818182    0.01818181818182    0.00000000000000             2
   -0.01818181818182    0.03636363636363    0.00000000000000             2
   -0.03636363636363    0.01818181818182    0.00000000000000             2
    0.03636363636364    0.01818181818182    0.00000000000000             2
   -0.01818181818182    0.05454545454545    0.00000000000000             2
   -0.05454545454545    0.03636363636364    0.00000000000000             2
   -0.03636363636364    0.05454545454545    0.00000000000000             2
    0.01818181818182    0.03636363636364    0.00000000000000             2
    0.05454545454545   -0.01818181818182    0.00000000000000             2
    0.05454545454545    0.01818181818182    0.00000000000000             2
   -0.01818181818182    0.07272727272727    0.00000000000000             2
   -0.07272727272727    0.05454545454545    0.00000000000000             2
   -0.05454545454545    0.07272727272727    0.00000000000000             2
    0.01818181818182    0.05454545454545    0.00000000000000             2
    0.07272727272727   -0.01818181818182    0.00000000000000             2
    0.07272727272727    0.01818181818182    0.00000000000000             2
   -0.01818181818182    0.09090909090909    0.00000000000000             2
   -0.09090909090909    0.07272727272727    0.00000000000000             2
   -0.07272727272727    0.09090909090909    0.00000000000000             2
    0.01818181818182    0.07272727272727    0.00000000000000             2
    0.09090909090909   -0.01818181818182    0.00000000000000             2
    0.09090909090909    0.01818181818182    0.00000000000000             2
   -0.01818181818182    0.10909090909091    0.00000000000000             2
   -0.10909090909091    0.09090909090909    0.00000000000000             2
   -0.09090909090909    0.10909090909091    0.00000000000000             2
    0.01818181818182    0.09090909090909    0.00000000000000             2
    0.10909090909091   -0.01818181818182    0.00000000000000             2
    0.10909090909091    0.01818181818182    0.00000000000000             2
   -0.01818181818182    0.12727272727273    0.00000000000000             2
   -0.12727272727273    0.10909090909091    0.00000000000000             2
   -0.10909090909091    0.12727272727273    0.00000000000000             2
    0.01818181818182    0.10909090909091    0.00000000000000             2
    0.12727272727273   -0.01818181818182    0.00000000000000             2
    0.12727272727273    0.01818181818182    0.00000000000000             2
   -0.01818181818182    0.14545454545454    0.00000000000000             2
   -0.14545454545454    0.12727272727273    0.00000000000000             2
   -0.12727272727273    0.14545454545454    0.00000000000000             2
    0.01818181818182    0.12727272727273    0.00000000000000             2
    0.14545454545454   -0.01818181818182    0.00000000000000             2
    0.14545454545455    0.01818181818182    0.00000000000000             2
   -0.01818181818182    0.16363636363636    0.00000000000000             2
   -0.16363636363636    0.14545454545455    0.00000000000000             2
   -0.14545454545455    0.16363636363636    0.00000000000000             2
    0.01818181818182    0.14545454545455    0.00000000000000             2
    0.16363636363636   -0.01818181818182    0.00000000000000             2
    0.16363636363636    0.01818181818182    0.00000000000000             2
   -0.01818181818182    0.18181818181818    0.00000000000000             2
   -0.18181818181818    0.16363636363636    0.00000000000000             2
   -0.16363636363636    0.18181818181818    0.00000000000000             2
    0.01818181818182    0.16363636363636    0.00000000000000             2
    0.18181818181818   -0.01818181818182    0.00000000000000             2
    0.18181818181818    0.01818181818182    0.00000000000000             2
   -0.01818181818182    0.20000000000000    0.00000000000000             2
   -0.20000000000000    0.18181818181818    0.00000000000000             2
   -0.18181818181818    0.20000000000000    0.00000000000000             2
    0.01818181818182    0.18181818181818    0.00000000000000             2
    0.20000000000000   -0.01818181818182    0.00000000000000             2
    0.20000000000000    0.01818181818182    0.00000000000000             2
   -0.01818181818182    0.21818181818182    0.00000000000000             2
   -0.21818181818182    0.20000000000000    0.00000000000000             2
   -0.20000000000000    0.21818181818182    0.00000000000000             2
    0.01818181818182    0.20000000000000    0.00000000000000             2
    0.21818181818182   -0.01818181818182    0.00000000000000             2
    0.21818181818182    0.01818181818182    0.00000000000000             2
   -0.01818181818182    0.23636363636363    0.00000000000000             2
   -0.23636363636363    0.21818181818182    0.00000000000000             2
   -0.21818181818182    0.23636363636363    0.00000000000000             2
    0.01818181818182    0.21818181818182    0.00000000000000             2
    0.23636363636363   -0.01818181818182    0.00000000000000             2
    0.23636363636363    0.01818181818182    0.00000000000000             2
   -0.01818181818182    0.25454545454545    0.00000000000000             2
   -0.25454545454545    0.23636363636363    0.00000000000000             2
   -0.23636363636363    0.25454545454545    0.00000000000000             2
    0.01818181818182    0.23636363636363    0.00000000000000             2
    0.25454545454545   -0.01818181818182    0.00000000000000             2
    0.25454545454546    0.01818181818182    0.00000000000000             2
   -0.01818181818182    0.27272727272727    0.00000000000000             2
   -0.27272727272727    0.25454545454546    0.00000000000000             2
   -0.25454545454546    0.27272727272727    0.00000000000000             2
    0.01818181818182    0.25454545454546    0.00000000000000             2
    0.27272727272727   -0.01818181818182    0.00000000000000             2
    0.27272727272727    0.01818181818182    0.00000000000000             2
   -0.01818181818182    0.29090909090909    0.00000000000000             2
   -0.29090909090909    0.27272727272727    0.00000000000000             2
   -0.27272727272727    0.29090909090909    0.00000000000000             2
    0.01818181818182    0.27272727272727    0.00000000000000             2
    0.29090909090909   -0.01818181818182    0.00000000000000             2
    0.29090909090909    0.01818181818182    0.00000000000000             2
   -0.01818181818182    0.30909090909091    0.00000000000000             2
   -0.30909090909091    0.29090909090909    0.00000000000000             2
   -0.29090909090909    0.30909090909091    0.00000000000000             2
    0.01818181818182    0.29090909090909    0.00000000000000             2
    0.30909090909091   -0.01818181818182    0.00000000000000             2
    0.30909090909091    0.01818181818182    0.00000000000000             2
   -0.01818181818182    0.32727272727273    0.00000000000000             2
   -0.32727272727273    0.30909090909091    0.00000000000000             2
   -0.30909090909091    0.32727272727273    0.00000000000000             2
    0.01818181818182    0.30909090909091    0.00000000000000             2
    0.32727272727273   -0.01818181818182    0.00000000000000             2
    0.32727272727273    0.01818181818182    0.00000000000000             2
   -0.01818181818182    0.34545454545454    0.00000000000000             2
   -0.34545454545454    0.32727272727273    0.00000000000000             2
   -0.32727272727273    0.34545454545454    0.00000000000000             2
    0.01818181818182    0.32727272727273    0.00000000000000             2
    0.34545454545454   -0.01818181818182    0.00000000000000             2
    0.34545454545454    0.01818181818182    0.00000000000000             2
   -0.01818181818182    0.36363636363636    0.00000000000000             2
   -0.36363636363636    0.34545454545454    0.00000000000000             2
   -0.34545454545454    0.36363636363636    0.00000000000000             2
    0.01818181818182    0.34545454545454    0.00000000000000             2
    0.36363636363636   -0.01818181818182    0.00000000000000             2
    0.36363636363637    0.01818181818182    0.00000000000000             2
   -0.01818181818182    0.38181818181818    0.00000000000000             2
   -0.38181818181818    0.36363636363637    0.00000000000000             2
   -0.36363636363637    0.38181818181818    0.00000000000000             2
    0.01818181818182    0.36363636363637    0.00000000000000             2
    0.38181818181818   -0.01818181818182    0.00000000000000             2
    0.38181818181818    0.01818181818182    0.00000000000000             2
   -0.01818181818182    0.40000000000000    0.00000000000000             2
   -0.40000000000000    0.38181818181818    0.00000000000000             2
   -0.38181818181818    0.40000000000000    0.00000000000000             2
    0.01818181818182    0.38181818181818    0.00000000000000             2
    0.40000000000000   -0.01818181818182    0.00000000000000             2
    0.40000000000000    0.01818181818182    0.00000000000000             2
   -0.01818181818182    0.41818181818181    0.00000000000000             2
   -0.41818181818181    0.40000000000000    0.00000000000000             2
   -0.40000000000000    0.41818181818181    0.00000000000000             2
    0.01818181818182    0.40000000000000    0.00000000000000             2
    0.41818181818181   -0.01818181818182    0.00000000000000             2
    0.41818181818182    0.01818181818182    0.00000000000000             2
   -0.01818181818182    0.43636363636364    0.00000000000000             2
   -0.43636363636364    0.41818181818182    0.00000000000000             2
   -0.41818181818182    0.43636363636364    0.00000000000000             2
    0.01818181818182    0.41818181818182    0.00000000000000             2
    0.43636363636364   -0.01818181818182    0.00000000000000             2
    0.43636363636364    0.01818181818182    0.00000000000000             2
   -0.01818181818182    0.45454545454545    0.00000000000000             2
   -0.45454545454545    0.43636363636364    0.00000000000000             2
   -0.43636363636364    0.45454545454545    0.00000000000000             2
    0.01818181818182    0.43636363636364    0.00000000000000             2
    0.45454545454545   -0.01818181818182    0.00000000000000             2
    0.45454545454545    0.01818181818182    0.00000000000000             2
   -0.01818181818182    0.47272727272727    0.00000000000000             2
   -0.47272727272727    0.45454545454545    0.00000000000000             2
   -0.45454545454545    0.47272727272727    0.00000000000000             2
    0.01818181818182    0.45454545454545    0.00000000000000             2
    0.47272727272727   -0.01818181818182    0.00000000000000             2
    0.47272727272728    0.01818181818182    0.00000000000000             2
   -0.01818181818182    0.49090909090909    0.00000000000000             2
   -0.49090909090909    0.47272727272728    0.00000000000000             2
   -0.47272727272728    0.49090909090909    0.00000000000000             2
    0.01818181818182    0.47272727272728    0.00000000000000             2
    0.49090909090909   -0.01818181818182    0.00000000000000             2
    0.49090909090909    0.01818181818182    0.00000000000000             2
   -0.01818181818182   -0.49090909090909    0.00000000000000             2
    0.49090909090909    0.49090909090909    0.00000000000000             2
    0.03636363636364    0.03636363636364    0.00000000000000             2
   -0.03636363636364    0.07272727272728    0.00000000000000             2
   -0.07272727272728    0.03636363636364    0.00000000000000             2
    0.05454545454545    0.03636363636364    0.00000000000000             2
   -0.03636363636364    0.09090909090909    0.00000000000000             2
   -0.09090909090909    0.05454545454545    0.00000000000000             2
   -0.05454545454545    0.09090909090909    0.00000000000000             2
    0.03636363636364    0.05454545454545    0.00000000000000             2
    0.09090909090909   -0.03636363636364    0.00000000000000             2
    0.07272727272727    0.03636363636364    0.00000000000000             2
   -0.03636363636364    0.10909090909091    0.00000000000000             2
   -0.10909090909091    0.07272727272727    0.00000000000000             2
   -0.07272727272727    0.10909090909091    0.00000000000000             2
    0.03636363636364    0.07272727272727    0.00000000000000             2
    0.10909090909091   -0.03636363636364    0.00000000000000             2
    0.09090909090909    0.03636363636364    0.00000000000000             2
   -0.03636363636364    0.12727272727273    0.00000000000000             2
   -0.12727272727273    0.09090909090909    0.00000000000000             2
   -0.09090909090909    0.12727272727273    0.00000000000000             2
    0.03636363636364    0.09090909090909    0.00000000000000             2
    0.12727272727273   -0.03636363636364    0.00000000000000             2
    0.10909090909091    0.03636363636364    0.00000000000000             2
   -0.03636363636364    0.14545454545455    0.00000000000000             2
   -0.14545454545455    0.10909090909091    0.00000000000000             2
   -0.10909090909091    0.14545454545455    0.00000000000000             2
    0.03636363636364    0.10909090909091    0.00000000000000             2
    0.14545454545455   -0.03636363636364    0.00000000000000             2
    0.12727272727273    0.03636363636364    0.00000000000000             2
   -0.03636363636364    0.16363636363636    0.00000000000000             2
   -0.16363636363636    0.12727272727273    0.00000000000000             2
   -0.12727272727273    0.16363636363636    0.00000000000000             2
    0.03636363636364    0.12727272727273    0.00000000000000             2
    0.16363636363636   -0.03636363636364    0.00000000000000             2
    0.14545454545455    0.03636363636364    0.00000000000000             2
   -0.03636363636364    0.18181818181819    0.00000000000000             2
   -0.18181818181819    0.14545454545455    0.00000000000000             2
   -0.14545454545455    0.18181818181819    0.00000000000000             2
    0.03636363636364    0.14545454545455    0.00000000000000             2
    0.18181818181819   -0.03636363636364    0.00000000000000             2
    0.16363636363636    0.03636363636364    0.00000000000000             2
   -0.03636363636364    0.20000000000000    0.00000000000000             2
   -0.20000000000000    0.16363636363636    0.00000000000000             2
   -0.16363636363636    0.20000000000000    0.00000000000000             2
    0.03636363636364    0.16363636363636    0.00000000000000             2
    0.20000000000000   -0.03636363636364    0.00000000000000             2
    0.18181818181818    0.03636363636364    0.00000000000000             2
   -0.03636363636364    0.21818181818182    0.00000000000000             2
   -0.21818181818182    0.18181818181818    0.00000000000000             2
   -0.18181818181818    0.21818181818182    0.00000000000000             2
    0.03636363636364    0.18181818181818    0.00000000000000             2
    0.21818181818182   -0.03636363636364    0.00000000000000             2
    0.20000000000000    0.03636363636364    0.00000000000000             2
   -0.03636363636364    0.23636363636364    0.00000000000000             2
   -0.23636363636364    0.20000000000000    0.00000000000000             2
   -0.20000000000000    0.23636363636364    0.00000000000000             2
    0.03636363636364    0.20000000000000    0.00000000000000             2
    0.23636363636364   -0.03636363636364    0.00000000000000             2
    0.21818181818182    0.03636363636364    0.00000000000000             2
   -0.03636363636364    0.25454545454546    0.00000000000000             2
   -0.25454545454546    0.21818181818182    0.00000000000000             2
   -0.21818181818182    0.25454545454546    0.00000000000000             2
    0.03636363636364    0.21818181818182    0.00000000000000             2
    0.25454545454546   -0.03636363636364    0.00000000000000             2
    0.23636363636363    0.03636363636364    0.00000000000000             2
   -0.03636363636364    0.27272727272727    0.00000000000000             2
   -0.27272727272727    0.23636363636363    0.00000000000000             2
   -0.23636363636363    0.27272727272727    0.00000000000000             2
    0.03636363636364    0.23636363636363    0.00000000000000             2
    0.27272727272727   -0.03636363636364    0.00000000000000             2
    0.25454545454546    0.03636363636364    0.00000000000000             2
   -0.03636363636364    0.29090909090910    0.00000000000000             2
   -0.29090909090910    0.25454545454546    0.00000000000000             2
   -0.25454545454546    0.29090909090910    0.00000000000000             2
    0.03636363636364    0.25454545454546    0.00000000000000             2
    0.29090909090910   -0.03636363636364    0.00000000000000             2
    0.27272727272727    0.03636363636364    0.00000000000000             2
   -0.03636363636364    0.30909090909091    0.00000000000000             2
   -0.30909090909091    0.27272727272727    0.00000000000000             2
   -0.27272727272727    0.30909090909091    0.00000000000000             2
    0.03636363636364    0.27272727272727    0.00000000000000             2
    0.30909090909091   -0.03636363636364    0.00000000000000             2
    0.29090909090909    0.03636363636364    0.00000000000000             2
   -0.03636363636364    0.32727272727273    0.00000000000000             2
   -0.32727272727273    0.29090909090909    0.00000000000000             2
   -0.29090909090909    0.32727272727273    0.00000000000000             2
    0.03636363636364    0.29090909090909    0.00000000000000             2
    0.32727272727273   -0.03636363636364    0.00000000000000             2
    0.30909090909091    0.03636363636364    0.00000000000000             2
   -0.03636363636364    0.34545454545455    0.00000000000000             2
   -0.34545454545455    0.30909090909091    0.00000000000000             2
   -0.30909090909091    0.34545454545455    0.00000000000000             2
    0.03636363636364    0.30909090909091    0.00000000000000             2
    0.34545454545455   -0.03636363636364    0.00000000000000             2
    0.32727272727273    0.03636363636364    0.00000000000000             2
   -0.03636363636364    0.36363636363637    0.00000000000000             2
   -0.36363636363637    0.32727272727273    0.00000000000000             2
   -0.32727272727273    0.36363636363637    0.00000000000000             2
    0.03636363636364    0.32727272727273    0.00000000000000             2
    0.36363636363637   -0.03636363636364    0.00000000000000             2
    0.34545454545454    0.03636363636364    0.00000000000000             2
   -0.03636363636364    0.38181818181818    0.00000000000000             2
   -0.38181818181818    0.34545454545454    0.00000000000000             2
   -0.34545454545454    0.38181818181818    0.00000000000000             2
    0.03636363636364    0.34545454545454    0.00000000000000             2
    0.38181818181818   -0.03636363636364    0.00000000000000             2
    0.36363636363637    0.03636363636364    0.00000000000000             2
   -0.03636363636364    0.40000000000001    0.00000000000000             2
   -0.40000000000001    0.36363636363637    0.00000000000000             2
   -0.36363636363637    0.40000000000001    0.00000000000000             2
    0.03636363636364    0.36363636363637    0.00000000000000             2
    0.40000000000001   -0.03636363636364    0.00000000000000             2
    0.38181818181818    0.03636363636364    0.00000000000000             2
   -0.03636363636364    0.41818181818182    0.00000000000000             2
   -0.41818181818182    0.38181818181818    0.00000000000000             2
   -0.38181818181818    0.41818181818182    0.00000000000000             2
    0.03636363636364    0.38181818181818    0.00000000000000             2
    0.41818181818182   -0.03636363636364    0.00000000000000             2
    0.40000000000000    0.03636363636364    0.00000000000000             2
   -0.03636363636364    0.43636363636364    0.00000000000000             2
   -0.43636363636364    0.40000000000000    0.00000000000000             2
   -0.40000000000000    0.43636363636364    0.00000000000000             2
    0.03636363636364    0.40000000000000    0.00000000000000             2
    0.43636363636364   -0.03636363636364    0.00000000000000             2
    0.41818181818182    0.03636363636364    0.00000000000000             2
   -0.03636363636364    0.45454545454546    0.00000000000000             2
   -0.45454545454546    0.41818181818182    0.00000000000000             2
   -0.41818181818182    0.45454545454546    0.00000000000000             2
    0.03636363636364    0.41818181818182    0.00000000000000             2
    0.45454545454546   -0.03636363636364    0.00000000000000             2
    0.43636363636364    0.03636363636364    0.00000000000000             2
   -0.03636363636364    0.47272727272728    0.00000000000000             2
   -0.47272727272728    0.43636363636364    0.00000000000000             2
   -0.43636363636364    0.47272727272728    0.00000000000000             2
    0.03636363636364    0.43636363636364    0.00000000000000             2
    0.47272727272728   -0.03636363636364    0.00000000000000             2
    0.45454545454545    0.03636363636364    0.00000000000000             2
   -0.03636363636364    0.49090909090909    0.00000000000000             2
   -0.49090909090909    0.45454545454545    0.00000000000000             2
   -0.45454545454545    0.49090909090909    0.00000000000000             2
    0.03636363636364    0.45454545454545    0.00000000000000             2
    0.49090909090909   -0.03636363636364    0.00000000000000             2
    0.47272727272728    0.03636363636364    0.00000000000000             2
   -0.03636363636364   -0.49090909090908    0.00000000000000             2
    0.49090909090909    0.47272727272728    0.00000000000000             2
   -0.47272727272728   -0.49090909090909    0.00000000000000             2
    0.03636363636364    0.47272727272728    0.00000000000000             2
   -0.49090909090909   -0.03636363636364    0.00000000000000             2
    0.05454545454545    0.05454545454545    0.00000000000000             2
   -0.05454545454545    0.10909090909091    0.00000000000000             2
   -0.10909090909091    0.05454545454545    0.00000000000000             2
    0.07272727272727    0.05454545454545    0.00000000000000             2
   -0.05454545454545    0.12727272727273    0.00000000000000             2
   -0.12727272727273    0.07272727272727    0.00000000000000             2
   -0.07272727272727    0.12727272727273    0.00000000000000             2
    0.05454545454545    0.07272727272727    0.00000000000000             2
    0.12727272727273   -0.05454545454545    0.00000000000000             2
    0.09090909090909    0.05454545454545    0.00000000000000             2
   -0.05454545454545    0.14545454545455    0.00000000000000             2
   -0.14545454545455    0.09090909090909    0.00000000000000             2
   -0.09090909090909    0.14545454545455    0.00000000000000             2
    0.05454545454545    0.09090909090909    0.00000000000000             2