    7    7    1    1
  0.4081967E+02  0.4690000E-09  0.4690000E-09  0.1500000E-08  0.5000000E-15
  1.000000000000000E-004
  CAR 
 Dielectric                              
     24    385    129
 
  0.0000000E+00  0.0000000E+00  0.0000000E+00  0.2366864E-03
      1        -19.736853   1.000000
      2        -15.493988   1.000000
      3        -15.493881   1.000000
      4        -12.605898   1.000000
      5        -11.307108   1.000000
      6        -11.306913   1.000000
      7         -9.859440   1.000000
      8         -9.092739   1.000000
      9         -4.576460   1.000000
     10         -4.575908   1.000000
     11         -2.856204   1.000000
     12         -2.855819   1.000000
     13         -0.739640   0.000000
     14         -0.739356   0.000000
     15         -0.591108   0.000000
     16          1.241503   0.000000
     17          1.809833   0.000000
     18          2.434898   0.000000
     19          2.679200   0.000000
     20          2.679255   0.000000
     21          4.225011   0.000000
     22          4.962830   0.000000
     23          7.140628   0.000000
     24          7.222739   0.000000
     25          7.701471   0.000000
     26          8.261865   0.000000
     27          8.261951   0.000000
     28          8.292872   0.000000
     29          8.937472   0.000000
     30          9.245495   0.000000
     31          9.245737   0.000000
     32          9.421047   0.000000
     33          9.471211   0.000000
     34         10.408382   0.000000
     35         10.595159   0.000000
     36         10.597242   0.000000
     37         10.707999   0.000000
     38         10.710201   0.000000
     39         10.888764   0.000000
     40         10.894553   0.000000
     41         10.898263   0.000000
     42         11.045939   0.000000
     43         11.049057   0.000000
     44         11.222072   0.000000
     45         11.542057   0.000000
     46         11.557787   0.000000
     47         11.563165   0.000000
     48         11.605691   0.000000
     49         12.105933   0.000000
     50         12.107974   0.000000
     51         12.669193   0.000000
     52         12.997569   0.000000
     53         13.074389   0.000000
     54         13.075412   0.000000
     55         13.328385   0.000000
     56         13.330405   0.000000
     57         13.723694   0.000000
     58         13.976969   0.000000
     59         13.979185   0.000000
     60         14.030225   0.000000
     61         14.365381   0.000000
     62         14.600078   0.000000
     63         14.601809   0.000000
     64         15.080710   0.000000
     65         15.123262   0.000000
     66         16.200219   0.000000
     67         16.753380   0.000000
     68         16.754243   0.000000
     69         16.880608   0.000000
     70         17.208907   0.000000
     71         17.210536   0.000000
     72         17.821554   0.000000
     73         17.826553   0.000000
     74         18.313842   0.000000
     75         18.397786   0.000000
     76         18.402060   0.000000
     77         18.737796   0.000000
     78         19.022396   0.000000
     79         19.555114   0.000000
     80         19.555736   0.000000
     81         19.710284   0.000000
     82         20.387123   0.000000
     83         21.060900   0.000000
     84         21.061156   0.000000
     85         21.258045   0.000000
     86         21.454302   0.000000
     87         21.985443   0.000000
     88         21.986324   0.000000
     89         22.450534   0.000000
     90         22.615337   0.000000
     91         22.616441   0.000000
     92         23.871506   0.000000
     93         23.872003   0.000000
     94         23.998809   0.000000
     95         24.297273   0.000000
     96         24.298232   0.000000
     97         24.462407   0.000000
     98         24.554409   0.000000
     99         24.720650   0.000000
    100         25.161518   0.000000
    101         25.161760   0.000000
    102         27.235937   0.000000
    103         27.235999   0.000000
    104         27.450902   0.000000
    105         27.452170   0.000000
    106         27.751709   0.000000
    107         27.751883   0.000000
    108         27.888289   0.000000
    109         28.228019   0.000000
    110         28.299552   0.000000
    111         28.300988   0.000000
    112         28.529694   0.000000
    113         28.754612   0.000000
    114         28.962802   0.000000
    115         29.376240   0.000000
    116         29.379394   0.000000
    117         29.510307   0.000000
    118         29.523760   0.000000
    119         29.574405   0.000000
    120         29.584248   0.000000
    121         29.679209   0.000000
    122         29.681532   0.000000
    123         29.729848   0.000000
    124         29.977292   0.000000
    125         30.275576   0.000000
    126         30.356902   0.000000
    127         30.878368   0.000000
    128         30.881514   0.000000
    129         30.942582   0.000000
 
  0.1538462E-01 -0.7243558E-18  0.0000000E+00  0.1420118E-02
      1        -19.735799   1.000000
      2        -15.498496   1.000000
      3        -15.494948   1.000000
      4        -12.601342   1.000000
      5        -11.314720   1.000000
      6        -11.304007   1.000000
      7         -9.847708   1.000000
      8         -9.090984   1.000000
      9         -4.583846   1.000000
     10         -4.581158   1.000000
     11         -2.866242   1.000000
     12         -2.861197   1.000000
     13         -0.755745   0.000000
     14         -0.734452   0.000000
     15         -0.563255   0.000000
     16          1.244996   0.000000
     17          1.811983   0.000000
     18          2.436993   0.000000
     19          2.683674   0.000000
     20          2.686751   0.000000
     21          4.227058   0.000000
     22          4.965148   0.000000
     23          7.144367   0.000000
     24          7.218637   0.000000
     25          7.699078   0.000000
     26          8.245008   0.000000
     27          8.251550   0.000000
     28          8.298322   0.000000
     29          8.934902   0.000000
     30          9.227565   0.000000
     31          9.228522   0.000000
     32          9.426337   0.000000
     33          9.454557   0.000000
     34         10.400887   0.000000
     35         10.511714   0.000000
     36         10.541506   0.000000
     37         10.695944   0.000000
     38         10.717771   0.000000
     39         10.831305   0.000000
     40         10.924838   0.000000
     41         11.007754   0.000000
     42         11.027520   0.000000
     43         11.054600   0.000000
     44         11.194776   0.000000
     45         11.506673   0.000000
     46         11.616113   0.000000
     47         11.644572   0.000000
     48         11.650478   0.000000
     49         12.117943   0.000000
     50         12.126651   0.000000
     51         12.673821   0.000000
     52         12.898621   0.000000
     53         13.018125   0.000000
     54         13.087031   0.000000
     55         13.373604   0.000000
     56         13.387577   0.000000
     57         13.726226   0.000000
     58         13.921751   0.000000
     59         13.963657   0.000000
     60         14.099809   0.000000
     61         14.389328   0.000000
     62         14.613226   0.000000
     63         14.627688   0.000000
     64         15.086660   0.000000
     65         15.150085   0.000000
     66         16.200516   0.000000
     67         16.688390   0.000000
     68         16.724630   0.000000
     69         16.888438   0.000000
     70         17.221834   0.000000
     71         17.231349   0.000000
     72         17.813315   0.000000
     73         17.828390   0.000000
     74         18.333365   0.000000
     75         18.374226   0.000000
     76         18.412286   0.000000
     77         18.759532   0.000000
     78         19.054672   0.000000
     79         19.506663   0.000000
     80         19.560403   0.000000
     81         19.758528   0.000000
     82         20.384543   0.000000
     83         21.064787   0.000000
     84         21.066286   0.000000
     85         21.262706   0.000000
     86         21.451700   0.000000
     87         21.962569   0.000000
     88         21.966229   0.000000
     89         22.448534   0.000000
     90         22.628967   0.000000
     91         22.633363   0.000000
     92         23.793993   0.000000
     93         23.828020   0.000000
     94         24.031990   0.000000
     95         24.255733   0.000000
     96         24.307563   0.000000
     97         24.538541   0.000000
     98         24.568244   0.000000
     99         24.776147   0.000000
    100         25.171622   0.000000
    101         25.182015   0.000000
    102         27.070190   0.000000
    103         27.123629   0.000000
    104         27.443149   0.000000
    105         27.464341   0.000000
    106         27.719271   0.000000
    107         27.807499   0.000000
    108         27.963829   0.000000
    109         28.235684   0.000000
    110         28.279653   0.000000
    111         28.326440   0.000000
    112         28.496356   0.000000
    113         28.703148   0.000000
    114         28.919219   0.000000
    115         29.188396   0.000000
    116         29.253656   0.000000
    117         29.302440   0.000000
    118         29.353341   0.000000
    119         29.629664   0.000000
    120         29.690971   0.000000
    121         29.764363   0.000000
    122         29.825200   0.000000
    123         30.009709   0.000000
    124         30.140983   0.000000
    125         30.353752   0.000000
    126         30.377714   0.000000
    127         30.798092   0.000000
    128         30.821834   0.000000
    129         30.876403   0.000000
 
  0.3076923E-01 -0.1289896E-17  0.0000000E+00  0.1420118E-02
      1        -19.732642   1.000000
      2        -15.512136   1.000000
      3        -15.497912   1.000000
      4        -12.587828   1.000000
      5        -11.336832   1.000000
      6        -11.295160   1.000000
      7         -9.813335   1.000000
      8         -9.085723   1.000000
      9         -4.607439   1.000000
     10         -4.595456   1.000000
     11         -2.896042   1.000000
     12         -2.876791   1.000000
     13         -0.786096   0.000000
     14         -0.718610   0.000000
     15         -0.499439   0.000000
     16          1.255501   0.000000
     17          1.818431   0.000000
     18          2.443298   0.000000
     19          2.696885   0.000000
     20          2.709156   0.000000
     21          4.233191   0.000000
     22          4.972101   0.000000
     23          7.155484   0.000000
     24          7.206069   0.000000
     25          7.691614   0.000000
     26          8.199682   0.000000
     27          8.221956   0.000000
     28          8.308153   0.000000
     29          8.927158   0.000000
     30          9.179245   0.000000
     31          9.182690   0.000000
     32          9.405205   0.000000
     33          9.438004   0.000000
     34         10.279074   0.000000
     35         10.432186   0.000000
     36         10.450661   0.000000
     37         10.673342   0.000000
     38         10.701035   0.000000
     39         10.733027   0.000000
     40         10.956015   0.000000
     41         11.019758   0.000000
     42         11.046783   0.000000
     43         11.155387   0.000000
     44         11.227302   0.000000
     45         11.517191   0.000000
     46         11.713060   0.000000
     47         11.754392   0.000000
     48         11.765407   0.000000
     49         12.145723   0.000000
     50         12.197349   0.000000
     51         12.687892   0.000000
     52         12.729510   0.000000
     53         12.913599   0.000000
     54         13.069521   0.000000
     55         13.426126   0.000000
     56         13.497698   0.000000
     57         13.724122   0.000000
     58         13.902083   0.000000
     59         13.930544   0.000000
     60         14.183210   0.000000
     61         14.460040   0.000000
     62         14.652982   0.000000
     63         14.693494   0.000000
     64         15.105582   0.000000
     65         15.229173   0.000000
     66         16.199952   0.000000
     67         16.550831   0.000000
     68         16.654106   0.000000
     69         16.874557   0.000000
     70         17.231891   0.000000
     71         17.286328   0.000000
     72         17.784202   0.000000
     73         17.846571   0.000000
     74         18.302527   0.000000
     75         18.392269   0.000000
     76         18.455819   0.000000
     77         18.819261   0.000000
     78         19.125036   0.000000
     79         19.430359   0.000000
     80         19.578428   0.000000
     81         19.842949   0.000000
     82         20.376279   0.000000
     83         21.073187   0.000000
     84         21.080783   0.000000
     85         21.276812   0.000000
     86         21.443627   0.000000
     87         21.897962   0.000000
     88         21.917769   0.000000
     89         22.442960   0.000000
     90         22.661182   0.000000
     91         22.680235   0.000000
     92         23.629671   0.000000
     93         23.737029   0.000000
     94         24.069084   0.000000
     95         24.173294   0.000000
     96         24.375460   0.000000
     97         24.608239   0.000000
     98         24.659312   0.000000
     99         24.919303   0.000000
    100         25.202953   0.000000
    101         25.242789   0.000000
    102         26.762104   0.000000
    103         26.873441   0.000000
    104         27.405204   0.000000
    105         27.451990   0.000000
    106         27.690870   0.000000
    107         27.856561   0.000000
    108         27.985370   0.000000
    109         28.161862   0.000000
    110         28.241827   0.000000
    111         28.330025   0.000000
    112         28.518852   0.000000
    113         28.559194   0.000000
    114         28.724170   0.000000
    115         28.891898   0.000000
    116         29.114417   0.000000
    117         29.225283   0.000000
    118         29.318028   0.000000
    119         29.638789   0.000000
    120         29.732992   0.000000
    121         29.837753   0.000000
    122         30.082566   0.000000
    123         30.354905   0.000000
    124         30.417973   0.000000
    125         30.495663   0.000000
    126         30.563106   0.000000
    127         30.662805   0.000000
    128         30.736916   0.000000
    129         30.749748   0.000000
 
  0.4615385E-01 -0.2527883E-18  0.0000000E+00  0.1420118E-02
      1        -19.727394   1.000000
      2        -15.534538   1.000000
      3        -15.502808   1.000000
      4        -12.565821   1.000000
      5        -11.371092   1.000000
      6        -11.280480   1.000000
      7         -9.758555   1.000000
      8         -9.076958   1.000000
      9         -4.646154   1.000000
     10         -4.619046   1.000000
     11         -2.944889   1.000000
     12         -2.902006   1.000000
     13         -0.814821   0.000000
     14         -0.691178   0.000000
     15         -0.418186   0.000000
     16          1.273088   0.000000
     17          1.829187   0.000000
     18          2.453877   0.000000
     19          2.718642   0.000000
     20          2.746084   0.000000
     21          4.243417   0.000000
     22          4.983697   0.000000
     23          7.173610   0.000000
     24          7.184256   0.000000
     25          7.678425   0.000000
     26          8.126038   0.000000
     27          8.176599   0.000000
     28          8.320906   0.000000
     29          8.914223   0.000000
     30          9.110196   0.000000
     31          9.118217   0.000000
     32          9.335436   0.000000
     33          9.439751   0.000000
     34         10.082866   0.000000
     35         10.323873   0.000000
     36         10.376160   0.000000
     37         10.577595   0.000000
     38         10.650307   0.000000
     39         10.693196   0.000000
     40         10.934591   0.000000
     41         11.034932   0.000000
     42         11.136011   0.000000
     43         11.213023   0.000000
     44         11.387985   0.000000
     45         11.562781   0.000000
     46         11.808224   0.000000
     47         11.863449   0.000000
     48         11.898661   0.000000
     49         12.180076   0.000000
     50         12.308890   0.000000
     51         12.568332   0.000000
     52         12.720857   0.000000
     53         12.803474   0.000000
     54         13.036643   0.000000
     55         13.415390   0.000000
     56         13.625957   0.000000
     57         13.715129   0.000000
     58         13.885285   0.000000
     59         13.964472   0.000000
     60         14.256556   0.000000
     61         14.577439   0.000000
     62         14.716490   0.000000
     63         14.776389   0.000000
     64         15.139888   0.000000
     65         15.356144   0.000000
     66         16.193957   0.000000
     67         16.386375   0.000000
     68         16.566411   0.000000
     69         16.833296   0.000000
     70         17.212846   0.000000
     71         17.352666   0.000000
     72         17.747832   0.000000
     73         17.864983   0.000000
     74         18.262135   0.000000
     75         18.420658   0.000000
     76         18.544726   0.000000
     77         18.910878   0.000000
     78         19.164126   0.000000
     79         19.397757   0.000000
     80         19.618900   0.000000
     81         19.934253   0.000000
     82         20.362681   0.000000
     83         21.079716   0.000000
     84         21.099836   0.000000
     85         21.299429   0.000000
     86         21.429925   0.000000
     87         21.809397   0.000000
     88         21.855581   0.000000
     89         22.433488   0.000000
     90         22.694678   0.000000
     91         22.751129   0.000000
     92         23.436598   0.000000
     93         23.635032   0.000000
     94         24.006029   0.000000
     95         24.183496   0.000000
     96         24.482032   0.000000
     97         24.670921   0.000000
     98         24.752501   0.000000
     99         25.108448   0.000000
    100         25.265624   0.000000
    101         25.341247   0.000000
    102         26.420673   0.000000
    103         26.570325   0.000000
    104         27.330283   0.000000
    105         27.416876   0.000000
    106         27.665625   0.000000
    107         27.823287   0.000000
    108         27.849184   0.000000
    109         27.990525   0.000000
    110         28.138927   0.000000
    111         28.291986   0.000000
    112         28.318664   0.000000
    113         28.359916   0.000000
    114         28.499562   0.000000
    115         28.994777   0.000000
    116         29.057087   0.000000
    117         29.271326   0.000000
    118         29.351137   0.000000
    119         29.649004   0.000000
    120         29.761350   0.000000
    121         29.856728   0.000000
    122         30.221658   0.000000
    123         30.415364   0.000000
    124         30.495121   0.000000
    125         30.582765   0.000000
    126         30.597651   0.000000
    127         30.686238   0.000000
    128         30.726447   0.000000
    129         30.832294   0.000000
 
  0.6153846E-01 -0.2579793E-17  0.0000000E+00  0.1420118E-02
      1        -19.720067   1.000000
      2        -15.565216   1.000000
      3        -15.509560   1.000000
      4        -12.536070   1.000000
      5        -11.414333   1.000000
      6        -11.260060   1.000000
      7         -9.686287   1.000000
      8         -9.064698   1.000000
      9         -4.699271   1.000000
     10         -4.651634   1.000000
     11         -3.011139   1.000000
     12         -2.935536   1.000000
     13         -0.838960   0.000000
     14         -0.651130   0.000000
     15         -0.326411   0.000000
     16          1.297873   0.000000
     17          1.844258   0.000000
     18          2.468827   0.000000
     19          2.748552   0.000000
     20          2.796941   0.000000
     21          4.257723   0.000000
     22          4.999948   0.000000
     23          7.151985   0.000000
     24          7.198172   0.000000
     25          7.658088   0.000000
     26          8.024615   0.000000
     27          8.119695   0.000000
     28          8.337505   0.000000
     29          8.895305   0.000000
     30          9.029500   0.000000
     31          9.040883   0.000000
     32          9.251868   0.000000
     33          9.419806   0.000000
     34          9.897973   0.000000
     35         10.194834   0.000000
     36         10.214151   0.000000
     37         10.531643   0.000000
     38         10.578782   0.000000
     39         10.647536   0.000000
     40         10.920885   0.000000
     41         11.053358   0.000000
     42         11.259655   0.000000
     43         11.328651   0.000000
     44         11.531589   0.000000
     45         11.619817   0.000000
     46         11.866051   0.000000
     47         11.954176   0.000000
     48         12.059249   0.000000
     49         12.216356   0.000000
     50         12.308626   0.000000
     51         12.560690   0.000000
     52         12.698483   0.000000
     53         12.794091   0.000000
     54         13.010116   0.000000
     55         13.369510   0.000000
     56         13.711879   0.000000
     57         13.757768   0.000000
     58         13.858876   0.000000
     59         14.046603   0.000000
     60         14.327494   0.000000
     61         14.734105   0.000000
     62         14.793235   0.000000
     63         14.864007   0.000000
     64         15.192403   0.000000
     65         15.521968   0.000000
     66         16.165783   0.000000
     67         16.225510   0.000000
     68         16.473464   0.000000
     69         16.781920   0.000000
     70         17.170690   0.000000
     71         17.401800   0.000000
     72         17.719507   0.000000
     73         17.850073   0.000000
     74         18.279814   0.000000
     75         18.438508   0.000000
     76         18.646109   0.000000
     77         19.029216   0.000000
     78         19.132189   0.000000
     79         19.438654   0.000000
     80         19.690154   0.000000
     81         20.033123   0.000000
     82         20.346908   0.000000
     83         21.078080   0.000000
     84         21.113706   0.000000
     85         21.326256   0.000000
     86         21.411675   0.000000
     87         21.720741   0.000000
     88         21.790869   0.000000
     89         22.421090   0.000000
     90         22.719732   0.000000
     91         22.835968   0.000000
     92         23.242538   0.000000
     93         23.531775   0.000000
     94         23.890949   0.000000
     95         24.252573   0.000000
     96         24.605131   0.000000
     97         24.750121   0.000000
     98         24.826891   0.000000
     99         25.255215   0.000000
    100         25.409906   0.000000
    101         25.472928   0.000000
    102         26.072297   0.000000
    103         26.246830   0.000000
    104         27.222707   0.000000
    105         27.365109   0.000000
    106         27.497922   0.000000
    107         27.645780   0.000000
    108         27.712114   0.000000
    109         27.864879   0.000000
    110         27.975483   0.000000
    111         28.022746   0.000000
    112         28.045056   0.000000
    113         28.171436   0.000000
    114         28.523827   0.000000
    115         29.023059   0.000000
    116         29.214019   0.000000
    117         29.316316   0.000000
    118         29.478585   0.000000
    119         29.659278   0.000000
    120         29.765306   0.000000
    121         29.856362   0.000000
    122         30.096179   0.000000
    123         30.229183   0.000000
    124         30.359974   0.000000
    125         30.440421   0.000000
    126         30.555945   0.000000
    127         30.586128   0.000000
    128         30.703848   0.000000
    129         30.923482   0.000000
 
  0.7692308E-01  0.2187792E-18  0.0000000E+00  0.1420118E-02
      1        -19.710687   1.000000
      2        -15.603562   1.000000
      3        -15.518070   1.000000
      4        -12.499677   1.000000
      5        -11.463158   1.000000
      6        -11.234040   1.000000
      7         -9.599579   1.000000
      8         -9.048958   1.000000
      9         -4.765932   1.000000
     10         -4.692903   1.000000
     11         -3.092944   1.000000
     12         -2.976024   1.000000
     13         -0.859164   0.000000
     14         -0.597870   0.000000
     15         -0.227694   0.000000
     16          1.329991   0.000000
     17          1.863653   0.000000
     18          2.488254   0.000000
     19          2.786062   0.000000
     20          2.860837   0.000000
     21          4.276094   0.000000
     22          5.020866   0.000000
     23          7.107474   0.000000
     24          7.228175   0.000000
     25          7.627797   0.000000
     26          7.900082   0.000000
     27          8.054572   0.000000
     28          8.358487   0.000000
     29          8.865309   0.000000
     30          8.942745   0.000000
     31          8.956996   0.000000
     32          9.163902   0.000000
     33          9.352012   0.000000
     34          9.758694   0.000000
     35          9.983847   0.000000
     36         10.100236   0.000000
     37         10.479402   0.000000
     38         10.496964   0.000000
     39         10.588612   0.000000
     40         10.938922   0.000000
     41         11.091889   0.000000
     42         11.403396   0.000000
     43         11.450051   0.000000
     44         11.623048   0.000000
     45         11.687552   0.000000
     46         11.914120   0.000000
     47         11.962810   0.000000
     48         12.179487   0.000000
     49         12.274512   0.000000
     50         12.293667   0.000000
     51         12.608229   0.000000
     52         12.648529   0.000000
     53         12.910132   0.000000
     54         13.038834   0.000000
     55         13.327815   0.000000
     56         13.719157   0.000000
     57         13.808535   0.000000
     58         13.929358   0.000000
     59         14.124522   0.000000
     60         14.406558   0.000000
     61         14.857849   0.000000
     62         14.907972   0.000000
     63         14.973899   0.000000
     64         15.263814   0.000000
     65         15.710861   0.000000
     66         16.033005   0.000000
     67         16.159826   0.000000
     68         16.380844   0.000000
     69         16.737986   0.000000
     70         17.120492   0.000000
     71         17.407222   0.000000
     72         17.692044   0.000000
     73         17.829445   0.000000
     74         18.338644   0.000000
     75         18.459277   0.000000
     76         18.725254   0.000000
     77         19.086591   0.000000
     78         19.183372   0.000000
     79         19.500312   0.000000
     80         19.782109   0.000000
     81         20.139911   0.000000
     82         20.338727   0.000000
     83         21.060284   0.000000
     84         21.111281   0.000000
     85         21.349121   0.000000
     86         21.390226   0.000000
     87         21.654481   0.000000
     88         21.732317   0.000000
     89         22.408680   0.000000
     90         22.731922   0.000000
     91         22.906755   0.000000
     92         23.081703   0.000000
     93         23.430494   0.000000
     94         23.776413   0.000000
     95         24.326033   0.000000
     96         24.731320   0.000000
     97         24.837278   0.000000
     98         24.905930   0.000000
     99         25.347344   0.000000
    100         25.550094   0.000000
    101         25.677718   0.000000
    102         25.750139   0.000000
    103         25.918970   0.000000
    104         27.092906   0.000000
    105         27.165141   0.000000
    106         27.296406   0.000000
    107         27.454736   0.000000
    108         27.484428   0.000000
    109         27.521836   0.000000
    110         27.798403   0.000000
    111         27.892635   0.000000
    112         27.979224   0.000000
    113         28.048964   0.000000
    114         28.540315   0.000000
    115         28.993037   0.000000
    116         29.177510   0.000000
    117         29.518789   0.000000
    118         29.564231   0.000000
    119         29.650589   0.000000
    120         29.694240   0.000000
    121         29.822087   0.000000
    122         29.893214   0.000000
    123         30.032845   0.000000
    124         30.188366   0.000000
    125         30.338252   0.000000
    126         30.459348   0.000000
    127         30.500150   0.000000
    128         30.604965   0.000000
    129         30.731342   0.000000
 
  0.9230769E-01  0.4937630E-17  0.0000000E+00  0.1420118E-02
      1        -19.699273   1.000000
      2        -15.648863   1.000000
      3        -15.528212   1.000000
      4        -12.458118   1.000000
      5        -11.514158   1.000000
      6        -11.202565   1.000000
      7         -9.501154   1.000000
      8         -9.029751   1.000000
      9         -4.845018   1.000000
     10         -4.742233   1.000000
     11         -3.188136   1.000000
     12         -3.022063   1.000000
     13         -0.876713   0.000000
     14         -0.531429   0.000000
     15         -0.124563   0.000000
     16          1.369583   0.000000
     17          1.887395   0.000000
     18          2.512266   0.000000
     19          2.830625   0.000000