   16   16  128    2
  0.1981325E+02  0.4940000E-09  0.4940000E-09  0.1500000E-08  0.5000000E-15
  1.000000000000000E-004
  CAR 
 Lattice                                 
     56     19     48
 
  0.0000000E+00  0.0000000E+00  0.0000000E+00  0.6944444E-02
      1        -19.838136      -19.838136   1.000000   1.000000
      2        -15.954650      -15.954650   1.000000   1.000000
      3        -14.619233      -14.619233   1.000000   1.000000
      4        -14.615041      -14.615041   1.000000   1.000000
      5        -14.615012      -14.615011   1.000000   1.000000
      6        -13.558070      -13.558070   1.000000   1.000000
      7        -13.558019      -13.558019   1.000000   1.000000
      8        -13.555940      -13.555940   1.000000   1.000000
      9        -11.735711      -11.735711   1.000000   1.000000
     10        -11.524420      -11.524421   1.000000   1.000000
     11        -11.524401      -11.524402   1.000000   1.000000
     12         -9.303167       -9.303166   1.000000   1.000000
     13         -9.303145       -9.303145   1.000000   1.000000
     14         -8.134335       -8.134336   1.000000   1.000000
     15         -7.357810       -7.357811   1.000000   1.000000
     16         -6.751844       -6.751843   1.000000   1.000000
     17         -6.751608       -6.751608   1.000000   1.000000
     18         -6.751581       -6.751581   1.000000   1.000000
     19         -6.589622       -6.589624   1.000000   1.000000
     20         -3.388849       -3.388848   1.000000   1.000000
     21         -3.388732       -3.388731   1.000000   1.000000
     22         -2.789883       -2.789884   1.000000   1.000000
     23         -2.752465       -2.752466   1.000000   1.000000
     24         -2.752440       -2.752440   1.000000   1.000000
     25         -1.436325       -1.436325   1.000000   1.000000
     26         -1.436321       -1.436321   1.000000   1.000000
     27         -0.390733       -0.390734   0.945353   0.945353
     28         -0.390716       -0.390717   0.945326   0.945327
     29         -0.218160       -0.218160   0.200682   0.200683
     30          0.999620        0.999618   0.000000   0.000000
     31          0.999639        0.999637   0.000000   0.000000
     32          1.254090        1.254089   0.000000   0.000000
     33          1.270243        1.270243   0.000000   0.000000
     34          1.270276        1.270276   0.000000   0.000000
     35          1.997306        1.997306   0.000000   0.000000
     36          1.997310        1.997309   0.000000   0.000000
     37          3.032550        3.032866   0.000000   0.000000
     38          3.634431        3.634568   0.000000   0.000000
     39          4.547900        4.547979   0.000000   0.000000
     40          4.830229        4.831156   0.000000   0.000000
     41          6.959994        6.959997   0.000000   0.000000
     42          6.965472        6.965471   0.000000   0.000000
     43          6.965493        6.965493   0.000000   0.000000
     44          7.109450        7.109923   0.000000   0.000000
     45          7.689109        7.689751   0.000000   0.000000
     46          7.933424        7.933425   0.000000   0.000000
     47          7.933557        7.933557   0.000000   0.000000
     48          8.638741        8.638759   0.000000   0.000000
 
  0.8333333E-01 -0.4202874E-17  0.0000000E+00  0.4166667E-01
      1        -19.797185      -19.797185   1.000000   1.000000
      2        -15.921919      -15.921919   1.000000   1.000000
      3        -15.114597      -15.114597   1.000000   1.000000
      4        -14.754057      -14.754056   1.000000   1.000000
      5        -14.751758      -14.751758   1.000000   1.000000
      6        -13.353908      -13.353908   1.000000   1.000000
      7        -13.352979      -13.352978   1.000000   1.000000
      8        -12.998378      -12.998378   1.000000   1.000000
      9        -12.186944      -12.186944   1.000000   1.000000
     10        -11.556667      -11.556667   1.000000   1.000000
     11        -11.099620      -11.099620   1.000000   1.000000
     12         -9.369053       -9.369053   1.000000   1.000000
     13         -9.219194       -9.219193   1.000000   1.000000
     14         -8.081733       -8.081734   1.000000   1.000000
     15         -7.195272       -7.195273   1.000000   1.000000
     16         -6.878771       -6.878770   1.000000   1.000000
     17         -6.878628       -6.878628   1.000000   1.000000
     18         -6.711057       -6.711057   1.000000   1.000000
     19         -6.539301       -6.539303   1.000000   1.000000
     20         -3.557917       -3.557916   1.000000   1.000000
     21         -3.477673       -3.477672   1.000000   1.000000
     22         -3.030906       -3.030906   1.000000   1.000000
     23         -2.807497       -2.807498   1.000000   1.000000
     24         -2.788206       -2.788206   1.000000   1.000000
     25         -1.859649       -1.859649   1.000000   1.000000
     26         -1.819106       -1.819106   1.000000   1.000000
     27         -0.883491       -0.883492   1.000000   1.000000
     28         -0.310122       -0.310123   0.677731   0.677735
     29          0.280996        0.280995   0.000000   0.000000
     30          0.940348        0.940347   0.000000   0.000000
     31          1.085997        1.085996   0.000000   0.000000
     32          1.353412        1.353412   0.000000   0.000000
     33          1.402114        1.402114   0.000000   0.000000
     34          1.583106        1.583105   0.000000   0.000000
     35          2.335536        2.335535   0.000000   0.000000
     36          2.379550        2.379552   0.000000   0.000000
     37          3.106176        3.106493   0.000000   0.000000
     38          3.700414        3.700550   0.000000   0.000000
     39          4.693979        4.694132   0.000000   0.000000
     40          4.898285        4.899134   0.000000   0.000000
     41          6.984623        6.984623   0.000000   0.000000
     42          7.145259        7.145466   0.000000   0.000000
     43          7.156275        7.156275   0.000000   0.000000
     44          7.162853        7.163114   0.000000   0.000000
     45          7.730665        7.731284   0.000000   0.000000
     46          7.964088        7.964103   0.000000   0.000000
     47          8.111917        8.111917   0.000000   0.000000
     48          8.349608        8.349635   0.000000   0.000000
 
  0.1666667E+00  0.1168950E-17  0.0000000E+00  0.4166667E-01
      1        -19.674431      -19.674431   1.000000   1.000000
      2        -15.869659      -15.869658   1.000000   1.000000
      3        -15.822672      -15.822673   1.000000   1.000000
      4        -15.006340      -15.006339   1.000000   1.000000
      5        -15.004557      -15.004557   1.000000   1.000000
      6        -12.901351      -12.901351   1.000000   1.000000
      7        -12.900913      -12.900912   1.000000   1.000000
      8        -12.723749      -12.723749   1.000000   1.000000
      9        -12.064037      -12.064037   1.000000   1.000000
     10        -11.636953      -11.636953   1.000000   1.000000
     11        -10.694926      -10.694926   1.000000   1.000000
     12         -9.422952       -9.422951   1.000000   1.000000
     13         -8.987397       -8.987397   1.000000   1.000000
     14         -7.929212       -7.929212   1.000000   1.000000
     15         -7.235761       -7.235760   1.000000   1.000000
     16         -7.235719       -7.235719   1.000000   1.000000
     17         -6.819123       -6.819124   1.000000   1.000000
     18         -6.590103       -6.590102   1.000000   1.000000
     19         -6.389338       -6.389339   1.000000   1.000000
     20         -4.039476       -4.039475   1.000000   1.000000
     21         -3.725802       -3.725801   1.000000   1.000000
     22         -3.640542       -3.640543   1.000000   1.000000
     23         -2.896440       -2.896441   1.000000   1.000000
     24         -2.895875       -2.895875   1.000000   1.000000
     25         -2.603631       -2.603631   1.000000   1.000000
     26         -2.496050       -2.496051   1.000000   1.000000
     27         -1.606497       -1.606498   1.000000   1.000000
     28         -0.470660       -0.470661   0.996850   0.996850
     29          0.370840        0.370838   0.000000   0.000000
     30          1.357783        1.357783   0.000000   0.000000
     31          1.434462        1.434461   0.000000   0.000000
     32          1.693882        1.693882   0.000000   0.000000
     33          1.853421        1.853420   0.000000   0.000000
     34          2.353932        2.353932   0.000000   0.000000
     35          2.997972        2.998041   0.000000   0.000000
     36          3.070753        3.070753   0.000000   0.000000
     37          3.394926        3.395196   0.000000   0.000000
     38          3.897553        3.897678   0.000000   0.000000
     39          5.003391        5.004147   0.000000   0.000000
     40          5.179846        5.180080   0.000000   0.000000
     41          7.045658        7.045659   0.000000   0.000000
     42          7.249587        7.249928   0.000000   0.000000
     43          7.488160        7.488321   0.000000   0.000000
     44          7.700736        7.700738   0.000000   0.000000
     45          7.701740        7.701740   0.000000   0.000000
     46          7.878050        7.878506   0.000000   0.000000
     47          8.038679        8.038810   0.000000   0.000000
     48          8.257624        8.257758   0.000000   0.000000
 
  0.2500000E+00  0.3904970E-17  0.0000000E+00  0.4166667E-01
      1        -19.470209      -19.470208   1.000000   1.000000
      2        -16.594124      -16.594124   1.000000   1.000000
      3        -15.666089      -15.666090   1.000000   1.000000
      4        -15.240628      -15.240628   1.000000   1.000000
      5        -15.239215      -15.239215   1.000000   1.000000
      6        -13.240529      -13.240529   1.000000   1.000000
      7        -12.343310      -12.343310   1.000000   1.000000
      8        -12.342775      -12.342775   1.000000   1.000000
      9        -11.732440      -11.732440   1.000000   1.000000
     10        -11.040893      -11.040892   1.000000   1.000000
     11        -10.541679      -10.541679   1.000000   1.000000
     12         -9.216830       -9.216830   1.000000   1.000000
     13         -8.653679       -8.653679   1.000000   1.000000
     14         -7.762397       -7.762397   1.000000   1.000000
     15         -7.762253       -7.762253   1.000000   1.000000
     16         -7.680726       -7.680726   1.000000   1.000000
     17         -6.437989       -6.437990   1.000000   1.000000
     18         -6.391235       -6.391235   1.000000   1.000000
     19         -6.144553       -6.144555   1.000000   1.000000
     20         -4.769812       -4.769811   1.000000   1.000000
     21         -4.358280       -4.358280   1.000000   1.000000
     22         -4.088108       -4.088108   1.000000   1.000000
     23         -3.440412       -3.440412   1.000000   1.000000
     24         -3.131504       -3.131505   1.000000   1.000000
     25         -2.990634       -2.990634   1.000000   1.000000
     26         -2.958167       -2.958168   1.000000   1.000000
     27         -2.390300       -2.390301   1.000000   1.000000
     28         -0.739754       -0.739756   1.000000   1.000000
     29          0.205112        0.205110   0.000000   0.000000
     30          1.763672        1.763671   0.000000   0.000000
     31          1.776188        1.776188   0.000000   0.000000
     32          2.428217        2.428221   0.000000   0.000000
     33          2.636922        2.636921   0.000000   0.000000
     34          3.334300        3.334320   0.000000   0.000000
     35          3.457166        3.457341   0.000000   0.000000
     36          3.943742        3.943741   0.000000   0.000000
     37          3.950841        3.951033   0.000000   0.000000
     38          4.258630        4.258726   0.000000   0.000000
     39          5.308525        5.309384   0.000000   0.000000
     40          5.651598        5.651703   0.000000   0.000000
     41          6.391578        6.391582   0.000000   0.000000
     42          7.128139        7.128148   0.000000   0.000000
     43          7.430174        7.430449   0.000000   0.000000
     44          7.601062        7.601430   0.000000   0.000000
     45          7.954319        7.954426   0.000000   0.000000
     46          8.091751        8.091873   0.000000   0.000000
     47          8.143124        8.143243   0.000000   0.000000
     48          8.248130        8.248615   0.000000   0.000000
 
  0.3333333E+00  0.2051878E-16  0.0000000E+00  0.4166667E-01
      1        -19.185100      -19.185100   1.000000   1.000000
      2        -17.259617      -17.259617   1.000000   1.000000
      3        -15.458675      -15.458676   1.000000   1.000000
      4        -15.417465      -15.417465   1.000000   1.000000
      5        -15.416078      -15.416078   1.000000   1.000000
      6        -13.714837      -13.714837   1.000000   1.000000
      7        -11.819408      -11.819409   1.000000   1.000000
      8        -11.739000      -11.738999   1.000000   1.000000
      9        -11.736396      -11.736395   1.000000   1.000000
     10        -10.582939      -10.582939   1.000000   1.000000
     11         -9.970006       -9.970005   1.000000   1.000000
     12         -8.777540       -8.777540   1.000000   1.000000
     13         -8.378884       -8.378884   1.000000   1.000000
     14         -8.378701       -8.378700   1.000000   1.000000
     15         -8.277001       -8.277000   1.000000   1.000000
     16         -7.338716       -7.338717   1.000000   1.000000
     17         -6.269067       -6.269068   1.000000   1.000000
     18         -6.119384       -6.119384   1.000000   1.000000
     19         -5.819487       -5.819489   1.000000   1.000000
     20         -5.676052       -5.676052   1.000000   1.000000
     21         -5.061283       -5.061284   1.000000   1.000000
     22         -4.514226       -4.514225   1.000000   1.000000
     23         -4.141346       -4.141346   1.000000   1.000000
     24         -3.499840       -3.499841   1.000000   1.000000
     25         -3.264464       -3.264464   1.000000   1.000000
     26         -3.067978       -3.067979   1.000000   1.000000
     27         -2.976593       -2.976594   1.000000   1.000000
     28         -0.965315       -0.965316   1.000000   1.000000
     29          0.052453        0.052450   0.000002   0.000002
     30          2.080864        2.080864   0.000000   0.000000
     31          2.088587        2.088587   0.000000   0.000000
     32          3.206624        3.206647   0.000000   0.000000
     33          3.556295        3.556295   0.000000   0.000000
     34          3.921832        3.922035   0.000000   0.000000
     35          4.403911        4.404022   0.000000   0.000000
     36          4.493852        4.493930   0.000000   0.000000
     37          4.794737        4.794832   0.000000   0.000000
     38          4.830494        4.830494   0.000000   0.000000
     39          5.388602        5.388619   0.000000   0.000000
     40          5.631745        5.632344   0.000000   0.000000
     41          5.989472        5.989811   0.000000   0.000000
     42          6.809075        6.809371   0.000000   0.000000
     43          7.242888        7.242969   0.000000   0.000000
     44          7.345484        7.345548   0.000000   0.000000
     45          7.439604        7.439623   0.000000   0.000000
     46          7.704710        7.704712   0.000000   0.000000
     47          7.853660        7.853881   0.000000   0.000000
     48          8.014866        8.015132   0.000000   0.000000
 
  0.4166667E+00  0.5073920E-17  0.0000000E+00  0.4166667E-01
      1        -18.819969      -18.819969   1.000000   1.000000
      2        -17.855033      -17.855033   1.000000   1.000000
      3        -15.529206      -15.529206   1.000000   1.000000
      4        -15.527289      -15.527289   1.000000   1.000000
      5        -15.223827      -15.223827   1.000000   1.000000
      6        -14.108183      -14.108184   1.000000   1.000000
      7        -11.872698      -11.872699   1.000000   1.000000
      8        -11.166602      -11.166602   1.000000   1.000000
      9        -11.166528      -11.166528   1.000000   1.000000
     10        -10.650801      -10.650801   1.000000   1.000000
     11         -8.974479       -8.974479   1.000000   1.000000
     12         -8.973957       -8.973956   1.000000   1.000000
     13         -8.873048       -8.873048   1.000000   1.000000
     14         -8.318623       -8.318622   1.000000   1.000000
     15         -7.947100       -7.947099   1.000000   1.000000
     16         -6.913550       -6.913551   1.000000   1.000000
     17         -6.693404       -6.693403   1.000000   1.000000
     18         -6.387635       -6.387636   1.000000   1.000000
     19         -5.781959       -5.781959   1.000000   1.000000
     20         -5.781867       -5.781868   1.000000   1.000000
     21         -5.361537       -5.361538   1.000000   1.000000
     22         -4.959368       -4.959368   1.000000   1.000000
     23         -4.671549       -4.671549   1.000000   1.000000
     24         -3.922446       -3.922447   1.000000   1.000000
     25         -3.523592       -3.523592   1.000000   1.000000
     26         -3.138838       -3.138838   1.000000   1.000000
     27         -3.102376       -3.102377   1.000000   1.000000
     28         -1.107633       -1.107635   1.000000   1.000000
     29         -0.047692       -0.047695   0.000577   0.000577
     30          2.310769        2.310769   0.000000   0.000000
     31          2.318582        2.318581   0.000000   0.000000
     32          3.865379        3.865429   0.000000   0.000000
     33          4.502489        4.502642   0.000000   0.000000
     34          4.531805        4.531805   0.000000   0.000000
     35          4.692027        4.692054   0.000000   0.000000
     36          4.932624        4.932787   0.000000   0.000000
     37          5.134837        5.134901   0.000000   0.000000
     38          5.527001        5.527169   0.000000   0.000000
     39          5.598241        5.598240   0.000000   0.000000
     40          5.687910        5.688017   0.000000   0.000000
     41          6.142428        6.142966   0.000000   0.000000
     42          6.374955        6.375343   0.000000   0.000000
     43          6.790328        6.790684   0.000000   0.000000
     44          6.841827        6.841827   0.000000   0.000000
     45          6.898755        6.898821   0.000000   0.000000
     46          7.432372        7.432479   0.000000   0.000000
     47          7.727532        7.728185   0.000000   0.000000
     48          7.799693        7.799757   0.000000   0.000000
 
  0.5000000E+00  0.7809939E-17  0.0000000E+00  0.2083333E-01
      1        -18.378095      -18.378094   1.000000   1.000000
      2        -18.373972      -18.373972   1.000000   1.000000
      3        -15.566054      -15.566054   1.000000   1.000000
      4        -15.564281      -15.564281   1.000000   1.000000
      5        -15.092613      -15.092613   1.000000   1.000000
      6        -14.294020      -14.294021   1.000000   1.000000
      7        -11.891965      -11.891966   1.000000   1.000000
      8        -10.872058      -10.872058   1.000000   1.000000
      9        -10.871783      -10.871783   1.000000   1.000000
     10        -10.678322      -10.678322   1.000000   1.000000
     11         -9.279432       -9.279432   1.000000   1.000000
     12         -9.278754       -9.278754   1.000000   1.000000
     13         -8.096779       -8.096779   1.000000   1.000000
     14         -7.805768       -7.805767   1.000000   1.000000
     15         -7.771411       -7.771410   1.000000   1.000000
     16         -7.770041       -7.770040   1.000000   1.000000
     17         -6.611519       -6.611519   1.000000   1.000000
     18         -6.374187       -6.374187   1.000000   1.000000
     19         -6.285813       -6.285814   1.000000   1.000000
     20         -5.390055       -5.390054   1.000000   1.000000
     21         -5.389538       -5.389538   1.000000   1.000000
     22         -5.121576       -5.121577   1.000000   1.000000
     23         -4.880101       -4.880101   1.000000   1.000000
     24         -4.263824       -4.263826   1.000000   1.000000
     25         -3.511585       -3.511585   1.000000   1.000000
     26         -3.163539       -3.163540   1.000000   1.000000
     27         -3.131260       -3.131261   1.000000   1.000000
     28         -1.155861       -1.155863   1.000000   1.000000
     29         -0.082226       -0.082229   0.002876   0.002876
     30          2.396198        2.396198   0.000000   0.000000
     31          2.404273        2.404272   0.000000   0.000000
     32          4.338111        4.338125   0.000000   0.000000
     33          4.369697        4.369737   0.000000   0.000000
     34          4.712802        4.712891   0.000000   0.000000
     35          5.085813        5.085930   0.000000   0.000000
     36          5.303684        5.303684   0.000000   0.000000
     37          5.384467        5.384779   0.000000   0.000000
     38          5.556201        5.556388   0.000000   0.000000
     39          5.722209        5.722208   0.000000   0.000000
     40          5.783375        5.783479   0.000000   0.000000
     41          6.270004        6.270426   0.000000   0.000000
     42          6.372960        6.372959   0.000000   0.000000
     43          6.540901        6.541130   0.000000   0.000000
     44          6.823569        6.823633   0.000000   0.000000
     45          6.848174        6.848276   0.000000   0.000000
     46          6.978447        6.979185   0.000000   0.000000
     47          7.276298        7.276735   0.000000   0.000000
     48          7.392575        7.392577   0.000000   0.000000
 
  0.8333333E-01  0.8333333E-01  0.0000000E+00  0.4166667E-01
      1        -19.715332      -19.715332   1.000000   1.000000
      2        -15.857038      -15.857038   1.000000   1.000000
      3        -15.463420      -15.463420   1.000000   1.000000
      4        -15.459999      -15.459999   1.000000   1.000000
      5        -14.510970      -14.510970   1.000000   1.000000
      6        -13.454430      -13.454430   1.000000   1.000000
      7        -12.577687      -12.577687   1.000000   1.000000
      8        -12.524686      -12.524685   1.000000   1.000000
      9        -12.522635      -12.522635   1.000000   1.000000
     10        -11.632883      -11.632884   1.000000   1.000000
     11        -10.756342      -10.756342   1.000000   1.000000
     12         -9.453186       -9.453185   1.000000   1.000000
     13         -9.046260       -9.046260   1.000000   1.000000
     14         -7.979542       -7.979543   1.000000   1.000000
     15         -7.277061       -7.277061   1.000000   1.000000
     16         -6.929419       -6.929420   1.000000   1.000000
     17         -6.797478       -6.797478   1.000000   1.000000
     18         -6.797171       -6.797171   1.000000   1.000000
     19         -6.439112       -6.439113   1.000000   1.000000
     20         -3.874163       -3.874162   1.000000   1.000000
     21         -3.655246       -3.655245   1.000000   1.000000
     22         -3.299276       -3.299277   1.000000   1.000000
     23         -3.250792       -3.250792   1.000000   1.000000
     24         -2.622124       -2.622125   1.000000   1.000000
     25         -2.443401       -2.443401   1.000000   1.000000
     26         -2.261441       -2.261441   1.000000   1.000000
     27         -1.399377       -1.399378   1.000000   1.000000
     28         -0.496127       -0.496128   0.999005   0.999006
     29          0.598314        0.598314   0.000000   0.000000
     30          0.996341        0.996340   0.000000   0.000000
     31          1.448068        1.448067   0.000000   0.000000
     32          1.449798        1.449797   0.000000   0.000000
     33          1.914929        1.914929   0.000000   0.000000
     34          1.958242        1.958242   0.000000   0.000000
     35          2.807622        2.807622   0.000000   0.000000
     36          2.899065        2.899114   0.000000   0.000000
     37          3.303139        3.303424   0.000000   0.000000
     38          3.832283        3.832411   0.000000   0.000000
     39          4.926420        4.926991   0.000000   0.000000
     40          5.067150        5.067573   0.000000   0.000000
     41          7.192426        7.192444   0.000000   0.000000
     42          7.197811        7.197811   0.000000   0.000000
     43          7.239640        7.240066   0.000000   0.000000
     44          7.678968        7.678976   0.000000   0.000000
     45          7.736897        7.737196   0.000000   0.000000
     46          7.906217        7.906491   0.000000   0.000000
     47          8.046392        8.046486   0.000000   0.000000
     48          8.429428        8.429420   0.000000   0.000000
 
  0.1666667E+00  0.8333333E-01  0.0000000E+00  0.8333333E-01
      1        -19.551848      -19.551848   1.000000   1.000000
      2        -16.209043      -16.209042   1.000000   1.000000
      3        -15.757556      -15.757556   1.000000   1.000000
      4        -15.725652      -15.725653   1.000000   1.000000
      5        -14.539451      -14.539451   1.000000   1.000000
      6        -13.155004      -13.155004   1.000000   1.000000
      7        -13.049666      -13.049666   1.000000   1.000000
      8        -11.977011      -11.977011   1.000000   1.000000
      9        -11.761737      -11.761737   1.000000   1.000000
     10        -11.539375      -11.539375   1.000000   1.000000
     11        -10.439665      -10.439665   1.000000   1.000000
     12         -9.443999       -9.443999   1.000000   1.000000
     13         -8.736765       -8.736765   1.000000   1.000000
     14         -7.847785       -7.847785   1.000000   1.000000
     15         -7.779513       -7.779514   1.000000   1.000000
     16         -7.112385       -7.112384   1.000000   1.000000
     17         -6.636299       -6.636298   1.000000   1.000000
     18         -6.562331       -6.562332   1.000000   1.000000
     19         -6.241336       -6.241338   1.000000   1.000000
     20         -4.459084       -4.459083   1.000000   1.000000
     21         -3.981765       -3.981764   1.000000   1.000000
     22         -3.963738       -3.963738   1.000000   1.000000
     23         -3.510999       -3.511000   1.000000   1.000000
     24         -3.152843       -3.152843   1.000000   1.000000
     25         -2.870359       -2.870359   1.000000   1.000000
     26         -2.496273       -2.496273   1.000000   1.000000
     27         -2.094271       -2.094272   1.000000   1.000000
     28         -0.879124       -0.879126   1.000000   1.000000
     29          0.659243        0.659242   0.000000   0.000000
     30          1.167084        1.167083   0.000000   0.000000
     31          1.912652        1.912652   0.000000   0.000000
     32          2.107803        2.107803   0.000000   0.000000
     33          2.384654        2.384654   0.000000   0.000000
     34          2.825357        2.825357   0.000000   0.000000
     35          3.307397        3.307590   0.000000   0.000000
     36          3.605750        3.605756   0.000000   0.000000
     37          3.847587        3.847779   0.000000   0.000000
     38          4.136942        4.137034   0.000000   0.000000
     39          5.211046        5.211937   0.000000   0.000000
     40          5.472560        5.472634   0.000000   0.000000
     41          6.863098        6.863110   0.000000   0.000000
     42          7.270742        7.270745   0.000000   0.000000
     43          7.453927        7.454367   0.000000   0.000000
     44          7.696581        7.696615   0.000000   0.000000
     45          7.762239        7.762244   0.000000   0.000000
     46          7.910406        7.910579   0.000000   0.000000
     47          8.019023        8.019329   0.000000   0.000000
     48          8.184892        8.185179   0.000000   0.000000
 
  0.2500000E+00  0.8333333E-01  0.0000000E+00  0.8333333E-01
      1        -19.307187      -19.307187   1.000000   1.000000
      2        -16.906013      -16.906013   1.000000   1.000000
      3        -15.980675      -15.980674   1.000000   1.000000
      4        -15.542531      -15.542531   1.000000   1.000000
      5        -14.680133      -14.680133   1.000000   1.000000
      6        -13.519432      -13.519433   1.000000   1.000000
      7        -12.626119      -12.626119   1.000000   1.000000
      8        -11.890779      -11.890780   1.000000   1.000000
      9        -11.384071      -11.384071   1.000000   1.000000
     10        -10.493611      -10.493611   1.000000   1.000000
     11        -10.356817      -10.356816   1.000000   1.000000
     12         -9.142350       -9.142350   1.000000   1.000000
     13         -8.517425       -8.517425   1.000000   1.000000
     14         -8.361731       -8.361731   1.000000   1.000000
     15         -7.591857       -7.591857   1.000000   1.000000
     16         -7.484219       -7.484220   1.000000   1.000000
     17         -6.399029       -6.399028   1.000000   1.000000
     18         -6.317686       -6.317687   1.000000   1.000000
     19         -5.955198       -5.955199   1.000000   1.000000
     20         -5.256436       -5.256435   1.000000   1.000000
     21         -4.683794       -4.683795   1.000000   1.000000
     22         -4.397670       -4.397670   1.000000   1.000000
     23         -3.855182       -3.855182   1.000000   1.000000