<?xml version="1.0" encoding="ISO-8859-1"?>
<modeling>
 <generator>
  <i name="program" type="string">vasp </i>
  <i name="version" type="string">6.3.2  </i>
  <i name="subversion" type="string">27Jun22 (build Dec 22 2022 13:13:19) complex                          parallel </i>
  <i name="platform" type="string">LinuxIFC </i>
  <i name="date" type="string">2023 08 21 </i>
  <i name="time" type="string">16:52:24 </i>
 </generator>
 <incar>
  <i type="string" name="SYSTEM">Lattice</i>
  <i type="int" name="ISTART">     0</i>
  <i type="string" name="PREC">Accurate</i>
  <i type="string" name="ALGO">Normal</i>
  <i type="int" name="ISPIN">     2</i>
  <i type="int" name="ICHARG">     2</i>
  <i type="int" name="NELM">    64</i>
  <i type="int" name="IBRION">     2</i>
  <i name="EDIFF">      0.00000100</i>
  <i name="EDIFFG">     -0.00100000</i>
  <i type="int" name="NSW">   128</i>
  <i type="int" name="ISIF">     2</i>
  <i name="ENCUT">    450.00000000</i>
  <i name="POTIM">      0.50000000</i>
  <i type="int" name="ISMEAR">     0</i>
  <i name="SIGMA">      0.10000000</i>
  <i type="logical" name="LWAVE"> F  </i>
  <i type="logical" name="LCHARG"> F  </i>
  <i type="string" name="GGA">PE</i>
  <i type="int" name="IVDW">    12</i>
 </incar>
 <primitive_cell>
  <structure name="primitive_cell" >
   <crystal>
    <varray name="basis" >
     <v>       4.27816549       2.47000000       0.00000000 </v>
     <v>      -4.27816549       2.47000000       0.00000000 </v>
     <v>       0.00000000       0.00000000      15.00000000 </v>
    </varray>
    <i name="volume">    317.01206316 </i>
    <varray name="rec_basis" >
     <v>       0.11687252       0.20242915       0.00000000 </v>
     <v>      -0.11687252       0.20242915       0.00000000 </v>
     <v>       0.00000000       0.00000000       0.06666667 </v>
    </varray>
   </crystal>
   <varray name="positions" >
    <v>       0.66888689       1.00000000       0.10000000 </v>
    <v>       0.33111211       1.00000000       0.10000000 </v>
    <v>       1.00000000       0.33111211       0.10000000 </v>
    <v>       1.00000000       0.66888689       0.10000000 </v>
    <v>       0.33111211       0.33111211       0.10000000 </v>
    <v>       0.66888689       0.66888689       0.10000000 </v>
    <v>       0.66666600       0.33333300       0.09922189 </v>
    <v>       0.33333300       0.66666600       0.10077811 </v>
    <v>       0.16666600       0.33333300       0.46773333 </v>
    <v>       0.33333300       0.16666600       0.46773333 </v>
    <v>       0.16666600       0.83333300       0.46773333 </v>
    <v>       0.33333300       0.66666600       0.46773333 </v>
    <v>       0.66666600       0.33333300       0.46773333 </v>
    <v>       0.83333300       0.16666600       0.46773333 </v>
    <v>       0.66666600       0.83333300       0.46773333 </v>
    <v>       0.83333300       0.66666600       0.46773333 </v>
   </varray>
  </structure>
  <varray name="primitive_index" >
   <v type="int" >        1 </v>
   <v type="int" >        2 </v>
   <v type="int" >        3 </v>
   <v type="int" >        4 </v>
   <v type="int" >        5 </v>
   <v type="int" >        6 </v>
   <v type="int" >        7 </v>
   <v type="int" >        8 </v>
   <v type="int" >        9 </v>
   <v type="int" >       10 </v>
   <v type="int" >       11 </v>
   <v type="int" >       12 </v>
   <v type="int" >       13 </v>
   <v type="int" >       14 </v>
   <v type="int" >       15 </v>
   <v type="int" >       16 </v>
  </varray>
 </primitive_cell>
 <kpoints>
  <generation param="Gamma">
   <v type="int" name="divisions">      12       12        1 </v>
   <v name="usershift">      0.00000000       0.00000000       0.00000000 </v>
   <v name="genvec1">      0.08333333      -0.00000000       0.00000000 </v>
   <v name="genvec2">     -0.00000000       0.08333333       0.00000000 </v>
   <v name="genvec3">      0.00000000       0.00000000       1.00000000 </v>
   <v name="shift">      0.00000000       0.00000000       0.00000000 </v>
  </generation>
  <varray name="kpointlist" >
   <v>       0.00000000       0.00000000       0.00000000 </v>
   <v>       0.08333333      -0.00000000       0.00000000 </v>
   <v>       0.16666667       0.00000000       0.00000000 </v>
   <v>       0.25000000       0.00000000       0.00000000 </v>
   <v>       0.33333333       0.00000000       0.00000000 </v>
   <v>       0.41666667       0.00000000       0.00000000 </v>
   <v>       0.50000000       0.00000000       0.00000000 </v>
   <v>       0.08333333       0.08333333       0.00000000 </v>
   <v>       0.16666667       0.08333333       0.00000000 </v>
   <v>       0.25000000       0.08333333       0.00000000 </v>
   <v>       0.33333333       0.08333333       0.00000000 </v>
   <v>       0.41666667       0.08333333       0.00000000 </v>
   <v>       0.16666667       0.16666667       0.00000000 </v>
   <v>       0.25000000       0.16666667       0.00000000 </v>
   <v>       0.33333333       0.16666667       0.00000000 </v>
   <v>       0.41666667       0.16666667       0.00000000 </v>
   <v>       0.25000000       0.25000000       0.00000000 </v>
   <v>       0.33333333       0.25000000       0.00000000 </v>
   <v>       0.33333333       0.33333333       0.00000000 </v>
  </varray>
  <varray name="weights" >
   <v>       0.00694444 </v>
   <v>       0.04166667 </v>
   <v>       0.04166667 </v>
   <v>       0.04166667 </v>
   <v>       0.04166667 </v>
   <v>       0.04166667 </v>
   <v>       0.02083333 </v>
   <v>       0.04166667 </v>
   <v>       0.08333333 </v>
   <v>       0.08333333 </v>
   <v>       0.08333333 </v>
   <v>       0.08333333 </v>
   <v>       0.04166667 </v>
   <v>       0.08333333 </v>
   <v>       0.08333333 </v>
   <v>       0.04166667 </v>
   <v>       0.04166667 </v>
   <v>       0.08333333 </v>
   <v>       0.01388889 </v>
  </varray>
 </kpoints>
 <parameters>
  <separator name="general" >
   <i type="string" name="SYSTEM">Lattice</i>
   <i type="logical" name="LCOMPAT"> F  </i>
  </separator>
  <separator name="electronic" >
   <i type="string" name="PREC">accura</i>
   <i name="ENMAX">    450.00000000</i>
   <i name="ENAUG">    644.87300000</i>
   <i name="EDIFF">      0.00000100</i>
   <i type="int" name="IALGO">    38</i>
   <i type="int" name="IWAVPR">    11</i>
   <i type="int" name="NBANDS">    48</i>
   <i type="int" name="NBANDSLOW">    -1</i>
   <i type="int" name="NBANDSHIGH">    -1</i>
   <i name="NELECT">     56.00000000</i>
   <i type="int" name="TURBO">     0</i>
   <i type="int" name="IRESTART">     0</i>
   <i type="int" name="NREBOOT">     0</i>
   <i type="int" name="NMIN">     0</i>
   <i name="EREF">      0.00000000</i>
   <separator name="electronic smearing" >
    <i type="int" name="ISMEAR">     0</i>
    <i name="SIGMA">      0.10000000</i>
    <i name="KSPACING">      0.50000000</i>
    <i type="logical" name="KGAMMA"> T  </i>
    <i type="logical" name="KBLOWUP"> T  </i>
   </separator>
   <separator name="electronic projectors" >
    <i type="logical" name="LREAL"> F  </i>
    <v name="ROPT">      0.00000000      0.00000000</v>
    <i type="int" name="LMAXPAW">  -100</i>
    <i type="int" name="LMAXMIX">     2</i>
    <i type="logical" name="NLSPLINE"> F  </i>
   </separator>
   <separator name="electronic startup" >
    <i type="int" name="ISTART">     0</i>
    <i type="int" name="ICHARG">     2</i>
    <i type="int" name="INIWAV">     1</i>
   </separator>
   <separator name="electronic spin" >
    <i type="int" name="ISPIN">     2</i>
    <i type="logical" name="LNONCOLLINEAR"> F  </i>
    <v name="MAGMOM">      1.00000000      1.00000000      1.00000000      1.00000000      1.00000000      1.00000000      1.00000000      1.00000000      1.00000000      1.00000000      1.00000000      1.00000000      1.00000000      1.00000000      1.00000000      1.00000000</v>
    <i name="NUPDOWN">     -1.00000000</i>
    <i type="logical" name="LSORBIT"> F  </i>
    <v name="SAXIS">      0.00000000      0.00000000      1.00000000</v>
    <i type="logical" name="LSPIRAL"> F  </i>
    <v name="QSPIRAL">      0.00000000      0.00000000      0.00000000</v>
    <i type="logical" name="LZEROZ"> F  </i>
   </separator>
   <separator name="electronic exchange-correlation" >
    <i type="logical" name="LASPH"> F  </i>
    <i type="logical" name="LMETAGGA"> F  </i>
   </separator>
   <separator name="electronic convergence" >
    <i type="int" name="NELM">    64</i>
    <i type="int" name="NELMDL">    -5</i>
    <i type="int" name="NELMIN">     2</i>
    <i name="ENINI">    450.00000000</i>
    <separator name="electronic convergence detail" >
     <i type="logical" name="LDIAG"> T  </i>
     <i type="logical" name="LSUBROT"> F  </i>
     <i name="WEIMIN">      0.00100000</i>
     <i name="EBREAK">      0.00000001</i>
     <i name="DEPER">      0.30000000</i>
     <i type="int" name="NRMM">     4</i>
     <i name="TIME">      0.40000000</i>
    </separator>
   </separator>
   <separator name="electronic mixer" >
    <i name="AMIX">      0.40000000</i>
    <i name="BMIX">      1.00000000</i>
    <i name="AMIN">      0.10000000</i>
    <i name="AMIX_MAG">      1.60000000</i>
    <i name="BMIX_MAG">      1.00000000</i>
    <separator name="electronic mixer details" >
     <i type="int" name="IMIX">     4</i>
     <i type="logical" name="MIXFIRST"> F  </i>
     <i type="int" name="MAXMIX">   -45</i>
     <i name="WC">    100.00000000</i>
     <i type="int" name="INIMIX">     1</i>
     <i type="int" name="MIXPRE">     1</i>
     <i type="int" name="MREMOVE">     5</i>
    </separator>
   </separator>
   <separator name="electronic dipolcorrection" >
    <i type="logical" name="LDIPOL"> F  </i>
    <i type="logical" name="LMONO"> F  </i>
    <i type="int" name="IDIPOL">     0</i>
    <i name="EPSILON">      1.00000000</i>
    <v name="DIPOL">   -100.00000000   -100.00000000   -100.00000000</v>
    <i name="EFIELD">      0.00000000</i>
   </separator>
  </separator>
  <separator name="grids" >
   <i type="int" name="NGX">    36</i>
   <i type="int" name="NGY">    36</i>
   <i type="int" name="NGZ">   108</i>
   <i type="int" name="NGXF">    72</i>
   <i type="int" name="NGYF">    72</i>
   <i type="int" name="NGZF">   216</i>
   <i type="logical" name="ADDGRID"> F  </i>
  </separator>
  <separator name="ionic" >
   <i type="int" name="NSW">   128</i>
   <i type="int" name="IBRION">     2</i>
   <i type="int" name="MDALGO">     0</i>
   <i type="int" name="ISIF">     2</i>
   <i name="PSTRESS">      0.00000000</i>
   <i name="EDIFFG">     -0.00100000</i>
   <i type="int" name="NFREE">     1</i>
   <i name="POTIM">      0.50000000</i>
   <i name="SMASS">     -3.00000000</i>
   <i name="SCALEE">      1.00000000</i>
  </separator>
  <separator name="ionic md" >
   <i name="TEBEG">      0.00010000</i>
   <i name="TEEND">      0.00010000</i>
   <i type="int" name="NBLOCK">     1</i>
   <i type="int" name="KBLOCK">   128</i>
   <i type="int" name="NPACO">   256</i>
   <i name="APACO">     10.00000000</i>
  </separator>
  <separator name="symmetry" >
   <i type="int" name="ISYM">     2</i>
   <i name="SYMPREC">      0.00001000</i>
  </separator>
  <separator name="dos" >
   <i type="int" name="LORBIT">     0</i>
   <v name="RWIGS">     -1.00000000     -1.00000000</v>
   <i type="int" name="NEDOS">   301</i>
   <i name="EMIN">     10.00000000</i>
   <i name="EMAX">    -10.00000000</i>
   <i name="EFERMI">      0.00000000</i>
  </separator>
  <separator name="writing" >
   <i type="int" name="NWRITE">     2</i>
   <i type="logical" name="LWAVE"> F  </i>
   <i type="logical" name="LDOWNSAMPLE"> F  </i>
   <i type="logical" name="LCHARG"> F  </i>
   <i type="logical" name="LPARD"> F  </i>
   <i type="logical" name="LVTOT"> F  </i>
   <i type="logical" name="LVHAR"> F  </i>
   <i type="logical" name="LELF"> F  </i>
   <i type="logical" name="LOPTICS"> F  </i>
   <v name="STM">      0.00000000      0.00000000      0.00000000      0.00000000      0.00000000      0.00000000      0.00000000</v>
  </separator>
  <separator name="performance" >
   <i type="int" name="NPAR">    48</i>
   <i type="int" name="NSIM">     4</i>
   <i type="int" name="NBLK">    -1</i>
   <i type="logical" name="LPLANE"> T  </i>
   <i type="logical" name="LSCALAPACK"> T  </i>
   <i type="logical" name="LSCAAWARE"> F  </i>
   <i type="logical" name="LSCALU"> F  </i>
   <i type="logical" name="LASYNC"> F  </i>
   <i type="logical" name="LORBITALREAL"> F  </i>
  </separator>
  <separator name="miscellaneous" >
   <i type="int" name="IDIOT">     3</i>
   <i type="int" name="PHON_NSTRUCT">    -1</i>
   <i type="logical" name="LMUSIC"> F  </i>
   <v name="POMASS">     10.81100000     12.01100000</v>
   <v name="DARWINR">      0.00000000      0.00000000</v>
   <v name="DARWINV">      1.00000000      1.00000000</v>
   <i type="logical" name="LCORR"> T  </i>
  </separator>
  <i type="logical" name="GGA_COMPAT"> T  </i>
  <i type="logical" name="LBERRY"> F  </i>
  <i type="int" name="ICORELEVEL">     0</i>
  <i type="logical" name="LDAU"> F  </i>
  <i type="int" name="I_CONSTRAINED_M">     0</i>
  <separator name="electronic exchange-correlation" >
   <i type="string" name="GGA">PE</i>
   <i type="int" name="VOSKOWN">     0</i>
   <i type="logical" name="LHFCALC"> F  </i>
   <i type="string" name="PRECFOCK"></i>
   <i type="logical" name="LSYMGRAD"> F  </i>
   <i type="logical" name="LHFONE"> F  </i>
   <i type="logical" name="LRHFCALC"> F  </i>
   <i type="logical" name="LTHOMAS"> F  </i>
   <i type="logical" name="LMODELHF"> F  </i>
   <i type="logical" name="LFOCKACE"> F  </i>
   <i name="ENCUT4O">     -1.00000000</i>
   <i type="int" name="EXXOEP">     0</i>
   <i type="int" name="FOURORBIT">     0</i>
   <i name="AEXX">      0.00000000</i>
   <i name="HFALPHA">      0.00000000</i>
   <i name="MCALPHA">      0.00000000</i>
   <i name="ALDAX">      1.00000000</i>
   <i name="AGGAX">      1.00000000</i>
   <i name="ALDAC">      1.00000000</i>
   <i name="AGGAC">      1.00000000</i>
   <i type="int" name="NKREDX">     1</i>
   <i type="int" name="NKREDY">     1</i>
   <i type="int" name="NKREDZ">     1</i>
   <i type="logical" name="SHIFTRED"> F  </i>
   <i type="logical" name="ODDONLY"> F  </i>
   <i type="logical" name="EVENONLY"> F  </i>
   <i type="int" name="LMAXFOCK">     0</i>
   <i type="int" name="NMAXFOCKAE">     0</i>
   <i type="logical" name="LFOCKAEDFT"> F  </i>
   <i name="HFSCREEN">      0.00000000</i>
   <i name="HFSCREENC">      0.00000000</i>
   <i type="int" name="NBANDSGWLOW">     0</i>
  </separator>
  <separator name="vdW DFT" >
   <i type="logical" name="LUSE_VDW"> F  </i>
   <i name="Zab_VDW">     -0.84910000</i>
   <i name="PARAM1">      0.12340000</i>
   <i name="PARAM2">      1.00000000</i>
   <i name="PARAM3">      0.00000000</i>
  </separator>
  <separator name="model GW" >
   <i type="int" name="MODEL_GW">     0</i>
   <i name="MODEL_EPS0">     11.88795237</i>
   <i name="MODEL_ALPHA">      1.00000000</i>
  </separator>
  <separator name="linear response parameters" >
   <i type="logical" name="LEPSILON"> F  </i>
   <i type="logical" name="LRPA"> F  </i>
   <i type="logical" name="LNABLA"> F  </i>
   <i type="logical" name="LVEL"> F  </i>
   <i name="CSHIFT">      0.10000000</i>
   <i name="OMEGAMAX">     -1.00000000</i>
   <i name="DEG_THRESHOLD">      0.00200000</i>
   <i name="RTIME">     -0.10000000</i>
   <i name="WPLASMAI">      0.00000000</i>
   <v name="DFIELD">      0.00000000      0.00000000      0.00000000</v>
   <v name="WPLASMA">      0.00000000      0.00000000      0.00000000      0.00000000      0.00000000      0.00000000      0.00000000      0.00000000      0.00000000</v>
  </separator>
  <separator name="orbital magnetization" >
   <i type="logical" name="NUCIND"> F  </i>
   <v name="MAGPOS">      0.00000000      0.00000000      0.00000000</v>
   <i type="logical" name="LNICSALL"> T  </i>
   <i type="logical" name="ORBITALMAG"> F  </i>
   <i type="logical" name="LMAGBLOCH"> F  </i>
   <i type="logical" name="LCHIMAG"> F  </i>
   <i type="logical" name="LGAUGE"> T  </i>
   <i type="int" name="MAGATOM">     0</i>
   <v name="MAGDIPOL">      0.00000000      0.00000000      0.00000000</v>
   <v name="AVECCONST">      0.00000000      0.00000000      0.00000000</v>
  </separator>
  <separator name="response functions" >
   <i type="logical" name="LFINITE_TEMPERATURE"> F  </i>
   <i type="logical" name="LADDER"> F  </i>
   <i type="logical" name="LRPAFORCE"> F  </i>
   <i type="logical" name="LFXC"> F  </i>
   <i type="logical" name="LHARTREE"> T  </i>
   <i type="int" name="IBSE">     0</i>
   <v type="int" name="KPOINT">    -1     0     0     0</v>
   <i type="logical" name="LTCTC"> F  </i>
   <i type="logical" name="LTCTE"> F  </i>
   <i type="logical" name="LTETE"> F  </i>
   <i type="logical" name="LTRIPLET"> F  </i>
   <i type="logical" name="LFXCEPS"> F  </i>
   <i type="logical" name="LFXHEG"> F  </i>
   <i type="int" name="NATURALO">     2</i>
   <i type="logical" name="LHOLEGF"> F  </i>
   <i type="logical" name="L2ORDER"> F  </i>
   <i type="logical" name="LDMP1"> F  </i>
   <i type="logical" name="LMP2LT"> F  </i>
   <i type="logical" name="LSMP2LT"> F  </i>
   <i type="logical" name="LGWLF"> F  </i>
   <i name="ENCUTGW">     -2.00000000</i>
   <i name="ENCUTGWSOFT">     -2.00000000</i>
   <i name="ENCUTLF">     -1.00000000</i>
   <i type="logical" name="LESF_SPLINES"> F  </i>
   <i type="int" name="LMAXMP2">    -1</i>
   <i name="SCISSOR">      0.00000000</i>
   <i type="int" name="NOMEGA">     0</i>
   <i type="int" name="NOMEGAR">     0</i>
   <i type="int" name="NBANDSGW">    -1</i>
   <i type="int" name="NBANDSO">    -1</i>
   <i type="int" name="NBANDSV">    -1</i>
   <i type="int" name="NELMGW">     1</i>
   <i type="int" name="NELMHF">     1</i>
   <i type="int" name="DIM">     3</i>
   <i type="int" name="IESPILON">     4</i>
   <i type="int" name="ANTIRES">     0</i>
   <i name="OMEGAMAX">    -30.00000000</i>
   <i name="OMEGAMIN">    -30.00000000</i>
   <i name="OMEGATL">   -200.00000000</i>
   <i type="int" name="OMEGAGRID">     0</i>
   <i name="CSHIFT">     -0.10000000</i>
   <i type="logical" name="LSELFENERGY"> F  </i>
   <i type="logical" name="LSPECTRAL"> F  </i>
   <i type="logical" name="LSPECTRALGW"> F  </i>
   <i type="logical" name="LSINGLES"> F  </i>
   <i type="logical" name="LFERMIGW"> F  </i>
   <i type="logical" name="ODDONLYGW"> F  </i>
   <i type="logical" name="EVENONLYGW"> F  </i>
   <i type="int" name="NKREDLFX">     1</i>
   <i type="int" name="NKREDLFY">     1</i>
   <i type="int" name="NKREDLFZ">     1</i>
   <i type="int" name="MAXMEM">  2800</i>
   <i type="int" name="TELESCOPE">     0</i>
   <i type="int" name="NTAUPAR">    -1</i>
   <i type="int" name="NOMEGAPAR">    -1</i>
   <i name="DAMP_NEWTON">      0.80000001</i>
   <i name="LAMBDA">      1.00000000</i>
  </separator>
  <separator name="External order field" >
   <i name="OFIELD_KAPPA">      0.00000000</i>
   <v name="OFIELD_K">      0.00000000      0.00000000      0.00000000</v>
   <i name="OFIELD_Q6_NEAR">      0.00000000</i>
   <i name="OFIELD_Q6_FAR">      0.00000000</i>
   <i name="OFIELD_A">      0.00000000</i>
  </separator>
  <separator name="optional k-points parameters" >
   <i type="int" name="KPOINTS_OPT_MODE">     1</i>
   <i type="logical" name="LKPOINTS_OPT"> F  </i>
  </separator>
  <separator name="solvation model" >
   <i type="logical" name="LSOL"> F  </i>
  </separator>
 </parameters>
 <atominfo>
  <atoms>      16 </atoms>
  <types>       2 </types>
  <array name="atoms" >
   <dimension dim="1">ion</dimension>
   <field type="string">element</field>
   <field type="int">atomtype</field>
   <set>
    <rc><c>B </c><c>   1</c></rc>
    <rc><c>B </c><c>   1</c></rc>
    <rc><c>B </c><c>   1</c></rc>
    <rc><c>B </c><c>   1</c></rc>
    <rc><c>B </c><c>   1</c></rc>
    <rc><c>B </c><c>   1</c></rc>
    <rc><c>B </c><c>   1</c></rc>
    <rc><c>B </c><c>   1</c></rc>
    <rc><c>C </c><c>   2</c></rc>
    <rc><c>C </c><c>   2</c></rc>
    <rc><c>C </c><c>   2</c></rc>
    <rc><c>C </c><c>   2</c></rc>
    <rc><c>C </c><c>   2</c></rc>
    <rc><c>C </c><c>   2</c></rc>
    <rc><c>C </c><c>   2</c></rc>
    <rc><c>C </c><c>   2</c></rc>
   </set>
  </array>
  <array name="atomtypes" >
   <dimension dim="1">type</dimension>
   <field type="int">atomspertype</field>
   <field type="string">element</field>
   <field>mass</field>
   <field>valence</field>
   <field type="string">pseudopotential</field>
   <set>
    <rc><c>   8</c><c>B </c><c>     10.81100000</c><c>      3.00000000</c><c>  PAW_PBE B 06Sep2000                   </c></rc>
    <rc><c>   8</c><c>C </c><c>     12.01100000</c><c>      4.00000000</c><c>  PAW_PBE C 08Apr2002                   </c></rc>
   </set>
  </array>
 </atominfo>
 <structure name="initialpos" >
  <crystal>
   <varray name="basis" >
    <v>       4.27816549       2.47000000       0.00000000 </v>
    <v>      -4.27816549       2.47000000       0.00000000 </v>
    <v>       0.00000000       0.00000000      15.00000000 </v>
   </varray>
   <i name="volume">    317.01206316 </i>
   <varray name="rec_basis" >
    <v>       0.11687252       0.20242915       0.00000000 </v>
    <v>      -0.11687252       0.20242915       0.00000000 </v>
    <v>       0.00000000       0.00000000       0.06666667 </v>
   </varray>
  </crystal>
  <varray name="positions" >
   <v>       0.66888689       0.00000000       0.10000000 </v>
   <v>       0.33111211       0.00000000       0.10000000 </v>
   <v>       0.00000000       0.33111211       0.10000000 </v>
   <v>       0.00000000       0.66888689       0.10000000 </v>
   <v>       0.33111211       0.33111211       0.10000000 </v>
   <v>       0.66888689       0.66888689       0.10000000 </v>
   <v>       0.66666600       0.33333300       0.09922189 </v>
   <v>       0.33333300       0.66666600       0.10077811 </v>
   <v>       0.16666600       0.33333300       0.46773333 </v>
   <v>       0.33333300       0.16666600       0.46773333 </v>
   <v>       0.16666600       0.83333300       0.46773333 </v>
   <v>       0.33333300       0.66666600       0.46773333 </v>
   <v>       0.66666600       0.33333300       0.46773333 </v>
   <v>       0.83333300       0.16666600       0.46773333 </v>
   <v>       0.66666600       0.83333300       0.46773333 </v>
   <v>       0.83333300       0.66666600       0.46773333 </v>
  </varray>
 </structure>
 <calculation>
  <scstep>
   <time name="dav">    1.44    1.49</time>
   <time name="total">    1.49    1.54</time>
   <energy>
    <i name="alphaZ">     61.42931329 </i>
    <i name="ewald">   1949.32275062 </i>
    <i name="hartreedc">  -3357.08323590 </i>
    <i name="XCdc">    164.20771193 </i>
    <i name="pawpsdc">   1214.24570090 </i>
    <i name="pawaedc">  -1211.68112031 </i>
    <i name="eentropy">     -0.01468464 </i>
    <i name="bandstr">   -380.86157334 </i>
    <i name="atom">   1746.50554237 </i>
    <i name="e_fr_energy">    186.07040492 </i>
    <i name="e_wo_entrp">    186.08508956 </i>
    <i name="e_0_energy">    186.07774724 </i>
   </energy>
  </scstep>
  <scstep>
   <time name="dav">    2.35    2.39</time>
   <time name="total">    2.35    2.39</time>
   <energy>
    <i name="e_fr_energy">   -119.49806775 </i>
    <i name="e_wo_entrp">   -119.48682298 </i>
    <i name="e_0_energy">   -119.49244537 </i>
   </energy>
  </scstep>
  <scstep>
   <time name="dav">    2.58    2.61</time>
   <time name="total">    2.58    2.61</time>
   <energy>
    <i name="e_fr_energy">   -128.54739962 </i>
    <i name="e_wo_entrp">   -128.53533630 </i>
    <i name="e_0_energy">   -128.54136796 </i>
   </energy>
  </scstep>
  <scstep>
   <time name="dav">    2.38    2.41</time>
   <time name="total">    2.38    2.41</time>
   <energy>
    <i name="e_fr_energy">   -128.57348188 </i>
    <i name="e_wo_entrp">   -128.56140905 </i>
    <i name="e_0_energy">   -128.56744547 </i>
   </energy>
  </scstep>
  <scstep>
   <time name="dav">    2.40    2.43</time>
   <time name="total">    2.50    2.55</time>
   <energy>
    <i name="e_fr_energy">   -128.57351706 </i>
    <i name="e_wo_entrp">   -128.56144415 </i>
    <i name="e_0_energy">   -128.56748061 </i>
   </energy>
  </scstep>
  <scstep>
   <time name="dav">    2.05    2.07</time>
   <time name="total">    2.20    2.26</time>
   <energy>
    <i name="e_fr_energy">    -94.79004045 </i>
    <i name="e_wo_entrp">    -94.77775997 </i>
    <i name="e_0_energy">    -94.78390021 </i>
   </energy>
  </scstep>
  <scstep>
   <time name="dav">    2.30    2.32</time>
   <time name="total">    2.45    2.54</time>
   <energy>
    <i name="e_fr_energy">   -105.71703721 </i>
    <i name="e_wo_entrp">   -105.70793912 </i>
    <i name="e_0_energy">   -105.71248816 </i>
   </energy>
  </scstep>
  <scstep>
   <time name="dav">    2.15    2.17</time>
   <time name="total">    2.28    2.32</time>
   <energy>
    <i name="e_fr_energy">   -111.41616926 </i>
    <i name="e_wo_entrp">   -111.40705651 </i>
    <i name="e_0_energy">   -111.41161288 </i>
   </energy>
  </scstep>
  <scstep>
   <time name="dav">    2.12    2.14</time>
   <time name="total">    2.25    2.29</time>
   <energy>
    <i name="e_fr_energy">   -116.60941397 </i>
    <i name="e_wo_entrp">   -116.60714216 </i>
    <i name="e_0_energy">   -116.60827807 </i>
   </energy>
  </scstep>
  <scstep>
   <time name="dav">    2.26    2.28</time>
   <time name="total">    2.39    2.43</time>
   <energy>
    <i name="e_fr_energy">   -120.88304414 </i>
    <i name="e_wo_entrp">   -120.87807964 </i>
    <i name="e_0_energy">   -120.88056189 </i>
   </energy>
  </scstep>
  <scstep>
   <time name="dav">    2.25    2.28</time>
   <time name="total">    2.38    2.42</time>
   <energy>
    <i name="e_fr_energy">   -122.68113452 </i>
    <i name="e_wo_entrp">   -122.67793142 </i>
    <i name="e_0_energy">   -122.67953297 </i>
   </energy>
  </scstep>
  <scstep>
   <time name="dav">    2.47    2.49</time>
   <time name="total">    2.60    2.63</time>
   <energy>
    <i name="e_fr_energy">   -123.67951507 </i>
    <i name="e_wo_entrp">   -123.67450399 </i>
    <i name="e_0_energy">   -123.67700953 </i>
   </energy>
  </scstep>
  <scstep>
   <time name="dav">    2.12    2.14</time>
   <time name="total">    2.25    2.28</time>
   <energy>
    <i name="e_fr_energy">   -123.97844812 </i>
    <i name="e_wo_entrp">   -123.97240210 </i>
    <i name="e_0_energy">   -123.97542511 </i>
   </energy>
  </scstep>
  <scstep>
   <time name="dav">    1.88    1.89</time>
   <time name="total">    2.01    2.03</time>
   <energy>
    <i name="e_fr_energy">   -124.02899951 </i>
    <i name="e_wo_entrp">   -124.02294878 </i>
    <i name="e_0_energy">   -124.02597414 </i>
   </energy>
  </scstep>
  <scstep>
   <time name="dav">    1.73    1.74</time>
   <time name="total">    1.86    1.88</time>
   <energy>
    <i name="e_fr_energy">   -124.05257991 </i>
    <i name="e_wo_entrp">   -124.04654371 </i>
    <i name="e_0_energy">   -124.04956181 </i>
   </energy>
  </scstep>
  <scstep>
   <time name="dav">    1.74    1.76</time>
   <time name="total">    1.87    1.89</time>
   <energy>
    <i name="e_fr_energy">   -124.05432610 </i>
    <i name="e_wo_entrp">   -124.04829014 </i>
    <i name="e_0_energy">   -124.05130812 </i>
   </energy>
  </scstep>
  <scstep>
   <time name="dav">    1.58    1.59</time>
   <time name="total">    1.71    1.73</time>
   <energy>
    <i name="e_fr_energy">   -124.05470855 </i>
    <i name="e_wo_entrp">   -124.04867228 </i>
    <i name="e_0_energy">   -124.05169041 </i>
   </energy>
  </scstep>
  <scstep>
   <time name="dav">    1.70    1.72</time>
   <time name="total">    1.83    1.85</time>
   <energy>
    <i name="e_fr_energy">   -124.05478308 </i>
    <i name="e_wo_entrp">   -124.04873990 </i>
    <i name="e_0_energy">   -124.05176149 </i>
   </energy>
  </scstep>
  <scstep>
   <time name="dav">    1.62    1.64</time>
   <time name="total">    1.75    1.78</time>
   <energy>
    <i name="e_fr_energy">   -124.05484939 </i>
    <i name="e_wo_entrp">   -124.04880417 </i>
    <i name="e_0_energy">   -124.05182678 </i>
   </energy>
  </scstep>
  <scstep>
   <time name="dav">    1.62    1.63</time>
   <time name="total">    1.75    1.77</time>
   <energy>
    <i name="e_fr_energy">   -124.05488222 </i>
    <i name="e_wo_entrp">   -124.04883982 </i>
    <i name="e_0_energy">   -124.05186102 </i>
   </energy>
  </scstep>
  <scstep>
   <time name="dav">    1.57    1.58</time>
   <time name="total">    1.69    1.71</time>
   <energy>
    <i name="e_fr_energy">   -124.05492889 </i>
    <i name="e_wo_entrp">   -124.04888813 </i>
    <i name="e_0_energy">   -124.05190851 </i>
   </energy>
  </scstep>
  <scstep>
   <time name="dav">    1.82    1.84</time>
   <time name="total">    1.95    1.97</time>
   <energy>
    <i name="e_fr_energy">   -124.05495371 </i>
    <i name="e_wo_entrp">   -124.04891240 </i>
    <i name="e_0_energy">   -124.05193305 </i>
   </energy>
  </scstep>
  <scstep>
   <time name="dav">    2.13    2.15</time>
   <time name="total">    2.26    2.28</time>
   <energy>
    <i name="e_fr_energy">   -124.05495884 </i>
    <i name="e_wo_entrp">   -124.04891722 </i>
    <i name="e_0_energy">   -124.05193803 </i>
   </energy>
  </scstep>
  <scstep>
   <time name="dav">    2.05    2.06</time>
   <time name="total">    2.17    2.20</time>
   <energy>
    <i name="e_fr_energy">   -124.05496184 </i>
    <i name="e_wo_entrp">   -124.04892010 </i>
    <i name="e_0_energy">   -124.05194097 </i>
   </energy>
  </scstep>
  <scstep>
   <time name="dav">    1.93    1.94</time>
   <time name="total">    2.08    2.10</time>
   <energy>
    <i name="e_fr_energy">   -124.05496347 </i>
    <i name="e_wo_entrp">   -124.04892179 </i>
    <i name="e_0_energy">   -124.05194263 </i>
   </energy>
  </scstep>
  <scstep>
   <time name="dav">    2.24    2.25</time>
   <time name="total">    2.27    2.29</time>
   <energy>
    <i name="alphaZ">     61.42931329 </i>
    <i name="ewald">   1949.32275062 </i>
    <i name="hartreedc">  -3560.97478184 </i>
    <i name="XCdc">    169.28644435 </i>
    <i name="pawpsdc">   6039.27928043 </i>
    <i name="pawaedc">  -6038.74836302 </i>
    <i name="eentropy">     -0.00604157 </i>
    <i name="bandstr">   -490.14910849 </i>
    <i name="atom">   1746.50554237 </i>
    <i name="e_fr_energy">   -124.05496385 </i>
    <i name="e_wo_entrp">   -124.04892229 </i>
    <i name="e_0_energy">   -124.05194307 </i>
   </energy>
  </scstep>
  <structure>
   <crystal>
    <varray name="basis" >
     <v>       4.27816549       2.47000000       0.00000000 </v>
     <v>      -4.27816549       2.47000000       0.00000000 </v>
     <v>       0.00000000       0.00000000      15.00000000 </v>
    </varray>
    <i name="volume">    317.01206316 </i>
    <varray name="rec_basis" >
     <v>       0.11687252       0.20242915       0.00000000 </v>
     <v>      -0.11687252       0.20242915       0.00000000 </v>
     <v>       0.00000000       0.00000000       0.06666667 </v>
    </varray>
   </crystal>
   <varray name="positions" >
    <v>       0.66888689       0.00000000       0.10000000 </v>
    <v>       0.33111211       0.00000000       0.10000000 </v>
    <v>       0.00000000       0.33111211       0.10000000 </v>
    <v>       0.00000000       0.66888689       0.10000000 </v>
    <v>       0.33111211       0.33111211       0.10000000 </v>
    <v>       0.66888689       0.66888689       0.10000000 </v>
    <v>       0.66666600       0.33333300       0.09922189 </v>
    <v>       0.33333300       0.66666600       0.10077811 </v>
    <v>       0.16666600       0.33333300       0.46773333 </v>
    <v>       0.33333300       0.16666600       0.46773333 </v>
    <v>       0.16666600       0.83333300       0.46773333 </v>
    <v>       0.33333300       0.66666600       0.46773333 </v>
    <v>       0.66666600       0.33333300       0.46773333 </v>
    <v>       0.83333300       0.16666600       0.46773333 </v>
    <v>       0.66666600       0.83333300       0.46773333 </v>
    <v>       0.83333300       0.66666600       0.46773333 </v>
   </varray>
  </structure>
  <varray name="forces" >
   <v>       0.24204729       0.13975297       0.00848805 </v>
   <v>      -0.24205327      -0.13974261       0.00848805 </v>
   <v>       0.24204729      -0.13975297       0.00848805 </v>
   <v>      -0.24205327       0.13974261       0.00848805 </v>
   <v>       0.00000598      -0.27949558       0.00848805 </v>
   <v>       0.00000598       0.27949558       0.00848805 </v>
   <v>       0.00000000       0.00000000       0.00366647 </v>
   <v>      -0.00000000       0.00000000       0.01479968 </v>
   <v>       0.00021140      -0.00036616      -0.00867871 </v>
   <v>      -0.00020605      -0.00035689      -0.00867189 </v>
   <v>      -0.00042280       0.00000000      -0.00867871 </v>
   <v>       0.00000000       0.00000000      -0.00868438 </v>
   <v>       0.00000000       0.00000000      -0.00865828 </v>
   <v>       0.00041211       0.00000000      -0.00867189 </v>
   <v>       0.00021140       0.00036616      -0.00867871 </v>
   <v>      -0.00020605       0.00035689      -0.00867189 </v>
  </varray>
  <varray name="stress" >
   <v>      41.37861528       0.00000000       0.00000000 </v>
   <v>       0.00000000      41.37861528       0.00000000 </v>
   <v>      -0.00000000       0.00000000      -3.72046427 </v>
  </varray>
  <energy>
   <i name="e_fr_energy">   -125.56322106 </i>
   <i name="e_wo_entrp">   -125.55717949 </i>
   <i name="e_0_energy">   -125.56020027 </i>
  </energy>
  <time name="totalsc">   56.75   57.64</time>
 </calculation>
 <calculation>
  <scstep>
   <time name="dav">    1.47    1.48</time>
   <time name="total">    1.61    1.63</time>
   <energy>
    <i name="alphaZ">     61.42931329 </i>
    <i name="ewald">   1947.40791816 </i>
    <i name="hartreedc">  -3560.19198728 </i>
    <i name="XCdc">    169.23014351 </i>
    <i name="pawpsdc">   6039.28146636 </i>
    <i name="pawaedc">  -6038.75055245 </i>
    <i name="eentropy">     -0.00581314 </i>
    <i name="bandstr">   -488.97003192 </i>
    <i name="atom">   1746.50554237 </i>
    <i name="e_fr_energy">   -124.06400111 </i>
    <i name="e_wo_entrp">   -124.05818797 </i>
    <i name="e_0_energy">   -124.06109454 </i>
   </energy>
  </scstep>
  <scstep>
   <time name="dav">    2.26    2.28</time>
   <time name="total">    2.39    2.42</time>
   <energy>
    <i name="e_fr_energy">   -124.05504896 </i>
    <i name="e_wo_entrp">   -124.04906492 </i>
    <i name="e_0_energy">   -124.05205694 </i>
   </energy>
  </scstep>
  <scstep>
   <time name="dav">    1.98    2.00</time>
   <time name="total">    2.11    2.14</time>
   <energy>
    <i name="e_fr_energy">   -124.05368439 </i>
    <i name="e_wo_entrp">   -124.04768210 </i>
    <i name="e_0_energy">   -124.05068325 </i>
   </energy>
  </scstep>
  <scstep>
   <time name="dav">    2.42    2.43</time>
   <time name="total">    2.55    2.57</time>
   <energy>
    <i name="e_fr_energy">   -124.05363451 </i>
    <i name="e_wo_entrp">   -124.04765581 </i>
    <i name="e_0_energy">   -124.05064516 </i>
   </energy>
  </scstep>
  <scstep>
   <time name="dav">    2.11    2.12</time>
   <time name="total">    2.24    2.26</time>
   <energy>
    <i name="e_fr_energy">   -124.05363470 </i>
    <i name="e_wo_entrp">   -124.04765017 </i>
    <i name="e_0_energy">   -124.05064243 </i>
   </energy>
  </scstep>
  <scstep>
   <time name="dav">    1.60    1.62</time>
   <time name="total">    1.73    1.75</time>
   <energy>
    <i name="e_fr_energy">   -124.05363690 </i>
    <i name="e_wo_entrp">   -124.04765352 </i>
    <i name="e_0_energy">   -124.05064521 </i>
   </energy>
  </scstep>
  <scstep>
   <time name="dav">    1.91    1.92</time>
   <time name="total">    2.03    2.06</time>
   <energy>
    <i name="e_fr_energy">   -124.05363993 </i>
    <i name="e_wo_entrp">   -124.04765741 </i>
    <i name="e_0_energy">   -124.05064867 </i>
   </energy>
  </scstep>
  <scstep>
   <time name="dav">    1.52    1.53</time>
   <time name="total">    1.64    1.67</time>
   <energy>
    <i name="e_fr_energy">   -124.05364343 </i>
    <i name="e_wo_entrp">   -124.04766145 </i>
    <i name="e_0_energy">   -124.05065244 </i>
   </energy>
  </scstep>
  <scstep>
   <time name="dav">    1.57    1.58</time>
   <time name="total">    1.69    1.71</time>
   <energy>
    <i name="e_fr_energy">   -124.05364771 </i>
    <i name="e_wo_entrp">   -124.04766577 </i>
    <i name="e_0_energy">   -124.05065674 </i>
   </energy>
  </scstep>
  <scstep>
   <time name="dav">    1.61    1.63</time>
   <time name="total">    1.74    1.76</time>
   <energy>
    <i name="e_fr_energy">   -124.05364983 </i>
    <i name="e_wo_entrp">   -124.04766788 </i>
    <i name="e_0_energy">   -124.05065885 </i>
   </energy>
  </scstep>
  <scstep>
   <time name="dav">    1.94    1.96</time>
   <time name="total">    1.98    1.99</time>
   <energy>
    <i name="alphaZ">     61.42931329 </i>
    <i name="ewald">   1947.40791816 </i>
    <i name="hartreedc">  -3559.18668425 </i>
    <i name="XCdc">    169.21145411 </i>
    <i name="pawpsdc">   6011.64111190 </i>
    <i name="pawaedc">  -6011.10197825 </i>
    <i name="eentropy">     -0.00598194 </i>
    <i name="bandstr">   -489.95434592 </i>
    <i name="atom">   1746.50554237 </i>
    <i name="e_fr_energy">   -124.05365052 </i>
    <i name="e_wo_entrp">   -124.04766859 </i>
    <i name="e_0_energy">   -124.05065956 </i>
   </energy>
  </scstep>
  <structure>
   <crystal>
    <varray name="basis" >
     <v>       4.27816549       2.47000000       0.00000000 </v>
     <v>      -4.27816549       2.47000000       0.00000000 </v>
     <v>       0.00000000       0.00000000      15.00000000 </v>
    </varray>
    <i name="volume">    317.01206316 </i>
    <varray name="rec_basis" >
     <v>       0.11687252       0.20242915       0.00000000 </v>
     <v>      -0.11687252       0.20242915       0.00000000 </v>
     <v>       0.00000000       0.00000000       0.06666667 </v>
    </varray>
   </crystal>
   <varray name="positions" >
    <v>       0.67161640       0.00000007       0.10002730 </v>
    <v>       0.32838267       0.00000007       0.10002730 </v>
    <v>      -0.00000007       0.32838260       0.10002730 </v>
    <v>      -0.00000007       0.67161633       0.10002730 </v>
    <v>       0.32838267       0.32838260       0.10002730 </v>
    <v>       0.67161640       0.67161633       0.10002730 </v>
    <v>       0.66666600       0.33333300       0.09923368 </v>
    <v>       0.33333300       0.66666600       0.10082571 </v>
    <v>       0.16666362       0.33332823       0.46770542 </v>
    <v>       0.33332835       0.16666368       0.46770544 </v>
    <v>       0.16666362       0.83333538       0.46770542 </v>
    <v>       0.33333300       0.66666600       0.46770540 </v>
    <v>       0.66666600       0.33333300       0.46770549 </v>
    <v>       0.83333532       0.16666368       0.46770544 </v>
    <v>       0.66667077       0.83333538       0.46770542 </v>
    <v>       0.83333532       0.66667065       0.46770544 </v>
   </varray>
  </structure>
  <varray name="forces" >
   <v>      -0.26071277      -0.15053772       0.00858606 </v>
   <v>       0.26072587       0.15051502       0.00858606 </v>
   <v>      -0.26071277       0.15053772       0.00858606 </v>
   <v>       0.26072587      -0.15051502       0.00858606 </v>
   <v>      -0.00001310       0.30105274       0.00858606 </v>
   <v>      -0.00001310      -0.30105274       0.00858606 </v>
   <v>      -0.00000000       0.00000000       0.00681482 </v>
   <v>      -0.00000000       0.00000000       0.01106561 </v>
   <v>      -0.00059032       0.00102247      -0.00868073 </v>
   <v>       0.00057522       0.00099631      -0.00867520 </v>
   <v>       0.00118065       0.00000000      -0.00868073 </v>
   <v>      -0.00000000       0.00000000      -0.00867123 </v>
   <v>      -0.00000000       0.00000000      -0.00865775 </v>
   <v>      -0.00115044       0.00000000      -0.00867520 </v>
   <v>      -0.00059032      -0.00102247      -0.00868073 </v>
   <v>       0.00057522      -0.00099631      -0.00867520 </v>
  </varray>
  <varray name="stress" >
   <v>      39.07085277       0.00000000      -0.00000000 </v>
   <v>       0.00000000      39.07085277       0.00000000 </v>
   <v>      -0.00000000       0.00000000      -3.72137493 </v>
  </varray>
  <energy>
   <i name="e_fr_energy">   -125.56226079 </i>
   <i name="e_wo_entrp">   -125.55627886 </i>
   <i name="e_0_energy">   -125.55926983 </i>
  </energy>
  <time name="totalsc">   23.14   23.44</time>
 </calculation>
 <calculation>
  <scstep>
   <time name="dav">    1.42    1.43</time>
   <time name="total">    1.55    1.57</time>
   <energy>
    <i name="alphaZ">     61.42931329 </i>
    <i name="ewald">   1948.37558354 </i>
    <i name="hartreedc">  -3559.56662869 </i>
    <i name="XCdc">    169.23990127 </i>
    <i name="pawpsdc">   6011.64190289 </i>
    <i name="pawaedc">  -6011.10277067 </i>
    <i name="eentropy">     -0.00590139 </i>
    <i name="bandstr">   -490.57990815 </i>
    <i name="atom">   1746.50554237 </i>
    <i name="e_fr_energy">   -124.06296554 </i>
    <i name="e_wo_entrp">   -124.05706415 </i>
    <i name="e_0_energy">   -124.06001485 </i>
   </energy>
  </scstep>
  <scstep>
   <time name="dav">    2.14    2.16</time>
   <time name="total">    2.27    2.29</time>
   <energy>
    <i name="e_fr_energy">   -124.06057208 </i>
    <i name="e_wo_entrp">   -124.05460388 </i>
    <i name="e_0_energy">   -124.05758798 </i>
   </energy>
  </scstep>
  <scstep>
   <time name="dav">    2.44    2.46</time>
   <time name="total">    2.57    2.60</time>
   <energy>
    <i name="e_fr_energy">   -124.06020413 </i>
    <i name="e_wo_entrp">   -124.05419675 </i>
    <i name="e_0_energy">   -124.05720044 </i>
   </energy>
  </scstep>
  <scstep>
   <time name="dav">    2.26    2.27</time>
   <time name="total">    2.38    2.41</time>
   <energy>
    <i name="e_fr_energy">   -124.06019066 </i>
    <i name="e_wo_entrp">   -124.05417800 </i>
    <i name="e_0_energy">   -124.05718433 </i>
   </energy>
  </scstep>
  <scstep>
   <time name="dav">    2.50    2.52</time>
   <time name="total">    2.54    2.56</time>
   <energy>
    <i name="alphaZ">     61.42931329 </i>
    <i name="ewald">   1948.37558354 </i>
    <i name="hartreedc">  -3560.06533391 </i>
    <i name="XCdc">    169.24935406 </i>
    <i name="pawpsdc">   6025.52938932 </i>
    <i name="pawaedc">  -6024.99427705 </i>
    <i name="eentropy">     -0.00601172 </i>
    <i name="bandstr">   -490.08375059 </i>
    <i name="atom">   1746.50554237 </i>
    <i name="e_fr_energy">   -124.06019070 </i>
    <i name="e_wo_entrp">   -124.05417898 </i>
    <i name="e_0_energy">   -124.05718484 </i>
   </energy>
  </scstep>
  <structure>
   <crystal>
    <varray name="basis" >
     <v>       4.27816549       2.47000000       0.00000000 </v>
     <v>      -4.27816549       2.47000000       0.00000000 </v>
     <v>       0.00000000       0.00000000      15.00000000 </v>
    </varray>
    <i name="volume">    317.01206316 </i>
    <varray name="rec_basis" >
     <v>       0.11687252       0.20242915       0.00000000 </v>
     <v>      -0.11687252       0.20242915       0.00000000 </v>
     <v>       0.00000000       0.00000000       0.06666667 </v>
    </varray>
   </crystal>
   <varray name="positions" >
    <v>       0.67019155       0.00000003       0.10001305 </v>
    <v>       0.32980748       0.00000003       0.10001305 </v>
    <v>      -0.00000003       0.32980745       0.10001305 </v>
    <v>      -0.00000003       0.67019152       0.10001305 </v>
    <v>       0.32980748       0.32980745       0.10001305 </v>
    <v>       0.67019155       0.67019152       0.10001305 </v>
    <v>       0.66666600       0.33333300       0.09922752 </v>
    <v>       0.33333300       0.66666600       0.10080086 </v>
    <v>       0.16666486       0.33333072       0.46771999 </v>
    <v>       0.33333078       0.16666489       0.46772000 </v>
    <v>       0.16666486       0.83333414       0.46771999 </v>
    <v>       0.33333300       0.66666600       0.46771998 </v>
    <v>       0.66666600       0.33333300       0.46772002 </v>
    <v>       0.83333411       0.16666489       0.46772000 </v>
    <v>       0.66666828       0.83333414       0.46771999 </v>
    <v>       0.83333411       0.66666822       0.46772000 </v>
   </varray>
  </structure>
  <varray name="forces" >
   <v>       0.00084565       0.00048334       0.00853453 </v>
   <v>      -0.00084141      -0.00049068       0.00853453 </v>
   <v>       0.00084565      -0.00048334       0.00853453 </v>
   <v>      -0.00084141       0.00049068       0.00853453 </v>
   <v>      -0.00000424      -0.00097402       0.00853453 </v>
   <v>      -0.00000424       0.00097402       0.00853453 </v>
   <v>       0.00000000       0.00000000       0.00513896 </v>
   <v>       0.00000000       0.00000000       0.01297991 </v>
   <v>      -0.00017081       0.00029585      -0.00867094 </v>
   <v>       0.00016643       0.00028827      -0.00866456 </v>
   <v>       0.00034162       0.00000000      -0.00867094 </v>
   <v>      -0.00000000       0.00000000      -0.00866999 </v>
   <v>       0.00000000       0.00000000      -0.00864956 </v>
   <v>      -0.00033286       0.00000000      -0.00866456 </v>
   <v>      -0.00017081      -0.00029585      -0.00867094 </v>
   <v>       0.00016643      -0.00028827      -0.00866456 </v>
  </varray>
  <varray name="stress" >
   <v>      40.16306702       0.00000000      -0.00000000 </v>
   <v>       0.00000000      40.16306702       0.00000000 </v>
   <v>       0.00000000       0.00000000      -3.70880279 </v>
  </varray>
  <energy>
   <i name="e_fr_energy">   -125.56861940 </i>
   <i name="e_wo_entrp">   -125.56260768 </i>
   <i name="e_0_energy">   -125.56561354 </i>
  </energy>
  <time name="totalsc">   12.74   12.89</time>
 </calculation>
 <calculation>
  <scstep>
   <time name="dav">    1.63    1.64</time>
   <time name="total">    1.76    1.78</time>
   <energy>
    <i name="alphaZ">     61.42931329 </i>
    <i name="ewald">   1948.36988553 </i>
    <i name="hartreedc">  -3560.06625975 </i>
    <i name="XCdc">    169.24904984 </i>
    <i name="pawpsdc">   6025.65417861 </i>
    <i name="pawaedc">  -6025.11906203 </i>
    <i name="eentropy">     -0.00601175 </i>
    <i name="bandstr">   -490.07682593 </i>
    <i name="atom">   1746.50554237 </i>
    <i name="e_fr_energy">   -124.06018983 </i>
    <i name="e_wo_entrp">   -124.05417807 </i>
    <i name="e_0_energy">   -124.05718395 </i>
   </energy>
  </scstep>
  <scstep>
   <time name="dav">    1.93    1.95</time>
   <time name="total">    1.97    1.98</time>
   <energy>
    <i name="alphaZ">     61.42931329 </i>
    <i name="ewald">   1948.36988553 </i>
    <i name="hartreedc">  -3560.06845578 </i>
    <i name="XCdc">    169.24907327 </i>
    <i name="pawpsdc">   6025.60442007 </i>
    <i name="pawaedc">  -6025.06929885 </i>
    <i name="eentropy">     -0.00601206 </i>
    <i name="bandstr">   -490.07465790 </i>
    <i name="atom">   1746.50554237 </i>
    <i name="e_fr_energy">   -124.06019007 </i>
    <i name="e_wo_entrp">   -124.05417801 </i>
    <i name="e_0_energy">   -124.05718404 </i>
   </energy>
  </scstep>
  <structure>
   <crystal>
    <varray name="basis" >
     <v>       4.27816549       2.47000000       0.00000000 </v>
     <v>      -4.27816549       2.47000000       0.00000000 </v>
     <v>       0.00000000       0.00000000      15.00000000 </v>
    </varray>
    <i name="volume">    317.01206316 </i>
    <varray name="rec_basis" >
     <v>       0.11687252       0.20242915       0.00000000 </v>
     <v>      -0.11687252       0.20242915       0.00000000 </v>
     <v>       0.00000000       0.00000000       0.06666667 </v>
    </varray>
   </crystal>
   <varray name="positions" >
    <v>       0.67019965       0.00000003       0.10001313 </v>
    <v>       0.32979938       0.00000003       0.10001313 </v>
    <v>      -0.00000003       0.32979935       0.10001313 </v>
    <v>      -0.00000003       0.67019962       0.10001313 </v>
    <v>       0.32979938       0.32979935       0.10001313 </v>
    <v>       0.67019965       0.67019962       0.10001313 </v>
    <v>       0.66666600       0.33333300       0.09922756 </v>
    <v>       0.33333300       0.66666600       0.10080101 </v>
    <v>       0.16666485       0.33333071       0.46771991 </v>
    <v>       0.33333076       0.16666488       0.46771992 </v>
    <v>       0.16666485       0.83333415       0.46771991 </v>
    <v>       0.33333300       0.66666600       0.46771990 </v>
    <v>       0.66666600       0.33333300       0.46771994 </v>
    <v>       0.83333412       0.16666488       0.46771992 </v>
    <v>       0.66666829       0.83333415       0.46771991 </v>
    <v>       0.83333412       0.66666824       0.46771992 </v>
   </varray>
  </structure>
  <varray name="forces" >
   <v>      -0.00174573      -0.00101144       0.00852782 </v>
   <v>       0.00174880       0.00100613       0.00852782 </v>
   <v>      -0.00174573       0.00101144       0.00852782 </v>
   <v>       0.00174880      -0.00100613       0.00852782 </v>
   <v>      -0.00000306       0.00201757       0.00852782 </v>
   <v>      -0.00000306      -0.00201757       0.00852782 </v>
   <v>       0.00000000       0.00000000       0.00516278 </v>
   <v>       0.00000000       0.00000000       0.01295837 </v>
   <v>      -0.00017439       0.00030206      -0.00866645 </v>
   <v>       0.00016986       0.00029420      -0.00866021 </v>
   <v>       0.00034879       0.00000000      -0.00866645 </v>
   <v>       0.00000000       0.00000000      -0.00866410 </v>
   <v>       0.00000000       0.00000000      -0.00864399 </v>
   <v>      -0.00033972       0.00000000      -0.00866021 </v>
   <v>      -0.00017439      -0.00030206      -0.00866645 </v>
   <v>       0.00016986      -0.00029420      -0.00866021 </v>
  </varray>
  <varray name="stress" >
   <v>      40.16421004       0.00000000      -0.00000000 </v>
   <v>       0.00000000      40.16421004       0.00000000 </v>
   <v>      -0.00000000       0.00000000      -3.71157404 </v>
  </varray>
  <energy>
   <i name="e_fr_energy">   -125.56861982 </i>
   <i name="e_wo_entrp">   -125.56260776 </i>
   <i name="e_0_energy">   -125.56561379 </i>
  </energy>
  <time name="totalsc">    5.17    5.23</time>
 </calculation>
 <calculation>
  <scstep>
   <time name="dav">    1.57    1.58</time>
   <time name="total">    1.69    1.71</time>
   <energy>
    <i name="alphaZ">     61.42931329 </i>
    <i name="ewald">   1948.37231337 </i>
    <i name="hartreedc">  -3560.07233437 </i>
    <i name="XCdc">    169.24918109 </i>
    <i name="pawpsdc">   6025.56658287 </i>
    <i name="pawaedc">  -6025.03145714 </i>
    <i name="eentropy">     -0.00601196 </i>
    <i name="bandstr">   -490.07332055 </i>
    <i name="atom">   1746.50554237 </i>
    <i name="e_fr_energy">   -124.06019104 </i>
    <i name="e_wo_entrp">   -124.05417907 </i>
    <i name="e_0_energy">   -124.05718506 </i>
   </energy>
  </scstep>
  <scstep>
   <time name="dav">    2.14    2.15</time>
   <time name="total">    2.17    2.19</time>
   <energy>
    <i name="alphaZ">     61.42931329 </i>
    <i name="ewald">   1948.37231337 </i>
    <i name="hartreedc">  -3560.07506642 </i>
    <i name="XCdc">    169.24922606 </i>
    <i name="pawpsdc">   6025.56928410 </i>
    <i name="pawaedc">  -6025.03416209 </i>
    <i name="eentropy">     -0.00601207 </i>
    <i name="bandstr">   -490.07062985 </i>
    <i name="atom">   1746.50554237 </i>
    <i name="e_fr_energy">   -124.06019125 </i>
    <i name="e_wo_entrp">   -124.05417919 </i>
    <i name="e_0_energy">   -124.05718522 </i>
   </energy>
  </scstep>
  <structure>
   <crystal>
    <varray name="basis" >
     <v>       4.27816549       2.47000000       0.00000000 </v>
     <v>      -4.27816549       2.47000000       0.00000000 </v>
     <v>       0.00000000       0.00000000      15.00000000 </v>
    </varray>
    <i name="volume">    317.01206316 </i>
    <varray name="rec_basis" >
     <v>       0.11687252       0.20242915       0.00000000 </v>
     <v>      -0.11687252       0.20242915       0.00000000 </v>
     <v>       0.00000000       0.00000000       0.06666667 </v>
    </varray>
   </crystal>
   <varray name="positions" >
    <v>       0.67019620       0.00000003       0.10001310 </v>
    <v>       0.32980283       0.00000003       0.10001310 </v>
    <v>      -0.00000003       0.32980280       0.10001310 </v>
    <v>      -0.00000003       0.67019617       0.10001310 </v>
    <v>       0.32980283       0.32980280       0.10001310 </v>
    <v>       0.67019620       0.67019617       0.10001310 </v>
    <v>       0.66666600       0.33333300       0.09922754 </v>
    <v>       0.33333300       0.66666600       0.10080095 </v>
    <v>       0.16666486       0.33333071       0.46771994 </v>
    <v>       0.33333077       0.16666489       0.46771995 </v>
    <v>       0.16666486       0.83333414       0.46771994 </v>
    <v>       0.33333300       0.66666600       0.46771994 </v>
    <v>       0.66666600       0.33333300       0.46771998 </v>
    <v>       0.83333411       0.16666489       0.46771995 </v>
    <v>       0.66666829       0.83333414       0.46771994 </v>
    <v>       0.83333411       0.66666823       0.46771995 </v>
   </varray>
  </structure>
  <varray name="forces" >
   <v>      -0.00147667      -0.00085606       0.00852647 </v>
   <v>       0.00147970       0.00085081       0.00852647 </v>
   <v>      -0.00147667       0.00085606       0.00852647 </v>
   <v>       0.00147970      -0.00085081       0.00852647 </v>
   <v>      -0.00000303       0.00170686       0.00852647 </v>
   <v>      -0.00000303      -0.00170686       0.00852647 </v>
   <v>      -0.00000000       0.00000000       0.00517256 </v>
   <v>      -0.00000000       0.00000000       0.01296681 </v>
   <v>      -0.00017326       0.00030009      -0.00866761 </v>
   <v>       0.00016875       0.00029229      -0.00866136 </v>
   <v>       0.00034651       0.00000000      -0.00866761 </v>
   <v>      -0.00000000       0.00000000      -0.00866571 </v>
   <v>      -0.00000000      -0.00000000      -0.00864560 </v>
   <v>      -0.00033751       0.00000000      -0.00866136 </v>
   <v>      -0.00017326      -0.00030009      -0.00866761 </v>
   <v>       0.00016875      -0.00029229      -0.00866136 </v>
  </varray>
  <varray name="stress" >
   <v>      40.16731038       0.00000000      -0.00000000 </v>
   <v>       0.00000000      40.16731038       0.00000000 </v>
   <v>      -0.00000000       0.00000000      -3.71024422 </v>
  </varray>
  <energy>
   <i name="e_fr_energy">   -125.56862056 </i>
   <i name="e_wo_entrp">   -125.56260849 </i>
   <i name="e_0_energy">   -125.56561452 </i>
  </energy>
  <time name="totalsc">    5.30    5.37</time>
 </calculation>
 <calculation>
  <scstep>
   <time name="dav">    1.56    1.58</time>
   <time name="total">    1.69    1.71</time>
   <energy>
    <i name="alphaZ">     61.42931329 </i>
    <i name="ewald">   1948.37394836 </i>
    <i name="hartreedc">  -3560.07819332 </i>
    <i name="XCdc">    169.24930793 </i>
    <i name="pawpsdc">   6025.56725411 </i>
    <i name="pawaedc">  -6025.03213389 </i>
    <i name="eentropy">     -0.00601207 </i>
    <i name="bandstr">   -490.06921859 </i>
    <i name="atom">   1746.50554237 </i>
    <i name="e_fr_energy">   -124.06019182 </i>
    <i name="e_wo_entrp">   -124.05417975 </i>
    <i name="e_0_energy">   -124.05718578 </i>
   </energy>
  </scstep>
  <scstep>
   <time name="dav">    2.19    2.20</time>
   <time name="total">    2.22    2.24</time>
   <energy>
    <i name="alphaZ">     61.42931329 </i>
    <i name="ewald">   1948.37394836 </i>
    <i name="hartreedc">  -3560.08014149 </i>
    <i name="XCdc">    169.24933726 </i>
    <i name="pawpsdc">   6025.57685505 </i>
    <i name="pawaedc">  -6025.04173823 </i>
    <i name="eentropy">     -0.00601217 </i>
    <i name="bandstr">   -490.06729639 </i>
    <i name="atom">   1746.50554237 </i>
    <i name="e_fr_energy">   -124.06019195 </i>
    <i name="e_wo_entrp">   -124.05417978 </i>
    <i name="e_0_energy">   -124.05718586 </i>
   </energy>
  </scstep>
  <structure>
   <crystal>
    <varray name="basis" >
     <v>       4.27816549       2.47000000       0.00000000 </v>
     <v>      -4.27816549       2.47000000       0.00000000 </v>
     <v>       0.00000000       0.00000000      15.00000000 </v>
    </varray>
    <i name="volume">    317.01206316 </i>
    <varray name="rec_basis" >
     <v>       0.11687252       0.20242915       0.00000000 </v>
     <v>      -0.11687252       0.20242915       0.00000000 </v>
     <v>       0.00000000       0.00000000       0.06666667 </v>
    </varray>
   </crystal>
   <varray name="positions" >
    <v>       0.67019388       0.00000003       0.10001307 </v>
    <v>       0.32980516       0.00000003       0.10001307 </v>
    <v>      -0.00000003       0.32980512       0.10001307 </v>
    <v>      -0.00000003       0.67019384       0.10001307 </v>
    <v>       0.32980516       0.32980512       0.10001307 </v>
    <v>       0.67019388       0.67019384       0.10001307 </v>
    <v>       0.66666600       0.33333300       0.09922753 </v>
    <v>       0.33333300       0.66666600       0.10080090 </v>
    <v>       0.16666486       0.33333072       0.46771997 </v>
    <v>       0.33333077       0.16666489       0.46771998 </v>
    <v>       0.16666486       0.83333414       0.46771997 </v>
    <v>       0.33333300       0.66666600       0.46771996 </v>
    <v>       0.66666600       0.33333300       0.46772000 </v>
    <v>       0.83333411       0.16666489       0.46771998 </v>
    <v>       0.66666828       0.83333414       0.46771997 </v>
    <v>       0.83333411       0.66666823       0.46771998 </v>
   </varray>
  </structure>
  <varray name="forces" >
   <v>      -0.00103538      -0.00060129       0.00852790 </v>
   <v>       0.00103842       0.00059602       0.00852790 </v>
   <v>      -0.00103538       0.00060129       0.00852790 </v>
   <v>       0.00103842      -0.00059602       0.00852790 </v>
   <v>      -0.00000304       0.00119731       0.00852790 </v>
   <v>      -0.00000304      -0.00119731       0.00852790 </v>
   <v>      -0.00000000       0.00000000       0.00517433 </v>
   <v>      -0.00000000       0.00000000       0.01297554 </v>
   <v>      -0.00017256       0.00029889      -0.00866995 </v>
   <v>       0.00016806       0.00029109      -0.00866373 </v>
   <v>       0.00034512       0.00000000      -0.00866995 </v>
   <v>       0.00000000       0.00000000      -0.00866817 </v>
   <v>      -0.00000000       0.00000000      -0.00864808 </v>
   <v>      -0.00033612       0.00000000      -0.00866373 </v>
   <v>      -0.00017256      -0.00029889      -0.00866995 </v>
   <v>       0.00016806      -0.00029109      -0.00866373 </v>
  </varray>
  <varray name="stress" >
   <v>      40.16936597       0.00000000      -0.00000000 </v>
   <v>       0.00000000      40.16936597       0.00000000 </v>
   <v>       0.00000000       0.00000000      -3.71337629 </v>
  </varray>
  <energy>
   <i name="e_fr_energy">   -125.56862095 </i>
   <i name="e_wo_entrp">   -125.56260878 </i>
   <i name="e_0_energy">   -125.56561486 </i>
  </energy>
  <time name="totalsc">    5.36    5.43</time>
 </calculation>
 <calculation>
  <scstep>
   <time name="dav">    1.57    1.58</time>
   <time name="total">    1.70    1.72</time>
   <energy>
    <i name="alphaZ">     61.42931329 </i>
    <i name="ewald">   1948.37476593 </i>
    <i name="hartreedc">  -3560.08250882 </i>
    <i name="XCdc">    169.24938643 </i>
    <i name="pawpsdc">   6025.58289370 </i>
    <i name="pawaedc">  -6025.04777872 </i>
    <i name="eentropy">     -0.00601221 </i>
    <i name="bandstr">   -490.06579421 </i>
    <i name="atom">   1746.50554237 </i>
    <i name="e_fr_energy">   -124.06019225 </i>
    <i name="e_wo_entrp">   -124.05418004 </i>
    <i name="e_0_energy">   -124.05718615 </i>
   </energy>
  </scstep>
  <scstep>
   <time name="dav">    2.26    2.27</time>
   <time name="total">    2.29    2.31</time>
   <energy>
    <i name="alphaZ">     61.42931329 </i>
    <i name="ewald">   1948.37476593 </i>
    <i name="hartreedc">  -3560.08371521 </i>
    <i name="XCdc">    169.24940225 </i>
    <i name="pawpsdc">   6025.58954264 </i>
    <i name="pawaedc">  -6025.05442929 </i>
    <i name="eentropy">     -0.00601226 </i>
    <i name="bandstr">   -490.06460203 </i>
    <i name="atom">   1746.50554237 </i>
    <i name="e_fr_energy">   -124.06019232 </i>
    <i name="e_wo_entrp">   -124.05418006 </i>
    <i name="e_0_energy">   -124.05718619 </i>
   </energy>
  </scstep>
  <structure>
   <crystal>
    <varray name="basis" >
     <v>       4.27816549       2.47000000       0.00000000 </v>
     <v>      -4.27816549       2.47000000       0.00000000 </v>
     <v>       0.00000000       0.00000000      15.00000000 </v>
    </varray>
    <i name="volume">    317.01206316 </i>
    <varray name="rec_basis" >
     <v>       0.11687252       0.20242915       0.00000000 </v>
     <v>      -0.11687252       0.20242915       0.00000000 </v>
     <v>       0.00000000       0.00000000       0.06666667 </v>
    </varray>
   </crystal>
   <varray name="positions" >
    <v>       0.67019271       0.00000003       0.10001306 </v>
    <v>       0.32980632       0.00000003       0.10001306 </v>
    <v>      -0.00000003       0.32980629       0.10001306 </v>
    <v>      -0.00000003       0.67019268       0.10001306 </v>
    <v>       0.32980632       0.32980629       0.10001306 </v>
    <v>       0.67019271       0.67019268       0.10001306 </v>
    <v>       0.66666600       0.33333300       0.09922753 </v>
    <v>       0.33333300       0.66666600       0.10080088 </v>
    <v>       0.16666486       0.33333072       0.46771998 </v>
    <v>       0.33333078       0.16666489       0.46771999 </v>
    <v>       0.16666486       0.83333414       0.46771998 </v>
    <v>       0.33333300       0.66666600       0.46771997 </v>
    <v>       0.66666600       0.33333300       0.46772001 </v>
    <v>       0.83333411       0.16666489       0.46771999 </v>
    <v>       0.66666828       0.83333414       0.46771998 </v>
    <v>       0.83333411       0.66666822       0.46771999 </v>
   </varray>
  </structure>
  <varray name="forces" >
   <v>      -0.00077956      -0.00045360       0.00852963 </v>
   <v>       0.00078261       0.00044832       0.00852963 </v>
   <v>      -0.00077956       0.00045360       0.00852963 </v>
   <v>       0.00078261      -0.00044832       0.00852963 </v>
   <v>      -0.00000305       0.00090192       0.00852963 </v>
   <v>      -0.00000305      -0.00090192       0.00852963 </v>
   <v>      -0.00000000       0.00000000       0.00517676 </v>
   <v>      -0.00000000       0.00000000       0.01298154 </v>
   <v>      -0.00017221       0.00029828      -0.00867227 </v>
   <v>       0.00016772       0.00029050      -0.00866606 </v>
   <v>       0.00034443       0.00000000      -0.00867227 </v>
   <v>       0.00000000      -0.00000000      -0.00867058 </v>
   <v>       0.00000000       0.00000000      -0.00865049 </v>
   <v>      -0.00033544      -0.00000000      -0.00866606 </v>
   <v>      -0.00017221      -0.00029828      -0.00867227 </v>
   <v>       0.00016772      -0.00029050      -0.00866606 </v>
  </varray>
  <varray name="stress" >
   <v>      40.17050170       0.00000000      -0.00000000 </v>
   <v>       0.00000000      40.17050170       0.00000000 </v>
   <v>       0.00000000       0.00000000      -3.71608386 </v>
  </varray>
  <energy>
   <i name="e_fr_energy">   -125.56862117 </i>
   <i name="e_wo_entrp">   -125.56260891 </i>
   <i name="e_0_energy">   -125.56561504 </i>
  </energy>
  <time name="totalsc">    5.43    5.49</time>
 </calculation>
 <calculation>
  <scstep>
   <time name="dav">    1.59    1.60</time>
   <time name="total">    1.72    1.74</time>
   <energy>
    <i name="alphaZ">     61.42931329 </i>
    <i name="ewald">   1948.37512785 </i>
    <i name="hartreedc">  -3560.08505929 </i>
    <i name="XCdc">    169.24942611 </i>
    <i name="pawpsdc">   6025.59374470 </i>
    <i name="pawaedc">  -6025.05863212 </i>
    <i name="eentropy">     -0.00601227 </i>
    <i name="bandstr">   -490.06364308 </i>
    <i name="atom">   1746.50554237 </i>
    <i name="e_fr_energy">   -124.06019245 </i>
    <i name="e_wo_entrp">   -124.05418018 </i>
    <i name="e_0_energy">   -124.05718632 </i>
   </energy>
  </scstep>
  <scstep>
   <time name="dav">    2.21    2.22</time>
   <time name="total">    2.24    2.26</time>
   <energy>
    <i name="alphaZ">     61.42931329 </i>
    <i name="ewald">   1948.37512785 </i>
    <i name="hartreedc">  -3560.08584669 </i>
    <i name="XCdc">    169.24943551 </i>
    <i name="pawpsdc">   6025.59733040 </i>
    <i name="pawaedc">  -6025.06221858 </i>
    <i name="eentropy">     -0.00601230 </i>
    <i name="bandstr">   -490.06286433 </i>
    <i name="atom">   1746.50554237 </i>
    <i name="e_fr_energy">   -124.06019249 </i>
    <i name="e_wo_entrp">   -124.05418019 </i>
    <i name="e_0_energy">   -124.05718634 </i>
   </energy>
  </scstep>
  <structure>
   <crystal>
    <varray name="basis" >
     <v>       4.27816549       2.47000000       0.00000000 </v>
     <v>      -4.27816549       2.47000000       0.00000000 </v>
     <v>       0.00000000       0.00000000      15.00000000 </v>
    </varray>
    <i name="volume">    317.01206316 </i>
    <varray name="rec_basis" >
     <v>       0.11687252       0.20242915       0.00000000 </v>
     <v>      -0.11687252       0.20242915       0.00000000 </v>
     <v>       0.00000000       0.00000000       0.06666667 </v>
    </varray>
   </crystal>
   <varray name="positions" >
    <v>       0.67019220       0.00000003       0.10001306 </v>
    <v>       0.32980683       0.00000003       0.10001306 </v>
    <v>      -0.00000003       0.32980680       0.10001306 </v>
    <v>      -0.00000003       0.67019217       0.10001306 </v>
    <v>       0.32980683       0.32980680       0.10001306 </v>
    <v>       0.67019220       0.67019217       0.10001306 </v>
    <v>       0.66666600       0.33333300       0.09922753 </v>
    <v>       0.33333300       0.66666600       0.10080088 </v>
    <v>       0.16666486       0.33333072       0.46771999 </v>
    <v>       0.33333078       0.16666489       0.46772000 </v>
    <v>       0.16666486       0.83333414       0.46771999 </v>
    <v>       0.33333300       0.66666600       0.46771998 </v>
    <v>       0.66666600       0.33333300       0.46772002 </v>
    <v>       0.83333411       0.16666489       0.46772000 </v>
    <v>       0.66666828       0.83333414       0.46771999 </v>
    <v>       0.83333411       0.66666822       0.46772000 </v>
   </varray>
  </structure>
  <varray name="forces" >
   <v>      -0.00066238      -0.00038595       0.00853077 </v>
   <v>       0.00066544       0.00038066       0.00853077 </v>
   <v>      -0.00066238       0.00038595       0.00853077 </v>
   <v>       0.00066544      -0.00038066       0.00853077 </v>
   <v>      -0.00000305       0.00076662       0.00853077 </v>
   <v>      -0.00000305      -0.00076662       0.00853077 </v>
   <v>       0.00000000       0.00000000       0.00517862 </v>
   <v>      -0.00000000       0.00000000       0.01298502 </v>
   <v>      -0.00017205       0.00029800      -0.00867380 </v>
   <v>       0.00016756       0.00029023      -0.00866758 </v>
   <v>       0.00034410       0.00000000      -0.00867380 </v>
   <v>      -0.00000000       0.00000000      -0.00867212 </v>
   <v>      -0.00000000       0.00000000      -0.00865203 </v>
   <v>      -0.00033513      -0.00000000      -0.00866758 </v>
   <v>      -0.00017205      -0.00029800      -0.00867380 </v>
   <v>       0.00016756      -0.00029023      -0.00866758 </v>
  </varray>
  <varray name="stress" >
   <v>      40.17106158       0.00000000       0.00000000 </v>
   <v>       0.00000000      40.17106158       0.00000000 </v>
   <v>      -0.00000000       0.00000000      -3.71761495 </v>
  </varray>
  <energy>
   <i name="e_fr_energy">   -125.56862127 </i>
   <i name="e_wo_entrp">   -125.56260897 </i>
   <i name="e_0_energy">   -125.56561512 </i>
  </energy>
  <time name="totalsc">    5.40    5.46</time>
 </calculation>
 <calculation>
  <scstep>
   <time name="dav">    1.42    1.43</time>
   <time name="total">    1.54    1.57</time>
   <energy>
    <i name="alphaZ">     61.42931329 </i>
    <i name="ewald">   1949.02790580 </i>
    <i name="hartreedc">  -3560.73955905 </i>
    <i name="XCdc">    169.24943383 </i>
    <i name="pawpsdc">   6025.59952098 </i>
    <i name="pawaedc">  -6025.06440947 </i>
    <i name="eentropy">     -0.00601240 </i>
    <i name="bandstr">   -490.06193852 </i>
    <i name="atom">   1746.50554237 </i>
    <i name="e_fr_energy">   -124.06020317 </i>
    <i name="e_wo_entrp">   -124.05419078 </i>
    <i name="e_0_energy">   -124.05719698 </i>
   </energy>
  </scstep>
  <scstep>
   <time name="dav">    1.43    1.45</time>
   <time name="total">    1.56    1.58</time>
   <energy>
    <i name="e_fr_energy">   -124.06020157 </i>
    <i name="e_wo_entrp">   -124.05418898 </i>
    <i name="e_0_energy">   -124.05719527 </i>
   </energy>
  </scstep>
  <scstep>
   <time name="dav">    1.74    1.75</time>
   <time name="total">    1.77    1.78</time>
   <energy>
    <i name="alphaZ">     61.42931329 </i>
    <i name="ewald">   1949.02790580 </i>
    <i name="hartreedc">  -3560.74918190 </i>
    <i name="XCdc">    169.24946313 </i>
    <i name="pawpsdc">   6025.59641630 </i>
    <i name="pawaedc">  -6025.06130161 </i>
    <i name="eentropy">     -0.00601244 </i>
    <i name="bandstr">   -490.05234583 </i>
    <i name="atom">   1746.50554237 </i>
    <i name="e_fr_energy">   -124.06020090 </i>
    <i name="e_wo_entrp">   -124.05418846 </i>
    <i name="e_0_energy">   -124.05719468 </i>
   </energy>
  </scstep>
  <structure>
   <crystal>
    <varray name="basis" >
     <v>       4.27816549       2.47000000       0.00000000 </v>
     <v>      -4.27816549       2.47000000       0.00000000 </v>
     <v>       0.00000000       0.00000000      15.00000000 </v>
    </varray>
    <i name="volume">    317.01206316 </i>
    <varray name="rec_basis" >
     <v>       0.11687252       0.20242915       0.00000000 </v>
     <v>      -0.11687252       0.20242915       0.00000000 </v>
     <v>       0.00000000       0.00000000       0.06666667 </v>
    </varray>
   </crystal>
   <varray name="positions" >
    <v>       0.67019212       0.00000000       0.10003769 </v>
    <v>       0.32980688       0.00000000       0.10003769 </v>
    <v>      -0.00000000       0.32980688       0.10003769 </v>
    <v>      -0.00000000       0.67019212       0.10003769 </v>
    <v>       0.32980688       0.32980688       0.10003769 </v>
    <v>       0.67019212       0.67019212       0.10003769 </v>
    <v>       0.66666600       0.33333300       0.09924247 </v>
    <v>       0.33333300       0.66666600       0.10083840 </v>
    <v>       0.16666659       0.33333418       0.46769493 </v>
    <v>       0.33333415       0.16666658       0.46769496 </v>
    <v>       0.16666659       0.83333241       0.46769493 </v>
    <v>       0.33333300       0.66666600       0.46769493 </v>
    <v>       0.66666600       0.33333300       0.46769503 </v>
    <v>       0.83333242       0.16666658       0.46769496 </v>
    <v>       0.66666482       0.83333241       0.46769493 </v>
    <v>       0.83333242       0.66666485       0.46769496 </v>
   </varray>
  </structure>
  <varray name="forces" >
   <v>      -0.00064286      -0.00037187       0.00821775 </v>
   <v>       0.00064347       0.00037080       0.00821775 </v>
   <v>      -0.00064286       0.00037187       0.00821775 </v>
   <v>       0.00064347      -0.00037080       0.00821775 </v>
   <v>      -0.00000062       0.00074266       0.00821775 </v>
   <v>      -0.00000062      -0.00074266       0.00821775 </v>
   <v>      -0.00000000      -0.00000000       0.00484563 </v>
   <v>      -0.00000000      -0.00000000       0.01278491 </v>
   <v>       0.00044170      -0.00076505      -0.00836956 </v>
   <v>      -0.00043073      -0.00074605      -0.00836530 </v>
   <v>      -0.00088341      -0.00000000      -0.00836956 </v>
   <v>      -0.00000000       0.00000000      -0.00837206 </v>
   <v>       0.00000000      -0.00000000      -0.00836038 </v>
   <v>       0.00086146      -0.00000000      -0.00836530 </v>
   <v>       0.00044170       0.00076505      -0.00836956 </v>
   <v>      -0.00043073       0.00074605      -0.00836530 </v>
  </varray>
  <varray name="stress" >
   <v>      40.17050965       0.00000000      -0.00000000 </v>
   <v>       0.00000000      40.17050965       0.00000000 </v>
   <v>      -0.00000000       0.00000000      -3.72240849 </v>
  </varray>
  <energy>
   <i name="e_fr_energy">   -125.56867684 </i>
   <i name="e_wo_entrp">   -125.56266440 </i>
   <i name="e_0_energy">   -125.56567062 </i>
  </energy>
  <time name="totalsc">    6.31    6.38</time>
 </calculation>
 <calculation>
  <scstep>
   <time name="dav">    1.43    1.44</time>
   <time name="total">    1.56    1.58</time>
   <energy>
    <i name="alphaZ">     61.42931329 </i>
    <i name="ewald">   1950.98766084 </i>
    <i name="hartreedc">  -3562.70724245 </i>
    <i name="XCdc">    169.24942963 </i>
    <i name="pawpsdc">   6025.59984555 </i>
    <i name="pawaedc">  -6025.06473042 </i>
    <i name="eentropy">     -0.00601264 </i>
    <i name="bandstr">   -490.05404594 </i>
    <i name="atom">   1746.50554237 </i>
    <i name="e_fr_energy">   -124.06023978 </i>
    <i name="e_wo_entrp">   -124.05422714 </i>
    <i name="e_0_energy">   -124.05723346 </i>
   </energy>
  </scstep>
  <scstep>
   <time name="dav">    1.62    1.64</time>
   <time name="total">    1.75    1.78</time>
   <energy>
    <i name="e_fr_energy">   -124.06022560 </i>
    <i name="e_wo_entrp">   -124.05421242 </i>
    <i name="e_0_energy">   -124.05721901 </i>
   </energy>
  </scstep>
  <scstep>
   <time name="dav">    1.92    1.94</time>
   <time name="total">    2.05    2.07</time>
   <energy>
    <i name="e_fr_energy">   -124.06021849 </i>
    <i name="e_wo_entrp">   -124.05420576 </i>
    <i name="e_0_energy">   -124.05721212 </i>
   </energy>
  </scstep>
  <scstep>
   <time name="dav">    1.51    1.53</time>
   <time name="total">    1.55    1.56</time>
   <energy>
    <i name="alphaZ">     61.42931329 </i>
    <i name="ewald">   1950.98766084 </i>
    <i name="hartreedc">  -3562.72352296 </i>
    <i name="XCdc">    169.24948108 </i>
    <i name="pawpsdc">   6025.59740422 </i>
    <i name="pawaedc">  -6025.06227973 </i>
    <i name="eentropy">     -0.00601259 </i>
    <i name="bandstr">   -490.03780542 </i>
    <i name="atom">   1746.50554237 </i>
    <i name="e_fr_energy">   -124.06021892 </i>
    <i name="e_wo_entrp">   -124.05420633 </i>
    <i name="e_0_energy">   -124.05721262 </i>
   </energy>
  </scstep>
  <structure>
   <crystal>
    <varray name="basis" >
     <v>       4.27816549       2.47000000       0.00000000 </v>
     <v>      -4.27816549       2.47000000       0.00000000 </v>
     <v>       0.00000000       0.00000000      15.00000000 </v>
    </varray>
    <i name="volume">    317.01206316 </i>
    <varray name="rec_basis" >
     <v>       0.11687252       0.20242915       0.00000000 </v>
     <v>      -0.11687252       0.20242915       0.00000000 </v>
     <v>       0.00000000       0.00000000       0.06666667 </v>
    </varray>
   </crystal>
   <varray name="positions" >
    <v>       0.67019188      -0.00000009       0.10011161 </v>
    <v>       0.32980703      -0.00000009       0.10011161 </v>
    <v>       0.00000009       0.32980712       0.10011161 </v>
    <v>       0.00000009       0.67019197       0.10011161 </v>
    <v>       0.32980703       0.32980712       0.10011161 </v>
    <v>       0.67019188       0.67019197       0.10011161 </v>
    <v>       0.66666600       0.33333300       0.09928731 </v>
    <v>       0.33333300       0.66666600       0.10095095 </v>
    <v>       0.16667179       0.33334457       0.46761977 </v>
    <v>       0.33334427       0.16667164       0.46761985 </v>
    <v>       0.16667179       0.83332721       0.46761977 </v>
    <v>       0.33333300       0.66666600       0.46761978 </v>
    <v>       0.66666600       0.33333300       0.46762005 </v>
    <v>       0.83332736       0.16667164       0.46761985 </v>
    <v>       0.66665443       0.83332721       0.46761977 </v>
    <v>       0.83332736       0.66665473       0.46761985 </v>
   </varray>
  </structure>
  <varray name="forces" >
   <v>      -0.00065185      -0.00036915       0.00855766 </v>
   <v>       0.00064561       0.00037994       0.00855766 </v>
   <v>      -0.00065185       0.00036915       0.00855766 </v>
   <v>       0.00064561      -0.00037994       0.00855766 </v>
   <v>       0.00000623       0.00074909       0.00855766 </v>
   <v>       0.00000623      -0.00074909       0.00855766 </v>
   <v>      -0.00000000      -0.00000000       0.00489531 </v>
   <v>      -0.00000000      -0.00000000       0.01320267 </v>
   <v>       0.00218903      -0.00379151      -0.00867629 </v>
   <v>      -0.00213232      -0.00369329      -0.00867831 </v>
   <v>      -0.00437806      -0.00000000      -0.00867629 </v>
   <v>      -0.00000000      -0.00000000      -0.00868274 </v>
   <v>      -0.00000000      -0.00000000      -0.00869741 </v>
   <v>       0.00426465      -0.00000000      -0.00867831 </v>
   <v>       0.00218903       0.00379151      -0.00867629 </v>
   <v>      -0.00213232       0.00369329      -0.00867831 </v>
  </varray>
  <varray name="stress" >
   <v>      40.16962708       0.00000000      -0.00000000 </v>
   <v>       0.00000000      40.16962708       0.00000000 </v>
   <v>       0.00000000       0.00000000      -3.72717420 </v>
  </varray>
  <energy>
   <i name="e_fr_energy">   -125.56883652 </i>
   <i name="e_wo_entrp">   -125.56282392 </i>
   <i name="e_0_energy">   -125.56583022 </i>
  </energy>
  <time name="totalsc">    8.35    8.46</time>
 </calculation>
 <calculation>
  <scstep>
   <time name="dav">    1.42    1.43</time>
   <time name="total">    1.55    1.57</time>
   <energy>
    <i name="alphaZ">     61.42931329 </i>
    <i name="ewald">   1954.91353823 </i>
    <i name="hartreedc">  -3566.64361602 </i>
    <i name="XCdc">    169.24941297 </i>
    <i name="pawpsdc">   6025.58518034 </i>
    <i name="pawaedc">  -6025.05005865 </i>
    <i name="eentropy">     -0.00601310 </i>
    <i name="bandstr">   -490.04363369 </i>
    <i name="atom">   1746.50554237 </i>
    <i name="e_fr_energy">   -124.06033426 </i>
    <i name="e_wo_entrp">   -124.05432115 </i>
    <i name="e_0_energy">   -124.05732770 </i>
   </energy>
  </scstep>
  <scstep>
   <time name="dav">    1.52    1.54</time>
   <time name="total">    1.64    1.67</time>
   <energy>
    <i name="e_fr_energy">   -124.06028061 </i>
    <i name="e_wo_entrp">   -124.05426646 </i>
    <i name="e_0_energy">   -124.05727354 </i>
   </energy>
  </scstep>
  <scstep>
   <time name="dav">    1.94    1.95</time>
   <time name="total">    2.06    2.09</time>
   <energy>
    <i name="e_fr_energy">   -124.06024965 </i>
    <i name="e_wo_entrp">   -124.05423639 </i>
    <i name="e_0_energy">   -124.05724302 </i>
   </energy>
  </scstep>
  <scstep>
   <time name="dav">    1.97    1.98</time>
   <time name="total">    2.09    2.11</time>
   <energy>
    <i name="e_fr_energy">   -124.06025096 </i>
    <i name="e_wo_entrp">   -124.05423796 </i>
    <i name="e_0_energy">   -124.05724446 </i>
   </energy>
  </scstep>
  <scstep>
   <time name="dav">    1.44    1.45</time>
   <time name="total">    1.47    1.48</time>
   <energy>
[...]
       <r>     2.7535     1.7772    31.4008 </r>
       <r>     2.8579     1.5086    31.5583 </r>
       <r>     2.9624     1.3470    31.6990 </r>
       <r>     3.0668     1.5554    31.8614 </r>
       <r>     3.1712     1.3270    32.0000 </r>
       <r>     3.2756     2.0469    32.2137 </r>
       <r>     3.3800     2.6169    32.4869 </r>
       <r>     3.4844     1.9515    32.6907 </r>
       <r>     3.5889     1.6244    32.8603 </r>
       <r>     3.6933     1.9933    33.0684 </r>
       <r>     3.7977     2.5094    33.3304 </r>
       <r>     3.9021     3.1658    33.6610 </r>
       <r>     4.0065     2.9551    33.9696 </r>
       <r>     4.1109     2.2376    34.2032 </r>
       <r>     4.2153     1.8449    34.3958 </r>
       <r>     4.3198     2.2965    34.6356 </r>
       <r>     4.4242     2.9649    34.9452 </r>
       <r>     4.5286     3.1843    35.2777 </r>
       <r>     4.6330     2.5629    35.5453 </r>
       <r>     4.7374     3.3613    35.8963 </r>
       <r>     4.8418     3.7734    36.2903 </r>
       <r>     4.9463     3.2429    36.6289 </r>
       <r>     5.0507     2.6286    36.9034 </r>
       <r>     5.1551     3.2191    37.2395 </r>
       <r>     5.2595     3.8587    37.6424 </r>
       <r>     5.3639     3.5966    38.0179 </r>
       <r>     5.4683     3.3003    38.3625 </r>
       <r>     5.5727     3.4694    38.7248 </r>
       <r>     5.6772     3.3795    39.0777 </r>
       <r>     5.7816     3.2573    39.4178 </r>
       <r>     5.8860     2.9627    39.7271 </r>
       <r>     5.9904     2.8707    40.0269 </r>
       <r>     6.0948     2.5534    40.2935 </r>
       <r>     6.1992     2.6381    40.5689 </r>
       <r>     6.3037     2.5209    40.8322 </r>
       <r>     6.4081     2.4360    41.0865 </r>
       <r>     6.5125     2.5698    41.3548 </r>
       <r>     6.6169     2.6886    41.6356 </r>
       <r>     6.7213     2.4846    41.8950 </r>
       <r>     6.8257     3.0520    42.2137 </r>
       <r>     6.9301     4.1061    42.6424 </r>
       <r>     7.0346     3.6538    43.0239 </r>
       <r>     7.1390     3.5388    43.3934 </r>
       <r>     7.2434     3.6610    43.7757 </r>
       <r>     7.3478     3.6528    44.1571 </r>
       <r>     7.4522     4.2549    44.6014 </r>
       <r>     7.5566     3.9551    45.0143 </r>
       <r>     7.6611     3.8904    45.4205 </r>
       <r>     7.7655     5.6098    46.0063 </r>
       <r>     7.8699     5.0173    46.5302 </r>
       <r>     7.9743     4.2207    46.9709 </r>
       <r>     8.0787     4.0824    47.3972 </r>
       <r>     8.1831     2.8667    47.6965 </r>
       <r>     8.2875     1.7078    47.8748 </r>
       <r>     8.3920     0.7189    47.9499 </r>
       <r>     8.4964     0.3387    47.9852 </r>
       <r>     8.6008     0.0915    47.9948 </r>
       <r>     8.7052     0.0384    47.9988 </r>
       <r>     8.8096     0.0110    47.9999 </r>
       <r>     8.9140     0.0005    48.0000 </r>
       <r>     9.0185     0.0000    48.0000 </r>
       <r>     9.1229     0.0000    48.0000 </r>
       <r>     9.2273     0.0000    48.0000 </r>
       <r>     9.3317     0.0000    48.0000 </r>
       <r>     9.4361     0.0000    48.0000 </r>
       <r>     9.5405     0.0000    48.0000 </r>
       <r>     9.6449     0.0000    48.0000 </r>
       <r>     9.7494     0.0000    48.0000 </r>
       <r>     9.8538     0.0000    48.0000 </r>
       <r>     9.9582     0.0000    48.0000 </r>
       <r>    10.0626     0.0000    48.0000 </r>
      </set>
      <set comment="spin 2">
       <r>   -21.2620     0.0000     0.0000 </r>
       <r>   -21.1576     0.0000     0.0000 </r>
       <r>   -21.0532     0.0000     0.0000 </r>
       <r>   -20.9487     0.0000     0.0000 </r>
       <r>   -20.8443     0.0000     0.0000 </r>
       <r>   -20.7399     0.0000     0.0000 </r>
       <r>   -20.6355     0.0000     0.0000 </r>
       <r>   -20.5311     0.0000     0.0000 </r>
       <r>   -20.4267     0.0000     0.0000 </r>
       <r>   -20.3222     0.0000     0.0000 </r>
       <r>   -20.2178     0.0000     0.0000 </r>
       <r>   -20.1134     0.0000     0.0000 </r>
       <r>   -20.0090     0.0011     0.0001 </r>
       <r>   -19.9046     0.0379     0.0041 </r>
       <r>   -19.8002     0.2619     0.0314 </r>
       <r>   -19.6958     0.5453     0.0884 </r>
       <r>   -19.5913     0.6005     0.1511 </r>
       <r>   -19.4869     0.6466     0.2186 </r>
       <r>   -19.3825     0.5581     0.2769 </r>
       <r>   -19.2781     0.7076     0.3507 </r>
       <r>   -19.1737     0.5477     0.4079 </r>
       <r>   -19.0693     0.5886     0.4694 </r>
       <r>   -18.9648     0.7782     0.5506 </r>
       <r>   -18.8604     0.4833     0.6011 </r>
       <r>   -18.7560     0.5553     0.6591 </r>
       <r>   -18.6516     0.8070     0.7433 </r>
       <r>   -18.5472     0.6520     0.8114 </r>
       <r>   -18.4428     0.3783     0.8509 </r>
       <r>   -18.3384     0.6641     0.9203 </r>
       <r>   -18.2339     0.8779     1.0119 </r>
       <r>   -18.1295     0.5700     1.0714 </r>
       <r>   -18.0251     0.4734     1.1209 </r>
       <r>   -17.9207     0.4613     1.1691 </r>
       <r>   -17.8163     0.9431     1.2675 </r>
       <r>   -17.7119     0.7806     1.3490 </r>
       <r>   -17.6074     0.4145     1.3923 </r>
       <r>   -17.5030     0.4795     1.4424 </r>
       <r>   -17.3986     0.5873     1.5037 </r>
       <r>   -17.2942     0.9008     1.5977 </r>
       <r>   -17.1898     0.8104     1.6824 </r>
       <r>   -17.0854     0.5459     1.7394 </r>
       <r>   -16.9810     0.2839     1.7690 </r>
       <r>   -16.8765     0.6032     1.8320 </r>
       <r>   -16.7721     0.9173     1.9278 </r>
       <r>   -16.6677     0.8057     2.0119 </r>
       <r>   -16.5633     0.6613     2.0809 </r>
       <r>   -16.4589     0.5636     2.1398 </r>
       <r>   -16.3545     0.3248     2.1737 </r>
       <r>   -16.2500     0.4896     2.2248 </r>
       <r>   -16.1456     1.1644     2.3464 </r>
       <r>   -16.0412     0.8354     2.4337 </r>
       <r>   -15.9368     0.8393     2.5213 </r>
       <r>   -15.8324     1.1533     2.6417 </r>
       <r>   -15.7280     1.3205     2.7796 </r>
       <r>   -15.6236     1.2139     2.9063 </r>
       <r>   -15.5191     1.6868     3.0825 </r>
       <r>   -15.4147     2.0105     3.2924 </r>
       <r>   -15.3103     1.6702     3.4668 </r>
       <r>   -15.2059     1.4667     3.6199 </r>
       <r>   -15.1015     1.7661     3.8043 </r>
       <r>   -14.9971     1.6058     3.9720 </r>
       <r>   -14.8926     1.3626     4.1143 </r>
       <r>   -14.7882     1.4567     4.2664 </r>
       <r>   -14.6838     1.3424     4.4066 </r>
       <r>   -14.5794     1.0437     4.5155 </r>
       <r>   -14.4750     0.9850     4.6184 </r>
       <r>   -14.3706     0.9317     4.7157 </r>
       <r>   -14.2662     1.0446     4.8247 </r>
       <r>   -14.1617     1.9772     5.0312 </r>
       <r>   -14.0573     1.8928     5.2288 </r>
       <r>   -13.9529     0.7819     5.3105 </r>
       <r>   -13.8485     0.6741     5.3809 </r>
       <r>   -13.7441     0.6421     5.4479 </r>
       <r>   -13.6397     0.5840     5.5089 </r>
       <r>   -13.5352     0.8829     5.6011 </r>
       <r>   -13.4308     1.3747     5.7446 </r>
       <r>   -13.3264     0.9764     5.8465 </r>
       <r>   -13.2220     0.7098     5.9207 </r>
       <r>   -13.1176     0.9535     6.0202 </r>
       <r>   -13.0132     0.9862     6.1232 </r>
       <r>   -12.9088     0.9603     6.2235 </r>
       <r>   -12.8043     1.0264     6.3306 </r>
       <r>   -12.6999     0.9884     6.4338 </r>
       <r>   -12.5955     1.2110     6.5603 </r>
       <r>   -12.4911     1.7458     6.7426 </r>
       <r>   -12.3867     1.3317     6.8816 </r>
       <r>   -12.2823     1.6450     7.0534 </r>
       <r>   -12.1779     1.5196     7.2120 </r>
       <r>   -12.0734     1.5640     7.3754 </r>
       <r>   -11.9690     2.4546     7.6317 </r>
       <r>   -11.8646     2.0723     7.8480 </r>
       <r>   -11.7602     1.6214     8.0173 </r>
       <r>   -11.6558     1.5065     8.1746 </r>
       <r>   -11.5514     1.4711     8.3282 </r>
       <r>   -11.4469     1.2085     8.4544 </r>
       <r>   -11.3425     0.6136     8.5185 </r>
       <r>   -11.2381     0.3418     8.5542 </r>
       <r>   -11.1337     0.5929     8.6161 </r>
       <r>   -11.0293     0.7856     8.6981 </r>
       <r>   -10.9249     0.8008     8.7817 </r>
       <r>   -10.8205     0.8470     8.8702 </r>
       <r>   -10.7160     1.0911     8.9841 </r>
       <r>   -10.6116     1.3256     9.1225 </r>
       <r>   -10.5072     1.6167     9.2913 </r>
       <r>   -10.4028     2.3884     9.5407 </r>
       <r>   -10.2984     2.3110     9.7820 </r>
       <r>   -10.1940     0.8107     9.8666 </r>
       <r>   -10.0895     0.4824     9.9170 </r>
       <r>    -9.9851     1.5267    10.0764 </r>
       <r>    -9.8807     2.3051    10.3171 </r>
       <r>    -9.7763     1.3248    10.4554 </r>
       <r>    -9.6719     0.6522    10.5235 </r>
       <r>    -9.5675     0.5129    10.5771 </r>
       <r>    -9.4631     1.5128    10.7351 </r>
       <r>    -9.3586     2.7556    11.0228 </r>
       <r>    -9.2542     2.3236    11.2654 </r>
       <r>    -9.1498     2.0845    11.4831 </r>
       <r>    -9.0454     1.6645    11.6569 </r>
       <r>    -8.9410     1.6181    11.8258 </r>
       <r>    -8.8366     1.7260    12.0060 </r>
       <r>    -8.7321     1.9801    12.2128 </r>
       <r>    -8.6277     2.1343    12.4357 </r>
       <r>    -8.5233     1.5477    12.5973 </r>
       <r>    -8.4189     1.5009    12.7540 </r>
       <r>    -8.3145     2.5907    13.0245 </r>
       <r>    -8.2101     1.9822    13.2314 </r>
       <r>    -8.1057     1.3615    13.3736 </r>
       <r>    -8.0012     1.8670    13.5685 </r>
       <r>    -7.8968     1.9678    13.7740 </r>
       <r>    -7.7924     2.6552    14.0513 </r>
       <r>    -7.6880     3.1362    14.3787 </r>
       <r>    -7.5836     2.0046    14.5880 </r>
       <r>    -7.4792     1.8503    14.7812 </r>
       <r>    -7.3747     2.0955    15.0000 </r>
       <r>    -7.2703     2.6829    15.2802 </r>
       <r>    -7.1659     2.4633    15.5374 </r>
       <r>    -7.0615     1.8573    15.7313 </r>
       <r>    -6.9571     1.7169    15.9106 </r>
       <r>    -6.8527     2.6042    16.1825 </r>
       <r>    -6.7483     3.3001    16.5271 </r>
       <r>    -6.6438     3.4034    16.8825 </r>
       <r>    -6.5394     3.3396    17.2312 </r>
       <r>    -6.4350     3.0038    17.5448 </r>
       <r>    -6.3306     3.8066    17.9423 </r>
       <r>    -6.2262     3.3227    18.2892 </r>
       <r>    -6.1218     2.3525    18.5348 </r>
       <r>    -6.0173     2.1308    18.7573 </r>
       <r>    -5.9129     1.7470    18.9397 </r>
       <r>    -5.8085     2.1017    19.1592 </r>
       <r>    -5.7041     2.5938    19.4300 </r>
       <r>    -5.5997     2.0881    19.6481 </r>
       <r>    -5.4953     0.8634    19.7382 </r>
       <r>    -5.3909     1.3112    19.8751 </r>
       <r>    -5.2864     2.4342    20.1293 </r>
       <r>    -5.1820     2.5026    20.3906 </r>
       <r>    -5.0776     1.5989    20.5575 </r>
       <r>    -4.9732     1.5902    20.7236 </r>
       <r>    -4.8688     2.1628    20.9494 </r>
       <r>    -4.7644     1.5559    21.1119 </r>
       <r>    -4.6600     1.4982    21.2683 </r>
       <r>    -4.5555     1.6426    21.4398 </r>
       <r>    -4.4511     1.7723    21.6249 </r>
       <r>    -4.3467     2.4238    21.8780 </r>
       <r>    -4.2423     2.4073    22.1293 </r>
       <r>    -4.1379     2.2391    22.3631 </r>
       <r>    -4.0335     1.9274    22.5644 </r>
       <r>    -3.9290     2.8802    22.8651 </r>
       <r>    -3.8246     3.1568    23.1947 </r>
       <r>    -3.7202     2.8999    23.4975 </r>
       <r>    -3.6158     3.5191    23.8649 </r>
       <r>    -3.5114     3.5771    24.2385 </r>
       <r>    -3.4070     2.5410    24.5038 </r>
       <r>    -3.3026     1.8015    24.6919 </r>
       <r>    -3.1981     1.8169    24.8816 </r>
       <r>    -3.0937     1.8103    25.0706 </r>
       <r>    -2.9893     1.6064    25.2383 </r>
       <r>    -2.8849     1.7506    25.4211 </r>
       <r>    -2.7805     1.7570    25.6046 </r>
       <r>    -2.6761     1.0243    25.7115 </r>
       <r>    -2.5716     1.0147    25.8175 </r>
       <r>    -2.4672     2.1020    26.0370 </r>
       <r>    -2.3628     2.4264    26.2903 </r>
       <r>    -2.2584     1.0077    26.3956 </r>
       <r>    -2.1540     0.8506    26.4844 </r>
       <r>    -2.0496     1.1964    26.6093 </r>
       <r>    -1.9452     1.0060    26.7143 </r>
       <r>    -1.8407     1.1186    26.8311 </r>
       <r>    -1.7363     1.3954    26.9768 </r>
       <r>    -1.6319     0.9118    27.0720 </r>
       <r>    -1.5275     0.7698    27.1524 </r>
       <r>    -1.4231     1.2521    27.2831 </r>
       <r>    -1.3187     1.0678    27.3946 </r>
       <r>    -1.2142     0.5759    27.4548 </r>
       <r>    -1.1098     0.9099    27.5498 </r>
       <r>    -1.0054     0.8616    27.6397 </r>
       <r>    -0.9010     0.7802    27.7212 </r>
       <r>    -0.7966     0.7478    27.7993 </r>
       <r>    -0.6922     0.3559    27.8365 </r>
       <r>    -0.5878     0.1570    27.8528 </r>
       <r>    -0.4833     0.3973    27.8943 </r>
       <r>    -0.3789     0.6023    27.9572 </r>
       <r>    -0.2745     0.4183    28.0009 </r>
       <r>    -0.1701     0.2030    28.0221 </r>
       <r>    -0.0657     0.2834    28.0517 </r>
       <r>     0.0387     0.4240    28.0960 </r>
       <r>     0.1432     0.3757    28.1352 </r>
       <r>     0.2476     0.7355    28.2120 </r>
       <r>     0.3520     1.0400    28.3206 </r>
       <r>     0.4564     1.2240    28.4484 </r>
       <r>     0.5608     1.3008    28.5842 </r>
       <r>     0.6652     1.0887    28.6979 </r>
       <r>     0.7696     0.5832    28.7588 </r>
       <r>     0.8741     1.0177    28.8650 </r>
       <r>     0.9785     1.5068    29.0224 </r>
       <r>     1.0829     1.0040    29.1272 </r>
       <r>     1.1873     1.1917    29.2516 </r>
       <r>     1.2917     1.8893    29.4489 </r>
       <r>     1.3961     2.1058    29.6688 </r>
       <r>     1.5006     1.7268    29.8491 </r>
       <r>     1.6050     1.2356    29.9781 </r>
       <r>     1.7094     0.8828    30.0703 </r>
       <r>     1.8138     0.9096    30.1653 </r>
       <r>     1.9182     1.3139    30.3025 </r>
       <r>     2.0226     1.3061    30.4388 </r>
       <r>     2.1270     1.5713    30.6029 </r>
       <r>     2.2315     1.1257    30.7204 </r>
       <r>     2.3359     1.2145    30.8473 </r>
       <r>     2.4403     1.6917    31.0239 </r>
       <r>     2.5447     0.7354    31.1007 </r>
       <r>     2.6491     1.0972    31.2153 </r>
       <r>     2.7535     1.7772    31.4008 </r>
       <r>     2.8579     1.5085    31.5583 </r>
       <r>     2.9624     1.3468    31.6989 </r>
       <r>     3.0668     1.5549    31.8613 </r>
       <r>     3.1712     1.3270    31.9999 </r>
       <r>     3.2756     2.0460    32.2135 </r>
       <r>     3.3800     2.6167    32.4867 </r>
       <r>     3.4844     1.9524    32.6906 </r>
       <r>     3.5889     1.6242    32.8602 </r>
       <r>     3.6933     1.9927    33.0683 </r>
       <r>     3.7977     2.5094    33.3303 </r>
       <r>     3.9021     3.1650    33.6607 </r>
       <r>     4.0065     2.9557    33.9694 </r>
       <r>     4.1109     2.2381    34.2031 </r>
       <r>     4.2153     1.8443    34.3956 </r>
       <r>     4.3198     2.2966    34.6354 </r>
       <r>     4.4242     2.9649    34.9450 </r>
       <r>     4.5286     3.1846    35.2775 </r>
       <r>     4.6330     2.5628    35.5451 </r>
       <r>     4.7374     3.3596    35.8959 </r>
       <r>     4.8418     3.7720    36.2898 </r>
       <r>     4.9463     3.2418    36.6283 </r>
       <r>     5.0507     2.6295    36.9028 </r>
       <r>     5.1551     3.2176    37.2388 </r>
       <r>     5.2595     3.8583    37.6417 </r>
       <r>     5.3639     3.5986    38.0174 </r>
       <r>     5.4683     3.2991    38.3619 </r>
       <r>     5.5727     3.4666    38.7239 </r>
       <r>     5.6772     3.3821    39.0770 </r>
       <r>     5.7816     3.2595    39.4173 </r>
       <r>     5.8860     2.9617    39.7266 </r>
       <r>     5.9904     2.8709    40.0264 </r>
       <r>     6.0948     2.5507    40.2927 </r>
       <r>     6.1992     2.6375    40.5681 </r>
       <r>     6.3037     2.5243    40.8317 </r>
       <r>     6.4081     2.4369    41.0861 </r>
       <r>     6.5125     2.5677    41.3542 </r>
       <r>     6.6169     2.6888    41.6350 </r>
       <r>     6.7213     2.4859    41.8945 </r>
       <r>     6.8257     3.0492    42.2129 </r>
       <r>     6.9301     4.1041    42.6414 </r>
       <r>     7.0346     3.6553    43.0231 </r>
       <r>     7.1390     3.5398    43.3927 </r>
       <r>     7.2434     3.6604    43.7749 </r>
       <r>     7.3478     3.6533    44.1564 </r>
       <r>     7.4522     4.2511    44.6003 </r>
       <r>     7.5566     3.9565    45.0134 </r>
       <r>     7.6611     3.8911    45.4197 </r>
       <r>     7.7655     5.6083    46.0053 </r>
       <r>     7.8699     5.0191    46.5293 </r>
       <r>     7.9743     4.2209    46.9700 </r>
       <r>     8.0787     4.0849    47.3966 </r>
       <r>     8.1831     2.8678    47.6960 </r>
       <r>     8.2875     1.7099    47.8746 </r>
       <r>     8.3920     0.7209    47.9498 </r>
       <r>     8.4964     0.3390    47.9852 </r>
       <r>     8.6008     0.0915    47.9948 </r>
       <r>     8.7052     0.0384    47.9988 </r>
       <r>     8.8096     0.0110    47.9999 </r>
       <r>     8.9140     0.0005    48.0000 </r>
       <r>     9.0185     0.0000    48.0000 </r>
       <r>     9.1229     0.0000    48.0000 </r>
       <r>     9.2273     0.0000    48.0000 </r>
       <r>     9.3317     0.0000    48.0000 </r>
       <r>     9.4361     0.0000    48.0000 </r>
       <r>     9.5405     0.0000    48.0000 </r>
       <r>     9.6449     0.0000    48.0000 </r>
       <r>     9.7494     0.0000    48.0000 </r>
       <r>     9.8538     0.0000    48.0000 </r>
       <r>     9.9582     0.0000    48.0000 </r>
       <r>    10.0626     0.0000    48.0000 </r>
      </set>
     </set>
    </array>
   </total>
  </dos>
 </calculation>
 <structure name="finalpos" >
  <crystal>
   <varray name="basis" >
    <v>       4.27816549       2.47000000       0.00000000 </v>
    <v>      -4.27816549       2.47000000       0.00000000 </v>
    <v>       0.00000000       0.00000000      15.00000000 </v>
   </varray>
   <i name="volume">    317.01206316 </i>
   <varray name="rec_basis" >
    <v>       0.11687252       0.20242915       0.00000000 </v>
    <v>      -0.11687252       0.20242915       0.00000000 </v>
    <v>       0.00000000       0.00000000       0.06666667 </v>
   </varray>
  </crystal>
  <varray name="positions" >
   <v>       0.66875946      -0.00006490       0.16808441 </v>
   <v>       0.33117464      -0.00006490       0.16808441 </v>
   <v>       0.00006490       0.33123954       0.16808441 </v>
   <v>       0.00006490       0.66882436       0.16808441 </v>
   <v>       0.33117464       0.33123954       0.16808441 </v>
   <v>       0.66875946       0.66882436       0.16808441 </v>
   <v>       0.66666600       0.33333300       0.18248471 </v>
   <v>       0.33333300       0.66666600       0.15339395 </v>
   <v>       0.16666141       0.33332382       0.39963310 </v>
   <v>       0.33328780       0.16664340       0.39972132 </v>
   <v>       0.16666141       0.83333759       0.39963310 </v>
   <v>       0.33333300       0.66666600       0.39962570 </v>
   <v>       0.66666600       0.33333300       0.39979259 </v>
   <v>       0.83335560       0.16664340       0.39972132 </v>
   <v>       0.66667518       0.83333759       0.39963310 </v>
   <v>       0.83335560       0.66671120       0.39972132 </v>
  </varray>
 </structure>
</modeling>
