Lattice                                 
           1
     4.278165    2.470000    0.000000
    -4.278165    2.470000    0.000000
     0.000000    0.000000   15.000000
   B    C 
     8     8
Direct configuration=     1
   0.66888689  0.00000000  0.10000000
   0.33111211  0.00000000  0.10000000
   0.00000000  0.33111211  0.10000000
   0.00000000  0.66888689  0.10000000
   0.33111211  0.33111211  0.10000000
   0.66888689  0.66888689  0.10000000
   0.66666600  0.33333300  0.09922189
   0.33333300  0.66666600  0.10077811
   0.16666600  0.33333300  0.46773333
   0.33333300  0.16666600  0.46773333
   0.16666600  0.83333300  0.46773333
   0.33333300  0.66666600  0.46773333
   0.66666600  0.33333300  0.46773333
   0.83333300  0.16666600  0.46773333
   0.66666600  0.83333300  0.46773333
   0.83333300  0.66666600  0.46773333
Direct configuration=     2
   0.67161640  0.00000007  0.10002730
   0.32838267  0.00000007  0.10002730
  -0.00000007  0.32838260  0.10002730
  -0.00000007  0.67161633  0.10002730
   0.32838267  0.32838260  0.10002730
   0.67161640  0.67161633  0.10002730
   0.66666600  0.33333300  0.09923368
   0.33333300  0.66666600  0.10082571
   0.16666362  0.33332823  0.46770542
   0.33332835  0.16666368  0.46770544
   0.16666362  0.83333538  0.46770542
   0.33333300  0.66666600  0.46770540
   0.66666600  0.33333300  0.46770549
   0.83333532  0.16666368  0.46770544
   0.66667077  0.83333538  0.46770542
   0.83333532  0.66667065  0.46770544
Direct configuration=     3
   0.67019155  0.00000003  0.10001305
   0.32980748  0.00000003  0.10001305
  -0.00000003  0.32980745  0.10001305
  -0.00000003  0.67019152  0.10001305
   0.32980748  0.32980745  0.10001305
   0.67019155  0.67019152  0.10001305
   0.66666600  0.33333300  0.09922752
   0.33333300  0.66666600  0.10080086
   0.16666486  0.33333072  0.46771999
   0.33333078  0.16666489  0.46772000
   0.16666486  0.83333414  0.46771999
   0.33333300  0.66666600  0.46771998
   0.66666600  0.33333300  0.46772002
   0.83333411  0.16666489  0.46772000
   0.66666828  0.83333414  0.46771999
   0.83333411  0.66666822  0.46772000
Direct configuration=     4
   0.67019965  0.00000003  0.10001313
   0.32979938  0.00000003  0.10001313
  -0.00000003  0.32979935  0.10001313
  -0.00000003  0.67019962  0.10001313
   0.32979938  0.32979935  0.10001313
   0.67019965  0.67019962  0.10001313
   0.66666600  0.33333300  0.09922756
   0.33333300  0.66666600  0.10080101
   0.16666485  0.33333071  0.46771991
   0.33333076  0.16666488  0.46771992
   0.16666485  0.83333415  0.46771991
   0.33333300  0.66666600  0.46771990
   0.66666600  0.33333300  0.46771994
   0.83333412  0.16666488  0.46771992
   0.66666829  0.83333415  0.46771991
   0.83333412  0.66666824  0.46771992
Direct configuration=     5
   0.67019620  0.00000003  0.10001310
   0.32980283  0.00000003  0.10001310
  -0.00000003  0.32980280  0.10001310
  -0.00000003  0.67019617  0.10001310
   0.32980283  0.32980280  0.10001310
   0.67019620  0.67019617  0.10001310
   0.66666600  0.33333300  0.09922754
   0.33333300  0.66666600  0.10080095
   0.16666486  0.33333071  0.46771994
   0.33333077  0.16666489  0.46771995
   0.16666486  0.83333414  0.46771994
   0.33333300  0.66666600  0.46771994
   0.66666600  0.33333300  0.46771998
   0.83333411  0.16666489  0.46771995
   0.66666829  0.83333414  0.46771994
   0.83333411  0.66666823  0.46771995
Direct configuration=     6
   0.67019388  0.00000003  0.10001307
   0.32980516  0.00000003  0.10001307
  -0.00000003  0.32980512  0.10001307
  -0.00000003  0.67019384  0.10001307
   0.32980516  0.32980512  0.10001307
   0.67019388  0.67019384  0.10001307
   0.66666600  0.33333300  0.09922753
   0.33333300  0.66666600  0.10080090
   0.16666486  0.33333072  0.46771997
   0.33333077  0.16666489  0.46771998
   0.16666486  0.83333414  0.46771997
   0.33333300  0.66666600  0.46771996
   0.66666600  0.33333300  0.46772000
   0.83333411  0.16666489  0.46771998
   0.66666828  0.83333414  0.46771997
   0.83333411  0.66666823  0.46771998
Direct configuration=     7
   0.67019271  0.00000003  0.10001306
   0.32980632  0.00000003  0.10001306
  -0.00000003  0.32980629  0.10001306
  -0.00000003  0.67019268  0.10001306
   0.32980632  0.32980629  0.10001306
   0.67019271  0.67019268  0.10001306
   0.66666600  0.33333300  0.09922753
   0.33333300  0.66666600  0.10080088
   0.16666486  0.33333072  0.46771998
   0.33333078  0.16666489  0.46771999
   0.16666486  0.83333414  0.46771998
   0.33333300  0.66666600  0.46771997
   0.66666600  0.33333300  0.46772001
   0.83333411  0.16666489  0.46771999
   0.66666828  0.83333414  0.46771998
   0.83333411  0.66666822  0.46771999
Direct configuration=     8
   0.67019220  0.00000003  0.10001306
   0.32980683  0.00000003  0.10001306
  -0.00000003  0.32980680  0.10001306
  -0.00000003  0.67019217  0.10001306
   0.32980683  0.32980680  0.10001306
   0.67019220  0.67019217  0.10001306
   0.66666600  0.33333300  0.09922753
   0.33333300  0.66666600  0.10080088
   0.16666486  0.33333072  0.46771999
   0.33333078  0.16666489  0.46772000
   0.16666486  0.83333414  0.46771999
   0.33333300  0.66666600  0.46771998
   0.66666600  0.33333300  0.46772002
   0.83333411  0.16666489  0.46772000
   0.66666828  0.83333414  0.46771999
   0.83333411  0.66666822  0.46772000
Direct configuration=     9
   0.67019212  0.00000000  0.10003769
   0.32980688  0.00000000  0.10003769
  -0.00000000  0.32980688  0.10003769
  -0.00000000  0.67019212  0.10003769
   0.32980688  0.32980688  0.10003769
   0.67019212  0.67019212  0.10003769
   0.66666600  0.33333300  0.09924247
   0.33333300  0.66666600  0.10083840
   0.16666659  0.33333418  0.46769493
   0.33333415  0.16666658  0.46769496
   0.16666659  0.83333241  0.46769493
   0.33333300  0.66666600  0.46769493
   0.66666600  0.33333300  0.46769503
   0.83333242  0.16666658  0.46769496
   0.66666482  0.83333241  0.46769493
   0.83333242  0.66666485  0.46769496
Direct configuration=    10
   0.67019188 -0.00000009  0.10011161
   0.32980703 -0.00000009  0.10011161
   0.00000009  0.32980712  0.10011161
   0.00000009  0.67019197  0.10011161
   0.32980703  0.32980712  0.10011161
   0.67019188  0.67019197  0.10011161
   0.66666600  0.33333300  0.09928731
   0.33333300  0.66666600  0.10095095
   0.16667179  0.33334457  0.46761977
   0.33334427  0.16667164  0.46761985
   0.16667179  0.83332721  0.46761977
   0.33333300  0.66666600  0.46761978
   0.66666600  0.33333300  0.46762005
   0.83332736  0.16667164  0.46761985
   0.66665443  0.83332721  0.46761977
   0.83332736  0.66665473  0.46761985
Direct configuration=    11
   0.67019140 -0.00000027  0.10025945
   0.32980732 -0.00000027  0.10025945
   0.00000027  0.32980760  0.10025945
   0.00000027  0.67019168  0.10025945
   0.32980732  0.32980760  0.10025945
   0.67019140  0.67019168  0.10025945
   0.66666600  0.33333300  0.09937699
   0.33333300  0.66666600  0.10117607
   0.16668218  0.33336536  0.46746945
   0.33336451  0.16668176  0.46746964
   0.16668218  0.83331682  0.46746945
   0.33333300  0.66666600  0.46746949
   0.66666600  0.33333300  0.46747011
   0.83331724  0.16668176  0.46746964
   0.66663364  0.83331682  0.46746945
   0.83331724  0.66663449  0.46746964
Direct configuration=    12
   0.67019045 -0.00000064  0.10055513
   0.32980791 -0.00000064  0.10055513
   0.00000064  0.32980855  0.10055513
   0.00000064  0.67019109  0.10055513
   0.32980791  0.32980855  0.10055513
   0.67019045  0.67019109  0.10055513
   0.66666600  0.33333300  0.09955634
   0.33333300  0.66666600  0.10162631
   0.16670296  0.33340692  0.46716881
   0.33340499  0.16670200  0.46716922
   0.16670296  0.83329604  0.46716881
   0.33333300  0.66666600  0.46716891
   0.66666600  0.33333300  0.46717023
   0.83329700  0.16670200  0.46716922
   0.66659208  0.83329604  0.46716881
   0.83329700  0.66659401  0.46716922
Direct configuration=    13
   0.67018854 -0.00000138  0.10114648
   0.32980908 -0.00000138  0.10114648
   0.00000138  0.32981046  0.10114648
   0.00000138  0.67018992  0.10114648
   0.32980908  0.32981046  0.10114648
   0.67018854  0.67018992  0.10114648
   0.66666600  0.33333300  0.09991504
   0.33333300  0.66666600  0.10252679
   0.16674453  0.33349005  0.46656754
   0.33348595  0.16674248  0.46656837
   0.16674453  0.83325447  0.46656754
   0.33333300  0.66666600  0.46656775
   0.66666600  0.33333300  0.46657046
   0.83325652  0.16674248  0.46656837
   0.66650895  0.83325447  0.46656754
   0.83325652  0.66651305  0.46656837
Direct configuration=    14
   0.67018472 -0.00000285  0.10232919
   0.32981143 -0.00000285  0.10232919
   0.00000285  0.32981428  0.10232919
   0.00000285  0.67018757  0.10232919
   0.32981143  0.32981428  0.10232919
   0.67018472  0.67018757  0.10232919
   0.66666600  0.33333300  0.10063245
   0.33333300  0.66666600  0.10432774
   0.16682766  0.33365631  0.46536498
   0.33364787  0.16682344  0.46536668
   0.16682766  0.83317134  0.46536498
   0.33333300  0.66666600  0.46536542
   0.66666600  0.33333300  0.46537092
   0.83317556  0.16682344  0.46536668
   0.66634269  0.83317134  0.46536498
   0.83317556  0.66635113  0.46536668
Direct configuration=    15
   0.67017708 -0.00000580  0.10469461
   0.32981613 -0.00000580  0.10469461
   0.00000580  0.32982192  0.10469461
   0.00000580  0.67018287  0.10469461
   0.32981613  0.32982192  0.10469461
   0.67017708  0.67018287  0.10469461
   0.66666600  0.33333300  0.10206726
   0.33333300  0.66666600  0.10792964
   0.16699392  0.33398883  0.46295987
   0.33397172  0.16698536  0.46296330
   0.16699392  0.83300508  0.46295987
   0.33333300  0.66666600  0.46296077
   0.66666600  0.33333300  0.46297184
   0.83301364  0.16698536  0.46296330
   0.66601017  0.83300508  0.46295987
   0.83301364  0.66602728  0.46296330
Direct configuration=    16
   0.67016179 -0.00001169  0.10942544
   0.32982552 -0.00001169  0.10942544
   0.00001169  0.32983721  0.10942544
   0.00001169  0.67017348  0.10942544
   0.32982552  0.32983721  0.10942544
   0.67016179  0.67017348  0.10942544
   0.66666600  0.33333300  0.10493688
   0.33333300  0.66666600  0.11513345
   0.16732644  0.33465387  0.45814965
   0.33461941  0.16730920  0.45815652
   0.16732644  0.83267256  0.45814965
   0.33333300  0.66666600  0.45815147
   0.66666600  0.33333300  0.45817369
   0.83268980  0.16730920  0.45815652
   0.66534513  0.83267256  0.45814965
   0.83268980  0.66537959  0.45815652
Direct configuration=    17
   0.67013122 -0.00002348  0.11888710
   0.32984430 -0.00002348  0.11888710
   0.00002348  0.32986778  0.11888710
   0.00002348  0.67015470  0.11888710
   0.32984430  0.32986778  0.11888710
   0.67013122  0.67015470  0.11888710
   0.66666600  0.33333300  0.11067613
   0.33333300  0.66666600  0.12954107
   0.16799148  0.33598396  0.44852921
   0.33591478  0.16795689  0.44854298
   0.16799148  0.83200752  0.44852921
   0.33333300  0.66666600  0.44853287
   0.66666600  0.33333300  0.44857739
   0.83204211  0.16795689  0.44854298
   0.66401504  0.83200752  0.44852921
   0.83204211  0.66408422  0.44854298
Direct configuration=    18
   0.67007009 -0.00004705  0.13781043
   0.32988187 -0.00004705  0.13781043
   0.00004705  0.32992891  0.13781043
   0.00004705  0.67011713  0.13781043
   0.32988187  0.32992891  0.13781043
   0.67007009  0.67011713  0.13781043
   0.66666600  0.33333300  0.12215463
   0.33333300  0.66666600  0.15835631
   0.16932156  0.33864412  0.42928834
   0.33850553  0.16925226  0.42931590
   0.16932156  0.83067744  0.42928834
   0.33333300  0.66666600  0.42929566
   0.66666600  0.33333300  0.42938478
   0.83074674  0.16925226  0.42931590
   0.66135488  0.83067744  0.42928834
   0.83074674  0.66149347  0.42931590
Direct configuration=    19
   0.67012179 -0.00002711  0.12180595
   0.32985009 -0.00002711  0.12180595
   0.00002711  0.32987721  0.12180595
   0.00002711  0.67014891  0.12180595
   0.32985009  0.32987721  0.12180595
   0.67012179  0.67014891  0.12180595
   0.66666600  0.33333300  0.11244665
   0.33333300  0.66666600  0.13398571
   0.16819664  0.33639428  0.44556138
   0.33631439  0.16815670  0.44557728
   0.16819664  0.83180236  0.44556138
   0.33333300  0.66666600  0.44556560
   0.66666600  0.33333300  0.44561700
   0.83184230  0.16815670  0.44557728
   0.66360472  0.83180236  0.44556138
   0.83184230  0.66368461  0.44557728
Direct configuration=    20
   0.67012178 -0.00002711  0.12180679
   0.32985010 -0.00002711  0.12180679
   0.00002711  0.32987722  0.12180679
   0.00002711  0.67014890  0.12180679
   0.32985010  0.32987722  0.12180679
   0.67012178  0.67014890  0.12180679
   0.66666600  0.33333300  0.11244715
   0.33333300  0.66666600  0.13398698
   0.16819666  0.33639432  0.44556053
   0.33631444  0.16815672  0.44557643
   0.16819666  0.83180234  0.44556053
   0.33333300  0.66666600  0.44556475
   0.66666600  0.33333300  0.44561615
   0.83184228  0.16815672  0.44557643
   0.66360468  0.83180234  0.44556053
   0.83184228  0.66368456  0.44557643
Direct configuration=    21
   0.67012175 -0.00002713  0.12180930
   0.32985012 -0.00002713  0.12180930
   0.00002713  0.32987725  0.12180930
   0.00002713  0.67014888  0.12180930
   0.32985012  0.32987725  0.12180930
   0.67012175  0.67014888  0.12180930
   0.66666600  0.33333300  0.11244867
   0.33333300  0.66666600  0.13399080
   0.16819674  0.33639447  0.44555798
   0.33631458  0.16815679  0.44557388
   0.16819674  0.83180226  0.44555798
   0.33333300  0.66666600  0.44556220
   0.66666600  0.33333300  0.44561361
   0.83184221  0.16815679  0.44557388
   0.66360453  0.83180226  0.44555798
   0.83184221  0.66368442  0.44557388
Direct configuration=    22
   0.67012169 -0.00002715  0.12181431
   0.32985017 -0.00002715  0.12181431
   0.00002715  0.32987731  0.12181431
   0.00002715  0.67014883  0.12181431
   0.32985017  0.32987731  0.12181431
   0.67012169  0.67014883  0.12181431
   0.66666600  0.33333300  0.11245171
   0.33333300  0.66666600  0.13399843
   0.16819688  0.33639477  0.44555289
   0.33631487  0.16815694  0.44556879
   0.16819688  0.83180212  0.44555289
   0.33333300  0.66666600  0.44555711
   0.66666600  0.33333300  0.44560853
   0.83184206  0.16815694  0.44556879
   0.66360423  0.83180212  0.44555289
   0.83184206  0.66368413  0.44556879
Direct configuration=    23
   0.67012156 -0.00002719  0.12182434
   0.32985025 -0.00002719  0.12182434
   0.00002719  0.32987744  0.12182434
   0.00002719  0.67014875  0.12182434
   0.32985025  0.32987744  0.12182434
   0.67012156  0.67014875  0.12182434
   0.66666600  0.33333300  0.11245778
   0.33333300  0.66666600  0.13401368
   0.16819718  0.33639536  0.44554270
   0.33631545  0.16815722  0.44555860
   0.16819718  0.83180182  0.44554270
   0.33333300  0.66666600  0.44554692
   0.66666600  0.33333300  0.44559836
   0.83184178  0.16815722  0.44555860
   0.66360364  0.83180182  0.44554270
   0.83184178  0.66368355  0.44555860
Direct configuration=    24
   0.67012131 -0.00002727  0.12184440
   0.32985042 -0.00002727  0.12184440
   0.00002727  0.32987769  0.12184440
   0.00002727  0.67014858  0.12184440
   0.32985042  0.32987769  0.12184440
   0.67012131  0.67014858  0.12184440
   0.66666600  0.33333300  0.11246992
   0.33333300  0.66666600  0.13404420
   0.16819777  0.33639653  0.44552231
   0.33631659  0.16815780  0.44553823
   0.16819777  0.83180123  0.44552231
   0.33333300  0.66666600  0.44552653
   0.66666600  0.33333300  0.44557802
   0.83184120  0.16815780  0.44553823
   0.66360247  0.83180123  0.44552231
   0.83184120  0.66368241  0.44553823
Direct configuration=    25
   0.67012080 -0.00002744  0.12188451
   0.32985076 -0.00002744  0.12188451
   0.00002744  0.32987820  0.12188451
   0.00002744  0.67014824  0.12188451
   0.32985076  0.32987820  0.12188451
   0.67012080  0.67014824  0.12188451
   0.66666600  0.33333300  0.11249421
   0.33333300  0.66666600  0.13410523
   0.16819895  0.33639889  0.44548154
   0.33631889  0.16815895  0.44549749
   0.16819895  0.83180005  0.44548154
   0.33333300  0.66666600  0.44548577
   0.66666600  0.33333300  0.44553734
   0.83184005  0.16815895  0.44549749
   0.66360011  0.83180005  0.44548154
   0.83184005  0.66368011  0.44549749
Direct configuration=    26
   0.67011979 -0.00002777  0.12196473
   0.32985144 -0.00002777  0.12196473
   0.00002777  0.32987921  0.12196473
   0.00002777  0.67014756  0.12196473
   0.32985144  0.32987921  0.12196473
   0.67011979  0.67014756  0.12196473
   0.66666600  0.33333300  0.11254279
   0.33333300  0.66666600  0.13422729
   0.16820130  0.33640360  0.44540000
   0.33632349  0.16816124  0.44541600
   0.16820130  0.83179770  0.44540000
   0.33333300  0.66666600  0.44540423
   0.66666600  0.33333300  0.44545598
   0.83183776  0.16816124  0.44541600
   0.66359540  0.83179770  0.44540000
   0.83183776  0.66367551  0.44541600
Direct configuration=    27
   0.67011777 -0.00002844  0.12212518
   0.32985279 -0.00002844  0.12212518
   0.00002844  0.32988123  0.12212518
   0.00002844  0.67014621  0.12212518
   0.32985279  0.32988123  0.12212518
   0.67011777  0.67014621  0.12212518
   0.66666600  0.33333300  0.11263995
   0.33333300  0.66666600  0.13447141
   0.16820602  0.33641303  0.44523691
   0.33633268  0.16816584  0.44525302
   0.16820602  0.83179298  0.44523691
   0.33333300  0.66666600  0.44524117
   0.66666600  0.33333300  0.44529327
   0.83183316  0.16816584  0.44525302
   0.66358597  0.83179298  0.44523691
   0.83183316  0.66366632  0.44525302
Direct configuration=    28
   0.67011372 -0.00002978  0.12244607
   0.32985550 -0.00002978  0.12244607
   0.00002978  0.32988528  0.12244607
   0.00002978  0.67014350  0.12244607
   0.32985550  0.32988528  0.12244607
   0.67011372  0.67014350  0.12244607
   0.66666600  0.33333300  0.11283426
   0.33333300  0.66666600  0.13495966
   0.16821544  0.33643188  0.44491074
   0.33635106  0.16817503  0.44492707
   0.16821544  0.83178356  0.44491074
   0.33333300  0.66666600  0.44491504
   0.66666600  0.33333300  0.44496784
   0.83182397  0.16817503  0.44492707
   0.66356712  0.83178356  0.44491074
   0.83182397  0.66364794  0.44492707
Direct configuration=    29
   0.67010562 -0.00003246  0.12308786
   0.32986092 -0.00003246  0.12308786
   0.00003246  0.32989338  0.12308786
   0.00003246  0.67013808  0.12308786
   0.32986092  0.32989338  0.12308786
   0.67010562  0.67013808  0.12308786
   0.66666600  0.33333300  0.11322290
   0.33333300  0.66666600  0.13593614
   0.16823430  0.33646959  0.44425839
   0.33638783  0.16819341  0.44427516
   0.16823430  0.83176470  0.44425839
   0.33333300  0.66666600  0.44426277
   0.66666600  0.33333300  0.44431699
   0.83180559  0.16819341  0.44427516
   0.66352941  0.83176470  0.44425839
   0.83180559  0.66361117  0.44427516
Direct configuration=    30
   0.67008943 -0.00003781  0.12437145
   0.32987176 -0.00003781  0.12437145
   0.00003781  0.32990957  0.12437145
   0.00003781  0.67012724  0.12437145
   0.32987176  0.32990957  0.12437145
   0.67008943  0.67012724  0.12437145
   0.66666600  0.33333300  0.11400016
   0.33333300  0.66666600  0.13788912
   0.16827200  0.33654501  0.44295371
   0.33646136  0.16823018  0.44297135
   0.16827200  0.83172700  0.44295371
   0.33333300  0.66666600  0.44295825
   0.66666600  0.33333300  0.44301528
   0.83176882  0.16823018  0.44297135
   0.66345399  0.83172700  0.44295371
   0.83176882  0.66353764  0.44297135
Direct configuration=    31
   0.67005704 -0.00004852  0.12693861
   0.32989345 -0.00004852  0.12693861
   0.00004852  0.32994196  0.12693861
   0.00004852  0.67010555  0.12693861
   0.32989345  0.32994196  0.12693861
   0.67005704  0.67010555  0.12693861
   0.66666600  0.33333300  0.11555468
   0.33333300  0.66666600  0.14179507
   0.16834742  0.33669584  0.44034434
   0.33660842  0.16830371  0.44036373
   0.16834742  0.83165158  0.44034434
   0.33333300  0.66666600  0.44034919
   0.66666600  0.33333300  0.44041187
   0.83169529  0.16830371  0.44036373
   0.66330316  0.83165158  0.44034434
   0.83169529  0.66339058  0.44036373
Direct configuration=    32
   0.66999226 -0.00006993  0.13207294
   0.32993681 -0.00006993  0.13207294
   0.00006993  0.33000674  0.13207294
   0.00006993  0.67006219  0.13207294
   0.32993681  0.33000674  0.13207294
   0.66999226  0.67006219  0.13207294
   0.66666600  0.33333300  0.11866373
   0.33333300  0.66666600  0.14960697
   0.16849825  0.33699751  0.43512559
   0.33690254  0.16845077  0.43514848
   0.16849825  0.83150075  0.43512559
   0.33333300  0.66666600  0.43513109
   0.66666600  0.33333300  0.43520505
   0.83154823  0.16845077  0.43514848
   0.66300149  0.83150075  0.43512559
   0.83154823  0.66309646  0.43514848
Direct configuration=    33
   0.66986271 -0.00011275  0.14234159
   0.33002354 -0.00011275  0.14234159
   0.00011275  0.33013629  0.14234159
   0.00011275  0.66997546  0.14234159
   0.33002354  0.33013629  0.14234159
   0.66986271  0.66997546  0.14234159
   0.66666600  0.33333300  0.12488183
   0.33333300  0.66666600  0.16523077
   0.16879992  0.33760083  0.42468810
   0.33749078  0.16874489  0.42471798
   0.16879992  0.83119908  0.42468810
   0.33333300  0.66666600  0.42469488
   0.66666600  0.33333300  0.42479141
   0.83125411  0.16874489  0.42471798
   0.66239817  0.83119908  0.42468810
   0.83125411  0.66250822  0.42471798
Direct configuration=    34
   0.66971484 -0.00016052  0.14505179
   0.33012364 -0.00016052  0.14505179
   0.00016052  0.33028416  0.14505179
   0.00016052  0.66987536  0.14505179
   0.33012364  0.33028416  0.14505179
   0.66971484  0.66987536  0.14505179
   0.66666600  0.33333300  0.12653456
   0.33333300  0.66666600  0.16931041
   0.16864423  0.33728945  0.42193794
   0.33718934  0.16859417  0.42196906
   0.16864423  0.83135477  0.42193794
   0.33333300  0.66666600  0.42194442
   0.66666600  0.33333300  0.42204558
   0.83140483  0.16859417  0.42196906
   0.66270955  0.83135477  0.42193794
   0.83140483  0.66280966  0.42196906
Direct configuration=    35
   0.66927124 -0.00030385  0.15318238
   0.33042392 -0.00030385  0.15318238
   0.00030385  0.33072776  0.15318238
   0.00030385  0.66957508  0.15318238
   0.33042392  0.33072776  0.15318238
   0.66927124  0.66957508  0.15318238
   0.66666600  0.33333300  0.13149275
   0.33333300  0.66666600  0.18154931
   0.16817716  0.33635532  0.41368746
   0.33628502  0.16814201  0.41372229
   0.16817716  0.83182184  0.41368746
   0.33333300  0.66666600  0.41369302
   0.66666600  0.33333300  0.41380808
   0.83185699  0.16814201  0.41372229
   0.66364368  0.83182184  0.41368746
   0.83185699  0.66371398  0.41372229
Direct configuration=    36
   0.66919539 -0.00032835  0.15457259
   0.33047526 -0.00032835  0.15457259
   0.00032835  0.33080361  0.15457259
   0.00032835  0.66952374  0.15457259
   0.33047526  0.33080361  0.15457259
   0.66919539  0.66952374  0.15457259
   0.66666600  0.33333300  0.13234053
   0.33333300  0.66666600  0.18364198
   0.16809730  0.33619559  0.41227675
   0.33613039  0.16806469  0.41231222
   0.16809730  0.83190170  0.41227675
   0.33333300  0.66666600  0.41228215
   0.66666600  0.33333300  0.41239959
   0.83193431  0.16806469  0.41231222
   0.66380341  0.83190170  0.41227675
   0.83193431  0.66386861  0.41231222
Direct configuration=    37
   0.66904370 -0.00037844  0.15385121
   0.33057686 -0.00037844  0.15385121
   0.00037844  0.33095530  0.15385121
   0.00037844  0.66942214  0.15385121
   0.33057686  0.33095530  0.15385121
   0.66904370  0.66942214  0.15385121
   0.66666600  0.33333300  0.13197023
   0.33333300  0.66666600  0.18240114
   0.16786710  0.33573521  0.41302152
   0.33568946  0.16784423  0.41305387
   0.16786710  0.83213190  0.41302152
   0.33333300  0.66666600  0.41302436
   0.66666600  0.33333300  0.41313752
   0.83215477  0.16784423  0.41305387
   0.66426379  0.83213190  0.41302152
   0.83215477  0.66430954  0.41305387
Direct configuration=    38
   0.66858866 -0.00052870  0.15168706
   0.33088165 -0.00052870  0.15168706
   0.00052870  0.33141034  0.15168706
   0.00052870  0.66911735  0.15168706
   0.33088165  0.33141034  0.15168706
   0.66858866  0.66911735  0.15168706
   0.66666600  0.33333300  0.13085935
   0.33333300  0.66666600  0.17867863
   0.16717653  0.33435406  0.41525585
   0.33436666  0.16718283  0.41527882
   0.16717653  0.83282247  0.41525585
   0.33333300  0.66666600  0.41525101
   0.66666600  0.33333300  0.41535130
   0.83281617  0.16718283  0.41527882
   0.66564494  0.83282247  0.41525585
   0.83281617  0.66563234  0.41527882
Direct configuration=    39
   0.66767856 -0.00082921  0.14735877
   0.33149123 -0.00082921  0.14735877
   0.00082921  0.33232044  0.14735877
   0.00082921  0.66850777  0.14735877
   0.33149123  0.33232044  0.14735877
   0.66767856  0.66850777  0.14735877
   0.66666600  0.33333300  0.12863758
   0.33333300  0.66666600  0.17123361
   0.16579538  0.33159175  0.41972451
   0.33172106  0.16586003  0.41972872
   0.16579538  0.83420362  0.41972451
   0.33333300  0.66666600  0.41970431
   0.66666600  0.33333300  0.41977885
   0.83413897  0.16586003  0.41972872
   0.66840725  0.83420362  0.41972451
   0.83413897  0.66827794  0.41972872
Direct configuration=    40
   0.66812642 -0.00068133  0.14948872
   0.33119125 -0.00068133  0.14948872
   0.00068133  0.33187258  0.14948872
   0.00068133  0.66880775  0.14948872
   0.33119125  0.33187258  0.14948872
   0.66812642  0.66880775  0.14948872
   0.66666600  0.33333300  0.12973091
   0.33333300  0.66666600  0.17489730
   0.16647504  0.33295108  0.41752548
   0.33302296  0.16651098  0.41753892
   0.16647504  0.83352396  0.41752548
   0.33333300  0.66666600  0.41751284
   0.66666600  0.33333300  0.41760005
   0.83348802  0.16651098  0.41753892
   0.66704792  0.83352396  0.41752548
   0.83348802  0.66697604  0.41753892
Direct configuration=    41
   0.66803540 -0.00067080  0.14943419
   0.33129281 -0.00067080  0.14943419
   0.00067080  0.33196360  0.14943419
   0.00067080  0.66870619  0.14943419
   0.33129281  0.33196360  0.14943419
   0.66803540  0.66870619  0.14943419
   0.66666600  0.33333300  0.12979742
   0.33333300  0.66666600  0.17459091
   0.16652176  0.33304452  0.41759826
   0.33310119  0.16655009  0.41760984
   0.16652176  0.83347724  0.41759826
   0.33333300  0.66666600  0.41758402
   0.66666600  0.33333300  0.41766485
   0.83344891  0.16655009  0.41760984
   0.66695448  0.83347724  0.41759826
   0.83344891  0.66689781  0.41760984
Direct configuration=    42
   0.66776233 -0.00063920  0.14927061
   0.33159747 -0.00063920  0.14927061
   0.00063920  0.33223667  0.14927061
   0.00063920  0.66840153  0.14927061
   0.33159747  0.33223667  0.14927061
   0.66776233  0.66840153  0.14927061
   0.66666600  0.33333300  0.12999696
   0.33333300  0.66666600  0.17367174
   0.16666191  0.33332483  0.41781658
   0.33333587  0.16666744  0.41782259
   0.16666191  0.83333709  0.41781658
   0.33333300  0.66666600  0.41779756
   0.66666600  0.33333300  0.41785924
   0.83333156  0.16666744  0.41782259
   0.66667417  0.83333709  0.41781658
   0.83333156  0.66666313  0.41782259
Direct configuration=    43
   0.66721619 -0.00057602  0.14894344
   0.33220680 -0.00057602  0.14894344
   0.00057602  0.33278281  0.14894344
   0.00057602  0.66779220  0.14894344
   0.33220680  0.33278281  0.14894344
   0.66721619  0.66779220  0.14894344
   0.66666600  0.33333300  0.13039604
   0.33333300  0.66666600  0.17183340
   0.16694222  0.33388545  0.41825322
   0.33380524  0.16690212  0.41824808
   0.16694222  0.83305678  0.41825322
   0.33333300  0.66666600  0.41822463
   0.66666600  0.33333300  0.41824802
   0.83309688  0.16690212  0.41824808
   0.66611355  0.83305678  0.41825322
   0.83309688  0.66619376  0.41824808
Direct configuration=    44
   0.66741710 -0.00049764  0.14887346
   0.33208426 -0.00049764  0.14887346
   0.00049764  0.33258190  0.14887346
   0.00049764  0.66791474  0.14887346
   0.33208426  0.33258190  0.14887346
   0.66741710  0.66791474  0.14887346
   0.66666600  0.33333300  0.13065324
   0.33333300  0.66666600  0.17104605
   0.16680688  0.33361477  0.41837586
   0.33358372  0.16679136  0.41836619
   0.16680688  0.83319212  0.41837586
   0.33333300  0.66666600  0.41834736
   0.66666600  0.33333300  0.41835312
   0.83320764  0.16679136  0.41836619
   0.66638423  0.83319212  0.41837586
   0.83320764  0.66641528  0.41836619
Direct configuration=    45
   0.66801985 -0.00026250  0.14866349
   0.33171665 -0.00026250  0.14866349
   0.00026250  0.33197915  0.14866349
   0.00026250  0.66828235  0.14866349
   0.33171665  0.33197915  0.14866349
   0.66801985  0.66828235  0.14866349
   0.66666600  0.33333300  0.13142483
   0.33333300  0.66666600  0.16868400
   0.16640086  0.33280273  0.41874377
   0.33291917  0.16645908  0.41872053
   0.16640086  0.83359814  0.41874377
   0.33333300  0.66666600  0.41871556
   0.66666600  0.33333300  0.41866842
   0.83353992  0.16645908  0.41872053
   0.66719627  0.83359814  0.41874377
   0.83353992  0.66707983  0.41872053
Direct configuration=    46
   0.66820620 -0.00018981  0.14859858
   0.33160299 -0.00018981  0.14859858
   0.00018981  0.33179280  0.14859858
   0.00018981  0.66839601  0.14859858
   0.33160299  0.33179280  0.14859858
   0.66820620  0.66839601  0.14859858
   0.66666600  0.33333300  0.13166339
   0.33333300  0.66666600  0.16795371
   0.16627533  0.33255167  0.41885752
   0.33271370  0.16635635  0.41883008
   0.16627533  0.83372367  0.41885752
   0.33333300  0.66666600  0.41882940
   0.66666600  0.33333300  0.41876591
   0.83364265  0.16635635  0.41883008
   0.66744733  0.83372367  0.41885752
   0.83364265  0.66728530  0.41883008
Direct configuration=    47
   0.66865825 -0.00011337  0.14853355
   0.33122738 -0.00011337  0.14853355
   0.00011337  0.33134075  0.14853355
   0.00011337  0.66877162  0.14853355
   0.33122738  0.33134075  0.14853355
   0.66865825  0.66877162  0.14853355
   0.66666600  0.33333300  0.13216743
   0.33333300  0.66666600  0.16659659
   0.16654372  0.33308845  0.41901580
   0.33314742  0.16657321  0.41898219
   0.16654372  0.83345528  0.41901580
   0.33333300  0.66666600  0.41899582
   0.66666600  0.33333300  0.41891154