Relaxation_HSE06                        
           1
     4.061659    2.345000    0.000000
    -4.061659    2.345000    0.000000
     0.000000    0.000000   15.000000
   B    C 
     4     3
Direct configuration=     1
   0.00418393  0.00277040  0.12026517
   0.35695522  0.00278199  0.09750344
   0.00418697  0.35554205  0.09750299
   0.65141623  0.65001171  0.09750545
   0.32810072  0.32669404  0.10028273
   0.68026827  0.00278111  0.10029217
   0.00418666  0.67885669  0.10029405
Relaxation_HSE06                        
           1
     4.012529    2.316641    0.000000
    -4.012527    2.316637    0.000000
     0.000000    0.000000   15.000000
   B    C 
     4     3
Direct configuration=     2
   0.00418505  0.00277545  0.12015104
   0.35653639  0.00277708  0.09740373
   0.00418539  0.35512785  0.09740333
   0.65183217  0.65042389  0.09740510
   0.32558808  0.32417982  0.10042228
   0.68278531  0.00277723  0.10042960
   0.00418561  0.68137668  0.10043092
Relaxation_HSE06                        
           1
     4.045631    2.335748    0.000000
    -4.045630    2.335747    0.000000
     0.000000    0.000000   15.000000
   B    C 
     4     3
Direct configuration=     3
   0.00418429  0.00277201  0.12022793
   0.35682203  0.00278043  0.09747091
   0.00418647  0.35541034  0.09747048
   0.65154849  0.65014278  0.09747272
   0.32730172  0.32589455  0.10032826
   0.68106867  0.00277988  0.10033700
   0.00418633  0.67965802  0.10033870
Relaxation_HSE06                        
           1
     4.045494    2.335669    0.000000
    -4.045493    2.335668    0.000000
     0.000000    0.000000   15.000000
   B    C 
     4     3
Direct configuration=     4
   0.00418429  0.00277202  0.12022762
   0.35682086  0.00278042  0.09747063
   0.00418646  0.35540918  0.09747020
   0.65154966  0.65014393  0.09747244
   0.32729469  0.32588751  0.10032864
   0.68107571  0.00277987  0.10033739
   0.00418632  0.67966507  0.10033908
Relaxation_HSE06                        
           1
     4.041026    2.333089    0.000000
    -4.041026    2.333088    0.000000
     0.000000    0.000000   15.000000
   B    C 
     4     3
Direct configuration=     5
   0.00418544  0.00277628  0.12041872
   0.35745240  0.00277749  0.09736600
   0.00418570  0.35604343  0.09736566
   0.65091859  0.64951040  0.09736732
   0.32782935  0.32642160  0.10037098
   0.68054099  0.00277744  0.10037800
   0.00418554  0.67913136  0.10037931
Relaxation_HSE06                        
           1
     4.043533    2.334536    0.000000
    -4.043532    2.334535    0.000000
     0.000000    0.000000   15.000000
   B    C 
     4     3
Direct configuration=     6
   0.00418479  0.00277389  0.12031152
   0.35709775  0.00277913  0.09742469
   0.00418613  0.35568726  0.09742430
   0.65127298  0.64986617  0.09742629
   0.32752911  0.32612167  0.10034723
   0.68084127  0.00277880  0.10035522
   0.00418598  0.67943107  0.10035675
Relaxation_HSE06                        
           1
     4.043592    2.334570    0.000000
    -4.043592    2.334570    0.000000
     0.000000    0.000000   15.000000
   B    C 
     4     3
Direct configuration=     7
   0.00418575  0.00277689  0.12047181
   0.35713461  0.00277700  0.09733659
   0.00418566  0.35572596  0.09733627
   0.65123634  0.64982781  0.09733774
   0.32744217  0.32603442  0.10038320
   0.68092790  0.00277711  0.10038961
   0.00418556  0.67951880  0.10039076
Relaxation_HSE06                        
           1
     4.043670    2.334613    0.000000
    -4.043670    2.334614    0.000000
     0.000000    0.000000   15.000000
   B    C 
     4     3
Direct configuration=     8
   0.00418699  0.00278076  0.12067829
   0.35718210  0.00277426  0.09722310
   0.00418505  0.35577582  0.09722288
   0.65118916  0.64977840  0.09722369
   0.32733019  0.32592203  0.10042954
   0.68103949  0.00277494  0.10043392
   0.00418503  0.67963179  0.10043457
Relaxation_HSE06                        
           1
     4.043423    2.334470    0.000000
    -4.043423    2.334470    0.000000
     0.000000    0.000000   15.000000
   B    C 
     4     3
Direct configuration=     9
   0.00418693  0.00278082  0.12085231
   0.35705684  0.00277398  0.09717965
   0.00418462  0.35565053  0.09717952
   0.65131432  0.64990336  0.09717990
   0.32735837  0.32594978  0.10041609
   0.68101192  0.00277494  0.10041910
   0.00418499  0.67960459  0.10041944
Relaxation_HSE06                        
           1
     4.042685    2.334043    0.000000
    -4.042684    2.334041    0.000000
     0.000000    0.000000   15.000000
   B    C 
     4     3
Direct configuration=    10
   0.00418676  0.00278100  0.12137434
   0.35668104  0.00277313  0.09704928
   0.00418334  0.35527462  0.09704944
   0.65168984  0.65027827  0.09704853
   0.32744290  0.32603306  0.10037572
   0.68092922  0.00277496  0.10037465
   0.00418489  0.67952296  0.10037405
Relaxation_HSE06                        
           1
     4.042070    2.333690    0.000000
    -4.042071    2.333692    0.000000
     0.000000    0.000000   15.000000
   B    C 
     4     3
Direct configuration=    11
   0.00418631  0.00277900  0.12159415
   0.35676471  0.00277594  0.09704337
   0.00418508  0.35535721  0.09704356
   0.65160719  0.65019775  0.09704249
   0.32738744  0.32597902  0.10030898
   0.68098229  0.00277597  0.10030712
   0.00418499  0.67957310  0.10030633
Relaxation_HSE06                        
           1
     4.041927    2.333607    0.000000
    -4.041928    2.333610    0.000000
     0.000000    0.000000   15.000000
   B    C 
     4     3
Direct configuration=    12
   0.00418620  0.00277853  0.12164550
   0.35678425  0.00277660  0.09704198
   0.00418548  0.35537650  0.09704218
   0.65158787  0.65017894  0.09704108
   0.32737449  0.32596640  0.10029338
   0.68099468  0.00277620  0.10029135
   0.00418502  0.67958482  0.10029052
Relaxation_HSE06                        
           1
     4.041640    2.333442    0.000000
    -4.041642    2.333447    0.000000
     0.000000    0.000000   15.000000
   B    C 
     4     3
Direct configuration=    13
   0.00418599  0.00277760  0.12174820
   0.35682335  0.00277792  0.09703922
   0.00418630  0.35541510  0.09703943
   0.65154925  0.65014131  0.09703826
   0.32734857  0.32594115  0.10026220
   0.68101948  0.00277667  0.10025980
   0.00418507  0.67960825  0.10025888
Relaxation_HSE06                        
           1
     4.041728    2.333493    0.000000
    -4.041731    2.333497    0.000000
     0.000000    0.000000   15.000000
   B    C 
     4     3
Direct configuration=    14
   0.00418605  0.00277789  0.12171655
   0.35681130  0.00277751  0.09704007
   0.00418605  0.35540320  0.09704028
   0.65156115  0.65015291  0.09703913
   0.32735656  0.32594893  0.10027181
   0.68101184  0.00277653  0.10026952
   0.00418505  0.67960103  0.10026863
Relaxation_HSE06                        
           1
     4.041827    2.333550    0.000000
    -4.041830    2.333554    0.000000
     0.000000    0.000000   15.000000
   B    C 
     4     3
Direct configuration=    15
   0.00418613  0.00277821  0.12168103
   0.35679778  0.00277706  0.09704103
   0.00418577  0.35538985  0.09704123
   0.65157452  0.65016592  0.09704011
   0.32736552  0.32595767  0.10028260
   0.68100326  0.00277637  0.10028044
   0.00418503  0.67959292  0.10027957
Relaxation_HSE06                        
           1
     4.041864    2.333571    0.000000
    -4.041866    2.333575    0.000000
     0.000000    0.000000   15.000000
   B    C 
     4     3
Direct configuration=    16
   0.00418615  0.00277833  0.12166791
   0.35679278  0.00277689  0.09704138
   0.00418566  0.35538492  0.09704158
   0.65157945  0.65017073  0.09704047
   0.32736883  0.32596089  0.10028658
   0.68100009  0.00277631  0.10028447
   0.00418503  0.67958993  0.10028361
Relaxation_HSE06                        
           1
     4.041842    2.333559    0.000000
    -4.041845    2.333562    0.000000
     0.000000    0.000000   15.000000
   B    C 
     4     3
Direct configuration=    17
   0.00418614  0.00277826  0.12167562
   0.35679572  0.00277699  0.09704117
   0.00418572  0.35538782  0.09704138
   0.65157655  0.65016791  0.09704026
   0.32736689  0.32595900  0.10028424
   0.68100196  0.00277634  0.10028210
   0.00418503  0.67959169  0.10028124
Relaxation_HSE06                        
           1
     4.041834    2.333554    0.000000
    -4.041836    2.333558    0.000000
     0.000000    0.000000   15.000000
   B    C 
     4     3
Direct configuration=    18
   0.00418613  0.00277823  0.12167864
   0.35679687  0.00277703  0.09704109
   0.00418575  0.35538895  0.09704130
   0.65157541  0.65016680  0.09704017
   0.32736612  0.32595825  0.10028332
   0.68100268  0.00277636  0.10028117
   0.00418503  0.67959238  0.10028031
Relaxation_HSE06                        
           1
     4.042188    2.333758    0.000000
    -4.042188    2.333758    0.000000
     0.000000    0.000000   15.000000
   B    C 
     4     3
Direct configuration=    19
   0.00418481  0.00277466  0.12179702
   0.35672289  0.00277678  0.09702819
   0.00418529  0.35531272  0.09702836
   0.65164580  0.65023748  0.09702748
   0.32723937  0.32583156  0.10025650
   0.68113446  0.00277720  0.10025460
   0.00418538  0.67972760  0.10025385
Relaxation_HSE06                        
           1
     4.042048    2.333677    0.000000
    -4.042049    2.333679    0.000000
     0.000000    0.000000   15.000000
   B    C 
     4     3
Direct configuration=    20
   0.00418533  0.00277607  0.12175031
   0.35675207  0.00277688  0.09703328
   0.00418547  0.35534279  0.09703346
   0.65161803  0.65020960  0.09703249
   0.32728937  0.32588154  0.10026708
   0.68108248  0.00277687  0.10026508
   0.00418524  0.67967426  0.10026429
Relaxation_HSE06                        
           1
     4.041994    2.333646    0.000000
    -4.041995    2.333648    0.000000
     0.000000    0.000000   15.000000
   B    C 
     4     3
Direct configuration=    21
   0.00418554  0.00277662  0.12173212
   0.35676344  0.00277692  0.09703526
   0.00418554  0.35535451  0.09703545
   0.65160722  0.65019874  0.09703444
   0.32730885  0.32590101  0.10027120
   0.68106223  0.00277674  0.10026917
   0.00418519  0.67965348  0.10026836
Relaxation_HSE06                        
           1
     4.042011    2.333656    0.000000
    -4.042012    2.333657    0.000000
     0.000000    0.000000   15.000000
   B    C 
     4     3
Direct configuration=    22
   0.00418547  0.00277645  0.12173774
   0.35675992  0.00277691  0.09703465
   0.00418552  0.35535089  0.09703484
   0.65161056  0.65020209  0.09703384
   0.32730283  0.32589499  0.10026993
   0.68106849  0.00277678  0.10026790
   0.00418521  0.67965990  0.10026710
Relaxation_HSE06                        
           1
     4.042030    2.333667    0.000000
    -4.042030    2.333668    0.000000
     0.000000    0.000000   15.000000
   B    C 
     4     3
Direct configuration=    23
   0.00418540  0.00277626  0.12174403
   0.35675600  0.00277689  0.09703396
   0.00418549  0.35534684  0.09703415
   0.65161430  0.65020585  0.09703316
   0.32729610  0.32588826  0.10026850
   0.68107548  0.00277682  0.10026649
   0.00418522  0.67966708  0.10026570
Relaxation_HSE06                        
           1
     4.042321    2.333834    0.000000
    -4.042320    2.333832    0.000000
     0.000000    0.000000   15.000000
   B    C 
     4     3
Direct configuration=    24
   0.00418517  0.00277571  0.12179386
   0.35670908  0.00277721  0.09701737
   0.00418540  0.35530029  0.09701750
   0.65166193  0.65025357  0.09701684
   0.32732205  0.32591387  0.10026806
   0.68104915  0.00277688  0.10026652
   0.00418522  0.67964046  0.10026585
Relaxation_HSE06                        
           1
     4.042751    2.334081    0.000000
    -4.042747    2.334075    0.000000
     0.000000    0.000000   15.000000
   B    C 
     4     3
Direct configuration=    25
   0.00418481  0.00277491  0.12186749
   0.35663976  0.00277768  0.09699285
   0.00418525  0.35523152  0.09699290
   0.65173231  0.65032408  0.09699273
   0.32736039  0.32595170  0.10026740
   0.68101026  0.00277698  0.10026655
   0.00418521  0.67960114  0.10026608
Relaxation_HSE06                        
           1
     4.042476    2.333923    0.000000
    -4.042475    2.333920    0.000000
     0.000000    0.000000   15.000000
   B    C 
     4     3
Direct configuration=    26
   0.00418504  0.00277542  0.12182052
   0.35668397  0.00277738  0.09700849
   0.00418535  0.35527538  0.09700859
   0.65168743  0.65027911  0.09700811
   0.32733594  0.32592757  0.10026782
   0.68103506  0.00277692  0.10026653
   0.00418522  0.67962622  0.10026593
Relaxation_HSE06                        
           1
     4.042395    2.333876    0.000000
    -4.042393    2.333874    0.000000
     0.000000    0.000000   15.000000
   B    C 
     4     3
Direct configuration=    27
   0.00418511  0.00277557  0.12180650
   0.35669718  0.00277729  0.09701316
   0.00418537  0.35528848  0.09701328
   0.65167402  0.65026568  0.09701271
   0.32732864  0.32592037  0.10026795
   0.68104248  0.00277690  0.10026652
   0.00418522  0.67963371  0.10026589
Relaxation_HSE06                        
           1
     4.042169    2.333746    0.000000
    -4.042168    2.333744    0.000000
     0.000000    0.000000   15.000000
   B    C 
     4     3
Direct configuration=    28
   0.00418527  0.00277603  0.12184563
   0.35667309  0.00277737  0.09699830
   0.00418539  0.35526425  0.09699837
   0.65169823  0.65028986  0.09699807
   0.32733820  0.32592997  0.10026934
   0.68103257  0.00277704  0.10026840
   0.00418526  0.67962348  0.10026789
Relaxation_HSE06                        
           1
     4.041494    2.333357    0.000000
    -4.041493    2.333355    0.000000
     0.000000    0.000000   15.000000
   B    C 
     4     3
Direct configuration=    29
   0.00418576  0.00277741  0.12196303
   0.35660083  0.00277761  0.09695371
   0.00418543  0.35519156  0.09695366
   0.65177086  0.65036240  0.09695415
   0.32736690  0.32595878  0.10027352
   0.68100286  0.00277745  0.10027404
   0.00418537  0.67959278  0.10027389
Relaxation_HSE06                        
           1
     4.041837    2.333555    0.000000
    -4.041836    2.333552    0.000000
     0.000000    0.000000   15.000000
   B    C 
     4     3
Direct configuration=    30
   0.00418551  0.00277671  0.12190343
   0.35663752  0.00277749  0.09697634
   0.00418541  0.35522847  0.09697636
   0.65173398  0.65032557  0.09697644
   0.32735233  0.32594415  0.10027140
   0.68101794  0.00277724  0.10027118
   0.00418531  0.67960837  0.10027085
Relaxation_HSE06                        
           1
     4.041986    2.333641    0.000000
    -4.041985    2.333639    0.000000
     0.000000    0.000000   15.000000
   B    C 
     4     3
Direct configuration=    31
   0.00418540  0.00277641  0.12187749
   0.35665348  0.00277744  0.09698620
   0.00418540  0.35524453  0.09698624
   0.65171793  0.65030954  0.09698615
   0.32734599  0.32593779  0.10027047
   0.68102451  0.00277715  0.10026993
   0.00418529  0.67961515  0.10026952
Relaxation_HSE06                        
           1
     4.042014    2.333656    0.000000
    -4.042012    2.333654    0.000000
     0.000000    0.000000   15.000000
   B    C 
     4     3
Direct configuration=    32
   0.00418538  0.00277635  0.12187276
   0.35665640  0.00277743  0.09698799
   0.00418540  0.35524746  0.09698804
   0.65171500  0.65030661  0.09698792
   0.32734483  0.32593663  0.10027031
   0.68102571  0.00277713  0.10026971
   0.00418528  0.67961639  0.10026928
Relaxation_HSE06                        
           1
     4.041993    2.333645    0.000000
    -4.041992    2.333642    0.000000
     0.000000    0.000000   15.000000
   B    C 
     4     3
Direct configuration=    33
   0.00418540  0.00277639  0.12187631
   0.35665421  0.00277743  0.09698664
   0.00418540  0.35524526  0.09698669
   0.65171720  0.65030881  0.09698659
   0.32734570  0.32593750  0.10027043
   0.68102481  0.00277715  0.10026988
   0.00418528  0.67961546  0.10026946
Relaxation_HSE06                        
           1
     4.041820    2.333546    0.000000
    -4.041819    2.333545    0.000000
     0.000000    0.000000   15.000000
   B    C 
     4     3
Direct configuration=    34
   0.00418549  0.00277657  0.12189308
   0.35667816  0.00277702  0.09698269
   0.00418537  0.35526909  0.09698272
   0.65169249  0.65028389  0.09698268
   0.32731957  0.32591155  0.10026861
   0.68105164  0.00277703  0.10026829
   0.00418529  0.67964286  0.10026793
Relaxation_HSE06                        
           1
     4.041719    2.333488    0.000000
    -4.041719    2.333489    0.000000
     0.000000    0.000000   15.000000
   B    C 
     4     3
Direct configuration=    35
   0.00418554  0.00277667  0.12190284
   0.35669210  0.00277678  0.09698039
   0.00418535  0.35528294  0.09698041
   0.65167811  0.65026940  0.09698041
   0.32730438  0.32589646  0.10026755
   0.68106724  0.00277696  0.10026737
   0.00418529  0.67965880  0.10026704
Relaxation_HSE06                        
           1
     4.041762    2.333513    0.000000
    -4.041762    2.333513    0.000000
     0.000000    0.000000   15.000000
   B    C 
     4     3
Direct configuration=    36
   0.00418552  0.00277662  0.12189866
   0.35668613  0.00277688  0.09698137
   0.00418535  0.35527701  0.09698140
   0.65168427  0.65027561  0.09698138
   0.32731089  0.32590292  0.10026800
   0.68106056  0.00277699  0.10026776
   0.00418529  0.67965197  0.10026742
Relaxation_HSE06                        
           1
     4.041739    2.333500    0.000000
    -4.041739    2.333500    0.000000
     0.000000    0.000000   15.000000
   B    C 
     4     3
Direct configuration=    37
   0.00418553  0.00277665  0.12190088
   0.35668930  0.00277683  0.09698085
   0.00418535  0.35528016  0.09698087
   0.65168100  0.65027231  0.09698086
   0.32730743  0.32589948  0.10026776
   0.68106411  0.00277698  0.10026755
   0.00418529  0.67965560  0.10026722
Relaxation_HSE06                        
           1
     4.041750    2.333506    0.000000
    -4.041751    2.333507    0.000000
     0.000000    0.000000   15.000000
   B    C 
     4     3
Direct configuration=    38
   0.00418553  0.00277663  0.12189977
   0.35668771  0.00277685  0.09698111
   0.00418535  0.35527858  0.09698114
   0.65168263  0.65027396  0.09698112
   0.32730916  0.32590120  0.10026788
   0.68106233  0.00277698  0.10026766
   0.00418529  0.67965378  0.10026732
Relaxation_HSE06                        
           1
     4.041871    2.333576    0.000000
    -4.041871    2.333577    0.000000
     0.000000    0.000000   15.000000
   B    C 
     4     3
Direct configuration=    39
   0.00418557  0.00277672  0.12191317
   0.35670179  0.00277684  0.09697945
   0.00418541  0.35529320  0.09697947
   0.65166921  0.65026053  0.09697948
   0.32730543  0.32589741  0.10026492
   0.68106535  0.00277676  0.10026490
   0.00418524  0.67965655  0.10026461
Relaxation_HSE06                        
           1
     4.041917    2.333602    0.000000
    -4.041917    2.333603    0.000000
     0.000000    0.000000   15.000000
   B    C 
     4     3
Direct configuration=    40
   0.00418558  0.00277675  0.12191827
   0.35670715  0.00277684  0.09697881
   0.00418544  0.35529876  0.09697883
   0.65166410  0.65025541  0.09697885
   0.32730401  0.32589596  0.10026380
   0.68106650  0.00277668  0.10026385
   0.00418523  0.67965760  0.10026358
Relaxation_HSE06                        
           1
     4.041882    2.333582    0.000000
    -4.041883    2.333583    0.000000
     0.000000    0.000000   15.000000
   B    C 
     4     3
Direct configuration=    41
   0.00418557  0.00277673  0.12191441
   0.35670310  0.00277684  0.09697929
   0.00418542  0.35529455  0.09697931
   0.65166796  0.65025928  0.09697933
   0.32730508  0.32589705  0.10026465
   0.68106563  0.00277674  0.10026465
   0.00418524  0.67965680  0.10026436
Relaxation_HSE06                        
           1
     4.041928    2.333608    0.000000
    -4.041928    2.333608    0.000000
     0.000000    0.000000   15.000000
   B    C 
     4     3
Direct configuration=    42
   0.00418565  0.00277694  0.12192561
   0.35669319  0.00277695  0.09697862
   0.00418545  0.35528476  0.09697865
   0.65167816  0.65026953  0.09697866
   0.32730155  0.32589341  0.10026136
   0.68106873  0.00277667  0.10026165
   0.00418526  0.67965973  0.10026144
Relaxation_HSE06                        
           1
     4.041994    2.333646    0.000000
    -4.041993    2.333644    0.000000
     0.000000    0.000000   15.000000
   B    C 
     4     3
Direct configuration=    43
   0.00418577  0.00277724  0.12194155
   0.35667909  0.00277711  0.09697767
   0.00418549  0.35527083  0.09697771
   0.65169266  0.65028411  0.09697772
   0.32729653  0.32588823  0.10025669
   0.68107315  0.00277657  0.10025739
   0.00418530  0.67966391  0.10025728
Relaxation_HSE06                        
           1
     4.041947    2.333618    0.000000
    -4.041946    2.333617    0.000000
     0.000000    0.000000   15.000000
   B    C 
     4     3
Direct configuration=    44
   0.00418572  0.00277718  0.12194986
   0.35667295  0.00277697  0.09697647
   0.00418540  0.35526449  0.09697651
   0.65169841  0.65028979  0.09697651
   0.32729917  0.32589089  0.10025492
   0.68107100  0.00277668  0.10025589
   0.00418534  0.67966199  0.10025585
Relaxation_HSE06                        
           1
     4.041966    2.333629    0.000000
    -4.041965    2.333628    0.000000
     0.000000    0.000000   15.000000
   B    C 
     4     3
Direct configuration=    45
   0.00418574  0.00277721  0.12194648
   0.35667544  0.00277703  0.09697696
   0.00418544  0.35526707  0.09697700
   0.65169608  0.65028748  0.09697700
   0.32729810  0.32588981  0.10025564
   0.68107187  0.00277664  0.10025650
   0.00418533  0.67966277  0.10025643
Relaxation_HSE06                        
           1
     4.041958    2.333625    0.000000
    -4.041957    2.333624    0.000000
     0.000000    0.000000   15.000000
   B    C 
     4     3
Direct configuration=    46
   0.00418573  0.00277720  0.12194795
   0.35667436  0.00277700  0.09697674
   0.00418542  0.35526595  0.09697679
   0.65169709  0.65028849  0.09697679
   0.32729856  0.32589028  0.10025533
   0.68107149  0.00277666  0.10025623
   0.00418533  0.67966243  0.10025617
Relaxation_HSE06                        
           1
     4.041954    2.333623    0.000000
    -4.041953    2.333621    0.000000
     0.000000    0.000000   15.000000
   B    C 
     4     3
Direct configuration=    47
   0.00418573  0.00277719  0.12194859
   0.35667388  0.00277699  0.09697665
   0.00418542  0.35526546  0.09697670
   0.65169754  0.65028893  0.09697669
   0.32729877  0.32589048  0.10025519
   0.68107133  0.00277667  0.10025612
   0.00418534  0.67966228  0.10025606
Relaxation_HSE06                        
           1
     4.041887    2.333584    0.000000
    -4.041886    2.333583    0.000000
     0.000000    0.000000   15.000000
   B    C 
     4     3
Direct configuration=    48
   0.00418566  0.00277705  0.12194919
   0.35667546  0.00277687  0.09697556
   0.00418536  0.35526686  0.09697561
   0.65169561  0.65028694  0.09697561
   0.32730356  0.32589535  0.10025609
   0.68106702  0.00277675  0.10025700
   0.00418533  0.67965818  0.10025694
