  15  15   1  16
  0.2033749E+02  0.4846000E-09  0.4846000E-09  0.1500000E-08  0.5000000E-15
  1.000000000000000E-004
  CAR 
 BS_HSE06                                
     23.20434820    -25.08274369  301     -0.44626701      1.00000000
    -25.083  0.0000E+00  0.0000E+00
    -24.922  0.0000E+00  0.0000E+00
    -24.761  0.0000E+00  0.0000E+00
    -24.600  0.0000E+00  0.0000E+00
    -24.439  0.0000E+00  0.0000E+00
    -24.278  0.0000E+00  0.0000E+00
    -24.117  0.0000E+00  0.0000E+00
    -23.956  0.0000E+00  0.0000E+00
    -23.795  0.0000E+00  0.0000E+00
    -23.634  0.0000E+00  0.0000E+00
    -23.473  0.5701E-17  0.9175E-18
    -23.312  0.1044E-09  0.1680E-10
    -23.151  0.1212E-04  0.1951E-05
    -22.990  0.1565E-01  0.2520E-02
    -22.829  0.4349E+00  0.7253E-01
    -22.668  0.1064E+01  0.2438E+00
    -22.507  0.1056E+01  0.4137E+00
    -22.346  0.1102E+01  0.5911E+00
    -22.186  0.1137E+01  0.7741E+00
    -22.025  0.1092E+01  0.9499E+00
    -21.864  0.9188E+00  0.1098E+01
    -21.703  0.1523E+01  0.1343E+01
    -21.542  0.6563E+00  0.1449E+01
    -21.381  0.1241E+01  0.1648E+01
    -21.220  0.1393E+01  0.1873E+01
    -21.059  0.7881E+00  0.1999E+01
    -20.898  0.9192E+00  0.2147E+01
    -20.737  0.1729E+01  0.2426E+01
    -20.576  0.8893E+00  0.2569E+01
    -20.415  0.7776E+00  0.2694E+01
    -20.254  0.1128E+01  0.2876E+01
    -20.093  0.1767E+01  0.3160E+01
    -19.932  0.8214E+00  0.3292E+01
    -19.771  0.8773E+00  0.3433E+01
    -19.610  0.1679E+01  0.3704E+01
    -19.449  0.3403E+01  0.4251E+01
    -19.288  0.3098E+01  0.4750E+01
    -19.127  0.3064E+01  0.5243E+01
    -18.966  0.4381E+01  0.5948E+01
    -18.805  0.3742E+01  0.6551E+01
    -18.644  0.1538E+01  0.6798E+01
    -18.484  0.1136E+01  0.6981E+01
    -18.323  0.1026E+01  0.7147E+01
    -18.162  0.2965E+00  0.7194E+01
    -18.001  0.1962E+01  0.7510E+01
    -17.840  0.1637E+01  0.7774E+01
    -17.679  0.1112E+01  0.7953E+01
    -17.518  0.9398E+00  0.8104E+01
    -17.357  0.9361E+00  0.8254E+01
    -17.196  0.1025E+01  0.8419E+01
    -17.035  0.3187E+01  0.8933E+01
    -16.874  0.3928E+01  0.9565E+01
    -16.713  0.4089E+01  0.1022E+02
    -16.552  0.1830E+01  0.1052E+02
    -16.391  0.2314E+01  0.1089E+02
    -16.230  0.3563E+01  0.1146E+02
    -16.069  0.2842E+01  0.1192E+02
    -15.908  0.2021E+01  0.1225E+02
    -15.747  0.4239E+01  0.1293E+02
    -15.586  0.4460E+01  0.1365E+02
    -15.425  0.3525E+01  0.1421E+02
    -15.264  0.2079E+01  0.1455E+02
    -15.103  0.9224E+00  0.1470E+02
    -14.942  0.1178E+01  0.1489E+02
    -14.781  0.1798E+01  0.1518E+02
    -14.621  0.1448E+01  0.1541E+02
    -14.460  0.1622E+01  0.1567E+02
    -14.299  0.9033E+00  0.1582E+02
    -14.138  0.1771E+01  0.1610E+02
    -13.977  0.4008E+00  0.1616E+02
    -13.816  0.1818E+01  0.1646E+02
    -13.655  0.1050E+01  0.1663E+02
    -13.494  0.7991E+00  0.1676E+02
    -13.333  0.1193E+01  0.1695E+02
    -13.172  0.1022E+01  0.1711E+02
    -13.011  0.1004E+01  0.1727E+02
    -12.850  0.1037E+01  0.1744E+02
    -12.689  0.1202E+01  0.1763E+02
    -12.528  0.1202E+01  0.1783E+02
    -12.367  0.1252E+01  0.1803E+02
    -12.206  0.2210E+01  0.1838E+02
    -12.045  0.2199E+01  0.1874E+02
    -11.884  0.3900E+01  0.1937E+02
    -11.723  0.3549E+01  0.1994E+02
    -11.562  0.2844E+01  0.2039E+02
    -11.401  0.3342E+01  0.2093E+02
    -11.240  0.3595E+01  0.2151E+02
    -11.079  0.4031E+01  0.2216E+02
    -10.919  0.2703E+01  0.2260E+02
    -10.758  0.1425E+01  0.2282E+02
    -10.597  0.3232E+01  0.2335E+02
    -10.436  0.5381E+01  0.2421E+02
    -10.275  0.2255E+01  0.2457E+02
    -10.114  0.2480E+01  0.2497E+02
     -9.953  0.3889E+01  0.2560E+02
     -9.792  0.3060E+01  0.2609E+02
     -9.631  0.2227E+01  0.2645E+02
     -9.470  0.5690E+01  0.2737E+02
     -9.309  0.4410E+01  0.2808E+02
     -9.148  0.6114E+01  0.2906E+02
     -8.987  0.2841E+01  0.2952E+02
     -8.826  0.3519E+01  0.3008E+02
     -8.665  0.3397E+01  0.3063E+02
     -8.504  0.3258E+01  0.3115E+02
     -8.343  0.4510E+01  0.3188E+02
     -8.182  0.3353E+01  0.3242E+02
     -8.021  0.3303E+01  0.3295E+02
     -7.860  0.4918E+01  0.3374E+02
     -7.699  0.4016E+01  0.3439E+02
     -7.538  0.3479E+01  0.3495E+02
     -7.377  0.4371E+01  0.3565E+02
     -7.217  0.5715E+01  0.3657E+02
     -7.056  0.5574E+01  0.3747E+02
     -6.895  0.5572E+01  0.3837E+02
     -6.734  0.5924E+01  0.3932E+02
     -6.573  0.4423E+01  0.4003E+02
     -6.412  0.6852E+01  0.4114E+02
     -6.251  0.7348E+01  0.4232E+02
     -6.090  0.4138E+01  0.4298E+02
     -5.929  0.1704E+01  0.4326E+02
     -5.768  0.1797E+01  0.4355E+02
     -5.607  0.3441E+01  0.4410E+02
     -5.446  0.2542E+01  0.4451E+02
     -5.285  0.2501E+01  0.4491E+02
     -5.124  0.5272E+01  0.4576E+02
     -4.963  0.4803E+01  0.4654E+02
     -4.802  0.3598E+01  0.4711E+02
     -4.641  0.4488E+01  0.4784E+02
     -4.480  0.4715E+01  0.4860E+02
     -4.319  0.4229E+01  0.4928E+02
     -4.158  0.2291E+01  0.4965E+02
     -3.997  0.2654E+01  0.5007E+02
     -3.836  0.3062E+01  0.5057E+02
     -3.675  0.3944E+01  0.5120E+02
     -3.515  0.3139E+01  0.5171E+02
     -3.354  0.2032E+01  0.5203E+02
     -3.193  0.2240E+01  0.5239E+02
     -3.032  0.2376E+01  0.5278E+02
     -2.871  0.3339E+01  0.5331E+02
     -2.710  0.1993E+01  0.5363E+02
     -2.549  0.1639E+01  0.5390E+02
     -2.388  0.2362E+01  0.5428E+02
     -2.227  0.1842E+01  0.5457E+02
     -2.066  0.2344E+01  0.5495E+02
     -1.905  0.1848E+01  0.5525E+02
     -1.744  0.1354E+01  0.5547E+02
     -1.583  0.8653E+00  0.5561E+02
     -1.422  0.7794E+00  0.5573E+02
     -1.261  0.8752E+00  0.5587E+02
     -1.100  0.1798E+00  0.5590E+02
     -0.939  0.3109E+00  0.5595E+02
     -0.778  0.2950E+00  0.5600E+02
     -0.617  0.6561E-02  0.5600E+02
     -0.456  0.1440E-05  0.5600E+02
     -0.295  0.8874E-11  0.5600E+02
     -0.134  0.3070E-05  0.5600E+02
      0.027  0.9922E-02  0.5600E+02
      0.188  0.3311E+00  0.5605E+02
      0.348  0.2716E+00  0.5610E+02
      0.509  0.1797E+00  0.5613E+02
      0.670  0.4132E+00  0.5619E+02
      0.831  0.2759E-01  0.5620E+02
      0.992  0.2800E+00  0.5624E+02
      1.153  0.2610E+01  0.5666E+02
      1.314  0.3157E+01  0.5717E+02
      1.475  0.4703E+01  0.5793E+02
      1.636  0.1439E+01  0.5816E+02
      1.797  0.1669E+01  0.5843E+02
      1.958  0.2690E+01  0.5886E+02
      2.119  0.3746E+01  0.5946E+02
      2.280  0.3309E+01  0.6000E+02
      2.441  0.9238E+00  0.6015E+02
      2.602  0.1947E+01  0.6046E+02
      2.763  0.1965E+01  0.6078E+02
      2.924  0.1899E+01  0.6108E+02
      3.085  0.2255E+01  0.6144E+02
      3.246  0.3028E+01  0.6193E+02
      3.407  0.2061E+01  0.6226E+02
      3.568  0.1995E+01  0.6258E+02
      3.729  0.2553E+01  0.6300E+02
      3.890  0.3595E+01  0.6357E+02
      4.050  0.3685E+01  0.6417E+02
      4.211  0.3320E+01  0.6470E+02
      4.372  0.5401E+01  0.6557E+02
      4.533  0.5525E+01  0.6646E+02
      4.694  0.7342E+01  0.6764E+02
      4.855  0.5213E+01  0.6848E+02
      5.016  0.7275E+01  0.6965E+02
      5.177  0.6228E+01  0.7065E+02
      5.338  0.6282E+01  0.7167E+02
      5.499  0.4946E+01  0.7246E+02
      5.660  0.6962E+01  0.7358E+02
      5.821  0.5247E+01  0.7443E+02
      5.982  0.4650E+01  0.7518E+02
      6.143  0.6649E+01  0.7625E+02
      6.304  0.5366E+01  0.7711E+02
      6.465  0.5235E+01  0.7795E+02
      6.626  0.6387E+01  0.7898E+02
      6.787  0.5250E+01  0.7982E+02
      6.948  0.4802E+01  0.8060E+02
      7.109  0.3645E+01  0.8118E+02
      7.270  0.6250E+01  0.8219E+02
      7.431  0.9529E+01  0.8372E+02
      7.592  0.7461E+01  0.8492E+02
      7.752  0.5556E+01  0.8582E+02
      7.913  0.6698E+01  0.8690E+02
      8.074  0.5863E+01  0.8784E+02
      8.235  0.5225E+01  0.8868E+02
      8.396  0.7666E+01  0.8992E+02
      8.557  0.7259E+01  0.9108E+02
      8.718  0.8761E+01  0.9249E+02
      8.879  0.6404E+01  0.9353E+02
      9.040  0.8322E+01  0.9486E+02
      9.201  0.1030E+02  0.9652E+02
      9.362  0.1308E+02  0.9863E+02
      9.523  0.1033E+02  0.1003E+03
      9.684  0.9023E+01  0.1017E+03
      9.845  0.9483E+01  0.1033E+03
     10.006  0.9897E+01  0.1049E+03
     10.167  0.8256E+01  0.1062E+03
     10.328  0.9189E+01  0.1077E+03
     10.489  0.1064E+02  0.1094E+03
     10.650  0.8190E+01  0.1107E+03
     10.811  0.1139E+02  0.1125E+03
     10.972  0.9343E+01  0.1140E+03
     11.133  0.8659E+01  0.1154E+03
     11.294  0.7623E+01  0.1167E+03
     11.454  0.7669E+01  0.1179E+03
     11.615  0.7311E+01  0.1191E+03
     11.776  0.7950E+01  0.1203E+03
     11.937  0.8506E+01  0.1217E+03
     12.098  0.9410E+01  0.1232E+03
     12.259  0.6980E+01  0.1244E+03
     12.420  0.5481E+01  0.1252E+03
     12.581  0.8255E+01  0.1266E+03
     12.742  0.9599E+01  0.1281E+03
     12.903  0.8222E+01  0.1294E+03
     13.064  0.8098E+01  0.1307E+03
     13.225  0.8273E+01  0.1321E+03
     13.386  0.9426E+01  0.1336E+03
     13.547  0.9675E+01  0.1351E+03
     13.708  0.6776E+01  0.1362E+03
     13.869  0.4799E+01  0.1370E+03
     14.030  0.7654E+01  0.1382E+03
     14.191  0.1023E+02  0.1399E+03
     14.352  0.1054E+02  0.1416E+03
     14.513  0.1075E+02  0.1433E+03
     14.674  0.1404E+02  0.1456E+03
     14.835  0.9621E+01  0.1471E+03
     14.996  0.9446E+01  0.1486E+03
     15.156  0.9087E+01  0.1501E+03
     15.317  0.9616E+01  0.1517E+03
     15.478  0.9776E+01  0.1532E+03
     15.639  0.8138E+01  0.1545E+03
     15.800  0.9340E+01  0.1560E+03
     15.961  0.1118E+02  0.1578E+03
     16.122  0.9354E+01  0.1593E+03
     16.283  0.9375E+01  0.1609E+03
     16.444  0.8270E+01  0.1622E+03
     16.605  0.8588E+01  0.1636E+03
     16.766  0.1015E+02  0.1652E+03
     16.927  0.7651E+01  0.1664E+03
     17.088  0.6182E+01  0.1674E+03
     17.249  0.7952E+01  0.1687E+03
     17.410  0.9799E+01  0.1703E+03
     17.571  0.8622E+01  0.1717E+03
     17.732  0.9370E+01  0.1732E+03
     17.893  0.9347E+01  0.1747E+03
     18.054  0.9413E+01  0.1762E+03
     18.215  0.9230E+01  0.1777E+03
     18.376  0.9171E+01  0.1792E+03
     18.537  0.9433E+01  0.1807E+03
     18.698  0.7137E+01  0.1818E+03
     18.859  0.7554E+01  0.1830E+03
     19.019  0.8706E+01  0.1844E+03
     19.180  0.6846E+01  0.1855E+03
     19.341  0.6768E+01  0.1866E+03
     19.502  0.7062E+01  0.1878E+03
     19.663  0.6504E+01  0.1888E+03
     19.824  0.5918E+01  0.1898E+03
     19.985  0.6059E+01  0.1907E+03
     20.146  0.3757E+01  0.1914E+03
     20.307  0.1536E+01  0.1916E+03
     20.468  0.7327E+00  0.1917E+03
     20.629  0.5325E+00  0.1918E+03
     20.790  0.5923E+00  0.1919E+03
     20.951  0.3176E+00  0.1919E+03
     21.112  0.2954E+00  0.1920E+03
     21.273  0.2267E-01  0.1920E+03
     21.434  0.2496E-04  0.1920E+03
     21.595  0.2244E-09  0.1920E+03
     21.756  0.0000E+00  0.1920E+03
     21.917  0.0000E+00  0.1920E+03
     22.078  0.0000E+00  0.1920E+03
     22.239  0.0000E+00  0.1920E+03
     22.400  0.0000E+00  0.1920E+03
     22.561  0.0000E+00  0.1920E+03
     22.721  0.0000E+00  0.1920E+03
     22.882  0.0000E+00  0.1920E+03
     23.043  0.0000E+00  0.1920E+03
     23.204  0.0000E+00  0.1920E+03
     23.20434820    -25.08274369  301     -0.44626701      1.00000000
    -25.083  0.0000E+00  0.0000E+00  0.0000E+00  0.0000E+00  0.0000E+00  0.0000E+00  0.0000E+00  0.0000E+00  0.0000E+00
    -24.922  0.0000E+00  0.0000E+00  0.0000E+00  0.0000E+00  0.0000E+00  0.0000E+00  0.0000E+00  0.0000E+00  0.0000E+00
    -24.761  0.0000E+00  0.0000E+00  0.0000E+00  0.0000E+00  0.0000E+00  0.0000E+00  0.0000E+00  0.0000E+00  0.0000E+00
    -24.600  0.0000E+00  0.0000E+00  0.0000E+00  0.0000E+00  0.0000E+00  0.0000E+00  0.0000E+00  0.0000E+00  0.0000E+00
    -24.439  0.0000E+00  0.0000E+00  0.0000E+00  0.0000E+00  0.0000E+00  0.0000E+00  0.0000E+00  0.0000E+00  0.0000E+00
    -24.278  0.0000E+00  0.0000E+00  0.0000E+00  0.0000E+00  0.0000E+00  0.0000E+00  0.0000E+00  0.0000E+00  0.0000E+00
    -24.117  0.0000E+00  0.0000E+00  0.0000E+00  0.0000E+00  0.0000E+00  0.0000E+00  0.0000E+00  0.0000E+00  0.0000E+00
    -23.956  0.0000E+00  0.0000E+00  0.0000E+00  0.0000E+00  0.0000E+00  0.0000E+00  0.0000E+00  0.0000E+00  0.0000E+00
    -23.795  0.0000E+00  0.0000E+00  0.0000E+00  0.0000E+00  0.0000E+00  0.0000E+00  0.0000E+00  0.0000E+00  0.0000E+00
    -23.634  0.0000E+00  0.0000E+00  0.0000E+00  0.0000E+00  0.0000E+00  0.0000E+00  0.0000E+00  0.0000E+00  0.0000E+00
    -23.473  0.2662E-21  0.3648E-30  0.1387E-22  0.1342E-30  0.0000E+00  0.0000E+00  0.0000E+00  0.0000E+00  0.0000E+00
    -23.312  0.4875E-14  0.2917E-18  0.2540E-15  0.2918E-18  0.0000E+00  0.0000E+00  0.0000E+00  0.0000E+00  0.0000E+00
    -23.151  0.5658E-09  0.1613E-12  0.2944E-10  0.1613E-12  0.0000E+00  0.0000E+00  0.0000E+00  0.0000E+00  0.0000E+00
    -22.990  0.7305E-06  0.6337E-09  0.3788E-07  0.6339E-09  0.0000E+00  0.0000E+00  0.0000E+00  0.0000E+00  0.0000E+00
    -22.829  0.2031E-04  0.3576E-07  0.1047E-05  0.3577E-07  0.0000E+00  0.0000E+00  0.0000E+00  0.0000E+00  0.0000E+00
    -22.668  0.4971E-04  0.2214E-06  0.2521E-05  0.2214E-06  0.0000E+00  0.0000E+00  0.0000E+00  0.0000E+00  0.0000E+00
    -22.507  0.4950E-04  0.4510E-06  0.2430E-05  0.4511E-06  0.0000E+00  0.0000E+00  0.0000E+00  0.0000E+00  0.0000E+00
    -22.346  0.5185E-04  0.6551E-06  0.2482E-05  0.6552E-06  0.0000E+00  0.0000E+00  0.0000E+00  0.0000E+00  0.0000E+00
    -22.186  0.5414E-04  0.1005E-05  0.2468E-05  0.1006E-05  0.0000E+00  0.0000E+00  0.0000E+00  0.0000E+00  0.0000E+00
    -22.025  0.5235E-04  0.1085E-05  0.2341E-05  0.1085E-05  0.0000E+00  0.0000E+00  0.0000E+00  0.0000E+00  0.0000E+00
    -21.864  0.4502E-04  0.1177E-05  0.1899E-05  0.1177E-05  0.0000E+00  0.0000E+00  0.0000E+00  0.0000E+00  0.0000E+00
    -21.703  0.7574E-04  0.2166E-05  0.3088E-05  0.2166E-05  0.0000E+00  0.0000E+00  0.0000E+00  0.0000E+00  0.0000E+00
    -21.542  0.3348E-04  0.1036E-05  0.1303E-05  0.1036E-05  0.0000E+00  0.0000E+00  0.0000E+00  0.0000E+00  0.0000E+00
    -21.381  0.6591E-04  0.2290E-05  0.2372E-05  0.2291E-05  0.0000E+00  0.0000E+00  0.0000E+00  0.0000E+00  0.0000E+00
    -21.220  0.7651E-04  0.2715E-05  0.2631E-05  0.2716E-05  0.0000E+00  0.0000E+00  0.0000E+00  0.0000E+00  0.0000E+00
    -21.059  0.4383E-04  0.1658E-05  0.1429E-05  0.1659E-05  0.0000E+00  0.0000E+00  0.0000E+00  0.0000E+00  0.0000E+00
    -20.898  0.5754E-04  0.2198E-05  0.1611E-05  0.2199E-05  0.0000E+00  0.0000E+00  0.0000E+00  0.0000E+00  0.0000E+00
    -20.737  0.1094E-03  0.4330E-05  0.2948E-05  0.4332E-05  0.0000E+00  0.0000E+00  0.0000E+00  0.0000E+00  0.0000E+00
    -20.576  0.6307E-04  0.2303E-05  0.1476E-05  0.2304E-05  0.0000E+00  0.0000E+00  0.0000E+00  0.0000E+00  0.0000E+00
    -20.415  0.5995E-04  0.2056E-05  0.1267E-05  0.2057E-05  0.0000E+00  0.0000E+00  0.0000E+00  0.0000E+00  0.0000E+00
    -20.254  0.1051E-03  0.3388E-05  0.1741E-05  0.3390E-05  0.0000E+00  0.0000E+00  0.0000E+00  0.0000E+00  0.0000E+00
    -20.093  0.1794E-03  0.5263E-05  0.2664E-05  0.5266E-05  0.0000E+00  0.0000E+00  0.0000E+00  0.0000E+00  0.0000E+00
    -19.932  0.1100E-03  0.2391E-05  0.1213E-05  0.2392E-05  0.0000E+00  0.0000E+00  0.0000E+00  0.0000E+00  0.0000E+00
    -19.771  0.6519E-02  0.5286E-05  0.1374E-05  0.5287E-05  0.0000E+00  0.0000E+00  0.0000E+00  0.0000E+00  0.0000E+00
    -19.610  0.1389E+00  0.1558E-03  0.6165E-05  0.1558E-03  0.0000E+00  0.0000E+00  0.0000E+00  0.0000E+00  0.0000E+00
    -19.449  0.3157E+00  0.7537E-03  0.1321E-04  0.7536E-03  0.0000E+00  0.0000E+00  0.0000E+00  0.0000E+00  0.0000E+00
    -19.288  0.3794E+00  0.1372E-02  0.1503E-04  0.1372E-02  0.0000E+00  0.0000E+00  0.0000E+00  0.0000E+00  0.0000E+00
    -19.127  0.5164E+00  0.1783E-02  0.2118E-04  0.1783E-02  0.0000E+00  0.0000E+00  0.0000E+00  0.0000E+00  0.0000E+00
    -18.966  0.8567E+00  0.1464E-02  0.3404E-04  0.1464E-02  0.0000E+00  0.0000E+00  0.0000E+00  0.0000E+00  0.0000E+00
    -18.805  0.4883E+00  0.3782E-03  0.2210E-04  0.3781E-03  0.0000E+00  0.0000E+00  0.0000E+00  0.0000E+00  0.0000E+00
    -18.644  0.2449E-01  0.2400E-04  0.3298E-05  0.2400E-04  0.0000E+00  0.0000E+00  0.0000E+00  0.0000E+00  0.0000E+00
    -18.484  0.7722E-04  0.1063E-04  0.1601E-05  0.1064E-04  0.0000E+00  0.0000E+00  0.0000E+00  0.0000E+00  0.0000E+00
    -18.323  0.8108E-05  0.9454E-05  0.1375E-05  0.9463E-05  0.0000E+00  0.0000E+00  0.0000E+00  0.0000E+00  0.0000E+00
    -18.162  0.2459E-05  0.2743E-05  0.3904E-06  0.2747E-05  0.0000E+00  0.0000E+00  0.0000E+00  0.0000E+00  0.0000E+00
    -18.001  0.1840E-04  0.1845E-04  0.2486E-05  0.1848E-04  0.0000E+00  0.0000E+00  0.0000E+00  0.0000E+00  0.0000E+00
    -17.840  0.1145E-04  0.1632E-04  0.2024E-05  0.1634E-04  0.0000E+00  0.0000E+00  0.0000E+00  0.0000E+00  0.0000E+00
    -17.679  0.1018E-05  0.1214E-04  0.1336E-05  0.1216E-04  0.0000E+00  0.0000E+00  0.0000E+00  0.0000E+00  0.0000E+00
    -17.518  0.1355E-06  0.1015E-04  0.1140E-05  0.1017E-04  0.0000E+00  0.0000E+00  0.0000E+00  0.0000E+00  0.0000E+00
    -17.357  0.7091E-07  0.1086E-04  0.1111E-05  0.1087E-04  0.0000E+00  0.0000E+00  0.0000E+00  0.0000E+00  0.0000E+00
    -17.196  0.1158E-04  0.4687E-03  0.1146E-05  0.4681E-03  0.0000E+00  0.0000E+00  0.0000E+00  0.0000E+00  0.0000E+00
    -17.035  0.9594E-03  0.2880E-01  0.2979E-05  0.2879E-01  0.0000E+00  0.0000E+00  0.0000E+00  0.0000E+00  0.0000E+00
    -16.874  0.9696E-02  0.1136E+00  0.2330E-05  0.1136E+00  0.0000E+00  0.0000E+00  0.0000E+00  0.0000E+00  0.0000E+00
    -16.713  0.2349E-01  0.1422E+00  0.2683E-05  0.1422E+00  0.0000E+00  0.0000E+00  0.0000E+00  0.0000E+00  0.0000E+00
    -16.552  0.2541E-01  0.9023E-01  0.1425E-05  0.9022E-01  0.0000E+00  0.0000E+00  0.0000E+00  0.0000E+00  0.0000E+00
    -16.391  0.2536E-01  0.9755E-01  0.1912E-05  0.9754E-01  0.0000E+00  0.0000E+00  0.0000E+00  0.0000E+00  0.0000E+00
    -16.230  0.1781E-01  0.8335E-01  0.3093E-05  0.8335E-01  0.0000E+00  0.0000E+00  0.0000E+00  0.0000E+00  0.0000E+00
    -16.069  0.2457E-01  0.1474E+00  0.1725E-05  0.1474E+00  0.0000E+00  0.0000E+00  0.0000E+00  0.0000E+00  0.0000E+00
    -15.908  0.1114E-01  0.1266E+00  0.6461E-06  0.1265E+00  0.0000E+00  0.0000E+00  0.0000E+00  0.0000E+00  0.0000E+00
    -15.747  0.1619E-01  0.2578E+00  0.1236E-05  0.2577E+00  0.0000E+00  0.0000E+00  0.0000E+00  0.0000E+00  0.0000E+00
    -15.586  0.7100E-02  0.2238E+00  0.1388E-05  0.2238E+00  0.0000E+00  0.0000E+00  0.0000E+00  0.0000E+00  0.0000E+00
    -15.425  0.3526E-02  0.1724E+00  0.1081E-05  0.1724E+00  0.0000E+00  0.0000E+00  0.0000E+00  0.0000E+00  0.0000E+00
    -15.264  0.4066E-03  0.5877E-01  0.7417E-06  0.5883E-01  0.0000E+00  0.0000E+00  0.0000E+00  0.0000E+00  0.0000E+00
    -15.103  0.7719E-05  0.2146E-02  0.4665E-06  0.2152E-02  0.0000E+00  0.0000E+00  0.0000E+00  0.0000E+00  0.0000E+00
    -14.942  0.1060E-04  0.8364E-04  0.6463E-06  0.8403E-04  0.0000E+00  0.0000E+00  0.0000E+00  0.0000E+00  0.0000E+00
    -14.781  0.3649E-05  0.2657E-04  0.1020E-05  0.2665E-04  0.0000E+00  0.0000E+00  0.0000E+00  0.0000E+00  0.0000E+00
    -14.621  0.1636E-05  0.4508E-05  0.8760E-06  0.4529E-05  0.0000E+00  0.0000E+00  0.0000E+00  0.0000E+00  0.0000E+00
    -14.460  0.6244E-05  0.1020E-04  0.8945E-06  0.1027E-04  0.0000E+00  0.0000E+00  0.0000E+00  0.0000E+00  0.0000E+00
    -14.299  0.3464E-05  0.4162E-05  0.4946E-06  0.4198E-05  0.0000E+00  0.0000E+00  0.0000E+00  0.0000E+00  0.0000E+00
    -14.138  0.3078E-05  0.2526E-05  0.1003E-05  0.2553E-05  0.0000E+00  0.0000E+00  0.0000E+00  0.0000E+00  0.0000E+00
    -13.977  0.9678E-06  0.5457E-06  0.2204E-06  0.5513E-06  0.0000E+00  0.0000E+00  0.0000E+00  0.0000E+00  0.0000E+00
    -13.816  0.5053E-05  0.1969E-05  0.9429E-06  0.1993E-05  0.0000E+00  0.0000E+00  0.0000E+00  0.0000E+00  0.0000E+00
    -13.655  0.3375E-05  0.9846E-06  0.5389E-06  0.9993E-06  0.0000E+00  0.0000E+00  0.0000E+00  0.0000E+00  0.0000E+00
    -13.494  0.1577E-05  0.2749E-06  0.3915E-06  0.2797E-06  0.0000E+00  0.0000E+00  0.0000E+00  0.0000E+00  0.0000E+00
    -13.333  0.2312E-05  0.5740E-06  0.5944E-06  0.5798E-06  0.0000E+00  0.0000E+00  0.0000E+00  0.0000E+00  0.0000E+00
    -13.172  0.3417E-05  0.1666E-05  0.5035E-06  0.1672E-05  0.0000E+00  0.0000E+00  0.0000E+00  0.0000E+00  0.0000E+00
    -13.011  0.3618E-05  0.1085E-05  0.4624E-06  0.1090E-05  0.0000E+00  0.0000E+00  0.0000E+00  0.0000E+00  0.0000E+00
    -12.850  0.2996E-05  0.9100E-06  0.4224E-06  0.9070E-06  0.0000E+00  0.0000E+00  0.0000E+00  0.0000E+00  0.0000E+00
    -12.689  0.1988E-05  0.1747E-05  0.3455E-06  0.1729E-05  0.0000E+00  0.0000E+00  0.0000E+00  0.0000E+00  0.0000E+00
    -12.528  0.3037E-05  0.3779E-05  0.5324E-06  0.3776E-05  0.0000E+00  0.0000E+00  0.0000E+00  0.0000E+00  0.0000E+00
    -12.367  0.6545E-03  0.2336E-03  0.4832E-06  0.2339E-03  0.0000E+00  0.0000E+00  0.0000E+00  0.0000E+00  0.0000E+00
    -12.206  0.1790E-01  0.6355E-02  0.1708E-05  0.6358E-02  0.0000E+00  0.0000E+00  0.0000E+00  0.0000E+00  0.0000E+00
    -12.045  0.5206E-01  0.2176E-01  0.4140E-05  0.2176E-01  0.0000E+00  0.0000E+00  0.0000E+00  0.0000E+00  0.0000E+00
    -11.884  0.1113E+00  0.3625E-01  0.1002E-04  0.3625E-01  0.0000E+00  0.0000E+00  0.0000E+00  0.0000E+00  0.0000E+00
    -11.723  0.1420E+00  0.2478E-01  0.1318E-04  0.2477E-01  0.0000E+00  0.0000E+00  0.0000E+00  0.0000E+00  0.0000E+00
    -11.562  0.1440E+00  0.4341E-01  0.1317E-04  0.4342E-01  0.0000E+00  0.0000E+00  0.0000E+00  0.0000E+00  0.0000E+00
    -11.401  0.5085E-01  0.7188E-01  0.4479E-05  0.7188E-01  0.0000E+00  0.0000E+00  0.0000E+00  0.0000E+00  0.0000E+00
    -11.240  0.8353E-02  0.2612E-01  0.1494E-05  0.2612E-01  0.0000E+00  0.0000E+00  0.0000E+00  0.0000E+00  0.0000E+00
    -11.079  0.9174E-01  0.6011E-01  0.1003E-04  0.6012E-01  0.0000E+00  0.0000E+00  0.0000E+00  0.0000E+00  0.0000E+00
    -10.919  0.4903E-01  0.6460E-01  0.5059E-05  0.6460E-01  0.0000E+00  0.0000E+00  0.0000E+00  0.0000E+00  0.0000E+00
    -10.758  0.5320E-02  0.2997E-01  0.6749E-06  0.2996E-01  0.0000E+00  0.0000E+00  0.0000E+00  0.0000E+00  0.0000E+00
    -10.597  0.7024E-01  0.6692E-01  0.8395E-05  0.6692E-01  0.0000E+00  0.0000E+00  0.0000E+00  0.0000E+00  0.0000E+00
    -10.436  0.9340E-01  0.1021E+00  0.1125E-04  0.1021E+00  0.0000E+00  0.0000E+00  0.0000E+00  0.0000E+00  0.0000E+00
    -10.275  0.5715E-02  0.3186E-01  0.9071E-06  0.3186E-01  0.0000E+00  0.0000E+00  0.0000E+00  0.0000E+00  0.0000E+00
    -10.114  0.8133E-02  0.6124E-01  0.2939E-05  0.6125E-01  0.0000E+00  0.0000E+00  0.0000E+00  0.0000E+00  0.0000E+00
     -9.953  0.3932E-01  0.1434E+00  0.7429E-05  0.1434E+00  0.0000E+00  0.0000E+00  0.0000E+00  0.0000E+00  0.0000E+00
     -9.792  0.2774E-01  0.7399E-01  0.2293E-03  0.7399E-01  0.0000E+00  0.0000E+00  0.0000E+00  0.0000E+00  0.0000E+00
     -9.631  0.7625E-02  0.5776E-01  0.2873E-02  0.5777E-01  0.0000E+00  0.0000E+00  0.0000E+00  0.0000E+00  0.0000E+00
     -9.470  0.3326E-01  0.1498E+00  0.5148E-02  0.1498E+00  0.0000E+00  0.0000E+00  0.0000E+00  0.0000E+00  0.0000E+00
     -9.309  0.2092E-01  0.3945E-01  0.4234E-02  0.3947E-01  0.0000E+00  0.0000E+00  0.0000E+00  0.0000E+00  0.0000E+00
     -9.148  0.6083E-01  0.1424E+00  0.6388E-02  0.1424E+00  0.0000E+00  0.0000E+00  0.0000E+00  0.0000E+00  0.0000E+00
     -8.987  0.4156E-01  0.7007E-01  0.3545E-02  0.7004E-01  0.0000E+00  0.0000E+00  0.0000E+00  0.0000E+00  0.0000E+00
     -8.826  0.5125E-02  0.5866E-02  0.7473E-02  0.5868E-02  0.0000E+00  0.0000E+00  0.0000E+00  0.0000E+00  0.0000E+00
     -8.665  0.2505E-04  0.1404E-03  0.4809E-02  0.1404E-03  0.0000E+00  0.0000E+00  0.0000E+00  0.0000E+00  0.0000E+00
     -8.504  0.7097E-05  0.5894E-03  0.4111E-02  0.5894E-03  0.0000E+00  0.0000E+00  0.0000E+00  0.0000E+00  0.0000E+00
     -8.343  0.2607E-04  0.1822E-03  0.9165E-02  0.1822E-03  0.0000E+00  0.0000E+00  0.0000E+00  0.0000E+00  0.0000E+00
     -8.182  0.1165E-04  0.2299E-03  0.6461E-02  0.2299E-03  0.0000E+00  0.0000E+00  0.0000E+00  0.0000E+00  0.0000E+00
     -8.021  0.8762E-05  0.1325E-02  0.4269E-02  0.1325E-02  0.0000E+00  0.0000E+00  0.0000E+00  0.0000E+00  0.0000E+00
     -7.860  0.5331E-04  0.1637E-02  0.2600E-01  0.1637E-02  0.0000E+00  0.0000E+00  0.0000E+00  0.0000E+00  0.0000E+00
     -7.699  0.8467E-04  0.6488E-03  0.9290E-01  0.6490E-03  0.0000E+00  0.0000E+00  0.0000E+00  0.0000E+00  0.0000E+00
     -7.538  0.5015E-04  0.2816E-03  0.1105E+00  0.2819E-03  0.0000E+00  0.0000E+00  0.0000E+00  0.0000E+00  0.0000E+00
     -7.377  0.2037E-03  0.4864E-02  0.1260E+00  0.4864E-02  0.0000E+00  0.0000E+00  0.0000E+00  0.0000E+00  0.0000E+00
     -7.217  0.1754E-02  0.1115E-01  0.1225E+00  0.1115E-01  0.0000E+00  0.0000E+00  0.0000E+00  0.0000E+00  0.0000E+00
     -7.056  0.6810E-02  0.2030E-01  0.1846E+00  0.2031E-01  0.0000E+00  0.0000E+00  0.0000E+00  0.0000E+00  0.0000E+00
     -6.895  0.9386E-02  0.2294E-01  0.1771E+00  0.2294E-01  0.0000E+00  0.0000E+00  0.0000E+00  0.0000E+00  0.0000E+00
     -6.734  0.1383E-01  0.1895E-01  0.1585E+00  0.1894E-01  0.0000E+00  0.0000E+00  0.0000E+00  0.0000E+00  0.0000E+00
     -6.573  0.6345E-02  0.2518E-01  0.1514E+00  0.2518E-01  0.0000E+00  0.0000E+00  0.0000E+00  0.0000E+00  0.0000E+00
     -6.412  0.2189E-01  0.5254E-01  0.2528E+00  0.5255E-01  0.0000E+00  0.0000E+00  0.0000E+00  0.0000E+00  0.0000E+00
     -6.251  0.3719E-01  0.5037E-01  0.1254E+00  0.5037E-01  0.0000E+00  0.0000E+00  0.0000E+00  0.0000E+00  0.0000E+00
     -6.090  0.1230E-01  0.1281E-01  0.8204E-01  0.1282E-01  0.0000E+00  0.0000E+00  0.0000E+00  0.0000E+00  0.0000E+00
     -5.929  0.7222E-02  0.6375E-02  0.1860E-01  0.6374E-02  0.0000E+00  0.0000E+00  0.0000E+00  0.0000E+00  0.0000E+00
     -5.768  0.3947E-03  0.3475E-03  0.2097E-03  0.3467E-03  0.0000E+00  0.0000E+00  0.0000E+00  0.0000E+00  0.0000E+00
     -5.607  0.4792E-03  0.1533E-02  0.1609E-02  0.1534E-02  0.0000E+00  0.0000E+00  0.0000E+00  0.0000E+00  0.0000E+00
     -5.446  0.1674E-02  0.6049E-02  0.9670E-03  0.6049E-02  0.0000E+00  0.0000E+00  0.0000E+00  0.0000E+00  0.0000E+00
     -5.285  0.3623E-02  0.5712E-02  0.1008E-03  0.5713E-02  0.0000E+00  0.0000E+00  0.0000E+00  0.0000E+00  0.0000E+00
     -5.124  0.1226E-01  0.1877E-01  0.4024E-04  0.1877E-01  0.0000E+00  0.0000E+00  0.0000E+00  0.0000E+00  0.0000E+00
     -4.963  0.5529E-02  0.1810E-01  0.2045E-03  0.1810E-01  0.0000E+00  0.0000E+00  0.0000E+00  0.0000E+00  0.0000E+00
     -4.802  0.2889E-02  0.1502E-01  0.1925E-03  0.1502E-01  0.0000E+00  0.0000E+00  0.0000E+00  0.0000E+00  0.0000E+00
     -4.641  0.3136E-02  0.1173E-01  0.1903E-02  0.1173E-01  0.0000E+00  0.0000E+00  0.0000E+00  0.0000E+00  0.0000E+00
     -4.480  0.2028E-02  0.1844E-01  0.5548E-02  0.1844E-01  0.0000E+00  0.0000E+00  0.0000E+00  0.0000E+00  0.0000E+00
     -4.319  0.1555E-02  0.1167E-01  0.1655E-01  0.1166E-01  0.0000E+00  0.0000E+00  0.0000E+00  0.0000E+00  0.0000E+00
     -4.158  0.8698E-03  0.7463E-02  0.1411E-01  0.7463E-02  0.0000E+00  0.0000E+00  0.0000E+00  0.0000E+00  0.0000E+00
     -3.997  0.2768E-03  0.8429E-02  0.2451E-01  0.8429E-02  0.0000E+00  0.0000E+00  0.0000E+00  0.0000E+00  0.0000E+00
     -3.836  0.2749E-03  0.7796E-02  0.2332E-01  0.7796E-02  0.0000E+00  0.0000E+00  0.0000E+00  0.0000E+00  0.0000E+00
     -3.675  0.1339E-03  0.5175E-02  0.1349E-01  0.5172E-02  0.0000E+00  0.0000E+00  0.0000E+00  0.0000E+00  0.0000E+00
     -3.515  0.4000E-04  0.1230E-02  0.2397E-01  0.1229E-02  0.0000E+00  0.0000E+00  0.0000E+00  0.0000E+00  0.0000E+00
     -3.354  0.2748E-04  0.5356E-04  0.1249E-01  0.5382E-04  0.0000E+00  0.0000E+00  0.0000E+00  0.0000E+00  0.0000E+00
     -3.193  0.2141E-04  0.9485E-05  0.3004E-01  0.9694E-05  0.0000E+00  0.0000E+00  0.0000E+00  0.0000E+00  0.0000E+00
     -3.032  0.2290E-04  0.1225E-04  0.1126E-01  0.1267E-04  0.0000E+00  0.0000E+00  0.0000E+00  0.0000E+00  0.0000E+00
     -2.871  0.5450E-04  0.1727E-04  0.7289E-02  0.1794E-04  0.0000E+00  0.0000E+00  0.0000E+00  0.0000E+00  0.0000E+00
     -2.710  0.1842E-04  0.8635E-05  0.2901E-01  0.8774E-05  0.0000E+00  0.0000E+00  0.0000E+00  0.0000E+00  0.0000E+00
     -2.549  0.2935E-05  0.1577E-04  0.1078E-01  0.1599E-04  0.0000E+00  0.0000E+00  0.0000E+00  0.0000E+00  0.0000E+00
     -2.388  0.6220E-05  0.2419E-04  0.1055E-01  0.2469E-04  0.0000E+00  0.0000E+00  0.0000E+00  0.0000E+00  0.0000E+00
     -2.227  0.5309E-05  0.1596E-04  0.1517E-01  0.1622E-04  0.0000E+00  0.0000E+00  0.0000E+00  0.0000E+00  0.0000E+00
     -2.066  0.1259E-04  0.1949E-04  0.8874E-02  0.1996E-04  0.0000E+00  0.0000E+00  0.0000E+00  0.0000E+00  0.0000E+00
     -1.905  0.1605E-04  0.1593E-04  0.1175E-01  0.1631E-04  0.0000E+00  0.0000E+00  0.0000E+00  0.0000E+00  0.0000E+00
     -1.744  0.1120E-04  0.1123E-04  0.1417E-02  0.1149E-04  0.0000E+00  0.0000E+00  0.0000E+00  0.0000E+00  0.0000E+00
     -1.583  0.1257E-05  0.6896E-05  0.2927E-02  0.7025E-05  0.0000E+00  0.0000E+00  0.0000E+00  0.0000E+00  0.0000E+00
     -1.422  0.3149E-05  0.6458E-05  0.4256E-02  0.6593E-05  0.0000E+00  0.0000E+00  0.0000E+00  0.0000E+00  0.0000E+00
     -1.261  0.7246E-05  0.7117E-05  0.4450E-03  0.7345E-05  0.0000E+00  0.0000E+00  0.0000E+00  0.0000E+00  0.0000E+00
     -1.100  0.9172E-06  0.1473E-05  0.2511E-04  0.1533E-05  0.0000E+00  0.0000E+00  0.0000E+00  0.0000E+00  0.0000E+00
     -0.939  0.5741E-05  0.2453E-05  0.1290E-03  0.2514E-05  0.0000E+00  0.0000E+00  0.0000E+00  0.0000E+00  0.0000E+00
     -0.778  0.5516E-05  0.2328E-05  0.1240E-03  0.2383E-05  0.0000E+00  0.0000E+00  0.0000E+00  0.0000E+00  0.0000E+00
     -0.617  0.1227E-06  0.5177E-07  0.2757E-05  0.5299E-07  0.0000E+00  0.0000E+00  0.0000E+00  0.0000E+00  0.0000E+00
     -0.456  0.2692E-10  0.1137E-10  0.6052E-09  0.1163E-10  0.0000E+00  0.0000E+00  0.0000E+00  0.0000E+00  0.0000E+00
     -0.295  0.1983E-15  0.8337E-16  0.4368E-14  0.8500E-16  0.0000E+00  0.0000E+00  0.0000E+00  0.0000E+00  0.0000E+00
     -0.134  0.7224E-10  0.3039E-10  0.1583E-08  0.3088E-10  0.0000E+00  0.0000E+00  0.0000E+00  0.0000E+00  0.0000E+00
      0.027  0.2335E-06  0.9835E-07  0.5117E-05  0.9973E-07  0.0000E+00  0.0000E+00  0.0000E+00  0.0000E+00  0.0000E+00