  15  15   1  16
  0.2033749E+02  0.4846000E-09  0.4846000E-09  0.1500000E-08  0.5000000E-15
  1.000000000000000E-004
  CAR 
 BS_HSE06                                
     23.28417566    -25.08673207  301     -0.40749186      1.00000000
    -25.087  0.0000E+00  0.0000E+00
    -24.925  0.0000E+00  0.0000E+00
    -24.764  0.0000E+00  0.0000E+00
    -24.603  0.0000E+00  0.0000E+00
    -24.442  0.0000E+00  0.0000E+00
    -24.281  0.0000E+00  0.0000E+00
    -24.119  0.0000E+00  0.0000E+00
    -23.958  0.0000E+00  0.0000E+00
    -23.797  0.0000E+00  0.0000E+00
    -23.636  0.0000E+00  0.0000E+00
    -23.474  0.5691E-17  0.9175E-18
    -23.313  0.9771E-10  0.1575E-10
    -23.152  0.1178E-04  0.1900E-05
    -22.991  0.1553E-01  0.2506E-02
    -22.829  0.4348E+00  0.7261E-01
    -22.668  0.1064E+01  0.2442E+00
    -22.507  0.1057E+01  0.4146E+00
    -22.346  0.1099E+01  0.5918E+00
    -22.184  0.1143E+01  0.7760E+00
    -22.023  0.1085E+01  0.9510E+00
    -21.862  0.9260E+00  0.1100E+01
    -21.701  0.1519E+01  0.1345E+01
    -21.540  0.6514E+00  0.1450E+01
    -21.378  0.1256E+01  0.1653E+01
    -21.217  0.1386E+01  0.1876E+01
    -21.056  0.7705E+00  0.2000E+01
    -20.895  0.9500E+00  0.2154E+01
    -20.733  0.1716E+01  0.2430E+01
    -20.572  0.8869E+00  0.2573E+01
    -20.411  0.7579E+00  0.2695E+01
    -20.250  0.1178E+01  0.2885E+01
    -20.088  0.1743E+01  0.3166E+01
    -19.927  0.7927E+00  0.3294E+01
    -19.766  0.9033E+00  0.3440E+01
    -19.605  0.1736E+01  0.3720E+01
    -19.443  0.3425E+01  0.4272E+01
    -19.282  0.3090E+01  0.4770E+01
    -19.121  0.3060E+01  0.5264E+01
    -18.960  0.4462E+01  0.5983E+01
    -18.799  0.3615E+01  0.6566E+01
    -18.637  0.1507E+01  0.6809E+01
    -18.476  0.1115E+01  0.6989E+01
    -18.315  0.1007E+01  0.7151E+01
    -18.154  0.3015E+00  0.7200E+01
    -17.992  0.2062E+01  0.7532E+01
    -17.831  0.1546E+01  0.7781E+01
    -17.670  0.1120E+01  0.7962E+01
    -17.509  0.9430E+00  0.8114E+01
    -17.347  0.8941E+00  0.8258E+01
    -17.186  0.1157E+01  0.8445E+01
    -17.025  0.3240E+01  0.8967E+01
    -16.864  0.4006E+01  0.9613E+01
    -16.702  0.3962E+01  0.1025E+02
    -16.541  0.1771E+01  0.1054E+02
    -16.380  0.2418E+01  0.1093E+02
    -16.219  0.3537E+01  0.1150E+02
    -16.057  0.2790E+01  0.1195E+02
    -15.896  0.2089E+01  0.1228E+02
    -15.735  0.4355E+01  0.1299E+02
    -15.574  0.4420E+01  0.1370E+02
    -15.413  0.3382E+01  0.1424E+02
    -15.251  0.2013E+01  0.1457E+02
    -15.090  0.8598E+00  0.1471E+02
    -14.929  0.1244E+01  0.1491E+02
    -14.768  0.1803E+01  0.1520E+02
    -14.606  0.1450E+01  0.1543E+02
    -14.445  0.1570E+01  0.1569E+02
    -14.284  0.9601E+00  0.1584E+02
    -14.123  0.1679E+01  0.1611E+02
    -13.961  0.4176E+00  0.1618E+02
    -13.800  0.1933E+01  0.1649E+02
    -13.639  0.8683E+00  0.1663E+02
    -13.478  0.9373E+00  0.1678E+02
    -13.316  0.1119E+01  0.1696E+02
    -13.155  0.1015E+01  0.1713E+02
    -12.994  0.1018E+01  0.1729E+02
    -12.833  0.1097E+01  0.1747E+02
    -12.672  0.1133E+01  0.1765E+02
    -12.510  0.1248E+01  0.1785E+02
    -12.349  0.1322E+01  0.1806E+02
    -12.188  0.2248E+01  0.1843E+02
    -12.027  0.2287E+01  0.1879E+02
    -11.865  0.4035E+01  0.1945E+02
    -11.704  0.3388E+01  0.1999E+02
    -11.543  0.2892E+01  0.2046E+02
    -11.382  0.3297E+01  0.2099E+02
    -11.220  0.3795E+01  0.2160E+02
    -11.059  0.3893E+01  0.2223E+02
    -10.898  0.2563E+01  0.2264E+02
    -10.737  0.1248E+01  0.2284E+02
    -10.575  0.4005E+01  0.2349E+02
    -10.414  0.4791E+01  0.2426E+02
    -10.253  0.2324E+01  0.2464E+02
    -10.092  0.2448E+01  0.2503E+02
     -9.931  0.4224E+01  0.2571E+02
     -9.769  0.2476E+01  0.2611E+02
     -9.608  0.2809E+01  0.2656E+02
     -9.447  0.5744E+01  0.2749E+02
     -9.286  0.4394E+01  0.2820E+02
     -9.124  0.5989E+01  0.2916E+02
     -8.963  0.2558E+01  0.2958E+02
     -8.802  0.3682E+01  0.3017E+02
     -8.641  0.3453E+01  0.3073E+02
     -8.479  0.3154E+01  0.3124E+02
     -8.318  0.4730E+01  0.3200E+02
     -8.157  0.2978E+01  0.3248E+02
     -7.996  0.3732E+01  0.3308E+02
     -7.834  0.4826E+01  0.3386E+02
     -7.673  0.3903E+01  0.3449E+02
     -7.512  0.3467E+01  0.3505E+02
     -7.351  0.4739E+01  0.3581E+02
     -7.189  0.5604E+01  0.3671E+02
     -7.028  0.5637E+01  0.3762E+02
     -6.867  0.5561E+01  0.3852E+02
     -6.706  0.5870E+01  0.3947E+02
     -6.545  0.4379E+01  0.4017E+02
     -6.383  0.7618E+01  0.4140E+02
     -6.222  0.6549E+01  0.4246E+02
     -6.061  0.3699E+01  0.4305E+02
     -5.900  0.1551E+01  0.4330E+02
     -5.738  0.2061E+01  0.4364E+02
     -5.577  0.3502E+01  0.4420E+02
     -5.416  0.2190E+01  0.4455E+02
     -5.255  0.3197E+01  0.4507E+02
     -5.093  0.5159E+01  0.4590E+02
     -4.932  0.4759E+01  0.4667E+02
     -4.771  0.3573E+01  0.4724E+02
     -4.610  0.4604E+01  0.4799E+02
     -4.448  0.4678E+01  0.4874E+02
     -4.287  0.3923E+01  0.4937E+02
     -4.126  0.2144E+01  0.4972E+02
     -3.965  0.2756E+01  0.5016E+02
     -3.804  0.3274E+01  0.5069E+02
     -3.642  0.3962E+01  0.5133E+02
     -3.481  0.2773E+01  0.5178E+02
     -3.320  0.2009E+01  0.5210E+02
     -3.159  0.2291E+01  0.5247E+02
     -2.997  0.2556E+01  0.5288E+02
     -2.836  0.3205E+01  0.5340E+02
     -2.675  0.1757E+01  0.5368E+02
     -2.514  0.1800E+01  0.5397E+02
     -2.352  0.2414E+01  0.5436E+02
     -2.191  0.1675E+01  0.5463E+02
     -2.030  0.2550E+01  0.5504E+02
     -1.869  0.1591E+01  0.5530E+02
     -1.707  0.1309E+01  0.5551E+02
     -1.546  0.7458E+00  0.5563E+02
     -1.385  0.8731E+00  0.5577E+02
     -1.224  0.7076E+00  0.5589E+02
     -1.063  0.1191E+00  0.5590E+02
     -0.901  0.4135E+00  0.5597E+02
     -0.740  0.1746E+00  0.5600E+02
     -0.579  0.1366E-02  0.5600E+02
     -0.418  0.9147E-07  0.5600E+02
     -0.256  0.2537E-09  0.5600E+02
     -0.095  0.3489E-04  0.5600E+02
      0.066  0.3508E-01  0.5601E+02
      0.227  0.4312E+00  0.5608E+02
      0.389  0.1549E+00  0.5610E+02
      0.550  0.3034E+00  0.5615E+02
      0.711  0.2987E+00  0.5620E+02
      0.872  0.1197E-01  0.5620E+02
      1.034  0.6709E+00  0.5631E+02
      1.195  0.3005E+01  0.5679E+02
      1.356  0.3568E+01  0.5737E+02
      1.517  0.4136E+01  0.5803E+02
      1.679  0.1077E+01  0.5821E+02
      1.840  0.2047E+01  0.5854E+02
      2.001  0.2848E+01  0.5900E+02
      2.162  0.4047E+01  0.5965E+02
      2.323  0.2453E+01  0.6005E+02
      2.485  0.1009E+01  0.6021E+02
      2.646  0.2215E+01  0.6056E+02
      2.807  0.1791E+01  0.6085E+02
      2.968  0.1919E+01  0.6116E+02
      3.130  0.2596E+01  0.6158E+02
      3.291  0.2863E+01  0.6204E+02
      3.452  0.1861E+01  0.6234E+02
      3.613  0.2123E+01  0.6269E+02
      3.775  0.2862E+01  0.6315E+02
      3.936  0.3815E+01  0.6376E+02
      4.097  0.3355E+01  0.6430E+02
      4.258  0.3911E+01  0.6493E+02
      4.420  0.5420E+01  0.6581E+02
      4.581  0.6277E+01  0.6682E+02
      4.742  0.6673E+01  0.6790E+02
      4.903  0.5619E+01  0.6880E+02
      5.064  0.7393E+01  0.6999E+02
      5.226  0.5870E+01  0.7094E+02
      5.387  0.6235E+01  0.7195E+02
      5.548  0.4945E+01  0.7274E+02
      5.709  0.7375E+01  0.7393E+02
      5.871  0.3980E+01  0.7457E+02
      6.032  0.6087E+01  0.7555E+02
      6.193  0.5930E+01  0.7651E+02
      6.354  0.5345E+01  0.7737E+02
      6.516  0.5386E+01  0.7824E+02
      6.677  0.6424E+01  0.7928E+02
      6.838  0.5097E+01  0.8010E+02
      6.999  0.4309E+01  0.8079E+02
      7.161  0.3931E+01  0.8143E+02
      7.322  0.7713E+01  0.8267E+02
      7.483  0.9353E+01  0.8418E+02
      7.644  0.6549E+01  0.8523E+02
      7.805  0.5498E+01  0.8612E+02
      7.967  0.7199E+01  0.8728E+02
      8.128  0.5022E+01  0.8809E+02
      8.289  0.5716E+01  0.8901E+02
      8.450  0.8381E+01  0.9036E+02
      8.612  0.7272E+01  0.9154E+02
      8.773  0.8397E+01  0.9289E+02
      8.934  0.6503E+01  0.9394E+02
      9.095  0.8825E+01  0.9536E+02
      9.257  0.1176E+02  0.9726E+02
      9.418  0.1231E+02  0.9924E+02
      9.579  0.9630E+01  0.1008E+03
      9.740  0.9375E+01  0.1023E+03
      9.902  0.9147E+01  0.1038E+03
     10.063  0.9934E+01  0.1054E+03
     10.224  0.8004E+01  0.1067E+03
     10.385  0.9989E+01  0.1083E+03
     10.547  0.9832E+01  0.1099E+03
     10.708  0.9027E+01  0.1113E+03
     10.869  0.1115E+02  0.1131E+03
     11.030  0.8916E+01  0.1146E+03
     11.191  0.8228E+01  0.1159E+03
     11.353  0.7527E+01  0.1171E+03
     11.514  0.7553E+01  0.1183E+03
     11.675  0.7595E+01  0.1195E+03
     11.836  0.8030E+01  0.1208E+03
     11.998  0.9075E+01  0.1223E+03
     12.159  0.8609E+01  0.1237E+03
     12.320  0.6153E+01  0.1247E+03
     12.481  0.6195E+01  0.1257E+03
     12.643  0.9116E+01  0.1272E+03
     12.804  0.9332E+01  0.1287E+03
     12.965  0.7981E+01  0.1299E+03
     13.126  0.8012E+01  0.1312E+03
     13.288  0.8785E+01  0.1327E+03
     13.449  0.9374E+01  0.1342E+03
     13.610  0.9253E+01  0.1357E+03
     13.771  0.5559E+01  0.1366E+03
     13.932  0.5257E+01  0.1374E+03
     14.094  0.9171E+01  0.1389E+03
     14.255  0.1061E+02  0.1406E+03
     14.416  0.1012E+02  0.1422E+03
     14.577  0.1256E+02  0.1442E+03
     14.739  0.1227E+02  0.1462E+03
     14.900  0.9609E+01  0.1478E+03
     15.061  0.9005E+01  0.1492E+03
     15.222  0.9164E+01  0.1507E+03
     15.384  0.1006E+02  0.1523E+03
     15.545  0.9054E+01  0.1538E+03
     15.706  0.8319E+01  0.1551E+03
     15.867  0.1024E+02  0.1568E+03
     16.029  0.1077E+02  0.1585E+03
     16.190  0.8934E+01  0.1600E+03
     16.351  0.9282E+01  0.1614E+03
     16.512  0.8010E+01  0.1627E+03
     16.673  0.9314E+01  0.1642E+03
     16.835  0.9690E+01  0.1658E+03
     16.996  0.6233E+01  0.1668E+03
     17.157  0.7267E+01  0.1680E+03
     17.318  0.8297E+01  0.1693E+03
     17.480  0.9791E+01  0.1709E+03
     17.641  0.8814E+01  0.1723E+03
     17.802  0.9226E+01  0.1738E+03
     17.963  0.9363E+01  0.1753E+03
     18.125  0.9090E+01  0.1768E+03
     18.286  0.9354E+01  0.1783E+03
     18.447  0.9103E+01  0.1798E+03
     18.608  0.8725E+01  0.1812E+03
     18.770  0.6604E+01  0.1822E+03
     18.931  0.8135E+01  0.1835E+03
     19.092  0.8044E+01  0.1848E+03
     19.253  0.6490E+01  0.1859E+03
     19.415  0.6785E+01  0.1870E+03
     19.576  0.7012E+01  0.1881E+03
     19.737  0.6000E+01  0.1891E+03
     19.898  0.5892E+01  0.1900E+03
     20.059  0.5723E+01  0.1909E+03
     20.221  0.2917E+01  0.1914E+03
     20.382  0.1256E+01  0.1916E+03
     20.543  0.6802E+00  0.1917E+03
     20.704  0.5817E+00  0.1918E+03
     20.866  0.5217E+00  0.1919E+03
     21.027  0.2795E+00  0.1920E+03
     21.188  0.2620E+00  0.1920E+03
     21.349  0.1820E-01  0.1920E+03
     21.511  0.2046E-04  0.1920E+03
     21.672  0.1903E-09  0.1920E+03
     21.833  0.0000E+00  0.1920E+03
     21.994  0.0000E+00  0.1920E+03
     22.156  0.0000E+00  0.1920E+03
     22.317  0.0000E+00  0.1920E+03
     22.478  0.0000E+00  0.1920E+03
     22.639  0.0000E+00  0.1920E+03
     22.800  0.0000E+00  0.1920E+03
     22.962  0.0000E+00  0.1920E+03
     23.123  0.0000E+00  0.1920E+03
     23.284  0.0000E+00  0.1920E+03
     23.28417566    -25.08673207  301     -0.40749186      1.00000000
    -25.087  0.0000E+00  0.0000E+00  0.0000E+00  0.0000E+00  0.0000E+00  0.0000E+00  0.0000E+00  0.0000E+00  0.0000E+00
    -24.925  0.0000E+00  0.0000E+00  0.0000E+00  0.0000E+00  0.0000E+00  0.0000E+00  0.0000E+00  0.0000E+00  0.0000E+00
    -24.764  0.0000E+00  0.0000E+00  0.0000E+00  0.0000E+00  0.0000E+00  0.0000E+00  0.0000E+00  0.0000E+00  0.0000E+00
    -24.603  0.0000E+00  0.0000E+00  0.0000E+00  0.0000E+00  0.0000E+00  0.0000E+00  0.0000E+00  0.0000E+00  0.0000E+00
    -24.442  0.0000E+00  0.0000E+00  0.0000E+00  0.0000E+00  0.0000E+00  0.0000E+00  0.0000E+00  0.0000E+00  0.0000E+00
    -24.281  0.0000E+00  0.0000E+00  0.0000E+00  0.0000E+00  0.0000E+00  0.0000E+00  0.0000E+00  0.0000E+00  0.0000E+00
    -24.119  0.0000E+00  0.0000E+00  0.0000E+00  0.0000E+00  0.0000E+00  0.0000E+00  0.0000E+00  0.0000E+00  0.0000E+00
    -23.958  0.0000E+00  0.0000E+00  0.0000E+00  0.0000E+00  0.0000E+00  0.0000E+00  0.0000E+00  0.0000E+00  0.0000E+00
    -23.797  0.0000E+00  0.0000E+00  0.0000E+00  0.0000E+00  0.0000E+00  0.0000E+00  0.0000E+00  0.0000E+00  0.0000E+00
    -23.636  0.0000E+00  0.0000E+00  0.0000E+00  0.0000E+00  0.0000E+00  0.0000E+00  0.0000E+00  0.0000E+00  0.0000E+00
    -23.474  0.2657E-21  0.4668E-30  0.1384E-22  0.1452E-30  0.0000E+00  0.0000E+00  0.0000E+00  0.0000E+00  0.0000E+00
    -23.313  0.4562E-14  0.2709E-18  0.2376E-15  0.2710E-18  0.0000E+00  0.0000E+00  0.0000E+00  0.0000E+00  0.0000E+00
    -23.152  0.5500E-09  0.1561E-12  0.2861E-10  0.1562E-12  0.0000E+00  0.0000E+00  0.0000E+00  0.0000E+00  0.0000E+00
    -22.991  0.7251E-06  0.6284E-09  0.3758E-07  0.6287E-09  0.0000E+00  0.0000E+00  0.0000E+00  0.0000E+00  0.0000E+00
    -22.829  0.2030E-04  0.3576E-07  0.1047E-05  0.3577E-07  0.0000E+00  0.0000E+00  0.0000E+00  0.0000E+00  0.0000E+00
    -22.668  0.4971E-04  0.2216E-06  0.2520E-05  0.2217E-06  0.0000E+00  0.0000E+00  0.0000E+00  0.0000E+00  0.0000E+00
    -22.507  0.4954E-04  0.4524E-06  0.2431E-05  0.4525E-06  0.0000E+00  0.0000E+00  0.0000E+00  0.0000E+00  0.0000E+00
    -22.346  0.5171E-04  0.6542E-06  0.2474E-05  0.6543E-06  0.0000E+00  0.0000E+00  0.0000E+00  0.0000E+00  0.0000E+00
    -22.184  0.5442E-04  0.1012E-05  0.2479E-05  0.1012E-05  0.0000E+00  0.0000E+00  0.0000E+00  0.0000E+00  0.0000E+00
    -22.023  0.5201E-04  0.1080E-05  0.2324E-05  0.1080E-05  0.0000E+00  0.0000E+00  0.0000E+00  0.0000E+00  0.0000E+00
    -21.862  0.4538E-04  0.1188E-05  0.1912E-05  0.1188E-05  0.0000E+00  0.0000E+00  0.0000E+00  0.0000E+00  0.0000E+00
    -21.701  0.7554E-04  0.2161E-05  0.3078E-05  0.2162E-05  0.0000E+00  0.0000E+00  0.0000E+00  0.0000E+00  0.0000E+00
    -21.540  0.3325E-04  0.1031E-05  0.1292E-05  0.1032E-05  0.0000E+00  0.0000E+00  0.0000E+00  0.0000E+00  0.0000E+00
    -21.378  0.6671E-04  0.2320E-05  0.2398E-05  0.2321E-05  0.0000E+00  0.0000E+00  0.0000E+00  0.0000E+00  0.0000E+00
    -21.217  0.7615E-04  0.2704E-05  0.2614E-05  0.2705E-05  0.0000E+00  0.0000E+00  0.0000E+00  0.0000E+00  0.0000E+00
    -21.056  0.4285E-04  0.1623E-05  0.1396E-05  0.1624E-05  0.0000E+00  0.0000E+00  0.0000E+00  0.0000E+00  0.0000E+00
    -20.895  0.5950E-04  0.2274E-05  0.1665E-05  0.2275E-05  0.0000E+00  0.0000E+00  0.0000E+00  0.0000E+00  0.0000E+00
    -20.733  0.1087E-03  0.4300E-05  0.2923E-05  0.4302E-05  0.0000E+00  0.0000E+00  0.0000E+00  0.0000E+00  0.0000E+00
    -20.572  0.6321E-04  0.2298E-05  0.1471E-05  0.2300E-05  0.0000E+00  0.0000E+00  0.0000E+00  0.0000E+00  0.0000E+00
    -20.411  0.5851E-04  0.2006E-05  0.1235E-05  0.2007E-05  0.0000E+00  0.0000E+00  0.0000E+00  0.0000E+00  0.0000E+00
    -20.250  0.1099E-03  0.3540E-05  0.1817E-05  0.3542E-05  0.0000E+00  0.0000E+00  0.0000E+00  0.0000E+00  0.0000E+00
    -20.088  0.1778E-03  0.5188E-05  0.2625E-05  0.5191E-05  0.0000E+00  0.0000E+00  0.0000E+00  0.0000E+00  0.0000E+00
    -19.927  0.1097E-03  0.2302E-05  0.1169E-05  0.2303E-05  0.0000E+00  0.0000E+00  0.0000E+00  0.0000E+00  0.0000E+00
    -19.766  0.7584E-02  0.5973E-05  0.1438E-05  0.5974E-05  0.0000E+00  0.0000E+00  0.0000E+00  0.0000E+00  0.0000E+00
    -19.605  0.1468E+00  0.1693E-03  0.6464E-05  0.1692E-03  0.0000E+00  0.0000E+00  0.0000E+00  0.0000E+00  0.0000E+00
    -19.443  0.3190E+00  0.7798E-03  0.1333E-04  0.7798E-03  0.0000E+00  0.0000E+00  0.0000E+00  0.0000E+00  0.0000E+00
    -19.282  0.3822E+00  0.1391E-02  0.1516E-04  0.1391E-02  0.0000E+00  0.0000E+00  0.0000E+00  0.0000E+00  0.0000E+00
    -19.121  0.5254E+00  0.1786E-02  0.2151E-04  0.1786E-02  0.0000E+00  0.0000E+00  0.0000E+00  0.0000E+00  0.0000E+00
    -18.960  0.8654E+00  0.1428E-02  0.3447E-04  0.1428E-02  0.0000E+00  0.0000E+00  0.0000E+00  0.0000E+00  0.0000E+00
    -18.799  0.4555E+00  0.3446E-03  0.2087E-04  0.3445E-03  0.0000E+00  0.0000E+00  0.0000E+00  0.0000E+00  0.0000E+00
    -18.637  0.1997E-01  0.2181E-04  0.3074E-05  0.2182E-04  0.0000E+00  0.0000E+00  0.0000E+00  0.0000E+00  0.0000E+00
    -18.476  0.6185E-04  0.1041E-04  0.1566E-05  0.1042E-04  0.0000E+00  0.0000E+00  0.0000E+00  0.0000E+00  0.0000E+00
    -18.315  0.7827E-05  0.9277E-05  0.1348E-05  0.9285E-05  0.0000E+00  0.0000E+00  0.0000E+00  0.0000E+00  0.0000E+00
    -18.154  0.2572E-05  0.2792E-05  0.3954E-06  0.2796E-05  0.0000E+00  0.0000E+00  0.0000E+00  0.0000E+00  0.0000E+00
    -17.992  0.1923E-04  0.1941E-04  0.2609E-05  0.1944E-04  0.0000E+00  0.0000E+00  0.0000E+00  0.0000E+00  0.0000E+00
    -17.831  0.1039E-04  0.1549E-04  0.1908E-05  0.1552E-04  0.0000E+00  0.0000E+00  0.0000E+00  0.0000E+00  0.0000E+00
    -17.670  0.9059E-06  0.1224E-04  0.1346E-05  0.1226E-04  0.0000E+00  0.0000E+00  0.0000E+00  0.0000E+00  0.0000E+00
    -17.509  0.1175E-06  0.1021E-04  0.1143E-05  0.1022E-04  0.0000E+00  0.0000E+00  0.0000E+00  0.0000E+00  0.0000E+00
    -17.347  0.7955E-07  0.1051E-04  0.1060E-05  0.1053E-04  0.0000E+00  0.0000E+00  0.0000E+00  0.0000E+00  0.0000E+00
    -17.186  0.1657E-04  0.6742E-03  0.1290E-05  0.6734E-03  0.0000E+00  0.0000E+00  0.0000E+00  0.0000E+00  0.0000E+00
    -17.025  0.1162E-02  0.3313E-01  0.2946E-05  0.3311E-01  0.0000E+00  0.0000E+00  0.0000E+00  0.0000E+00  0.0000E+00
    -16.864  0.1055E-01  0.1181E+00  0.2366E-05  0.1181E+00  0.0000E+00  0.0000E+00  0.0000E+00  0.0000E+00  0.0000E+00
    -16.702  0.2422E-01  0.1406E+00  0.2614E-05  0.1405E+00  0.0000E+00  0.0000E+00  0.0000E+00  0.0000E+00  0.0000E+00
    -16.541  0.2538E-01  0.8860E-01  0.1401E-05  0.8859E-01  0.0000E+00  0.0000E+00  0.0000E+00  0.0000E+00  0.0000E+00
    -16.380  0.2502E-01  0.9752E-01  0.2009E-05  0.9751E-01  0.0000E+00  0.0000E+00  0.0000E+00  0.0000E+00  0.0000E+00
    -16.219  0.1748E-01  0.8371E-01  0.3047E-05  0.8371E-01  0.0000E+00  0.0000E+00  0.0000E+00  0.0000E+00  0.0000E+00
    -16.057  0.2452E-01  0.1502E+00  0.1628E-05  0.1502E+00  0.0000E+00  0.0000E+00  0.0000E+00  0.0000E+00  0.0000E+00
    -15.896  0.1095E-01  0.1310E+00  0.6489E-06  0.1310E+00  0.0000E+00  0.0000E+00  0.0000E+00  0.0000E+00  0.0000E+00
    -15.735  0.1606E-01  0.2625E+00  0.1272E-05  0.2625E+00  0.0000E+00  0.0000E+00  0.0000E+00  0.0000E+00  0.0000E+00
    -15.574  0.6389E-02  0.2185E+00  0.1379E-05  0.2185E+00  0.0000E+00  0.0000E+00  0.0000E+00  0.0000E+00  0.0000E+00
    -15.413  0.3335E-02  0.1666E+00  0.1025E-05  0.1666E+00  0.0000E+00  0.0000E+00  0.0000E+00  0.0000E+00  0.0000E+00
    -15.251  0.2905E-03  0.4982E-01  0.7508E-06  0.4988E-01  0.0000E+00  0.0000E+00  0.0000E+00  0.0000E+00  0.0000E+00
    -15.090  0.8089E-05  0.1426E-02  0.4411E-06  0.1431E-02  0.0000E+00  0.0000E+00  0.0000E+00  0.0000E+00  0.0000E+00
    -14.929  0.1012E-04  0.7971E-04  0.6838E-06  0.8007E-04  0.0000E+00  0.0000E+00  0.0000E+00  0.0000E+00  0.0000E+00
    -14.768  0.3184E-05  0.2221E-04  0.1028E-05  0.2227E-04  0.0000E+00  0.0000E+00  0.0000E+00  0.0000E+00  0.0000E+00
    -14.606  0.1815E-05  0.4688E-05  0.8739E-06  0.4712E-05  0.0000E+00  0.0000E+00  0.0000E+00  0.0000E+00  0.0000E+00
    -14.445  0.6493E-05  0.1027E-04  0.8618E-06  0.1034E-04  0.0000E+00  0.0000E+00  0.0000E+00  0.0000E+00  0.0000E+00
    -14.284  0.3199E-05  0.3655E-05  0.5283E-06  0.3687E-05  0.0000E+00  0.0000E+00  0.0000E+00  0.0000E+00  0.0000E+00
    -14.123  0.2866E-05  0.2333E-05  0.9522E-06  0.2358E-05  0.0000E+00  0.0000E+00  0.0000E+00  0.0000E+00  0.0000E+00
    -13.961  0.1124E-05  0.5905E-06  0.2255E-06  0.5963E-06  0.0000E+00  0.0000E+00  0.0000E+00  0.0000E+00  0.0000E+00
    -13.800  0.5382E-05  0.2031E-05  0.1001E-05  0.2056E-05  0.0000E+00  0.0000E+00  0.0000E+00  0.0000E+00  0.0000E+00
    -13.639  0.2839E-05  0.8114E-06  0.4450E-06  0.8236E-06  0.0000E+00  0.0000E+00  0.0000E+00  0.0000E+00  0.0000E+00
    -13.478  0.1801E-05  0.3069E-06  0.4597E-06  0.3124E-06  0.0000E+00  0.0000E+00  0.0000E+00  0.0000E+00  0.0000E+00
    -13.316  0.2288E-05  0.6555E-06  0.5582E-06  0.6606E-06  0.0000E+00  0.0000E+00  0.0000E+00  0.0000E+00  0.0000E+00
    -13.155  0.3438E-05  0.1653E-05  0.4980E-06  0.1658E-05  0.0000E+00  0.0000E+00  0.0000E+00  0.0000E+00  0.0000E+00
    -12.994  0.3672E-05  0.1058E-05  0.4668E-06  0.1063E-05  0.0000E+00  0.0000E+00  0.0000E+00  0.0000E+00  0.0000E+00
    -12.833  0.2988E-05  0.9703E-06  0.4302E-06  0.9651E-06  0.0000E+00  0.0000E+00  0.0000E+00  0.0000E+00  0.0000E+00
    -12.672  0.1759E-05  0.1855E-05  0.3258E-06  0.1838E-05  0.0000E+00  0.0000E+00  0.0000E+00  0.0000E+00  0.0000E+00
    -12.510  0.3955E-05  0.4161E-05  0.5593E-06  0.4156E-05  0.0000E+00  0.0000E+00  0.0000E+00  0.0000E+00  0.0000E+00
    -12.349  0.1151E-02  0.4089E-03  0.5103E-06  0.4094E-03  0.0000E+00  0.0000E+00  0.0000E+00  0.0000E+00  0.0000E+00
    -12.188  0.2143E-01  0.7650E-02  0.1935E-05  0.7653E-02  0.0000E+00  0.0000E+00  0.0000E+00  0.0000E+00  0.0000E+00
    -12.027  0.5752E-01  0.2439E-01  0.4616E-05  0.2440E-01  0.0000E+00  0.0000E+00  0.0000E+00  0.0000E+00  0.0000E+00
    -11.865  0.1191E+00  0.3585E-01  0.1081E-04  0.3585E-01  0.0000E+00  0.0000E+00  0.0000E+00  0.0000E+00  0.0000E+00
    -11.704  0.1411E+00  0.2376E-01  0.1309E-04  0.2376E-01  0.0000E+00  0.0000E+00  0.0000E+00  0.0000E+00  0.0000E+00
    -11.543  0.1386E+00  0.4942E-01  0.1261E-04  0.4943E-01  0.0000E+00  0.0000E+00  0.0000E+00  0.0000E+00  0.0000E+00
    -11.382  0.4046E-01  0.6795E-01  0.3580E-05  0.6795E-01  0.0000E+00  0.0000E+00  0.0000E+00  0.0000E+00  0.0000E+00
    -11.220  0.1099E-01  0.2442E-01  0.1892E-05  0.2442E-01  0.0000E+00  0.0000E+00  0.0000E+00  0.0000E+00  0.0000E+00
    -11.059  0.1013E+00  0.6740E-01  0.1089E-04  0.6741E-01  0.0000E+00  0.0000E+00  0.0000E+00  0.0000E+00  0.0000E+00
    -10.898  0.3605E-01  0.5941E-01  0.3726E-05  0.5941E-01  0.0000E+00  0.0000E+00  0.0000E+00  0.0000E+00  0.0000E+00
    -10.737  0.6423E-02  0.2667E-01  0.8163E-06  0.2666E-01  0.0000E+00  0.0000E+00  0.0000E+00  0.0000E+00  0.0000E+00
    -10.575  0.8625E-01  0.8251E-01  0.1030E-04  0.8251E-01  0.0000E+00  0.0000E+00  0.0000E+00  0.0000E+00  0.0000E+00
    -10.414  0.7775E-01  0.8790E-01  0.9385E-05  0.8789E-01  0.0000E+00  0.0000E+00  0.0000E+00  0.0000E+00  0.0000E+00
    -10.253  0.3270E-02  0.3352E-01  0.6996E-06  0.3353E-01  0.0000E+00  0.0000E+00  0.0000E+00  0.0000E+00  0.0000E+00
    -10.092  0.1090E-01  0.7034E-01  0.3571E-05  0.7035E-01  0.0000E+00  0.0000E+00  0.0000E+00  0.0000E+00  0.0000E+00
     -9.931  0.4303E-01  0.1468E+00  0.8727E-05  0.1467E+00  0.0000E+00  0.0000E+00  0.0000E+00  0.0000E+00  0.0000E+00
     -9.769  0.2156E-01  0.5747E-01  0.3938E-03  0.5747E-01  0.0000E+00  0.0000E+00  0.0000E+00  0.0000E+00  0.0000E+00
     -9.608  0.9839E-02  0.7710E-01  0.3314E-02  0.7711E-01  0.0000E+00  0.0000E+00  0.0000E+00  0.0000E+00  0.0000E+00
     -9.447  0.3523E-01  0.1381E+00  0.5291E-02  0.1381E+00  0.0000E+00  0.0000E+00  0.0000E+00  0.0000E+00  0.0000E+00
     -9.286  0.2057E-01  0.3997E-01  0.4301E-02  0.3999E-01  0.0000E+00  0.0000E+00  0.0000E+00  0.0000E+00  0.0000E+00
     -9.124  0.6548E-01  0.1506E+00  0.6252E-02  0.1506E+00  0.0000E+00  0.0000E+00  0.0000E+00  0.0000E+00  0.0000E+00
     -8.963  0.3436E-01  0.5310E-01  0.3452E-02  0.5308E-01  0.0000E+00  0.0000E+00  0.0000E+00  0.0000E+00  0.0000E+00
     -8.802  0.2910E-02  0.3300E-02  0.7975E-02  0.3301E-02  0.0000E+00  0.0000E+00  0.0000E+00  0.0000E+00  0.0000E+00
     -8.641  0.1026E-04  0.1751E-03  0.4248E-02  0.1750E-03  0.0000E+00  0.0000E+00  0.0000E+00  0.0000E+00  0.0000E+00
     -8.479  0.1016E-04  0.5892E-03  0.4570E-02  0.5891E-03  0.0000E+00  0.0000E+00  0.0000E+00  0.0000E+00  0.0000E+00
     -8.318  0.2572E-04  0.1302E-03  0.9640E-02  0.1302E-03  0.0000E+00  0.0000E+00  0.0000E+00  0.0000E+00  0.0000E+00
     -8.157  0.9110E-05  0.3641E-03  0.5257E-02  0.3641E-03  0.0000E+00  0.0000E+00  0.0000E+00  0.0000E+00  0.0000E+00
     -7.996  0.1196E-04  0.1378E-02  0.5245E-02  0.1378E-02  0.0000E+00  0.0000E+00  0.0000E+00  0.0000E+00  0.0000E+00
     -7.834  0.6284E-04  0.1673E-02  0.3569E-01  0.1673E-02  0.0000E+00  0.0000E+00  0.0000E+00  0.0000E+00  0.0000E+00
     -7.673  0.8417E-04  0.4266E-03  0.1010E+00  0.4268E-03  0.0000E+00  0.0000E+00  0.0000E+00  0.0000E+00  0.0000E+00
     -7.512  0.4380E-04  0.4719E-03  0.1053E+00  0.4722E-03  0.0000E+00  0.0000E+00  0.0000E+00  0.0000E+00  0.0000E+00
     -7.351  0.3012E-03  0.6227E-02  0.1372E+00  0.6227E-02  0.0000E+00  0.0000E+00  0.0000E+00  0.0000E+00  0.0000E+00
     -7.189  0.2378E-02  0.1240E-01  0.1167E+00  0.1240E-01  0.0000E+00  0.0000E+00  0.0000E+00  0.0000E+00  0.0000E+00
     -7.028  0.7768E-02  0.2142E-01  0.1988E+00  0.2142E-01  0.0000E+00  0.0000E+00  0.0000E+00  0.0000E+00  0.0000E+00
     -6.867  0.9397E-02  0.2178E-01  0.1707E+00  0.2178E-01  0.0000E+00  0.0000E+00  0.0000E+00  0.0000E+00  0.0000E+00
     -6.706  0.1407E-01  0.2027E-01  0.1507E+00  0.2026E-01  0.0000E+00  0.0000E+00  0.0000E+00  0.0000E+00  0.0000E+00
     -6.545  0.5450E-02  0.2610E-01  0.1701E+00  0.2610E-01  0.0000E+00  0.0000E+00  0.0000E+00  0.0000E+00  0.0000E+00
     -6.383  0.2922E-01  0.6115E-01  0.2514E+00  0.6116E-01  0.0000E+00  0.0000E+00  0.0000E+00  0.0000E+00  0.0000E+00
     -6.222  0.3101E-01  0.3876E-01  0.9870E-01  0.3876E-01  0.0000E+00  0.0000E+00  0.0000E+00  0.0000E+00  0.0000E+00
     -6.061  0.1205E-01  0.1244E-01  0.7818E-01  0.1244E-01  0.0000E+00  0.0000E+00  0.0000E+00  0.0000E+00  0.0000E+00
     -5.900  0.5312E-02  0.4525E-02  0.9854E-02  0.4524E-02  0.0000E+00  0.0000E+00  0.0000E+00  0.0000E+00  0.0000E+00
     -5.738  0.1694E-03  0.1762E-03  0.2324E-03  0.1758E-03  0.0000E+00  0.0000E+00  0.0000E+00  0.0000E+00  0.0000E+00
     -5.577  0.7760E-03  0.2568E-02  0.1868E-02  0.2569E-02  0.0000E+00  0.0000E+00  0.0000E+00  0.0000E+00  0.0000E+00
     -5.416  0.1552E-02  0.5530E-02  0.6192E-03  0.5529E-02  0.0000E+00  0.0000E+00  0.0000E+00  0.0000E+00  0.0000E+00
     -5.255  0.5641E-02  0.8383E-02  0.9108E-04  0.8385E-02  0.0000E+00  0.0000E+00  0.0000E+00  0.0000E+00  0.0000E+00
     -5.093  0.1127E-01  0.1851E-01  0.4302E-04  0.1851E-01  0.0000E+00  0.0000E+00  0.0000E+00  0.0000E+00  0.0000E+00
     -4.932  0.5154E-02  0.1856E-01  0.2329E-03  0.1856E-01  0.0000E+00  0.0000E+00  0.0000E+00  0.0000E+00  0.0000E+00
     -4.771  0.2591E-02  0.1386E-01  0.2560E-03  0.1386E-01  0.0000E+00  0.0000E+00  0.0000E+00  0.0000E+00  0.0000E+00
     -4.610  0.2973E-02  0.1206E-01  0.2557E-02  0.1206E-01  0.0000E+00  0.0000E+00  0.0000E+00  0.0000E+00  0.0000E+00
     -4.448  0.2013E-02  0.1940E-01  0.7017E-02  0.1940E-01  0.0000E+00  0.0000E+00  0.0000E+00  0.0000E+00  0.0000E+00
     -4.287  0.1301E-02  0.9018E-02  0.1768E-01  0.9014E-02  0.0000E+00  0.0000E+00  0.0000E+00  0.0000E+00  0.0000E+00
     -4.126  0.8210E-03  0.8148E-02  0.1371E-01  0.8150E-02  0.0000E+00  0.0000E+00  0.0000E+00  0.0000E+00  0.0000E+00
     -3.965  0.2091E-03  0.8150E-02  0.2862E-01  0.8150E-02  0.0000E+00  0.0000E+00  0.0000E+00  0.0000E+00  0.0000E+00
     -3.804  0.2709E-03  0.7784E-02  0.1733E-01  0.7783E-02  0.0000E+00  0.0000E+00  0.0000E+00  0.0000E+00  0.0000E+00
     -3.642  0.1028E-03  0.4094E-02  0.1891E-01  0.4093E-02  0.0000E+00  0.0000E+00  0.0000E+00  0.0000E+00  0.0000E+00
     -3.481  0.3436E-04  0.8079E-03  0.1857E-01  0.8074E-03  0.0000E+00  0.0000E+00  0.0000E+00  0.0000E+00  0.0000E+00
     -3.320  0.2642E-04  0.2278E-04  0.1728E-01  0.2306E-04  0.0000E+00  0.0000E+00  0.0000E+00  0.0000E+00  0.0000E+00
     -3.159  0.2035E-04  0.9950E-05  0.2801E-01  0.1019E-04  0.0000E+00  0.0000E+00  0.0000E+00  0.0000E+00  0.0000E+00
     -2.997  0.2893E-04  0.1365E-04  0.8031E-02  0.1414E-04  0.0000E+00  0.0000E+00  0.0000E+00  0.0000E+00  0.0000E+00
     -2.836  0.5182E-04  0.1594E-04  0.1129E-01  0.1652E-04  0.0000E+00  0.0000E+00  0.0000E+00  0.0000E+00  0.0000E+00
     -2.675  0.1193E-04  0.8053E-05  0.2759E-01  0.8147E-05  0.0000E+00  0.0000E+00  0.0000E+00  0.0000E+00  0.0000E+00
     -2.514  0.3017E-05  0.1909E-04  0.8997E-02  0.1937E-04  0.0000E+00  0.0000E+00  0.0000E+00  0.0000E+00  0.0000E+00
     -2.352  0.6600E-05  0.2368E-04  0.1261E-01  0.2418E-04  0.0000E+00  0.0000E+00  0.0000E+00  0.0000E+00  0.0000E+00
     -2.191  0.5208E-05  0.1416E-04  0.1273E-01  0.1438E-04  0.0000E+00  0.0000E+00  0.0000E+00  0.0000E+00  0.0000E+00
     -2.030  0.1509E-04  0.2139E-04  0.1091E-01  0.2192E-04  0.0000E+00  0.0000E+00  0.0000E+00  0.0000E+00  0.0000E+00
     -1.869  0.1619E-04  0.1374E-04  0.8805E-02  0.1407E-04  0.0000E+00  0.0000E+00  0.0000E+00  0.0000E+00  0.0000E+00
     -1.707  0.7538E-05  0.1063E-04  0.1045E-02  0.1087E-04  0.0000E+00  0.0000E+00  0.0000E+00  0.0000E+00  0.0000E+00
     -1.546  0.1347E-05  0.6041E-05  0.4093E-02  0.6139E-05  0.0000E+00  0.0000E+00  0.0000E+00  0.0000E+00  0.0000E+00
     -1.385  0.4450E-05  0.7186E-05  0.3034E-02  0.7370E-05  0.0000E+00  0.0000E+00  0.0000E+00  0.0000E+00  0.0000E+00
     -1.224  0.5991E-05  0.5756E-05  0.2525E-03  0.5943E-05  0.0000E+00  0.0000E+00  0.0000E+00  0.0000E+00  0.0000E+00
     -1.063  0.7510E-06  0.9690E-06  0.1807E-04  0.1012E-05  0.0000E+00  0.0000E+00  0.0000E+00  0.0000E+00  0.0000E+00
     -0.901  0.7712E-05  0.3262E-05  0.1734E-03  0.3339E-05  0.0000E+00  0.0000E+00  0.0000E+00  0.0000E+00  0.0000E+00
     -0.740  0.3264E-05  0.1378E-05  0.7339E-04  0.1410E-05  0.0000E+00  0.0000E+00  0.0000E+00  0.0000E+00  0.0000E+00
     -0.579  0.2554E-07  0.1078E-07  0.5741E-06  0.1103E-07  0.0000E+00  0.0000E+00  0.0000E+00  0.0000E+00  0.0000E+00
     -0.418  0.1709E-11  0.7218E-12  0.3843E-10  0.7385E-12  0.0000E+00  0.0000E+00  0.0000E+00  0.0000E+00  0.0000E+00
     -0.256  0.5971E-14  0.2511E-14  0.1308E-12  0.2556E-14  0.0000E+00  0.0000E+00  0.0000E+00  0.0000E+00  0.0000E+00
     -0.095  0.8211E-09  0.3457E-09  0.1799E-07  0.3511E-09  0.0000E+00  0.0000E+00  0.0000E+00  0.0000E+00  0.0000E+00
      0.066  0.8255E-06  0.3480E-06  0.1809E-04  0.3527E-06  0.0000E+00  0.0000E+00  0.0000E+00  0.0000E+00  0.0000E+00