   15   15    1    1
  0.2033749E+02  0.4846000E-09  0.4846000E-09  0.1500000E-08  0.5000000E-15
  1.000000000000000E-004
  CAR 
 BS_HSE06                                
     56     61     96
 
  0.0000000E+00  0.0000000E+00  0.0000000E+00  0.8264463E-02
      1        -22.888054   1.000000
      2        -19.681553   1.000000
      3        -16.949252   1.000000
      4        -16.947687   1.000000
      5        -16.947630   1.000000
      6        -15.850324   1.000000
      7        -15.850256   1.000000
      8        -15.848683   1.000000
      9        -15.375556   1.000000
     10        -15.375435   1.000000
     11        -11.963619   1.000000
     12        -10.961113   1.000000
     13        -10.961008   1.000000
     14         -9.730771   1.000000
     15         -8.869002   1.000000
     16         -8.199353   1.000000
     17         -8.199049   1.000000
     18         -8.199029   1.000000
     19         -7.852074   1.000000
     20         -4.354915   1.000000
     21         -4.354769   1.000000
     22         -3.652549   1.000000
     23         -3.652462   1.000000
     24         -3.404064   1.000000
     25         -3.403598   1.000000
     26         -3.392761   1.000000
     27         -1.248896   1.000000
     28         -1.246448   1.000000
     29          1.318319   0.000000
     30          1.326960   0.000000
     31          1.654138   0.000000
     32          1.968160   0.000000
     33          1.974608   0.000000
     34          2.521662   0.000000
     35          3.078479   0.000000
     36          3.828322   0.000000
     37          4.063805   0.000000
     38          4.064083   0.000000
     39          4.791331   0.000000
     40          7.092139   0.000000
     41          7.761699   0.000000
     42          8.339000   0.000000
     43          8.347370   0.000000
     44          8.347613   0.000000
     45          8.679028   0.000000
     46          9.188657   0.000000
     47          9.264210   0.000000
     48          9.264387   0.000000
     49          9.903882   0.000000
     50         10.235501   0.000000
     51         10.235951   0.000000
     52         10.443240   0.000000
     53         11.129981   0.000000
     54         11.131090   0.000000
     55         11.245972   0.000000
     56         11.711087   0.000000
     57         11.789930   0.000000
     58         11.790537   0.000000
     59         11.895778   0.000000
     60         11.895984   0.000000
     61         11.931220   0.000000
     62         12.100683   0.000000
     63         12.361825   0.000000
     64         12.362014   0.000000
     65         12.394931   0.000000
     66         12.595125   0.000000
     67         12.595469   0.000000
     68         13.135958   0.000000
     69         13.313024   0.000000
     70         13.313225   0.000000
     71         13.411337   0.000000
     72         13.534311   0.000000
     73         14.082195   0.000000
     74         14.092821   0.000000
     75         14.093583   0.000000
     76         14.600902   0.000000
     77         14.609696   0.000000
     78         14.625048   0.000000
     79         14.686583   0.000000
     80         14.982699   0.000000
     81         15.404119   0.000000
     82         15.413579   0.000000
     83         15.975527   0.000000
     84         15.999033   0.000000
     85         16.002752   0.000000
     86         16.452837   0.000000
     87         16.462752   0.000000
     88         16.577058   0.000000
     89         17.170326   0.000000
     90         17.853428   0.000000
     91         18.568630   0.000000
     92         18.749162   0.000000
     93         19.010796   0.000000
     94         19.372001   0.000000
     95         20.007487   0.000000
     96         20.337561   0.000000
 
  0.9090909E-01  0.5866039E-17  0.0000000E+00  0.1652893E-01
      1        -22.833156   1.000000
      2        -19.642828   1.000000
      3        -17.614127   1.000000
      4        -17.141972   1.000000
      5        -17.139751   1.000000
      6        -15.570601   1.000000
      7        -15.568192   1.000000
      8        -15.517686   1.000000
      9        -15.410183   1.000000
     10        -15.099711   1.000000
     11        -11.838237   1.000000
     12        -11.097396   1.000000
     13        -10.843078   1.000000
     14         -9.662477   1.000000
     15         -8.573254   1.000000
     16         -8.365658   1.000000
     17         -8.364990   1.000000
     18         -8.143870   1.000000
     19         -7.788921   1.000000
     20         -4.576548   1.000000
     21         -4.474458   1.000000
     22         -3.925398   1.000000
     23         -3.808140   1.000000
     24         -3.758674   1.000000
     25         -3.447592   1.000000
     26         -3.434322   1.000000
     27         -1.561091   1.000000
     28         -1.413757   1.000000
     29          1.318159   0.000000
     30          1.500867   0.000000
     31          1.848681   0.000000
     32          2.087614   0.000000
     33          2.213664   0.000000
     34          3.042733   0.000000
     35          3.166878   0.000000
     36          3.907765   0.000000
     37          4.187071   0.000000
     38          4.320330   0.000000
     39          4.861855   0.000000
     40          7.153932   0.000000
     41          7.824607   0.000000
     42          8.365714   0.000000
     43          8.515038   0.000000
     44          8.592782   0.000000
     45          8.598901   0.000000
     46          9.289630   0.000000
     47          9.301738   0.000000
     48          9.502352   0.000000
     49          9.726342   0.000000
     50          9.900038   0.000000
     51         10.009457   0.000000
     52         10.299377   0.000000
     53         10.428121   0.000000
     54         10.668802   0.000000
     55         10.772240   0.000000
     56         10.899162   0.000000
     57         11.294218   0.000000
     58         11.453322   0.000000
     59         11.563778   0.000000
     60         11.954625   0.000000
     61         12.057717   0.000000
     62         12.225017   0.000000
     63         12.437063   0.000000
     64         12.513603   0.000000
     65         13.008147   0.000000
     66         13.099379   0.000000
     67         13.190805   0.000000
     68         13.204219   0.000000
     69         13.337778   0.000000
     70         13.479900   0.000000
     71         13.806391   0.000000
     72         13.916868   0.000000
     73         14.024216   0.000000
     74         14.159989   0.000000
     75         14.231107   0.000000
     76         14.328947   0.000000
     77         14.611187   0.000000
     78         14.768739   0.000000
     79         14.916727   0.000000
     80         15.043092   0.000000
     81         15.300274   0.000000
     82         15.430696   0.000000
     83         15.777463   0.000000
     84         15.957333   0.000000
     85         16.306500   0.000000
     86         16.750055   0.000000
     87         16.867198   0.000000
     88         17.135962   0.000000
     89         17.575146   0.000000
     90         18.047617   0.000000
     91         18.220352   0.000000
     92         18.413974   0.000000
     93         18.903629   0.000000
     94         19.310351   0.000000
     95         20.299489   0.000000
     96         21.085498   0.000000
 
  0.5866039E-17  0.9090909E-01  0.0000000E+00  0.1652893E-01
      1        -22.833156   1.000000
      2        -19.642828   1.000000
      3        -17.614119   1.000000
      4        -17.141994   1.000000
      5        -17.139745   1.000000
      6        -15.570627   1.000000
      7        -15.568219   1.000000
      8        -15.517602   1.000000
      9        -15.410146   1.000000
     10        -15.099772   1.000000
     11        -11.838237   1.000000
     12        -11.097363   1.000000
     13        -10.843108   1.000000
     14         -9.662477   1.000000
     15         -8.573253   1.000000
     16         -8.365678   1.000000
     17         -8.365014   1.000000
     18         -8.143826   1.000000
     19         -7.788921   1.000000
     20         -4.576642   1.000000
     21         -4.474364   1.000000
     22         -3.925437   1.000000
     23         -3.808235   1.000000
     24         -3.758522   1.000000
     25         -3.447394   1.000000
     26         -3.434524   1.000000
     27         -1.560206   1.000000
     28         -1.414922   1.000000
     29          1.322620   0.000000
     30          1.497744   0.000000
     31          1.848998   0.000000
     32          2.082861   0.000000
     33          2.216403   0.000000
     34          3.043372   0.000000
     35          3.166916   0.000000
     36          3.907772   0.000000
     37          4.186804   0.000000
     38          4.320541   0.000000
     39          4.861856   0.000000
     40          7.153931   0.000000
     41          7.824607   0.000000
     42          8.365841   0.000000
     43          8.514750   0.000000
     44          8.592805   0.000000
     45          8.599136   0.000000
     46          9.289744   0.000000
     47          9.301687   0.000000
     48          9.502236   0.000000
     49          9.726098   0.000000
     50          9.900030   0.000000
     51         10.009414   0.000000
     52         10.299379   0.000000
     53         10.428131   0.000000
     54         10.669175   0.000000
     55         10.772666   0.000000
     56         10.899289   0.000000
     57         11.293785   0.000000
     58         11.452906   0.000000
     59         11.563738   0.000000
     60         11.954633   0.000000
     61         12.057850   0.000000
     62         12.225420   0.000000
     63         12.436590   0.000000
     64         12.512177   0.000000
     65         13.008643   0.000000
     66         13.099133   0.000000
     67         13.191080   0.000000
     68         13.203992   0.000000
     69         13.338414   0.000000
     70         13.481283   0.000000
     71         13.805914   0.000000
     72         13.917160   0.000000
     73         14.023308   0.000000
     74         14.159318   0.000000
     75         14.229824   0.000000
     76         14.329094   0.000000
     77         14.612817   0.000000
     78         14.768849   0.000000
     79         14.917463   0.000000
     80         15.047380   0.000000
     81         15.298165   0.000000
     82         15.433182   0.000000
     83         15.777007   0.000000
     84         15.954090   0.000000
     85         16.307405   0.000000
     86         16.743759   0.000000
     87         16.862826   0.000000
     88         17.134072   0.000000
     89         17.577215   0.000000
     90         18.048544   0.000000
     91         18.174248   0.000000
     92         18.410935   0.000000
     93         18.930322   0.000000
     94         19.459203   0.000000
     95         19.923679   0.000000
     96         20.680257   0.000000
 
 -0.9090909E-01  0.9090909E-01  0.0000000E+00  0.1652893E-01
      1        -22.833156   1.000000
      2        -19.642828   1.000000
      3        -17.614118   1.000000
      4        -17.141990   1.000000
      5        -17.139752   1.000000
      6        -15.570595   1.000000
      7        -15.568293   1.000000
      8        -15.517446   1.000000
      9        -15.410260   1.000000
     10        -15.099774   1.000000
     11        -11.838229   1.000000
     12        -11.097311   1.000000
     13        -10.843168   1.000000
     14         -9.662477   1.000000
     15         -8.573250   1.000000
     16         -8.365694   1.000000
     17         -8.365007   1.000000
     18         -8.143817   1.000000
     19         -7.788920   1.000000
     20         -4.576662   1.000000
     21         -4.474343   1.000000
     22         -3.925462   1.000000
     23         -3.808194   1.000000
     24         -3.758525   1.000000
     25         -3.447360   1.000000
     26         -3.434576   1.000000
     27         -1.560927   1.000000
     28         -1.414092   1.000000
     29          1.321410   0.000000
     30          1.499733   0.000000
     31          1.844642   0.000000
     32          2.087839   0.000000
     33          2.215316   0.000000
     34          3.042987   0.000000
     35          3.166882   0.000000
     36          3.907772   0.000000
     37          4.186930   0.000000
     38          4.320411   0.000000
     39          4.861859   0.000000
     40          7.153934   0.000000
     41          7.824607   0.000000
     42          8.365486   0.000000
     43          8.515744   0.000000
     44          8.592601   0.000000
     45          8.598649   0.000000
     46          9.289766   0.000000
     47          9.301698   0.000000
     48          9.502224   0.000000
     49          9.726096   0.000000
     50          9.900162   0.000000
     51         10.009433   0.000000
     52         10.299367   0.000000
     53         10.428102   0.000000
     54         10.668848   0.000000
     55         10.772776   0.000000
     56         10.899202   0.000000
     57         11.294110   0.000000
     58         11.452778   0.000000
     59         11.563806   0.000000
     60         11.954619   0.000000
     61         12.057926   0.000000
     62         12.225236   0.000000
     63         12.436602   0.000000
     64         12.512770   0.000000
     65         13.008102   0.000000
     66         13.099185   0.000000
     67         13.191148   0.000000
     68         13.204135   0.000000
     69         13.338487   0.000000
     70         13.480899   0.000000
     71         13.806185   0.000000
     72         13.915319   0.000000
     73         14.023582   0.000000
     74         14.159907   0.000000
     75         14.232753   0.000000
     76         14.328001   0.000000
     77         14.613040   0.000000
     78         14.768892   0.000000
     79         14.916180   0.000000
     80         15.045122   0.000000
     81         15.304199   0.000000
     82         15.425790   0.000000
     83         15.773832   0.000000
     84         15.965142   0.000000
     85         16.304428   0.000000
     86         16.740953   0.000000
     87         16.866261   0.000000
     88         17.131866   0.000000
     89         17.575326   0.000000
     90         18.035257   0.000000
     91         18.160296   0.000000
     92         18.393870   0.000000
     93         18.884831   0.000000
     94         19.077381   0.000000
     95         19.856262   0.000000
     96         21.035520   0.000000
 
  0.1818182E+00  0.1108143E-16  0.0000000E+00  0.1652893E-01
      1        -22.668598   1.000000
      2        -19.530655   1.000000
      3        -18.553184   1.000000
      4        -17.467932   1.000000
      5        -17.465242   1.000000
      6        -15.886515   1.000000
      7        -15.507307   1.000000
      8        -14.970205   1.000000
      9        -14.966961   1.000000
     10        -13.917035   1.000000
     11        -11.725739   1.000000
     12        -11.115520   1.000000
     13        -10.519070   1.000000
     14         -9.457976   1.000000
     15         -8.829930   1.000000
     16         -8.828733   1.000000
     17         -7.979329   1.000000
     18         -7.899598   1.000000
     19         -7.602684   1.000000
     20         -5.204077   1.000000
     21         -4.804300   1.000000
     22         -4.630850   1.000000
     23         -4.573508   1.000000
     24         -4.215975   1.000000
     25         -3.558365   1.000000
     26         -3.533116   1.000000
     27         -2.328433   1.000000
     28         -1.741386   1.000000
     29          1.269361   0.000000
     30          1.923867   0.000000
     31          2.130562   0.000000
     32          2.558663   0.000000
     33          3.191537   0.000000
     34          3.349196   0.000000
     35          3.949931   0.000000
     36          4.279776   0.000000
     37          4.513059   0.000000
     38          4.915429   0.000000
     39          5.112016   0.000000
     40          7.331277   0.000000
     41          7.898719   0.000000
     42          8.008454   0.000000
     43          8.412897   0.000000
     44          8.610275   0.000000
     45          9.155654   0.000000
     46          9.264482   0.000000
     47          9.285644   0.000000
     48          9.298771   0.000000
     49          9.336936   0.000000
     50          9.745201   0.000000
     51          9.818812   0.000000
     52         10.036401   0.000000
     53         10.169555   0.000000
     54         10.191256   0.000000
     55         10.235483   0.000000
     56         10.344992   0.000000
     57         10.623060   0.000000
     58         10.805681   0.000000
     59         10.996099   0.000000
     60         11.642198   0.000000
     61         11.801145   0.000000
     62         12.060405   0.000000
     63         12.557416   0.000000
     64         12.599081   0.000000
     65         13.212644   0.000000
     66         13.229688   0.000000
     67         13.311276   0.000000
     68         13.378733   0.000000
     69         13.516670   0.000000
     70         13.883604   0.000000
     71         14.151467   0.000000
     72         14.249230   0.000000
     73         14.294703   0.000000
     74         14.533710   0.000000
     75         14.694506   0.000000
     76         14.756415   0.000000
     77         14.974161   0.000000
     78         15.038871   0.000000
     79         15.229200   0.000000
     80         15.299209   0.000000
     81         15.562027   0.000000
     82         15.833186   0.000000
     83         16.195183   0.000000
     84         16.479083   0.000000
     85         16.709628   0.000000
     86         17.010894   0.000000
     87         17.273679   0.000000
     88         17.522803   0.000000
     89         17.959017   0.000000
     90         18.286596   0.000000
     91         18.414710   0.000000
     92         18.736227   0.000000
     93         19.076740   0.000000
     94         19.511065   0.000000
     95         19.802927   0.000000
     96         20.480822   0.000000
 
  0.1108143E-16  0.1818182E+00  0.0000000E+00  0.1652893E-01
      1        -22.668598   1.000000
      2        -19.530655   1.000000
      3        -18.553184   1.000000
      4        -17.467940   1.000000
      5        -17.465241   1.000000
      6        -15.886488   1.000000
      7        -15.507355   1.000000
      8        -14.970165   1.000000
      9        -14.966940   1.000000
     10        -13.917071   1.000000
     11        -11.725743   1.000000
     12        -11.115481   1.000000
     13        -10.519100   1.000000
     14         -9.457974   1.000000
     15         -8.829948   1.000000
     16         -8.828760   1.000000
     17         -7.979284   1.000000
     18         -7.899598   1.000000
     19         -7.602683   1.000000
     20         -5.204162   1.000000
     21         -4.804212   1.000000
     22         -4.630895   1.000000
     23         -4.573520   1.000000
     24         -4.215896   1.000000
     25         -3.558191   1.000000
     26         -3.533296   1.000000
     27         -2.328297   1.000000
     28         -1.741883   1.000000
     29          1.271507   0.000000
     30          1.923374   0.000000
     31          2.129765   0.000000
     32          2.557639   0.000000
     33          3.191250   0.000000
     34          3.349441   0.000000
     35          3.950313   0.000000
     36          4.280151   0.000000
     37          4.512657   0.000000
     38          4.915586   0.000000
     39          5.112031   0.000000
     40          7.331273   0.000000
     41          7.898986   0.000000
     42          8.008509   0.000000
     43          8.412507   0.000000
     44          8.610451   0.000000
     45          9.155605   0.000000
     46          9.264359   0.000000
     47          9.285477   0.000000
     48          9.298943   0.000000
     49          9.337088   0.000000
     50          9.745038   0.000000
     51          9.818815   0.000000
     52         10.036663   0.000000
     53         10.169902   0.000000
     54         10.191189   0.000000
     55         10.235407   0.000000
     56         10.345090   0.000000
     57         10.622912   0.000000
     58         10.805538   0.000000
     59         10.995513   0.000000
     60         11.642087   0.000000
     61         11.801272   0.000000
     62         12.060443   0.000000
     63         12.556830   0.000000
     64         12.599087   0.000000
     65         13.212817   0.000000
     66         13.228651   0.000000
     67         13.311657   0.000000
     68         13.376528   0.000000
     69         13.515185   0.000000
     70         13.886215   0.000000
     71         14.150801   0.000000
     72         14.248973   0.000000
     73         14.295290   0.000000
     74         14.543871   0.000000
     75         14.694079   0.000000
     76         14.758162   0.000000
     77         14.973188   0.000000
     78         15.038792   0.000000
     79         15.227539   0.000000
     80         15.295865   0.000000
     81         15.566312   0.000000
     82         15.831077   0.000000
     83         16.193824   0.000000
     84         16.482459   0.000000
     85         16.701453   0.000000
     86         17.007360   0.000000
     87         17.268319   0.000000
     88         17.481179   0.000000
     89         17.934775   0.000000
     90         18.123056   0.000000
     91         18.569216   0.000000
     92         18.902917   0.000000
     93         19.013083   0.000000
     94         19.547754   0.000000
     95         19.896621   0.000000
     96         20.324836   0.000000
 
 -0.1818182E+00  0.1818182E+00  0.0000000E+00  0.1652893E-01
      1        -22.668598   1.000000
      2        -19.530656   1.000000
      3        -18.553184   1.000000
      4        -17.467943   1.000000
      5        -17.465240   1.000000
      6        -15.886438   1.000000
      7        -15.507409   1.000000
      8        -14.970183   1.000000
      9        -14.966923   1.000000
     10        -13.917077   1.000000
     11        -11.725704   1.000000
     12        -11.115452   1.000000
     13        -10.519164   1.000000
     14         -9.457974   1.000000
     15         -8.829967   1.000000
     16         -8.828750   1.000000
     17         -7.979274   1.000000
     18         -7.899592   1.000000
     19         -7.602682   1.000000
     20         -5.204179   1.000000
     21         -4.804194   1.000000
     22         -4.630914   1.000000
     23         -4.573506   1.000000
     24         -4.215887   1.000000
     25         -3.558227   1.000000
     26         -3.533253   1.000000
     27         -2.328569   1.000000
     28         -1.741490   1.000000
     29          1.271066   0.000000
     30          1.923901   0.000000
     31          2.128238   0.000000
     32          2.559265   0.000000
     33          3.191336   0.000000
     34          3.349305   0.000000
     35          3.950173   0.000000
     36          4.280035   0.000000
     37          4.512821   0.000000
     38          4.915418   0.000000
     39          5.112036   0.000000
     40          7.331286   0.000000
     41          7.898812   0.000000
     42          8.008493   0.000000
     43          8.412575   0.000000
     44          8.610465   0.000000
     45          9.155740   0.000000
     46          9.264665   0.000000
     47          9.285350   0.000000
     48          9.298679   0.000000
     49          9.337115   0.000000
     50          9.745196   0.000000
     51          9.818717   0.000000
     52         10.036555   0.000000
     53         10.169519   0.000000
     54         10.191260   0.000000
     55         10.235516   0.000000
     56         10.345189   0.000000
     57         10.622873   0.000000
     58         10.805687   0.000000
     59         10.995598   0.000000
     60         11.642107   0.000000
     61         11.801333   0.000000
     62         12.060386   0.000000
     63         12.556752   0.000000
     64         12.599064   0.000000
     65         13.212750   0.000000
     66         13.229182   0.000000
     67         13.308946   0.000000
     68         13.380140   0.000000
     69         13.515688   0.000000
     70         13.882956   0.000000
     71         14.155939   0.000000
     72         14.248966   0.000000
     73         14.294801   0.000000
     74         14.536856   0.000000
     75         14.696270   0.000000
     76         14.760924   0.000000
     77         14.968082   0.000000
     78         15.038734   0.000000
     79         15.226484   0.000000
     80         15.302810   0.000000
     81         15.560080   0.000000
     82         15.832448   0.000000
     83         16.201963   0.000000
     84         16.477660   0.000000
     85         16.701388   0.000000
     86         17.007907   0.000000
     87         17.270587   0.000000
     88         17.474634   0.000000
     89         17.959047   0.000000
     90         18.186168   0.000000
     91         18.412680   0.000000
     92         18.780819   0.000000
     93         18.931355   0.000000
     94         19.597181   0.000000
     95         19.892767   0.000000
     96         20.680370   0.000000
 
  0.2727273E+00  0.3069678E-17  0.0000000E+00  0.1652893E-01
      1        -22.394827   1.000000
      2        -19.439285   1.000000
      3        -19.356537   1.000000
      4        -17.749517   1.000000
      5        -17.746685   1.000000
      6        -16.336179   1.000000
      7        -15.616947   1.000000
      8        -14.253972   1.000000
      9        -14.250855   1.000000
     10        -12.634535   1.000000
     11        -11.929305   1.000000
     12        -10.622907   1.000000
     13        -10.060113   1.000000
     14         -9.504951   1.000000
     15         -9.503362   1.000000
     16         -9.118443   1.000000
     17         -7.709719   1.000000
     18         -7.306889   1.000000
     19         -7.133431   1.000000
     20         -6.147589   1.000000
     21         -5.554272   1.000000
     22         -5.504949   1.000000
     23         -5.277907   1.000000
     24         -4.747456   1.000000
     25         -3.693298   1.000000
     26         -3.655542   1.000000
     27         -3.222485   1.000000
     28         -2.051346   1.000000
     29          1.182855   0.000000
     30          2.409245   0.000000
     31          2.498903   0.000000
     32          3.330956   0.000000
     33          3.689003   0.000000
     34          4.375818   0.000000
     35          4.535802   0.000000
     36          4.920089   0.000000
     37          5.289459   0.000000
     38          5.384858   0.000000
     39          5.765566   0.000000
     40          6.853399   0.000000
     41          7.415976   0.000000
     42          7.591072   0.000000
     43          8.138491   0.000000
     44          8.299484   0.000000
     45          8.559563   0.000000
     46          8.691589   0.000000
     47          9.106775   0.000000
     48          9.140621   0.000000
     49          9.370081   0.000000
     50          9.623216   0.000000
     51          9.811960   0.000000
     52          9.931478   0.000000
     53         10.124091   0.000000
     54         10.347909   0.000000
     55         10.368292   0.000000
     56         10.418567   0.000000
     57         10.733938   0.000000
     58         10.860898   0.000000
     59         11.221252   0.000000
     60         11.247377   0.000000
     61         11.381200   0.000000
     62         11.666469   0.000000
     63         11.893131   0.000000
     64         12.282825   0.000000
     65         12.318225   0.000000
     66         12.904322   0.000000
     67         13.323828   0.000000
     68         14.033968   0.000000
     69         14.112912   0.000000
     70         14.219596   0.000000
     71         14.370187   0.000000
     72         14.486280   0.000000
     73         14.589075   0.000000
     74         14.810830   0.000000
     75         15.130134   0.000000
     76         15.305404   0.000000
     77         15.497593   0.000000
     78         15.587089   0.000000
     79         15.650531   0.000000
     80         15.847471   0.000000
     81         16.210978   0.000000
     82         16.275124   0.000000
     83         16.449599   0.000000
     84         16.915494   0.000000
     85         17.159523   0.000000
     86         17.359616   0.000000
     87         17.819998   0.000000
     88         17.979480   0.000000
     89         18.182271   0.000000
     90         18.363080   0.000000
     91         18.629775   0.000000
     92         18.870670   0.000000
     93         19.258644   0.000000
     94         19.462004   0.000000
     95         19.589213   0.000000
     96         20.159363   0.000000
 
  0.3069678E-17  0.2727273E+00  0.0000000E+00  0.1652893E-01
      1        -22.394827   1.000000
      2        -19.439279   1.000000
      3        -19.356544   1.000000
      4        -17.749521   1.000000
      5        -17.746685   1.000000
      6        -16.336159   1.000000
      7        -15.616978   1.000000
      8        -14.253935   1.000000
      9        -14.250841   1.000000
     10        -12.634570   1.000000
     11        -11.929302   1.000000
     12        -10.622871   1.000000
     13        -10.060140   1.000000
     14         -9.504971   1.000000
     15         -9.503391   1.000000
     16         -9.118439   1.000000
     17         -7.709671   1.000000
     18         -7.306884   1.000000
     19         -7.133431   1.000000
     20         -6.147663   1.000000
     21         -5.554306   1.000000
     22         -5.504966   1.000000