       N       E                     dE             d eps       ncg     rms          ort
SDA:   1    -0.143424992829E+03   -0.14342E+03   -0.22057E-06  5856   0.551E-06 0.000E+00
DMP:   2    -0.143424993012E+03   -0.18253E-06   -0.15594E-06  5856   0.253E-06 0.360E-06
   1 F= -.14342499E+03 E0= -.14342499E+03  d E =-.159230E-14
       N       E                     dE             ncg
DAV:   1    -0.125389049927E+05   -0.75632E+05    17568
DAV:   2    -0.347680918897E+05   -0.22229E+05    23424
DAV:   3    -0.358209686472E+05   -0.10529E+04    23424
DAV:   4    -0.358578358912E+05   -0.36867E+02    23424
DAV:   5    -0.358595307914E+05   -0.16949E+01    23424
DAV:   6    -0.358596245412E+05   -0.93750E-01    23424
DAV:   7    -0.358596302801E+05   -0.57389E-02    23424
DAV:   8    -0.358596306624E+05   -0.38231E-03    23424
DAV:   9    -0.358596306895E+05   -0.27067E-04    23424
DAV:  10    -0.358596306915E+05   -0.20235E-05    23424
DAV:  11    -0.358596306917E+05   -0.15791E-06    23424
       N       E                     dE             ncg
DAV:   1     0.281945280494E+05   -0.31698E+05    10080
DAV:   2     0.157748228610E+05   -0.12420E+05    13440
DAV:   3     0.151326478947E+05   -0.64217E+03    13440
DAV:   4     0.151092033663E+05   -0.23445E+02    13440
DAV:   5     0.151080927667E+05   -0.11106E+01    13440
DAV:   6     0.151080298142E+05   -0.62952E-01    13440
DAV:   7     0.151080259157E+05   -0.38985E-02    13440
DAV:   8     0.151080256564E+05   -0.25933E-03    13440
DAV:   9     0.151080256383E+05   -0.18050E-04    13440
DAV:  10     0.151080256370E+05   -0.13102E-05    13440
DAV:  11     0.151080256369E+05   -0.98185E-07    13440
