 vasp.6.4.2 20Jul23 (build Aug 23 2023 19:13:21) complex                        
  
 executed on             LinuxIFC date 2024.02.07  22:19:58
 running   96 mpi-ranks, with    1 threads/rank, on    2 nodes
 distrk:  each k-point on   96 cores,    1 groups
 distr:  one band on NCORE=   1 cores,   96 groups


--------------------------------------------------------------------------------------------------------


 INCAR:
   SYSTEM = BS_HSE06
   ISTART = 1
   ICHARG = 2
   PREC = Accurate
   LORBIT = 11
   ENCUT = 450
   ALGO = Damped
   TIME = 0.4
   NELM = 200
   EDIFF = 1E-6
   EDIFFG = -1E-3
   SIGMA = 0.1
   ISMEAR = 0
   IBRION = -1
   GGA = PE
   LHFCALC = .TRUE.
   AEXX = 0.25
   HFSCREEN = 0.2
   NKRED = 1

 POTCAR:    PAW_PBE B 06Sep2000                   
 POTCAR:    PAW_PBE C 08Apr2002                   
 POTCAR:    PAW_PBE B 06Sep2000                   
   SHA256 =  a32ced30f5ae56fd4d10b4325ff17eb3e4e38ee0f4288bc219fb012fddfa6e97 B/POTCAR              
   COPYR  = (c) Copyright 06Sep2000 Georg Kresse                                                    
   COPYR  = This file is part of the software VASP. Any use, copying, and all other rights are regul
   COPYR  = If you do not have a valid VASP license, you may not use, copy or distribute this file. 
   VRHFIN =B: s2p1                                                                                  
   LEXCH  = PE                                                                                      
   EATOM  =    71.1703 eV,    5.2309 Ry                                                             
                                                                                                    
   TITEL  = PAW_PBE B 06Sep2000                                                                     
   LULTRA =        F    use ultrasoft PP ?                                                          
   IUNSCR =        1    unscreen: 0-lin 1-nonlin 2-no                                               
   RPACOR =    1.200    partial core radius                                                         
   POMASS =   10.811; ZVAL   =    3.000    mass and valenz                                          
   RCORE  =    1.700    outmost cutoff radius                                                       
   RWIGS  =    1.710; RWIGS  =    0.905    wigner-seitz radius (au A)                               
   ENMAX  =  318.614; ENMIN  =  238.960 eV                                                          
   ICORE  =        2    local potential                                                             
   LCOR   =        T    correct aug charges                                                         
   LPAW   =        T    paw PP                                                                      
   EAUG   =  535.514                                                                                
   DEXC   =    0.000                                                                                
   RMAX   =    1.732    core radius for proj-oper                                                   
   RAUG   =    1.300    factor for augmentation sphere                                              
   RDEP   =    1.757    radius for radial grids                                                     
   RDEPT  =    1.436    core radius for aug-charge                                                  
                                                                                                    
   Atomic configuration                                                                             
    4 entries                                                                                       
     n  l   j            E        occ.                                                              
     1  0  0.50      -180.5896   2.0000                                                             
     2  0  0.50        -9.4431   2.0000                                                             
     2  1  0.50        -3.6068   1.0000                                                             
     3  2  1.50        -4.0817   0.0000                                                             
   Description                                                                                      
     l       E           TYP  RCUT    TYP  RCUT                                                     
     0     -9.4430752     23  1.500                                                                 
     0      0.8675899     23  1.500                                                                 
     1     -3.6067955     23  1.700                                                                 
     1      6.1086146     23  1.700                                                                 
     2     -4.0817478      7  1.700                                                                 
  local pseudopotential read in
  partial core-charges read in
  partial kinetic energy density read in
  atomic valenz-charges read in
  non local Contribution for L=           0  read in
    real space projection operators read in
  non local Contribution for L=           0  read in
    real space projection operators read in
  non local Contribution for L=           1  read in
    real space projection operators read in
  non local Contribution for L=           1  read in
    real space projection operators read in
    PAW grid and wavefunctions read in
 
   number of l-projection  operators is LMAX  =           4
   number of lm-projection operators is LMMAX =           8
 
 POTCAR:    PAW_PBE C 08Apr2002                   
   SHA256 =  253f7b50bb8d59471dbedb8285d89021f4a42ed1a2c5d38a03a736e69125dd95 C/POTCAR              
   COPYR  = (c) Copyright 08Apr2002 Georg Kresse                                                    
   COPYR  = This file is part of the software VASP. Any use, copying, and all other rights are regul
   COPYR  = If you do not have a valid VASP license, you may not use, copy or distribute this file. 
   VRHFIN =C: s2p2                                                                                  
   LEXCH  = PE                                                                                      
   EATOM  =   147.1560 eV,   10.8157 Ry                                                             
                                                                                                    
   TITEL  = PAW_PBE C 08Apr2002                                                                     
   LULTRA =        F    use ultrasoft PP ?                                                          
   IUNSCR =        1    unscreen: 0-lin 1-nonlin 2-no                                               
   RPACOR =    1.200    partial core radius                                                         
   POMASS =   12.011; ZVAL   =    4.000    mass and valenz                                          
   RCORE  =    1.500    outmost cutoff radius                                                       
   RWIGS  =    1.630; RWIGS  =    0.863    wigner-seitz radius (au A)                               
   ENMAX  =  400.000; ENMIN  =  300.000 eV                                                          
   ICORE  =        2    local potential                                                             
   LCOR   =        T    correct aug charges                                                         
   LPAW   =        T    paw PP                                                                      
   EAUG   =  644.873                                                                                
   DEXC   =    0.000                                                                                
   RMAX   =    1.529    core radius for proj-oper                                                   
   RAUG   =    1.300    factor for augmentation sphere                                              
   RDEP   =    1.501    radius for radial grids                                                     
   RDEPT  =    1.300    core radius for aug-charge                                                  
                                                                                                    
   Atomic configuration                                                                             
    4 entries                                                                                       
     n  l   j            E        occ.                                                              
     1  0  0.50      -273.3789   2.0000                                                             
     2  0  0.50       -13.7508   2.0000                                                             
     2  1  0.50        -5.2854   2.0000                                                             
     3  2  1.50        -5.4423   0.0000                                                             
   Description                                                                                      
     l       E           TYP  RCUT    TYP  RCUT                                                     
     0    -13.7508458     23  1.200                                                                 
     0     -8.2022199     23  1.200                                                                 
     1     -5.2854383     23  1.500                                                                 
     1     34.0145650     23  1.500                                                                 
     2     -5.4423304      7  1.500                                                                 
  local pseudopotential read in
  partial core-charges read in
  partial kinetic energy density read in
  atomic valenz-charges read in
  non local Contribution for L=           0  read in
    real space projection operators read in
  non local Contribution for L=           0  read in
    real space projection operators read in
  non local Contribution for L=           1  read in
    real space projection operators read in
  non local Contribution for L=           1  read in
    real space projection operators read in
    PAW grid and wavefunctions read in
 
   number of l-projection  operators is LMAX  =           4
   number of lm-projection operators is LMMAX =           8
 
  PAW_PBE B 06Sep2000                   :
 energy of atom  1       EATOM=  -71.1703
 kinetic energy error for atom=    0.0015 (will be added to EATOM!!)
  PAW_PBE C 08Apr2002                   :
 energy of atom  2       EATOM= -147.1560
 kinetic energy error for atom=    0.0116 (will be added to EATOM!!)
 
 
 POSCAR: Graphene-B4C3 Top with lattice parameter
  positions in direct lattice
  velocities in cartesian coordinates
 exchange correlation table for  LEXCH =        8
   RHO(1)=    0.500       N(1)  =     2000
   RHO(2)=  100.500       N(2)  =     4000

 VTST: version 4.1, (05/19/21)

 CHAIN: initializing optimizer
 
 OPT: Using VASP Dynamics algorithm
 CHAIN: Read ICHAIN            0
 
 POSCAR: Graphene-B4C3 Top with lattice parameter
  positions in direct lattice
  velocities in cartesian coordinates
 


--------------------------------------------------------------------------------------------------------


 ion  position               nearest neighbor table
   1  0.004  0.003  0.102-   5 1.57   6 1.57   7 1.57   3 1.72   2 1.72   4 1.72
   2  0.359  0.003  0.101-   6 1.56   5 1.65   7 1.65   1 1.72
   3  0.004  0.358  0.101-   7 1.56   6 1.65   5 1.65   1 1.72
   4  0.649  0.648  0.101-   5 1.56   7 1.65   6 1.65   1 1.72
   5  0.328  0.326  0.101-   4 1.56   1 1.57   2 1.65   3 1.65
   6  0.681  0.003  0.101-   2 1.56   1 1.57   3 1.65   4 1.65
   7  0.004  0.679  0.101-   3 1.56   1 1.57   4 1.65   2 1.65
   8  0.000  0.500  0.335-   9 1.40  11 1.40  13 1.40
   9  0.167  0.333  0.335-   8 1.40  12 1.40  10 1.40
  10  0.000  0.000  0.335-  11 1.40   9 1.40  15 1.40
  11  0.167  0.833  0.335-  14 1.40   8 1.40  10 1.40
  12  0.500  0.500  0.335-  15 1.40   9 1.40  13 1.40
  13  0.667  0.333  0.335-  12 1.40   8 1.40  14 1.40
  14  0.500  0.000  0.335-  11 1.40  15 1.40  13 1.40
  15  0.667  0.833  0.335-  12 1.40  14 1.40  10 1.40
 
  LATTYP: Found a hexagonal cell.
 ALAT       =     4.8460000000
 C/A-ratio  =     3.0953363599
  
  Lattice vectors:
  
 A1 = (   4.1967591067,   2.4230000000,   0.0000000000)
 A2 = (  -4.1967591067,   2.4230000000,   0.0000000000)
 A3 = (   0.0000000000,   0.0000000000,  15.0000000000)


Analysis of symmetry for initial positions (statically):
=====================================================================
 Subroutine PRICEL returns:
 Original cell was already a primitive cell.
 

 Routine SETGRP: Setting up the symmetry group for a 
 hexagonal supercell.


 Subroutine GETGRP returns: Found  1 space group operations
 (whereof  1 operations were pure point group operations)
 out of a pool of 24 trial point group operations.


The static configuration has the point symmetry C_1 .


Analysis of symmetry for dynamics (positions and initial velocities):
=====================================================================
 Subroutine PRICEL returns:
 Original cell was already a primitive cell.
 

 Routine SETGRP: Setting up the symmetry group for a 
 hexagonal supercell.


 Subroutine GETGRP returns: Found  1 space group operations
 (whereof  1 operations were pure point group operations)
 out of a pool of 24 trial point group operations.


The dynamic configuration has the point symmetry C_1 .


 Subroutine INISYM returns: Found  1 space group operations
 (whereof  1 operations are pure point group operations),
 and found     1 'primitive' translations


----------------------------------------------------------------------------------------

                                     Primitive cell                                     

  volume of cell :     305.0624

  direct lattice vectors                    reciprocal lattice vectors
     4.196759107  2.423000000  0.000000000     0.119139552  0.206355757  0.000000000
    -4.196759107  2.423000000  0.000000000    -0.119139552  0.206355757  0.000000000
     0.000000000  0.000000000 15.000000000     0.000000000  0.000000000  0.066666667

  length of vectors
     4.846000000  4.846000000 15.000000000     0.238279104  0.238279104  0.066666667

  position of ions in fractional coordinates (direct lattice)
     0.004056526  0.002697343  0.101501060
     0.359245494  0.002978704  0.100711409
     0.003767832  0.357599513  0.100712169
     0.649148177  0.647506274  0.100708602
     0.327784757  0.326144145  0.100730862
     0.680601878  0.002974890  0.100730542
     0.003770558  0.678959212  0.100727858
     0.000132595  0.500063036  0.335115331
     0.166783864  0.333452843  0.335150012
     0.000115386  0.000071038  0.335075930
     0.166825953  0.833402697  0.335153906
     0.500125878  0.500099855  0.335118110
     0.666781160  0.333405941  0.335013099
     0.500087443  0.000053650  0.335113676
     0.666733165  0.833358192  0.335150101

  ion indices of the primitive-cell ions
   primitive index   ion index
                 1           1
                 2           2
                 3           3
                 4           4
                 5           5
                 6           6
                 7           7
                 8           8
                 9           9
                10          10
                11          11
                12          12
                13          13
                14          14
                15          15

----------------------------------------------------------------------------------------

 
 
 KPOINTS: k-points                                

Automatic generation of k-mesh.
 Grid dimensions read from file:
 generate k-points for:   11   11    1

 Generating k-lattice:

  Cartesian coordinates                     Fractional coordinates (reciprocal lattice)
     0.010830868  0.018759614  0.000000000     0.090909091 -0.000000000  0.000000000
    -0.010830868  0.018759614  0.000000000    -0.000000000  0.090909091  0.000000000
     0.000000000  0.000000000  0.066666667     0.000000000  0.000000000  1.000000000

  Length of vectors
     0.021661737  0.021661737  0.066666667

  Shift w.r.t. Gamma in fractional coordinates (k-lattice)
     0.000000000  0.000000000  0.000000000

 
 Subroutine IBZKPT returns following result:
 ===========================================
 
 Found     61 irreducible k-points:
 
 Following reciprocal coordinates:
            Coordinates               Weight
  0.000000  0.000000  0.000000      1.000000
  0.090909  0.000000  0.000000      2.000000
  0.000000  0.090909  0.000000      2.000000
 -0.090909  0.090909  0.000000      2.000000
  0.181818  0.000000  0.000000      2.000000
  0.000000  0.181818  0.000000      2.000000
 -0.181818  0.181818  0.000000      2.000000
  0.272727  0.000000  0.000000      2.000000
  0.000000  0.272727  0.000000      2.000000
 -0.272727  0.272727  0.000000      2.000000
  0.363636  0.000000  0.000000      2.000000
  0.000000  0.363636  0.000000      2.000000
 -0.363636  0.363636  0.000000      2.000000
  0.454545  0.000000  0.000000      2.000000
  0.000000  0.454545  0.000000      2.000000
 -0.454545  0.454545  0.000000      2.000000
  0.090909  0.090909  0.000000      2.000000
 -0.090909  0.181818  0.000000      2.000000
 -0.181818  0.090909  0.000000      2.000000
  0.181818  0.090909  0.000000      2.000000
 -0.090909  0.272727  0.000000      2.000000
 -0.272727  0.181818  0.000000      2.000000
 -0.181818  0.272727  0.000000      2.000000
  0.090909  0.181818  0.000000      2.000000
  0.272727 -0.090909  0.000000      2.000000
  0.272727  0.090909  0.000000      2.000000
 -0.090909  0.363636  0.000000      2.000000
 -0.363636  0.272727  0.000000      2.000000
 -0.272727  0.363636  0.000000      2.000000
  0.090909  0.272727  0.000000      2.000000
  0.363636 -0.090909  0.000000      2.000000
  0.363636  0.090909  0.000000      2.000000
 -0.090909  0.454545  0.000000      2.000000
 -0.454545  0.363636  0.000000      2.000000
 -0.363636  0.454545  0.000000      2.000000
  0.090909  0.363636  0.000000      2.000000
  0.454545 -0.090909  0.000000      2.000000
  0.454545  0.090909  0.000000      2.000000
 -0.090909 -0.454545  0.000000      2.000000
  0.454545  0.454545  0.000000      2.000000
  0.181818  0.181818  0.000000      2.000000
 -0.181818  0.363636  0.000000      2.000000
 -0.363636  0.181818  0.000000      2.000000
  0.272727  0.181818  0.000000      2.000000
 -0.181818  0.454545  0.000000      2.000000
 -0.454545  0.272727  0.000000      2.000000
 -0.272727  0.454545  0.000000      2.000000
  0.181818  0.272727  0.000000      2.000000
  0.454545 -0.181818  0.000000      2.000000
  0.363636  0.181818  0.000000      2.000000
 -0.181818 -0.454545  0.000000      2.000000
  0.454545  0.363636  0.000000      2.000000
 -0.363636 -0.454545  0.000000      2.000000
  0.181818  0.363636  0.000000      2.000000
 -0.454545 -0.181818  0.000000      2.000000
  0.272727  0.272727  0.000000      2.000000
 -0.272727 -0.454545  0.000000      2.000000
  0.454545  0.272727  0.000000      2.000000
  0.363636  0.272727  0.000000      2.000000
 -0.272727 -0.363636  0.000000      2.000000
  0.363636  0.363636  0.000000      2.000000
 
 Following cartesian coordinates:
            Coordinates               Weight
  0.000000  0.000000  0.000000      1.000000
  0.010831  0.018760  0.000000      2.000000
 -0.010831  0.018760  0.000000      2.000000
 -0.021662 -0.000000  0.000000      2.000000
  0.021662  0.037519  0.000000      2.000000
 -0.021662  0.037519  0.000000      2.000000
 -0.043323  0.000000  0.000000      2.000000
  0.032493  0.056279  0.000000      2.000000
 -0.032493  0.056279  0.000000      2.000000
 -0.064985 -0.000000  0.000000      2.000000
  0.043323  0.075038  0.000000      2.000000
 -0.043323  0.075038  0.000000      2.000000
 -0.086647 -0.000000  0.000000      2.000000
  0.054154  0.093798  0.000000      2.000000
 -0.054154  0.093798  0.000000      2.000000
 -0.108309  0.000000  0.000000      2.000000
  0.000000  0.037519  0.000000      2.000000
 -0.032493  0.018760  0.000000      2.000000
 -0.032493 -0.018760  0.000000      2.000000
  0.010831  0.056279  0.000000      2.000000
 -0.043323  0.037519  0.000000      2.000000
 -0.054154 -0.018760  0.000000      2.000000
 -0.054154  0.018760  0.000000      2.000000
 -0.010831  0.056279  0.000000      2.000000
  0.043323  0.037519  0.000000      2.000000
  0.021662  0.075038  0.000000      2.000000
 -0.054154  0.056279  0.000000      2.000000
 -0.075816 -0.018760  0.000000      2.000000
 -0.075816  0.018760  0.000000      2.000000
 -0.021662  0.075038  0.000000      2.000000
  0.054154  0.056279  0.000000      2.000000
  0.032493  0.093798  0.000000      2.000000
 -0.064985  0.075038  0.000000      2.000000
 -0.097478 -0.018760  0.000000      2.000000
 -0.097478  0.018760  0.000000      2.000000
 -0.032493  0.093798  0.000000      2.000000
  0.064985  0.075038  0.000000      2.000000
  0.043323  0.112558  0.000000      2.000000
  0.043323 -0.112558  0.000000      2.000000
 -0.000000  0.187596  0.000000      2.000000
  0.000000  0.075038  0.000000      2.000000
 -0.064985  0.037519  0.000000      2.000000
 -0.064985 -0.037519  0.000000      2.000000
  0.010831  0.093798  0.000000      2.000000
 -0.075816  0.056279  0.000000      2.000000
 -0.086647 -0.037519  0.000000      2.000000
 -0.086647  0.037519  0.000000      2.000000
 -0.010831  0.093798  0.000000      2.000000
  0.075816  0.056279  0.000000      2.000000
  0.021662  0.112558  0.000000      2.000000
  0.032493 -0.131317  0.000000      2.000000
  0.010831  0.168837  0.000000      2.000000
  0.010831 -0.168837  0.000000      2.000000
 -0.021662  0.112558  0.000000      2.000000
 -0.032493 -0.131317  0.000000      2.000000
 -0.000000  0.112558  0.000000      2.000000
  0.021662 -0.150077  0.000000      2.000000
  0.021662  0.150077  0.000000      2.000000
  0.010831  0.131317  0.000000      2.000000
  0.010831 -0.131317  0.000000      2.000000
 -0.000000  0.150077  0.000000      2.000000
 
 
 Subroutine IBZKPT_HF returns following result:
 ==============================================
 
 Found    121 k-points in 1st BZ
 the following    121 k-points will be used (e.g. in the exchange kernel)
 Following reciprocal coordinates:   # in IRBZ
  0.000000  0.000000  0.000000    0.00826446   1 t-inv F
  0.090909  0.000000  0.000000    0.00826446   2 t-inv F
  0.000000  0.090909  0.000000    0.00826446   3 t-inv F
 -0.090909  0.090909  0.000000    0.00826446   4 t-inv F
  0.181818  0.000000  0.000000    0.00826446   5 t-inv F
  0.000000  0.181818  0.000000    0.00826446   6 t-inv F
 -0.181818  0.181818  0.000000    0.00826446   7 t-inv F
  0.272727  0.000000  0.000000    0.00826446   8 t-inv F
  0.000000  0.272727  0.000000    0.00826446   9 t-inv F
 -0.272727  0.272727  0.000000    0.00826446  10 t-inv F
  0.363636  0.000000  0.000000    0.00826446  11 t-inv F
  0.000000  0.363636  0.000000    0.00826446  12 t-inv F
 -0.363636  0.363636  0.000000    0.00826446  13 t-inv F
  0.454545  0.000000  0.000000    0.00826446  14 t-inv F
  0.000000  0.454545  0.000000    0.00826446  15 t-inv F
 -0.454545  0.454545  0.000000    0.00826446  16 t-inv F
  0.090909  0.090909  0.000000    0.00826446  17 t-inv F
 -0.090909  0.181818  0.000000    0.00826446  18 t-inv F
 -0.181818  0.090909  0.000000    0.00826446  19 t-inv F
  0.181818  0.090909  0.000000    0.00826446  20 t-inv F
 -0.090909  0.272727  0.000000    0.00826446  21 t-inv F
 -0.272727  0.181818  0.000000    0.00826446  22 t-inv F
 -0.181818  0.272727  0.000000    0.00826446  23 t-inv F
  0.090909  0.181818  0.000000    0.00826446  24 t-inv F
  0.272727 -0.090909  0.000000    0.00826446  25 t-inv F
  0.272727  0.090909  0.000000    0.00826446  26 t-inv F
 -0.090909  0.363636  0.000000    0.00826446  27 t-inv F
 -0.363636  0.272727  0.000000    0.00826446  28 t-inv F
 -0.272727  0.363636  0.000000    0.00826446  29 t-inv F
  0.090909  0.272727  0.000000    0.00826446  30 t-inv F
  0.363636 -0.090909  0.000000    0.00826446  31 t-inv F
  0.363636  0.090909  0.000000    0.00826446  32 t-inv F
 -0.090909  0.454545  0.000000    0.00826446  33 t-inv F
 -0.454545  0.363636  0.000000    0.00826446  34 t-inv F
 -0.363636  0.454545  0.000000    0.00826446  35 t-inv F
  0.090909  0.363636  0.000000    0.00826446  36 t-inv F
  0.454545 -0.090909  0.000000    0.00826446  37 t-inv F
  0.454545  0.090909  0.000000    0.00826446  38 t-inv F
 -0.090909 -0.454545  0.000000    0.00826446  39 t-inv F
  0.454545  0.454545  0.000000    0.00826446  40 t-inv F
  0.181818  0.181818  0.000000    0.00826446  41 t-inv F
 -0.181818  0.363636  0.000000    0.00826446  42 t-inv F
 -0.363636  0.181818  0.000000    0.00826446  43 t-inv F
  0.272727  0.181818  0.000000    0.00826446  44 t-inv F
 -0.181818  0.454545  0.000000    0.00826446  45 t-inv F
 -0.454545  0.272727  0.000000    0.00826446  46 t-inv F
 -0.272727  0.454545  0.000000    0.00826446  47 t-inv F
  0.181818  0.272727  0.000000    0.00826446  48 t-inv F
  0.454545 -0.181818  0.000000    0.00826446  49 t-inv F
  0.363636  0.181818  0.000000    0.00826446  50 t-inv F
 -0.181818 -0.454545  0.000000    0.00826446  51 t-inv F
  0.454545  0.363636  0.000000    0.00826446  52 t-inv F
 -0.363636 -0.454545  0.000000    0.00826446  53 t-inv F
  0.181818  0.363636  0.000000    0.00826446  54 t-inv F
 -0.454545 -0.181818  0.000000    0.00826446  55 t-inv F
  0.272727  0.272727  0.000000    0.00826446  56 t-inv F
 -0.272727 -0.454545  0.000000    0.00826446  57 t-inv F
  0.454545  0.272727  0.000000    0.00826446  58 t-inv F
  0.363636  0.272727  0.000000    0.00826446  59 t-inv F
 -0.272727 -0.363636  0.000000    0.00826446  60 t-inv F
  0.363636  0.363636  0.000000    0.00826446  61 t-inv F
 -0.090909 -0.000000  0.000000    0.00826446   2 t-inv T
 -0.000000 -0.090909  0.000000    0.00826446   3 t-inv T
  0.090909 -0.090909  0.000000    0.00826446   4 t-inv T
 -0.181818 -0.000000  0.000000    0.00826446   5 t-inv T
 -0.000000 -0.181818  0.000000    0.00826446   6 t-inv T
  0.181818 -0.181818  0.000000    0.00826446   7 t-inv T
 -0.272727 -0.000000  0.000000    0.00826446   8 t-inv T
 -0.000000 -0.272727  0.000000    0.00826446   9 t-inv T
  0.272727 -0.272727  0.000000    0.00826446  10 t-inv T
 -0.363636 -0.000000  0.000000    0.00826446  11 t-inv T
 -0.000000 -0.363636  0.000000    0.00826446  12 t-inv T
  0.363636 -0.363636  0.000000    0.00826446  13 t-inv T
 -0.454545 -0.000000  0.000000    0.00826446  14 t-inv T
 -0.000000 -0.454545  0.000000    0.00826446  15 t-inv T
  0.454545 -0.454545  0.000000    0.00826446  16 t-inv T
 -0.090909 -0.090909  0.000000    0.00826446  17 t-inv T
  0.090909 -0.181818  0.000000    0.00826446  18 t-inv T
  0.181818 -0.090909  0.000000    0.00826446  19 t-inv T
 -0.181818 -0.090909  0.000000    0.00826446  20 t-inv T
  0.090909 -0.272727  0.000000    0.00826446  21 t-inv T
  0.272727 -0.181818  0.000000    0.00826446  22 t-inv T
  0.181818 -0.272727  0.000000    0.00826446  23 t-inv T
 -0.090909 -0.181818  0.000000    0.00826446  24 t-inv T
 -0.272727  0.090909  0.000000    0.00826446  25 t-inv T
 -0.272727 -0.090909  0.000000    0.00826446  26 t-inv T
  0.090909 -0.363636  0.000000    0.00826446  27 t-inv T
  0.363636 -0.272727  0.000000    0.00826446  28 t-inv T
  0.272727 -0.363636  0.000000    0.00826446  29 t-inv T
 -0.090909 -0.272727  0.000000    0.00826446  30 t-inv T
 -0.363636  0.090909  0.000000    0.00826446  31 t-inv T
 -0.363636 -0.090909  0.000000    0.00826446  32 t-inv T
  0.090909 -0.454545  0.000000    0.00826446  33 t-inv T
  0.454545 -0.363636  0.000000    0.00826446  34 t-inv T
  0.363636 -0.454545  0.000000    0.00826446  35 t-inv T
 -0.090909 -0.363636  0.000000    0.00826446  36 t-inv T
 -0.454545  0.090909  0.000000    0.00826446  37 t-inv T
 -0.454545 -0.090909  0.000000    0.00826446  38 t-inv T
  0.090909  0.454545  0.000000    0.00826446  39 t-inv T
 -0.454545 -0.454545  0.000000    0.00826446  40 t-inv T
 -0.181818 -0.181818  0.000000    0.00826446  41 t-inv T
  0.181818 -0.363636  0.000000    0.00826446  42 t-inv T
  0.363636 -0.181818  0.000000    0.00826446  43 t-inv T
 -0.272727 -0.181818  0.000000    0.00826446  44 t-inv T
  0.181818 -0.454545  0.000000    0.00826446  45 t-inv T
  0.454545 -0.272727  0.000000    0.00826446  46 t-inv T
  0.272727 -0.454545  0.000000    0.00826446  47 t-inv T
 -0.181818 -0.272727  0.000000    0.00826446  48 t-inv T
 -0.454545  0.181818  0.000000    0.00826446  49 t-inv T
 -0.363636 -0.181818  0.000000    0.00826446  50 t-inv T
  0.181818  0.454545  0.000000    0.00826446  51 t-inv T
 -0.454545 -0.363636  0.000000    0.00826446  52 t-inv T
  0.363636  0.454545  0.000000    0.00826446  53 t-inv T
 -0.181818 -0.363636  0.000000    0.00826446  54 t-inv T
  0.454545  0.181818  0.000000    0.00826446  55 t-inv T
 -0.272727 -0.272727  0.000000    0.00826446  56 t-inv T
  0.272727  0.454545  0.000000    0.00826446  57 t-inv T
 -0.454545 -0.272727  0.000000    0.00826446  58 t-inv T
 -0.363636 -0.272727  0.000000    0.00826446  59 t-inv T
  0.272727  0.363636  0.000000    0.00826446  60 t-inv T
 -0.363636 -0.363636  0.000000    0.00826446  61 t-inv T


--------------------------------------------------------------------------------------------------------




 Dimension of arrays:
   k-points           NKPTS =     61   k-points in BZ     NKDIM =    121   number of bands    NBANDS=     96
   number of dos      NEDOS =    301   number of ions     NIONS =     15
   non local maximal  LDIM  =      4   non local SUM 2l+1 LMDIM =      8
   total plane-waves  NPLWV = 139968
   max r-space proj   IRMAX =      1   max aug-charges    IRDMAX=   7354
   dimension x,y,z NGX =    36 NGY =   36 NGZ =  108
   dimension x,y,z NGXF=    72 NGYF=   72 NGZF=  216
   support grid    NGXF=    72 NGYF=   72 NGZF=  216
   ions per type =               4  11
   NGX,Y,Z   is equivalent  to a cutoff of  12.35, 12.35, 11.97 a.u.
   NGXF,Y,Z  is equivalent  to a cutoff of  24.70, 24.70, 23.94 a.u.

 SYSTEM =  BS_HSE06                                
 POSCAR =  Graphene-B4C3 Top with lattice parameter

 Startparameter for this run:
   NWRITE =      2    write-flag & timer
   PREC   = accura    normal or accurate (medium, high low for compatibility)
   ISTART =      1    job   : 0-new  1-cont  2-samecut
   ICHARG =      2    charge: 1-file 2-atom 10-const
   ISPIN  =      1    spin polarized calculation?
   LNONCOLLINEAR =      F non collinear calculations
   LSORBIT =      F    spin-orbit coupling
   INIWAV =      1    electr: 0-lowe 1-rand  2-diag
   LASPH  =      F    aspherical Exc in radial PAW
 Electronic Relaxation 1
   ENCUT  =  450.0 eV  33.07 Ry    5.75 a.u.   8.38  8.38 25.95*2*pi/ulx,y,z
   ENINI  =  450.0     initial cutoff
   ENAUG  =  644.9 eV  augmentation charge cutoff
   NELM   =    200;   NELMIN=  2; NELMDL=  0     # of ELM steps 
   EDIFF  = 0.1E-05   stopping-criterion for ELM
   LREAL  =      F    real-space projection
   NLSPLINE    = F    spline interpolate recip. space projectors
   LCOMPAT=      F    compatible to vasp.4.4
   GGA_COMPAT  = T    GGA compatible to vasp.4.4-vasp.4.6
   LMAXPAW     = -100 max onsite density
   LMAXMIX     =    2 max onsite mixed and CHGCAR
   VOSKOWN=      0    Vosko Wilk Nusair interpolation
   ROPT   =    0.00000   0.00000
 Ionic relaxation
   EDIFFG = -.1E-02   stopping-criterion for IOM
   NSW    =      0    number of steps for IOM
   NBLOCK =      1;   KBLOCK =      1    inner block; outer block 
   IBRION =     -1    ionic relax: 0-MD 1-quasi-New 2-CG
   NFREE  =      0    steps in history (QN), initial steepest desc. (CG)
   ISIF   =      0    stress and relaxation
   IWAVPR =     10    prediction:  0-non 1-charg 2-wave 3-comb
   ISYM   =      3    0-nonsym 1-usesym 2-fastsym
   LCORR  =      T    Harris-Foulkes like correction to forces

   POTIM  = 0.5000    time-step for ionic-motion
   TEIN   =    0.0    initial temperature
   TEBEG  =    0.0;   TEEND  =   0.0 temperature during run
   SMASS  =  -3.00    Nose mass-parameter (am)
   estimated Nose-frequenzy (Omega)   =  0.10E-29 period in steps = 0.13E+47 mass=  -0.537E-27a.u.
   SCALEE = 1.0000    scale energy and forces
   NPACO  =    256;   APACO  = 10.0  distance and # of slots for P.C.
   PSTRESS=    0.0 pullay stress

  Mass of Ions in am
   POMASS =  10.81 12.01
  Ionic Valenz
   ZVAL   =   3.00  4.00
  Atomic Wigner-Seitz radii
   RWIGS  =  -1.00 -1.00
  virtual crystal weights 
   VCA    =   1.00  1.00
   NELECT =      56.0000    total number of electrons
   NUPDOWN=      -1.0000    fix difference up-down

 DOS related values:
   EMIN   =  10.00;   EMAX   =-10.00  energy-range for DOS
   EFERMI =   0.00;   METHOD = LEGACY      
   ISMEAR =     0;   SIGMA  =   0.10  broadening in eV -4-tet -1-fermi 0-gaus

 Electronic relaxation 2 (details)
   IALGO  =     53    algorithm
   LDIAG  =      T    sub-space diagonalisation (order eigenvalues)
   LSUBROT=      F    optimize rotation matrix (better conditioning)
   TURBO    =      0    0=normal 1=particle mesh
   IRESTART =      0    0=no restart 2=restart with 2 vectors
   NREBOOT  =      0    no. of reboots
   NMIN     =      0    reboot dimension
   EREF     =   0.00    reference energy to select bands
   IMIX   =      4    mixing-type and parameters
     AMIX     =   0.40;   BMIX     =  1.00
     AMIX_MAG =   1.60;   BMIX_MAG =  1.00
     AMIN     =   0.10
     WC   =   100.;   INIMIX=   1;  MIXPRE=   1;  MAXMIX= -45

 Intra band minimization:
   WEIMIN = 0.0000     energy-eigenvalue tresh-hold
   EBREAK =  0.26E-08  absolut break condition
   DEPER  =   0.30     relativ break condition  

   TIME   =   0.40     timestep for ELM

  volume/ion in A,a.u.               =      20.34       137.24
  Fermi-wavevector in a.u.,A,eV,Ry     =   0.930411  1.758221 11.778070  0.865664
  Thomas-Fermi vector in A             =   2.056796
 
 Write flags
   LWAVE        =      T    write WAVECAR
   LDOWNSAMPLE  =      F    k-point downsampling of WAVECAR
   LCHARG       =      T    write CHGCAR
   LVTOT        =      F    write LOCPOT, total local potential
   LVHAR        =      F    write LOCPOT, Hartree potential only
   LELF         =      F    write electronic localiz. function (ELF)
   LORBIT       =     11    0 simple, 1 ext, 2 COOP (PROOUT), +10 PAW based schemes


 Dipole corrections
   LMONO  =      F    monopole corrections only (constant potential shift)
   LDIPOL =      F    correct potential (dipole corrections)
   IDIPOL =      0    1-x, 2-y, 3-z, 4-all directions 
   EPSILON=  1.0000000 bulk dielectric constant

 Exchange correlation treatment:
   GGA     =    PE    GGA type
   LEXCH   =     8    internal setting for exchange type
   LIBXC   =     F    Libxc                    
   VOSKOWN =     0    Vosko Wilk Nusair interpolation
   EXXOEP  =     0    0=HF, 1=EXX-LHF (local Hartree Fock) 2=EXX OEP
   LHFCALC =     T    Hartree Fock is set to
   LSYMGRAD=     F    symmetrize gradient (conserves proper symmetry)
   PRECFOCK=normal    Normal, Fast or Accurate (Low or Medium for compatibility)
   LRHFCALC=     F    long range Hartree Fock
   LRSCOR  =     F    long range correlation only (use DFT for short range part)
   LTHOMAS =     F    Thomas Fermi screening in HF
   LMODELHF=     F    short range full HF, long range fraction AEXX
   FOCKCORR=     1    mode to apply convergence corrections
   LFOCKACE=     T    use Adeptively-Compressed-Exchange operator
   ENCUT4O =  -1.0   cutoff for four orbital integrals eV
   LMAXFOCK=     4    L truncation for augmentation on plane wave grid
   LMAXFOCKAE=  -1    L truncation for all-electron charge restoration on plane wave grid
   NMAXFOCKAE=   1    number of basis functions for all-electron charge restoration
   LFOCKAEDFT=     F  apply the AE augmentation even for DFT
   NKREDX  =     1    reduce k-point grid by
   NKREDY  =     1    reduce k-point grid by
   NKREDZ  =     1    reduce k-point grid by
   SHIFTRED=     F    shift reduced grid of Gamma
   HFKIDENT=     F    idential grid for each k-point
   ODDONLY =     F    use only odd q-grid points
   EVENONLY=     F    use only even q-grid points
   HFALPHA =   -1.0000 decay constant for conv. correction
   MCALPHA =    0.0000 extent of test-charge in conv. correction in multipole expansion
   AEXX    =    0.2500 exact exchange contribution
   HFSCREEN=    0.2000 screening length (either q_TF or 0.3 A-1)
   HFSCREENC=   0.2000 screening length for correlation (either q_TF or 0.3 A-1)
   HFRCUT  =    0.0000 spherical cutoff for potential kernel
   ALDAX   =    0.7500 LDA exchange part
   AGGAX   =    0.7500 GGA exchange part
   ALDAC   =    1.0000 LDA correlation
   AGGAC   =    1.0000 GGA correlation
   ENCUTFOCK=  -1.0 apply spherical cutoff to Coloumb kernel
   NBANDSGWLOW=     1    first orbital included in HF term
   NBLOCK_FOCK=    64    blocking factor in FOCK_ACC

 Linear response parameters
   LEPSILON=     F    determine dielectric tensor
   LRPA    =     F    only Hartree local field effects (RPA)
   LNABLA  =     F    use nabla operator in PAW spheres
   LVEL    =     F    velocity operator in full k-point grid
   CSHIFT  =0.1000    complex shift for real part using Kramers Kronig
   OMEGAMAX=  -1.0    maximum frequency
   DEG_THRESHOLD= 0.2000000E-02 threshold for treating states as degnerate
   RTIME   =   -0.100 relaxation time in fs
  (WPLASMAI=    0.000 imaginary part of plasma frequency in eV, 0.658/RTIME)
   DFIELD  = 0.0000000 0.0000000 0.0000000 field for delta impulse in time
 
  Optional k-point grid parameters
   LKPOINTS_OPT  =     T    use optional k-point grid
   KPOINTS_OPT_MODE=     1    mode for optional k-point grid
 
 Orbital magnetization related:
   ORBITALMAG=     F  switch on orbital magnetization
   LCHIMAG   =     F  perturbation theory with respect to B field
   DQ        =  0.001000  dq finite difference perturbation B field
   LLRAUG    =     F  two centre corrections for induced B field
   LBONE     =     F  B-component reconstruction in AE one-centre
   LVGVCALC  =     T  calculate vGv susceptibility
   LVGVAPPL  =     F  apply vGv susceptibility instead of pGv for G=0

 Random number generation:
   RANDOM_GENERATOR = DEFAULT
   PCG_SEED         = not used


--------------------------------------------------------------------------------------------------------


 Static calculation
 charge density and potential will be updated during run
 non-spin polarized calculation
 Conjugate gradient for all bands (Freysoldt, et al. PRB 79, 241103 (2009))
 perform sub-space diagonalisation
    before iterative eigenvector-optimisation
 modified Broyden-mixing scheme, WC =      100.0
 initial mixing is a Kerker type mixing with AMIX =  0.4000 and BMIX =      1.0000
 Hartree-type preconditioning will be used
 using additional bands           68
 reciprocal scheme for non local part
 use partial core corrections
 no Harris-corrections to forces 
 use gradient corrections 
 use of overlap-Matrix (Vanderbilt PP)
 Gauss-broadening in eV      SIGMA  =   0.10


--------------------------------------------------------------------------------------------------------


  energy-cutoff  :      450.00
  volume of cell :      305.06
      direct lattice vectors                 reciprocal lattice vectors
     4.196759107  2.423000000  0.000000000     0.119139552  0.206355757  0.000000000
    -4.196759107  2.423000000  0.000000000    -0.119139552  0.206355757  0.000000000
     0.000000000  0.000000000 15.000000000     0.000000000  0.000000000  0.066666667

  length of vectors
     4.846000000  4.846000000 15.000000000     0.238279104  0.238279104  0.066666667


 
 old parameters found on file WAVECAR:
  energy-cutoff  :      450.00
  volume of cell :      305.06
      direct lattice vectors                 reciprocal lattice vectors
     4.196759107  2.423000000  0.000000000     0.119139552  0.206355757  0.000000000
    -4.196759107  2.423000000  0.000000000    -0.119139552  0.206355757  0.000000000
     0.000000000  0.000000000 15.000000000     0.000000000  0.000000000  0.066666667

  length of vectors

 
 k-points in units of 2pi/SCALE and weight: k-points                                
   0.00000000  0.00000000  0.00000000       0.008
   0.01083087  0.01875961  0.00000000       0.017
  -0.01083087  0.01875961  0.00000000       0.017
  -0.02166174 -0.00000000  0.00000000       0.017
   0.02166174  0.03751923  0.00000000       0.017
  -0.02166174  0.03751923  0.00000000       0.017
  -0.04332347  0.00000000  0.00000000       0.017
   0.03249261  0.05627884  0.00000000       0.017
  -0.03249261  0.05627884  0.00000000       0.017
  -0.06498521 -0.00000000  0.00000000       0.017
   0.04332347  0.07503846  0.00000000       0.017
  -0.04332347  0.07503846  0.00000000       0.017
  -0.08664695 -0.00000000  0.00000000       0.017
   0.05415434  0.09379807  0.00000000       0.017
  -0.05415434  0.09379807  0.00000000       0.017
  -0.10830868  0.00000000  0.00000000       0.017
   0.00000000  0.03751923  0.00000000       0.017
  -0.03249261  0.01875961  0.00000000       0.017
  -0.03249261 -0.01875961  0.00000000       0.017
   0.01083087  0.05627884  0.00000000       0.017
  -0.04332347  0.03751923  0.00000000       0.017
  -0.05415434 -0.01875961  0.00000000       0.017
  -0.05415434  0.01875961  0.00000000       0.017
  -0.01083087  0.05627884  0.00000000       0.017
   0.04332347  0.03751923  0.00000000       0.017
   0.02166174  0.07503846  0.00000000       0.017
  -0.05415434  0.05627884  0.00000000       0.017
  -0.07581608 -0.01875961  0.00000000       0.017
  -0.07581608  0.01875961  0.00000000       0.017
  -0.02166174  0.07503846  0.00000000       0.017
   0.05415434  0.05627884  0.00000000       0.017
   0.03249261  0.09379807  0.00000000       0.017
  -0.06498521  0.07503846  0.00000000       0.017
  -0.09747782 -0.01875961  0.00000000       0.017
  -0.09747782  0.01875961  0.00000000       0.017
  -0.03249261  0.09379807  0.00000000       0.017
   0.06498521  0.07503846  0.00000000       0.017
   0.04332347  0.11255769  0.00000000       0.017
   0.04332347 -0.11255769  0.00000000       0.017
  -0.00000000  0.18759614  0.00000000       0.017
   0.00000000  0.07503846  0.00000000       0.017
  -0.06498521  0.03751923  0.00000000       0.017
  -0.06498521 -0.03751923  0.00000000       0.017
   0.01083087  0.09379807  0.00000000       0.017
  -0.07581608  0.05627884  0.00000000       0.017
  -0.08664695 -0.03751923  0.00000000       0.017
  -0.08664695  0.03751923  0.00000000       0.017
  -0.01083087  0.09379807  0.00000000       0.017
   0.07581608  0.05627884  0.00000000       0.017
   0.02166174  0.11255769  0.00000000       0.017
   0.03249261 -0.13131730  0.00000000       0.017
   0.01083087  0.16883653  0.00000000       0.017
   0.01083087 -0.16883653  0.00000000       0.017
  -0.02166174  0.11255769  0.00000000       0.017
  -0.03249261 -0.13131730  0.00000000       0.017
  -0.00000000  0.11255769  0.00000000       0.017
   0.02166174 -0.15007691  0.00000000       0.017
   0.02166174  0.15007691  0.00000000       0.017
   0.01083087  0.13131730  0.00000000       0.017
   0.01083087 -0.13131730  0.00000000       0.017
  -0.00000000  0.15007691  0.00000000       0.017
 
 k-points in reciprocal lattice and weights: k-points                                
   0.00000000  0.00000000  0.00000000       0.008
   0.09090909  0.00000000  0.00000000       0.017
   0.00000000  0.09090909  0.00000000       0.017
  -0.09090909  0.09090909  0.00000000       0.017
   0.18181818  0.00000000  0.00000000       0.017
   0.00000000  0.18181818  0.00000000       0.017
  -0.18181818  0.18181818  0.00000000       0.017
   0.27272727  0.00000000  0.00000000       0.017
   0.00000000  0.27272727  0.00000000       0.017
  -0.27272727  0.27272727  0.00000000       0.017
   0.36363636  0.00000000  0.00000000       0.017
   0.00000000  0.36363636  0.00000000       0.017
  -0.36363636  0.36363636  0.00000000       0.017
   0.45454545  0.00000000  0.00000000       0.017
   0.00000000  0.45454545  0.00000000       0.017
  -0.45454545  0.45454545  0.00000000       0.017
   0.09090909  0.09090909  0.00000000       0.017
  -0.09090909  0.18181818  0.00000000       0.017
  -0.18181818  0.09090909  0.00000000       0.017
   0.18181818  0.09090909  0.00000000       0.017
  -0.09090909  0.27272727  0.00000000       0.017
  -0.27272727  0.18181818  0.00000000       0.017
  -0.18181818  0.27272727  0.00000000       0.017
   0.09090909  0.18181818  0.00000000       0.017
   0.27272727 -0.09090909  0.00000000       0.017
   0.27272727  0.09090909  0.00000000       0.017
  -0.09090909  0.36363636  0.00000000       0.017
  -0.36363636  0.27272727  0.00000000       0.017
  -0.27272727  0.36363636  0.00000000       0.017
   0.09090909  0.27272727  0.00000000       0.017
   0.36363636 -0.09090909  0.00000000       0.017
   0.36363636  0.09090909  0.00000000       0.017
  -0.09090909  0.45454545  0.00000000       0.017
  -0.45454545  0.36363636  0.00000000       0.017
  -0.36363636  0.45454545  0.00000000       0.017
   0.09090909  0.36363636  0.00000000       0.017
   0.45454545 -0.09090909  0.00000000       0.017
   0.45454545  0.09090909  0.00000000       0.017
  -0.09090909 -0.45454545  0.00000000       0.017
   0.45454545  0.45454545  0.00000000       0.017
   0.18181818  0.18181818  0.00000000       0.017
  -0.18181818  0.36363636  0.00000000       0.017
  -0.36363636  0.18181818  0.00000000       0.017
   0.27272727  0.18181818  0.00000000       0.017
  -0.18181818  0.45454545  0.00000000       0.017
  -0.45454545  0.27272727  0.00000000       0.017
  -0.27272727  0.45454545  0.00000000       0.017
   0.18181818  0.27272727  0.00000000       0.017
   0.45454545 -0.18181818  0.00000000       0.017
   0.36363636  0.18181818  0.00000000       0.017
  -0.18181818 -0.45454545  0.00000000       0.017
   0.45454545  0.36363636  0.00000000       0.017
  -0.36363636 -0.45454545  0.00000000       0.017
   0.18181818  0.36363636  0.00000000       0.017
  -0.45454545 -0.18181818  0.00000000       0.017
   0.27272727  0.27272727  0.00000000       0.017
  -0.27272727 -0.45454545  0.00000000       0.017
   0.45454545  0.27272727  0.00000000       0.017
   0.36363636  0.27272727  0.00000000       0.017
  -0.27272727 -0.36363636  0.00000000       0.017
   0.36363636  0.36363636  0.00000000       0.017
 
 position of ions in fractional coordinates (direct lattice) 
   0.00405653  0.00269734  0.10150106
   0.35924549  0.00297870  0.10071141
   0.00376783  0.35759951  0.10071217
   0.64914818  0.64750627  0.10070860
   0.32778476  0.32614414  0.10073086
   0.68060188  0.00297489  0.10073054
   0.00377056  0.67895921  0.10072786
   0.00013259  0.50006304  0.33511533
   0.16678386  0.33345284  0.33515001
   0.00011539  0.00007104  0.33507593
   0.16682595  0.83340270  0.33515391
   0.50012588  0.50009985  0.33511811
   0.66678116  0.33340594  0.33501310
   0.50008744  0.00005365  0.33511368
   0.66673317  0.83335819  0.33515010
 
 position of ions in cartesian coordinates  (Angst):
   0.00570417  0.01636462  1.52251590
   1.49516590  0.87766923  1.51067113
  -1.48494633  0.87559308  1.51068254
   0.00689067  3.14179373  1.51062903
   0.00688525  1.58446973  1.51096293
   2.84383723  1.65630651  1.51095813
  -2.83360413  1.65425423  1.51091787
  -2.09808763  1.21197401  5.02672996
  -0.69946955  1.21207354  5.02725017
   0.00018612  0.00045171  5.02613895
  -2.79746202  2.42355402  5.02730859
   0.00010921  2.42354695  5.02677165
   1.39909548  2.42345335  5.02519649
   2.09852137  1.21184187  5.02670514
  -0.69928510  3.63472136  5.02725151
 


--------------------------------------------------------------------------------------------------------


 k-point   1 :   0.0000 0.0000 0.0000  plane waves:    6645
 k-point   2 :   0.0909 0.0000 0.0000  plane waves:    6635
 k-point   3 :   0.0000 0.0909 0.0000  plane waves:    6635
 k-point   4 :  -0.0909 0.0909 0.0000  plane waves:    6635
 k-point   5 :   0.1818 0.0000 0.0000  plane waves:    6647
 k-point   6 :   0.0000 0.1818 0.0000  plane waves:    6647
 k-point   7 :  -0.1818 0.1818 0.0000  plane waves:    6647
 k-point   8 :   0.2727 0.0000 0.0000  plane waves:    6604
 k-point   9 :   0.0000 0.2727 0.0000  plane waves:    6604
 k-point  10 :  -0.2727 0.2727 0.0000  plane waves:    6604
 k-point  11 :   0.3636 0.0000 0.0000  plane waves:    6598
 k-point  12 :   0.0000 0.3636 0.0000  plane waves:    6598
 k-point  13 :  -0.3636 0.3636 0.0000  plane waves:    6598
 k-point  14 :   0.4545 0.0000 0.0000  plane waves:    6586
 k-point  15 :   0.0000 0.4545 0.0000  plane waves:    6586
 k-point  16 :  -0.4545 0.4545 0.0000  plane waves:    6586
 k-point  17 :   0.0909 0.0909 0.0000  plane waves:    6641
 k-point  18 :  -0.0909 0.1818 0.0000  plane waves:    6641
 k-point  19 :  -0.1818 0.0909 0.0000  plane waves:    6641
 k-point  20 :   0.1818 0.0909 0.0000  plane waves:    6626
 k-point  21 :  -0.0909 0.2727 0.0000  plane waves:    6626
 k-point  22 :  -0.2727 0.1818 0.0000  plane waves:    6626
 k-point  23 :  -0.1818 0.2727 0.0000  plane waves:    6626
 k-point  24 :   0.0909 0.1818 0.0000  plane waves:    6626
 k-point  25 :   0.2727-0.0909 0.0000  plane waves:    6626
 k-point  26 :   0.2727 0.0909 0.0000  plane waves:    6620
 k-point  27 :  -0.0909 0.3636 0.0000  plane waves:    6620
 k-point  28 :  -0.3636 0.2727 0.0000  plane waves:    6620
 k-point  29 :  -0.2727 0.3636 0.0000  plane waves:    6620
 k-point  30 :   0.0909 0.2727 0.0000  plane waves:    6620
 k-point  31 :   0.3636-0.0909 0.0000  plane waves:    6620
 k-point  32 :   0.3636 0.0909 0.0000  plane waves:    6599
 k-point  33 :  -0.0909 0.4545 0.0000  plane waves:    6599
 k-point  34 :  -0.4545 0.3636 0.0000  plane waves:    6599
 k-point  35 :  -0.3636 0.4545 0.0000  plane waves:    6599
 k-point  36 :   0.0909 0.3636 0.0000  plane waves:    6599
 k-point  37 :   0.4545-0.0909 0.0000  plane waves:    6599
 k-point  38 :   0.4545 0.0909 0.0000  plane waves:    6596
 k-point  39 :  -0.0909-0.4545 0.0000  plane waves:    6596
 k-point  40 :   0.4545 0.4545 0.0000  plane waves:    6596
 k-point  41 :   0.1818 0.1818 0.0000  plane waves:    6591
 k-point  42 :  -0.1818 0.3636 0.0000  plane waves:    6591
 k-point  43 :  -0.3636 0.1818 0.0000  plane waves:    6591
 k-point  44 :   0.2727 0.1818 0.0000  plane waves:    6616
 k-point  45 :  -0.1818 0.4545 0.0000  plane waves:    6616
 k-point  46 :  -0.4545 0.2727 0.0000  plane waves:    6616
 k-point  47 :  -0.2727 0.4545 0.0000  plane waves:    6616
 k-point  48 :   0.1818 0.2727 0.0000  plane waves:    6616
 k-point  49 :   0.4545-0.1818 0.0000  plane waves:    6616
 k-point  50 :   0.3636 0.1818 0.0000  plane waves:    6609
 k-point  51 :  -0.1818-0.4545 0.0000  plane waves:    6609
 k-point  52 :   0.4545 0.3636 0.0000  plane waves:    6609
 k-point  53 :  -0.3636-0.4545 0.0000  plane waves:    6609
 k-point  54 :   0.1818 0.3636 0.0000  plane waves:    6609
 k-point  55 :  -0.4545-0.1818 0.0000  plane waves:    6609
 k-point  56 :   0.2727 0.2727 0.0000  plane waves:    6594
 k-point  57 :  -0.2727-0.4545 0.0000  plane waves:    6594
 k-point  58 :   0.4545 0.2727 0.0000  plane waves:    6594
 k-point  59 :   0.3636 0.2727 0.0000  plane waves:    6604
 k-point  60 :  -0.2727-0.3636 0.0000  plane waves:    6604
 k-point  61 :   0.3636 0.3636 0.0000  plane waves:    6604

 maximum and minimum number of plane-waves per node :      6647     6586

 maximum number of plane-waves:      6647
 maximum index in each direction: 
   IXMAX=    8   IYMAX=    8   IZMAX=   25
   IXMIN=   -8   IYMIN=   -8   IZMIN=  -25


 serial   3D FFT for wavefunctions
 parallel 3D FFT for charge:
    minimum data exchange during FFTs selected (reduces bandwidth)


 FFT grid for exact exchange (Hartree Fock) 
  NGX = 28; NGY = 28; NGZ = 80

 
 Radii for the augmentation spheres in the non-local exchange
 for species   1 augmentation radius   0.959 (default was   0.767)
       energy cutoff for augmentation   1800.0
 for species   2 augmentation radius   0.874 (default was   0.699)
       energy cutoff for augmentation   1800.0
 Maximum index for augmentation-charges in exchange          755
  SETUP_FOCK is finished

 total amount of memory used by VASP MPI-rank0   112912. kBytes
=======================================================================

   base      :      30000. kBytes
   nonl-proj :      54082. kBytes
   fftplans  :       1102. kBytes
   grid      :       6496. kBytes
   one-center:         46. kBytes
   HF        :          9. kBytes
   nonlr-proj:        939. kBytes
   wavefun   :      20238. kBytes
 
     INWAV:  cpu time      1.7739: real time      1.9132
 Broyden mixing: mesh for mixing (old mesh)
   NGX = 17   NGY = 17   NGZ = 51
  (NGX  = 72   NGY  = 72   NGZ  =216)
  gives a total of  14739 points

 initial charge density was supplied:
 charge density of overlapping atoms calculated
 number of electron      56.0000000 magnetization 
 charge density for first step will be calculated from the start-wavefunctions


--------------------------------------------------------------------------------------------------------


 Maximum index for augmentation-charges          392 (set IRDMAX)


--------------------------------------------------------------------------------------------------------


 initial charge from wavefunction
 First call to EWALD:  gamma=   0.263
 Maximum number of real-space cells 4x 4x 2
 Maximum number of reciprocal cells 2x 2x 6

    FEWALD:  cpu time      0.0014: real time      0.0016


--------------------------------------- Ionic step        1  -------------------------------------------




--------------------------------------- Iteration      1(   1)  ---------------------------------------


    POTLOK:  cpu time      0.0297: real time      0.0303
    SETDIJ:  cpu time      0.0310: real time      0.0311
    TRIAL :  cpu time   1712.4005: real time   1728.8518
    CORREC:  cpu time      0.0004: real time      0.0004
    CHARGE:  cpu time      0.2282: real time      0.2298
    --------------------------------------------
      LOOP:  cpu time   1712.7004: real time   1729.1554

 eigenvalue-minimisations  :     0
 total energy-change (2. order) :-0.1434250E+03  (-0.2205714E-06)
 number of electron      56.0000000 magnetization 
 augmentation part        1.0114961 magnetization 

 Free energy of the ion-electron system (eV)
  ---------------------------------------------------
  alpha Z        PSCENC =        58.30706670
  Ewald energy   TEWEN  =      4730.33489792
  -Hartree energ DENC   =     -6481.92952600
  -exchange      EXHF   =       120.35496018
  -V(xc)+E(xc)   XCENC  =       138.72722387
  PAW double counting   =      6328.61982884    -6330.78830688
  entropy T*S    EENTRO =        -0.00000000
  eigenvalues    EBANDS =      -587.48730576
  atomic energy  EATOM  =      1880.43616831
  ---------------------------------------------------
  free energy    TOTEN  =      -143.42499283 eV

  energy without entropy =     -143.42499283  energy(sigma->0) =     -143.42499283
  exchange ACFDT corr.  =        -0.00000000  see jH, gK, PRB 81, 115126


--------------------------------------------------------------------------------------------------------




--------------------------------------- Iteration      1(   2)  ---------------------------------------


    POTLOK:  cpu time      0.0268: real time      0.0269
    SETDIJ:  cpu time      0.0292: real time      0.0295
    TRIAL :  cpu time   1716.2981: real time   1729.1775
    CORREC:  cpu time      0.0004: real time      0.0004
    EDDIAG:  cpu time   1709.4779: real time   1722.2393
    CHARGE:  cpu time      0.2281: real time      0.2294
    --------------------------------------------
      LOOP:  cpu time   3426.0626: real time   3451.7055

 eigenvalue-minimisations  :     0
 total energy-change (2. order) :-0.1825283E-06  (-0.1559368E-06)
 number of electron      56.0000000 magnetization 
 augmentation part        1.0114980 magnetization 

 Free energy of the ion-electron system (eV)
  ---------------------------------------------------
  alpha Z        PSCENC =        58.30706670
  Ewald energy   TEWEN  =      4730.33489792
  -Hartree energ DENC   =     -6481.93152052
  -exchange      EXHF   =       120.35505838
  -V(xc)+E(xc)   XCENC  =       138.72726743
  PAW double counting   =      6328.61469482    -6330.78317139
  entropy T*S    EENTRO =        -0.00000000
  eigenvalues    EBANDS =      -587.48540228
  atomic energy  EATOM  =      1880.43616831
  ---------------------------------------------------
  free energy    TOTEN  =      -143.42499301 eV

  energy without entropy =     -143.42499301  energy(sigma->0) =     -143.42499301
  exchange ACFDT corr.  =        -0.00000000  see jH, gK, PRB 81, 115126


--------------------------------------------------------------------------------------------------------


  average scaling for gradient   0.9669


 average (electrostatic) potential at core
  the test charge radii are     0.7672  0.6991
  (the norm of the test charge is              1.0000)
       1 -32.8021       2 -31.2689       3 -31.2688       4 -31.2688       5 -51.5182
       6 -51.5180       7 -51.5180       8 -51.9411       9 -51.9477      10 -51.9494
      11 -51.9474      12 -51.9410      13 -51.9528      14 -51.9412      15 -51.9476
 
 
 
 E-fermi :  -0.4102     XC(G=0):  -4.3218     alpha+bet : -5.0692

 Fermi energy:        -0.4101552228

 k-point     1 :       0.0000    0.0000    0.0000
  band No.  band energies     occupation 
      1     -22.8879      2.00000
      2     -19.6815      2.00000
      3     -16.9491      2.00000
      4     -16.9475      2.00000
      5     -16.9474      2.00000
      6     -15.8501      2.00000
      7     -15.8501      2.00000
      8     -15.8485      2.00000
      9     -15.3754      2.00000
     10     -15.3753      2.00000
     11     -11.9635      2.00000
     12     -10.9610      2.00000
     13     -10.9609      2.00000
     14      -9.7306      2.00000
     15      -8.8689      2.00000
     16      -8.1992      2.00000
     17      -8.1989      2.00000
     18      -8.1988      2.00000
     19      -7.8520      2.00000
     20      -4.3547      2.00000
     21      -4.3546      2.00000
     22      -3.6524      2.00000
     23      -3.6523      2.00000
     24      -3.4039      2.00000
     25      -3.4035      2.00000
     26      -3.3926      2.00000
     27      -1.2488      2.00000
     28      -1.2464      2.00000
     29       1.3184      0.00000
     30       1.3270      0.00000
     31       1.6543      0.00000
     32       1.9683      0.00000
     33       1.9747      0.00000
     34       2.5217      0.00000
     35       3.0785      0.00000
     36       3.8283      0.00000
     37       4.0639      0.00000
     38       4.0642      0.00000
     39       4.7913      0.00000
     40       7.0922      0.00000
     41       7.7617      0.00000
     42       8.3392      0.00000
     43       8.3475      0.00000
     44       8.3478      0.00000
     45       8.6791      0.00000
     46       9.1887      0.00000
     47       9.2644      0.00000
     48       9.2646      0.00000
     49       9.9040      0.00000
     50      10.2356      0.00000
     51      10.2360      0.00000
     52      10.4433      0.00000
     53      11.1300      0.00000
     54      11.1311      0.00000
     55      11.2460      0.00000
     56      11.7111      0.00000
     57      11.7900      0.00000
     58      11.7906      0.00000
     59      11.8958      0.00000
     60      11.8960      0.00000
     61      11.9313      0.00000
     62      12.1007      0.00000
     63      12.3619      0.00000
     64      12.3621      0.00000
     65      12.3950      0.00000
     66      12.5951      0.00000
     67      12.5955      0.00000
     68      13.1360      0.00000
     69      13.3131      0.00000
     70      13.3133      0.00000
     71      13.4115      0.00000
     72      13.5343      0.00000
     73      14.0822      0.00000
     74      14.0929      0.00000
     75      14.0936      0.00000
     76      14.6009      0.00000
     77      14.6097      0.00000
     78      14.6251      0.00000
     79      14.6868      0.00000
     80      14.9827      0.00000
     81      15.4042      0.00000
     82      15.4136      0.00000
     83      15.9756      0.00000
     84      15.9990      0.00000
     85      16.0028      0.00000
     86      16.4528      0.00000
     87      16.4628      0.00000
     88      16.5771      0.00000
     89      17.1703      0.00000
     90      17.8535      0.00000
     91      18.5642      0.00000
     92      18.7266      0.00000
     93      18.9753      0.00000
     94      19.3111      0.00000
     95      19.9757      0.00000
     96      20.2691      0.00000

 k-point     2 :       0.0909    0.0000    0.0000
  band No.  band energies     occupation 
      1     -22.8330      2.00000
      2     -19.6427      2.00000
      3     -17.6139      2.00000
      4     -17.1418      2.00000
      5     -17.1396      2.00000
      6     -15.5704      2.00000
      7     -15.5680      2.00000
      8     -15.5176      2.00000
      9     -15.4101      2.00000
     10     -15.0995      2.00000
     11     -11.8381      2.00000
     12     -11.0973      2.00000
     13     -10.8430      2.00000
     14      -9.6623      2.00000
     15      -8.5731      2.00000
     16      -8.3655      2.00000
     17      -8.3648      2.00000
     18      -8.1437      2.00000
     19      -7.7888      2.00000
     20      -4.5764      2.00000
     21      -4.4743      2.00000
     22      -3.9253      2.00000
     23      -3.8080      2.00000
     24      -3.7585      2.00000
     25      -3.4474      2.00000
     26      -3.4342      2.00000
     27      -1.5610      2.00000
     28      -1.4137      2.00000
     29       1.3182      0.00000
     30       1.5010      0.00000
     31       1.8488      0.00000
     32       2.0877      0.00000
     33       2.2138      0.00000
     34       3.0428      0.00000
     35       3.1669      0.00000
     36       3.9078      0.00000
     37       4.1872      0.00000
     38       4.3204      0.00000
     39       4.8619      0.00000
     40       7.1540      0.00000
     41       7.8246      0.00000
     42       8.3659      0.00000
     43       8.5151      0.00000
     44       8.5930      0.00000
     45       8.5991      0.00000
     46       9.2898      0.00000
     47       9.3018      0.00000
     48       9.5025      0.00000
     49       9.7264      0.00000
     50       9.9001      0.00000
     51      10.0095      0.00000
     52      10.2994      0.00000
     53      10.4282      0.00000
     54      10.6689      0.00000
     55      10.7723      0.00000
     56      10.8992      0.00000
     57      11.2943      0.00000
     58      11.4534      0.00000
     59      11.5638      0.00000
     60      11.9547      0.00000
     61      12.0577      0.00000
     62      12.2250      0.00000
     63      12.4371      0.00000
     64      12.5136      0.00000
     65      13.0082      0.00000
     66      13.0994      0.00000
     67      13.1908      0.00000
     68      13.2044      0.00000
     69      13.3378      0.00000
     70      13.4799      0.00000
     71      13.8064      0.00000
     72      13.9169      0.00000
     73      14.0242      0.00000
     74      14.1600      0.00000
     75      14.2311      0.00000
     76      14.3290      0.00000
     77      14.6112      0.00000
     78      14.7689      0.00000
     79      14.9168      0.00000
     80      15.0431      0.00000
     81      15.3003      0.00000
     82      15.4307      0.00000
     83      15.7775      0.00000
     84      15.9574      0.00000
     85      16.3065      0.00000
     86      16.7501      0.00000
     87      16.8672      0.00000
     88      17.1350      0.00000
     89      17.5746      0.00000
     90      18.0443      0.00000
     91      18.2087      0.00000
     92      18.4033      0.00000
     93      18.8811      0.00000
     94      19.2619      0.00000
     95      20.2309      0.00000
     96      21.0095      0.00000

 k-point     3 :       0.0000    0.0909    0.0000
  band No.  band energies     occupation 
      1     -22.8330      2.00000
      2     -19.6427      2.00000
      3     -17.6139      2.00000
      4     -17.1418      2.00000
      5     -17.1396      2.00000
      6     -15.5705      2.00000
      7     -15.5680      2.00000
      8     -15.5175      2.00000
      9     -15.4100      2.00000
     10     -15.0996      2.00000
     11     -11.8381      2.00000
     12     -11.0973      2.00000
     13     -10.8430      2.00000
     14      -9.6623      2.00000
     15      -8.5731      2.00000
     16      -8.3655      2.00000
     17      -8.3648      2.00000
     18      -8.1436      2.00000
     19      -7.7888      2.00000
     20      -4.5764      2.00000
     21      -4.4742      2.00000
     22      -3.9253      2.00000
     23      -3.8081      2.00000
     24      -3.7584      2.00000
     25      -3.4473      2.00000
     26      -3.4344      2.00000
     27      -1.5601      2.00000
     28      -1.4148      2.00000
     29       1.3227      0.00000
     30       1.4978      0.00000
     31       1.8491      0.00000
     32       2.0830      0.00000
     33       2.2165      0.00000
     34       3.0434      0.00000
     35       3.1669      0.00000
     36       3.9078      0.00000
     37       4.1869      0.00000
     38       4.3207      0.00000
     39       4.8619      0.00000
     40       7.1540      0.00000
     41       7.8246      0.00000
     42       8.3660      0.00000
     43       8.5148      0.00000
     44       8.5930      0.00000
     45       8.5993      0.00000
     46       9.2899      0.00000
     47       9.3017      0.00000
     48       9.5024      0.00000
     49       9.7262      0.00000
     50       9.9001      0.00000
     51      10.0095      0.00000
     52      10.2994      0.00000
     53      10.4282      0.00000
     54      10.6692      0.00000
     55      10.7727      0.00000
     56      10.8993      0.00000
     57      11.2938      0.00000
     58      11.4529      0.00000
     59      11.5638      0.00000
     60      11.9547      0.00000
     61      12.0579      0.00000
     62      12.2254      0.00000
     63      12.4366      0.00000
     64      12.5122      0.00000
     65      13.0087      0.00000
     66      13.0992      0.00000
     67      13.1911      0.00000
     68      13.2042      0.00000
     69      13.3384      0.00000
     70      13.4813      0.00000
     71      13.8059      0.00000
     72      13.9172      0.00000
     73      14.0233      0.00000
     74      14.1593      0.00000
     75      14.2299      0.00000
     76      14.3291      0.00000
     77      14.6129      0.00000
     78      14.7690      0.00000
     79      14.9175      0.00000
     80      15.0474      0.00000
     81      15.2982      0.00000
     82      15.4332      0.00000
     83      15.7770      0.00000
     84      15.9541      0.00000
     85      16.3074      0.00000
     86      16.7438      0.00000
     87      16.8628      0.00000
     88      17.1341      0.00000
     89      17.5770      0.00000
     90      18.0446      0.00000
     91      18.1712      0.00000
     92      18.4016      0.00000
     93      18.8988      0.00000
     94      19.3951      0.00000
     95      19.8841      0.00000
     96      20.6314      0.00000

 k-point     4 :      -0.0909    0.0909    0.0000
  band No.  band energies     occupation 
      1     -22.8330      2.00000
      2     -19.6427      2.00000
      3     -17.6139      2.00000
      4     -17.1418      2.00000
      5     -17.1396      2.00000
      6     -15.5704      2.00000
      7     -15.5681      2.00000
      8     -15.5173      2.00000
      9     -15.4102      2.00000
     10     -15.0996      2.00000
     11     -11.8381      2.00000
     12     -11.0972      2.00000
     13     -10.8431      2.00000
     14      -9.6623      2.00000
     15      -8.5731      2.00000
     16      -8.3655      2.00000
     17      -8.3648      2.00000
     18      -8.1436      2.00000
     19      -7.7888      2.00000
     20      -4.5765      2.00000
     21      -4.4741      2.00000
     22      -3.9253      2.00000
     23      -3.8081      2.00000
     24      -3.7584      2.00000
     25      -3.4472      2.00000
     26      -3.4344      2.00000
     27      -1.5608      2.00000
     28      -1.4140      2.00000
     29       1.3215      0.00000
     30       1.4998      0.00000
     31       1.8448      0.00000
     32       2.0880      0.00000
     33       2.2154      0.00000
     34       3.0430      0.00000
     35       3.1669      0.00000
     36       3.9078      0.00000
     37       4.1870      0.00000
     38       4.3205      0.00000
     39       4.8619      0.00000
     40       7.1540      0.00000
     41       7.8246      0.00000
     42       8.3657      0.00000
     43       8.5158      0.00000
     44       8.5928      0.00000
     45       8.5988      0.00000
     46       9.2900      0.00000
     47       9.3017      0.00000
     48       9.5024      0.00000
     49       9.7261      0.00000
     50       9.9002      0.00000
     51      10.0095      0.00000
     52      10.2994      0.00000
     53      10.4282      0.00000
     54      10.6689      0.00000
     55      10.7728      0.00000
     56      10.8993      0.00000
     57      11.2941      0.00000
     58      11.4528      0.00000
     59      11.5638      0.00000
     60      11.9547      0.00000
     61      12.0579      0.00000
     62      12.2253      0.00000
     63      12.4366      0.00000
     64      12.5128      0.00000
     65      13.0081      0.00000
     66      13.0992      0.00000
     67      13.1912      0.00000
     68      13.2043      0.00000
     69      13.3385      0.00000
     70      13.4809      0.00000
     71      13.8062      0.00000
     72      13.9154      0.00000
     73      14.0236      0.00000
     74      14.1599      0.00000
     75      14.2328      0.00000
     76      14.3280      0.00000
     77      14.6131      0.00000
     78      14.7691      0.00000
     79      14.9162      0.00000
     80      15.0451      0.00000
     81      15.3042      0.00000
     82      15.4258      0.00000
     83      15.7739      0.00000
     84      15.9652      0.00000
     85      16.3045      0.00000
     86      16.7410      0.00000
     87      16.8663      0.00000
     88      17.1319      0.00000
     89      17.5753      0.00000
     90      18.0340      0.00000
     91      18.1584      0.00000
     92      18.3866      0.00000
     93      18.8629      0.00000
     94      19.0642      0.00000
     95      19.8252      0.00000
     96      20.9853      0.00000

 k-point     5 :       0.1818    0.0000    0.0000
  band No.  band energies     occupation 
      1     -22.6684      2.00000
      2     -19.5306      2.00000
      3     -18.5530      2.00000
      4     -17.4677      2.00000
      5     -17.4651      2.00000
      6     -15.8864      2.00000
      7     -15.5072      2.00000
      8     -14.9700      2.00000
      9     -14.9668      2.00000
     10     -13.9168      2.00000
     11     -11.7256      2.00000
     12     -11.1154      2.00000
     13     -10.5190      2.00000
     14      -9.4578      2.00000
     15      -8.8297      2.00000
     16      -8.8285      2.00000
     17      -7.9791      2.00000
     18      -7.8995      2.00000
     19      -7.6026      2.00000
     20      -5.2039      2.00000
     21      -4.8041      2.00000
     22      -4.6307      2.00000
     23      -4.5734      2.00000
     24      -4.2159      2.00000
     25      -3.5582      2.00000
     26      -3.5330      2.00000
     27      -2.3284      2.00000
     28      -1.7413      2.00000
     29       1.2694      0.00000
     30       1.9240      0.00000
     31       2.1307      0.00000
     32       2.5588      0.00000
     33       3.1917      0.00000
     34       3.3492      0.00000
     35       3.9500      0.00000
     36       4.2798      0.00000
     37       4.5132      0.00000
     38       4.9155      0.00000
     39       5.1120      0.00000
     40       7.3313      0.00000
     41       7.8988      0.00000
     42       8.0085      0.00000
     43       8.4131      0.00000
     44       8.6103      0.00000
     45       9.1557      0.00000
     46       9.2646      0.00000
     47       9.2858      0.00000
     48       9.2989      0.00000
     49       9.3371      0.00000
     50       9.7453      0.00000
     51       9.8189      0.00000
     52      10.0364      0.00000
     53      10.1696      0.00000
     54      10.1914      0.00000
     55      10.2355      0.00000
     56      10.3451      0.00000
     57      10.6231      0.00000
     58      10.8057      0.00000
     59      10.9961      0.00000
     60      11.6422      0.00000
     61      11.8012      0.00000
     62      12.0605      0.00000
     63      12.5574      0.00000
     64      12.5992      0.00000
     65      13.2127      0.00000
     66      13.2297      0.00000
     67      13.3113      0.00000
     68      13.3788      0.00000
     69      13.5167      0.00000
     70      13.8836      0.00000
     71      14.1515      0.00000
     72      14.2493      0.00000
     73      14.2947      0.00000
     74      14.5338      0.00000
     75      14.6945      0.00000
     76      14.7565      0.00000
     77      14.9742      0.00000
     78      15.0390      0.00000
     79      15.2292      0.00000
     80      15.2992      0.00000
     81      15.5621      0.00000
     82      15.8332      0.00000
     83      16.1952      0.00000
     84      16.4791      0.00000
     85      16.7097      0.00000
     86      17.0109      0.00000
     87      17.2736      0.00000
     88      17.5170      0.00000
     89      17.9513      0.00000
     90      18.2647      0.00000
     91      18.4050      0.00000
     92      18.7134      0.00000
     93      19.0462      0.00000
     94      19.4777      0.00000
     95      19.7725      0.00000
     96      20.4560      0.00000

 k-point     6 :       0.0000    0.1818    0.0000
  band No.  band energies     occupation 
      1     -22.6684      2.00000
      2     -19.5306      2.00000
      3     -18.5530      2.00000
      4     -17.4678      2.00000
      5     -17.4651      2.00000
      6     -15.8864      2.00000
      7     -15.5072      2.00000
      8     -14.9700      2.00000
      9     -14.9668      2.00000
     10     -13.9169      2.00000
     11     -11.7256      2.00000
     12     -11.1154      2.00000
     13     -10.5190      2.00000
     14      -9.4578      2.00000
     15      -8.8298      2.00000
     16      -8.8286      2.00000
     17      -7.9791      2.00000
     18      -7.8995      2.00000
     19      -7.6026      2.00000
     20      -5.2040      2.00000
     21      -4.8040      2.00000
     22      -4.6308      2.00000
     23      -4.5734      2.00000
     24      -4.2158      2.00000
     25      -3.5580      2.00000
     26      -3.5332      2.00000
     27      -2.3282      2.00000
     28      -1.7418      2.00000
     29       1.2716      0.00000
     30       1.9235      0.00000
     31       2.1299      0.00000
     32       2.5577      0.00000
     33       3.1914      0.00000
     34       3.3495      0.00000
     35       3.9504      0.00000
     36       4.2802      0.00000
     37       4.5128      0.00000
     38       4.9157      0.00000
     39       5.1121      0.00000
     40       7.3313      0.00000
     41       7.8991      0.00000
     42       8.0085      0.00000
     43       8.4127      0.00000
     44       8.6105      0.00000
     45       9.1557      0.00000
     46       9.2644      0.00000
     47       9.2856      0.00000
     48       9.2991      0.00000
     49       9.3373      0.00000
     50       9.7451      0.00000
     51       9.8189      0.00000
     52      10.0367      0.00000
     53      10.1700      0.00000
     54      10.1914      0.00000
     55      10.2354      0.00000
     56      10.3452      0.00000
     57      10.6230      0.00000
     58      10.8056      0.00000
     59      10.9955      0.00000
     60      11.6421      0.00000
     61      11.8013      0.00000
     62      12.0605      0.00000
     63      12.5569      0.00000
     64      12.5992      0.00000
     65      13.2129      0.00000
     66      13.2287      0.00000
     67      13.3117      0.00000
     68      13.3766      0.00000
     69      13.5152      0.00000
     70      13.8863      0.00000
     71      14.1509      0.00000
     72      14.2490      0.00000
     73      14.2953      0.00000
     74      14.5439      0.00000
     75      14.6941      0.00000
     76      14.7582      0.00000
     77      14.9732      0.00000
     78      15.0390      0.00000
     79      15.2276      0.00000
     80      15.2959      0.00000
     81      15.5663      0.00000
     82      15.8311      0.00000
     83      16.1939      0.00000
     84      16.4825      0.00000
     85      16.7015      0.00000
     86      17.0074      0.00000
     87      17.2682      0.00000
     88      17.4811      0.00000
     89      17.9315      0.00000
     90      18.1188      0.00000
     91      18.5436      0.00000
     92      18.8676      0.00000
     93      18.9855      0.00000
     94      19.5196      0.00000
     95      19.8636      0.00000
     96      20.2512      0.00000

 k-point     7 :      -0.1818    0.1818    0.0000
  band No.  band energies     occupation 
      1     -22.6684      2.00000
      2     -19.5306      2.00000
      3     -18.5530      2.00000
      4     -17.4678      2.00000
      5     -17.4651      2.00000
      6     -15.8863      2.00000
      7     -15.5073      2.00000
      8     -14.9700      2.00000
      9     -14.9667      2.00000
     10     -13.9169      2.00000
     11     -11.7256      2.00000
     12     -11.1153      2.00000
     13     -10.5191      2.00000
     14      -9.4578      2.00000
     15      -8.8298      2.00000
     16      -8.8286      2.00000
     17      -7.9791      2.00000
     18      -7.8995      2.00000
     19      -7.6026      2.00000
     20      -5.2040      2.00000
     21      -4.8040      2.00000
     22      -4.6308      2.00000
     23      -4.5734      2.00000
     24      -4.2158      2.00000
     25      -3.5581      2.00000
     26      -3.5331      2.00000
     27      -2.3285      2.00000
     28      -1.7414      2.00000
     29       1.2711      0.00000
     30       1.9240      0.00000
     31       2.1284      0.00000
     32       2.5594      0.00000
     33       3.1915      0.00000
     34       3.3493      0.00000
     35       3.9502      0.00000
     36       4.2801      0.00000
     37       4.5129      0.00000
     38       4.9155      0.00000
     39       5.1121      0.00000
     40       7.3313      0.00000
     41       7.8989      0.00000
     42       8.0085      0.00000
     43       8.4127      0.00000
     44       8.6105      0.00000
     45       9.1558      0.00000
     46       9.2647      0.00000
     47       9.2855      0.00000
     48       9.2988      0.00000
     49       9.3373      0.00000
     50       9.7453      0.00000
     51       9.8188      0.00000
     52      10.0366      0.00000
     53      10.1696      0.00000
     54      10.1914      0.00000
     55      10.2356      0.00000
     56      10.3453      0.00000
     57      10.6229      0.00000
     58      10.8057      0.00000
     59      10.9956      0.00000
     60      11.6421      0.00000
     61      11.8013      0.00000
     62      12.0604      0.00000
[...]
     45       7.6985      0.00000
     46       7.7401      0.00000
     47       8.0702      0.00000
     48       8.2067      0.00000
     49       9.5068      0.00000
     50       9.6374      0.00000
     51       9.9273      0.00000
     52      10.1900      0.00000
     53      10.2987      0.00000
     54      10.3870      0.00000
     55      10.7035      0.00000
     56      10.7233      0.00000
     57      10.8922      0.00000
     58      11.0530      0.00000
     59      11.1565      0.00000
     60      11.4533      0.00000
     61      11.9912      0.00000
     62      12.9220      0.00000
     63      13.2491      0.00000
     64      13.2779      0.00000
     65      13.2822      0.00000
     66      13.4148      0.00000
     67      13.5139      0.00000
     68      13.5949      0.00000
     69      13.8549      0.00000
     70      14.0877      0.00000
     71      14.1982      0.00000
     72      14.3545      0.00000
     73      14.5335      0.00000
     74      14.6404      0.00000
     75      15.2438      0.00000
     76      15.4406      0.00000
     77      15.8246      0.00000
     78      15.9761      0.00000
     79      16.0670      0.00000
     80      16.1924      0.00000
     81      16.3041      0.00000
     82      16.6086      0.00000
     83      16.8601      0.00000
     84      17.0713      0.00000
     85      17.3178      0.00000
     86      17.4693      0.00000
     87      17.6859      0.00000
     88      17.7942      0.00000
     89      18.2357      0.00000
     90      18.4567      0.00000
     91      18.6927      0.00000
     92      18.8803      0.00000
     93      19.0529      0.00000
     94      19.1759      0.00000
     95      19.6775      0.00000
     96      20.1321      0.00000

 k-point    60 :      -0.2727   -0.3636    0.0000
  band No.  band energies     occupation 
      1     -20.8772      2.00000
      2     -20.8737      2.00000
      3     -20.2864      2.00000
      4     -18.8965      2.00000
      5     -16.7854      2.00000
      6     -16.4921      2.00000
      7     -15.4882      2.00000
      8     -14.6983      2.00000
      9     -12.7809      2.00000
     10     -10.9196      2.00000
     11     -10.2898      2.00000
     12     -10.2417      2.00000
     13      -9.4932      2.00000
     14      -9.4108      2.00000
     15      -9.4100      2.00000
     16      -8.7151      2.00000
     17      -7.8417      2.00000
     18      -7.8408      2.00000
     19      -7.3269      2.00000
     20      -7.2055      2.00000
     21      -6.9604      2.00000
     22      -6.6434      2.00000
     23      -6.5532      2.00000
     24      -6.1414      2.00000
     25      -4.8095      2.00000
     26      -4.3261      2.00000
     27      -3.8549      2.00000
     28      -0.9412      2.00000
     29       0.1782      0.00000
     30       3.0239      0.00000
     31       4.3503      0.00000
     32       4.5597      0.00000
     33       4.9959      0.00000
     34       5.1199      0.00000
     35       5.3540      0.00000
     36       5.6113      0.00000
     37       5.8330      0.00000
     38       6.2828      0.00000
     39       6.4671      0.00000
     40       6.4837      0.00000
     41       6.5844      0.00000
     42       7.1157      0.00000
     43       7.2803      0.00000
     44       7.4599      0.00000
     45       7.6977      0.00000
     46       7.7401      0.00000
     47       8.0702      0.00000
     48       8.2070      0.00000
     49       9.5069      0.00000
     50       9.6375      0.00000
     51       9.9262      0.00000
     52      10.1889      0.00000
     53      10.2996      0.00000
     54      10.3866      0.00000
     55      10.7038      0.00000
     56      10.7235      0.00000
     57      10.8948      0.00000
     58      11.0532      0.00000
     59      11.1562      0.00000
     60      11.4530      0.00000
     61      11.9899      0.00000
     62      12.9244      0.00000
     63      13.2458      0.00000
     64      13.2776      0.00000
     65      13.2822      0.00000
     66      13.4143      0.00000
     67      13.5134      0.00000
     68      13.5953      0.00000
     69      13.8552      0.00000
     70      14.0877      0.00000
     71      14.1974      0.00000
     72      14.3575      0.00000
     73      14.5321      0.00000
     74      14.6436      0.00000
     75      15.2413      0.00000
     76      15.4382      0.00000
     77      15.8267      0.00000
     78      15.9772      0.00000
     79      16.0697      0.00000
     80      16.1912      0.00000
     81      16.3040      0.00000
     82      16.6167      0.00000
     83      16.8635      0.00000
     84      17.0749      0.00000
     85      17.3225      0.00000
     86      17.4609      0.00000
     87      17.6722      0.00000
     88      17.7653      0.00000
     89      18.1166      0.00000
     90      18.3502      0.00000
     91      18.5567      0.00000
     92      18.8101      0.00000
     93      19.0146      0.00000
     94      19.1212      0.00000
     95      19.3963      0.00000
     96      19.8419      0.00000

 k-point    61 :       0.3636    0.3636    0.0000
  band No.  band energies     occupation 
      1     -20.8772      2.00000
      2     -20.8737      2.00000
      3     -20.2864      2.00000
      4     -18.8965      2.00000
      5     -16.7853      2.00000
      6     -16.4921      2.00000
      7     -15.4882      2.00000
      8     -14.6983      2.00000
      9     -12.7809      2.00000
     10     -10.9196      2.00000
     11     -10.2898      2.00000
     12     -10.2417      2.00000
     13      -9.4932      2.00000
     14      -9.4109      2.00000
     15      -9.4100      2.00000
     16      -8.7151      2.00000
     17      -7.8417      2.00000
     18      -7.8408      2.00000
     19      -7.3269      2.00000
     20      -7.2055      2.00000
     21      -6.9603      2.00000
     22      -6.6435      2.00000
     23      -6.5532      2.00000
     24      -6.1414      2.00000
     25      -4.8095      2.00000
     26      -4.3261      2.00000
     27      -3.8550      2.00000
     28      -0.9411      2.00000
     29       0.1781      0.00000
     30       3.0238      0.00000
     31       4.3503      0.00000
     32       4.5600      0.00000
     33       4.9957      0.00000
     34       5.1198      0.00000
     35       5.3540      0.00000
     36       5.6113      0.00000
     37       5.8331      0.00000
     38       6.2828      0.00000
     39       6.4671      0.00000
     40       6.4836      0.00000
     41       6.5843      0.00000
     42       7.1156      0.00000
     43       7.2804      0.00000
     44       7.4599      0.00000
     45       7.6979      0.00000
     46       7.7400      0.00000
     47       8.0701      0.00000
     48       8.2070      0.00000
     49       9.5070      0.00000
     50       9.6374      0.00000
     51       9.9262      0.00000
     52      10.1894      0.00000
     53      10.2993      0.00000
     54      10.3865      0.00000
     55      10.7039      0.00000
     56      10.7235      0.00000
     57      10.8939      0.00000
     58      11.0535      0.00000
     59      11.1561      0.00000
     60      11.4530      0.00000
     61      11.9904      0.00000
     62      12.9240      0.00000
     63      13.2459      0.00000
     64      13.2778      0.00000
     65      13.2823      0.00000
     66      13.4144      0.00000
     67      13.5138      0.00000
     68      13.5953      0.00000
     69      13.8552      0.00000
     70      14.0877      0.00000
     71      14.1976      0.00000
     72      14.3564      0.00000
     73      14.5334      0.00000
     74      14.6423      0.00000
     75      15.2418      0.00000
     76      15.4387      0.00000
     77      15.8265      0.00000
     78      15.9776      0.00000
     79      16.0669      0.00000
     80      16.1945      0.00000
     81      16.3057      0.00000
     82      16.6087      0.00000
     83      16.8576      0.00000
     84      17.0653      0.00000
     85      17.3199      0.00000
     86      17.4861      0.00000
     87      17.6912      0.00000
     88      17.7626      0.00000
     89      18.1392      0.00000
     90      18.3377      0.00000
     91      18.5822      0.00000
     92      18.6003      0.00000
     93      19.0155      0.00000
     94      19.2365      0.00000
     95      19.4663      0.00000
     96      19.7930      0.00000


--------------------------------------------------------------------------------------------------------


 soft charge-density along one line, spin component           1
         0         1         2         3         4         5         6         7         8         9
 total charge-density along one line
 
 pseudopotential strength for first ion, spin component:           1
  6.565  10.013   0.000  -0.000   0.000  -0.000  -0.000   0.000
 10.013  15.268   0.000  -0.000   0.000  -0.000  -0.000   0.000
  0.000   0.000  -2.301  -0.000   0.000  -3.932  -0.000   0.000
 -0.000  -0.000  -0.000  -2.297   0.000  -0.000  -3.922   0.000
  0.000   0.000   0.000   0.000  -2.301   0.000   0.000  -3.932
 -0.000  -0.000  -3.932  -0.000   0.000  -6.520  -0.000   0.000
 -0.000  -0.000  -0.000  -3.922   0.000  -0.000  -6.498   0.000
  0.000   0.000   0.000   0.000  -3.932   0.000   0.000  -6.520
 total augmentation occupancy for first ion, spin component:           1
  4.131  -1.272   0.000  -0.022  -0.000  -0.000   0.009   0.000
 -1.272   0.408  -0.000   0.010   0.000   0.000  -0.004  -0.000
  0.000  -0.000   4.635   0.000   0.000  -1.430  -0.000  -0.000
 -0.022   0.010   0.000   1.922  -0.000  -0.000  -0.445   0.000
 -0.000   0.000   0.000  -0.000   4.635  -0.000   0.000  -1.430
 -0.000   0.000  -1.430  -0.000  -0.000   0.449   0.000   0.000
  0.009  -0.004  -0.000  -0.445   0.000   0.000   0.104  -0.000
  0.000  -0.000  -0.000   0.000  -1.430   0.000  -0.000   0.449


------------------------ aborting loop because EDIFF is reached ----------------------------------------





 total charge

# of ion       s       p       d       tot
------------------------------------------
    1        0.665   1.363   0.000   2.029
    2        0.679   1.232   0.000   1.911
    3        0.679   1.232   0.000   1.911
    4        0.679   1.232   0.000   1.911
    5        0.833   1.715   0.000   2.548
    6        0.833   1.715   0.000   2.548
    7        0.833   1.715   0.000   2.548
    8        0.884   1.833   0.000   2.718
    9        0.884   1.833   0.000   2.717
   10        0.884   1.833   0.000   2.718
   11        0.884   1.833   0.000   2.717
   12        0.884   1.833   0.000   2.718
   13        0.884   1.832   0.000   2.717
   14        0.884   1.833   0.000   2.718
   15        0.884   1.833   0.000   2.717
--------------------------------------------------
tot         12.274  24.870   0.000  37.144
 
    FORLOC:  cpu time      0.0007: real time      0.0007
    FORHF :  cpu time    427.8140: real time    430.7052
    FORNL :  cpu time      0.2423: real time      0.2436
    FORCOR:  cpu time      0.0546: real time      0.0550
    OFIELD:  cpu time      0.0001: real time      0.0001

 VOLUME and BASIS-vectors are now :
 -----------------------------------------------------------------------------
  energy-cutoff  :      450.00
  volume of cell :      305.06
      direct lattice vectors                 reciprocal lattice vectors
     4.196759107  2.423000000  0.000000000     0.119139552  0.206355757  0.000000000
    -4.196759107  2.423000000  0.000000000    -0.119139552  0.206355757  0.000000000
     0.000000000  0.000000000 15.000000000     0.000000000  0.000000000  0.066666667

  length of vectors
     4.846000000  4.846000000 15.000000000     0.238279104  0.238279104  0.066666667


 FORCES acting on ions:
    Electron-Ion                     Ewald-Force                    Non-Local-Force
 -----------------------------------------------------------------------------------------------
   -.173E-02 0.209E-02 0.224E+03   0.168E-02 -.196E-02 -.224E+03   0.393E-04 -.165E-03 -.820E-01
   -.199E+02 -.111E+02 0.227E+03   0.226E+02 0.127E+02 -.227E+03   -.267E+01 -.157E+01 0.302E-02
   0.195E+02 -.117E+02 0.227E+03   -.223E+02 0.132E+02 -.227E+03   0.270E+01 -.152E+01 0.322E-02
   0.357E+00 0.227E+02 0.227E+03   -.324E+00 -.259E+02 -.227E+03   -.284E-01 0.310E+01 0.282E-02
   0.360E+00 -.368E+02 0.303E+03   -.344E+00 0.431E+02 -.303E+03   -.128E-01 -.613E+01 0.772E-01
   0.317E+02 0.187E+02 0.303E+03   -.371E+02 -.218E+02 -.303E+03   0.532E+01 0.305E+01 0.774E-01
   -.321E+02 0.181E+02 0.303E+03   0.375E+02 -.212E+02 -.303E+03   -.530E+01 0.308E+01 0.778E-01
   0.552E-01 0.573E-01 -.227E+03   -.619E-01 -.492E-01 0.227E+03   0.851E-02 -.788E-02 0.425E-01
   0.384E+00 -.684E+00 -.228E+03   -.387E+00 0.708E+00 0.228E+03   0.969E-03 -.230E-01 0.223E-01
   0.879E-02 0.157E-01 -.228E+03   -.885E-02 -.164E-01 0.228E+03   -.463E-04 0.572E-03 0.131E-02
   -.786E+00 0.237E-01 -.228E+03   0.808E+00 -.328E-01 0.228E+03   -.202E-01 0.110E-01 0.225E-01
   -.649E-01 0.204E-02 -.227E+03   0.610E-01 -.114E-01 0.227E+03   0.235E-02 0.107E-01 0.424E-01
   -.669E-02 -.953E-02 -.225E+03   0.659E-02 0.975E-02 0.225E+03   0.299E-03 0.461E-04 0.461E-01
   0.279E-02 -.723E-01 -.227E+03   0.737E-02 0.736E-01 0.227E+03   -.109E-01 -.340E-02 0.423E-01
   0.407E+00 0.668E+00 -.227E+03   -.425E+00 -.682E+00 0.227E+03   0.191E-01 0.122E-01 0.233E-01
 -----------------------------------------------------------------------------------------------
   -.177E-03 0.779E-04 -.422E+00   0.494E-14 -.422E-14 -.171E-12   0.166E-03 0.553E-04 0.402E+00
 
 
 POSITION                                       TOTAL-FORCE (eV/Angst)
 -----------------------------------------------------------------------------------
      0.00570      0.01636      1.52252        -0.000005     -0.000053     -0.043464
      1.49517      0.87767      1.51067        -0.017487     -0.006481     -0.043160
     -1.48495      0.87559      1.51068         0.014156     -0.011986     -0.043161
      0.00689      3.14179      1.51063         0.003263      0.018262     -0.043123
      0.00689      1.58447      1.51096         0.003006     -0.218547     -0.033212
      2.84384      1.65631      1.51096         0.187739      0.111809     -0.033190
     -2.83360      1.65425      1.51092        -0.190827      0.106592     -0.033259
     -2.09809      1.21197      5.02673         0.002361     -0.000154      0.034765
     -0.69947      1.21207      5.02725        -0.002248     -0.000088      0.033064
      0.00019      0.00045      5.02614        -0.000107     -0.000183      0.034500
     -2.79746      2.42355      5.02731         0.001092      0.002499      0.033052
      0.00011      2.42355      5.02677        -0.001419      0.002088      0.034755
      1.39910      2.42345      5.02520         0.000207      0.000268      0.034553
      2.09852      1.21184      5.02671        -0.001426     -0.002349      0.034783
     -0.69929      3.63472      5.02725         0.001696     -0.001676      0.033097
 -----------------------------------------------------------------------------------
    total drift:                                0.000009      0.000106      0.000418


--------------------------------------------------------------------------------------------------------



  FREE ENERGIE OF THE ION-ELECTRON SYSTEM (eV)
  ---------------------------------------------------
  free  energy   TOTEN  =      -143.42499301 eV

  energy  without entropy=     -143.42499301  energy(sigma->0) =     -143.42499301
 


--------------------------------------------------------------------------------------------------------


    POTLOK:  cpu time      0.0717: real time      0.0722


--------------------------------------------------------------------------------------------------------


 stress matrix after NEB project (eV)
      0.00000      0.00000      0.00000
      0.00000      0.00000      0.00000
      0.00000      0.00000      0.00000
  FORCES: max atom, RMS     0.221095    0.104705
  FORCE total and by dimension    0.405520    0.218547
  Stress total and by dimension    0.000000    0.000000



 total charge

# of ion       s       p       d       tot
------------------------------------------
    1        0.665   1.363   0.000   2.029
    2        0.679   1.232   0.000   1.911
    3        0.679   1.232   0.000   1.911
    4        0.679   1.232   0.000   1.911
    5        0.833   1.715   0.000   2.548
    6        0.833   1.715   0.000   2.548
    7        0.833   1.715   0.000   2.548
    8        0.884   1.833   0.000   2.718
    9        0.884   1.833   0.000   2.717
   10        0.884   1.833   0.000   2.718
   11        0.884   1.833   0.000   2.717
   12        0.884   1.833   0.000   2.718
   13        0.884   1.832   0.000   2.717
   14        0.884   1.833   0.000   2.718
   15        0.884   1.833   0.000   2.717
--------------------------------------------------
tot         12.274  24.870   0.000  37.144
 



 total charge

# of ion       s       p       d       tot
------------------------------------------
    1        0.665   1.363   0.000   2.029
    2        0.679   1.232   0.000   1.911
    3        0.679   1.232   0.000   1.911
    4        0.679   1.232   0.000   1.911
    5        0.833   1.715   0.000   2.548
    6        0.833   1.715   0.000   2.548
    7        0.833   1.715   0.000   2.548
    8        0.884   1.833   0.000   2.718
    9        0.884   1.833   0.000   2.717
   10        0.884   1.833   0.000   2.718
   11        0.884   1.833   0.000   2.717
   12        0.884   1.833   0.000   2.718
   13        0.884   1.832   0.000   2.717
   14        0.884   1.833   0.000   2.718
   15        0.884   1.833   0.000   2.717
--------------------------------------------------
tot         12.274  24.870   0.000  37.144
 
 writing wavefunctions
     LOOP+:  cpu time  43568.5643: real time  43904.4517
    4ORBIT:  cpu time      0.0000: real time      0.0000



 total charge

# of ion       s       p       d       tot
------------------------------------------
    1        0.665   1.363   0.000   2.029
    2        0.679   1.232   0.000   1.911
    3        0.679   1.232   0.000   1.911
    4        0.679   1.232   0.000   1.911
    5        0.833   1.715   0.000   2.548
    6        0.833   1.715   0.000   2.548
    7        0.833   1.715   0.000   2.548
    8        0.884   1.833   0.000   2.718
    9        0.884   1.833   0.000   2.717
   10        0.884   1.833   0.000   2.718
   11        0.884   1.833   0.000   2.717
   12        0.884   1.833   0.000   2.718
   13        0.884   1.832   0.000   2.717
   14        0.884   1.833   0.000   2.718
   15        0.884   1.833   0.000   2.717
--------------------------------------------------
tot         12.274  24.870   0.000  37.144
 

 total amount of memory used by VASP MPI-rank0   256116. kBytes
=======================================================================

   base      :      30000. kBytes
   nonl-proj :      54082. kBytes
   fftplans  :       1102. kBytes
   grid      :       6496. kBytes
   one-center:         46. kBytes
   HF        :          9. kBytes
   nonlr-proj:       1536. kBytes
   wavefun   :      20238. kBytes
   fock_wrk  :     142607. kBytes
 
  
  
 General timing and accounting informations for this job:
 ========================================================
  
                  Total CPU time used (sec):    43579.496
                            User time (sec):    43432.272
                          System time (sec):      147.226
                         Elapsed time (sec):    43918.646
  
                   Maximum memory used (kb):     1109848.
                   Average memory used (kb):          N/A
  
                          Minor page faults:     70893941
                          Major page faults:         2003
                 Voluntary context switches:        18972
