Lattice                                 
           1
     4.182903    2.415000    0.000000
    -4.182903    2.415000    0.000000
     0.000000    0.000000   15.000000
   B    C 
     4    11
Direct configuration=     1
   0.00415361  0.00267210  0.12034134
   0.35695335  0.00285503  0.09748893
   0.00423858  0.35550699  0.09749256
   0.65142295  0.65006557  0.09747688
   0.32808646  0.32671938  0.10030508
   0.68027775  0.00278085  0.10027562
   0.00416530  0.67883808  0.10026559
   0.16666600  0.33333300  0.33720000
   0.33333300  0.16666600  0.33720000
   0.16666600  0.83333300  0.33720000
   0.33333300  0.66666600  0.33720000
   0.66666600  0.33333300  0.33720000
   0.83333300  0.16666600  0.33720000
   0.66666600  0.83333300  0.33720000
   0.83333300  0.66666600  0.33720000
Direct configuration=     2
   0.00418575  0.00275370  0.11908558
   0.35599766  0.00280156  0.09782046
   0.00419346  0.35456473  0.09782338
   0.65234938  0.65095944  0.09781590
   0.32502839  0.32362437  0.10031891
   0.68335653  0.00280237  0.10029970
   0.00420330  0.68194306  0.10029321
   0.16659625  0.33342481  0.33725942
   0.33342529  0.16659902  0.33726045
   0.16681973  0.83338957  0.33726216
   0.33333486  0.66667220  0.33711300
   0.66667133  0.33333132  0.33711299
   0.83338694  0.16681729  0.33726206
   0.66657235  0.83317749  0.33725986
   0.83317279  0.66657306  0.33725892
Direct configuration=     3
   0.00417016  0.00271413  0.11969450
   0.35646107  0.00282749  0.09765970
   0.00421534  0.35502163  0.09766297
   0.65190015  0.65052601  0.09765151
   0.32651125  0.32512514  0.10031220
   0.68186363  0.00279194  0.10028802
   0.00418487  0.68043746  0.10027982
   0.16663007  0.33338029  0.33723061
   0.33338054  0.16663150  0.33723114
   0.16674518  0.83336214  0.33723202
   0.33333396  0.66666919  0.33715519
   0.66666875  0.33333213  0.33715518
   0.83336079  0.16674393  0.33723197
   0.66661776  0.83325290  0.33723083
   0.83325048  0.66661812  0.33723035
Direct configuration=     4
   0.00418767  0.00277692  0.11847859
   0.35699374  0.00278048  0.09799870
   0.00418044  0.35557680  0.09800116
   0.65137028  0.64996478  0.09799861
   0.32663845  0.32522247  0.10029170
   0.68175032  0.00279668  0.10027855
   0.00420523  0.68033897  0.10027357
   0.16670778  0.33328516  0.33728986
   0.33328369  0.16670853  0.33729130
   0.16657102  0.83328812  0.33729363
   0.33332911  0.66666054  0.33708874
   0.66665966  0.33333160  0.33708872
   0.83328799  0.16657347  0.33729344
   0.66670774  0.83342064  0.33729034
   0.83342088  0.66670884  0.33728908
Direct configuration=     5
   0.00424019  0.00296526  0.11483086
   0.35859175  0.00263945  0.09901568
   0.00407575  0.35724230  0.09901575
   0.64978066  0.64828109  0.09903992
   0.32702005  0.32551447  0.10023020
   0.68141039  0.00281091  0.10025013
   0.00426629  0.68004349  0.10025482
   0.16694092  0.33299979  0.33746763
   0.33299315  0.16693961  0.33747179
   0.16604851  0.83306607  0.33747846
   0.33331459  0.66663459  0.33688938
   0.66663239  0.33333000  0.33688934
   0.83306958  0.16606210  0.33747786
   0.66697769  0.83392388  0.33746888
   0.83393208  0.66698098  0.33746528
Direct configuration=     6
   0.00424143  0.00297181  0.11429833
   0.35870876  0.00263255  0.09912943
   0.00407473  0.35736678  0.09912931
   0.64967045  0.64816346  0.09915593
   0.32713610  0.32562747  0.10025674
   0.68129853  0.00280504  0.10028045
   0.00426389  0.67993586  0.10028612
   0.16680424  0.33312864  0.33748407
   0.33312268  0.16680464  0.33748838
   0.16631324  0.83319137  0.33749522
   0.33331526  0.66664378  0.33689032
   0.66664048  0.33332649  0.33689029
   0.83319137  0.16632297  0.33749456
   0.66684808  0.83366144  0.33748527
   0.83366476  0.66685172  0.33748157
Direct configuration=     7
   0.00424465  0.00298870  0.11292363
   0.35901081  0.00261472  0.09942306
   0.00407210  0.35768809  0.09942246
   0.64938593  0.64785979  0.09945540
   0.32743569  0.32591917  0.10032526
   0.68100976  0.00278986  0.10035872
   0.00425771  0.67965802  0.10036693
   0.16645138  0.33346126  0.33752650
   0.33345706  0.16645622  0.33753121
   0.16699664  0.83351482  0.33753847
   0.33331699  0.66666750  0.33689277
   0.66666135  0.33331744  0.33689275
   0.83350577  0.16699639  0.33753767
   0.66651348  0.83298396  0.33752756
   0.83297468  0.66651807  0.33752363
Direct configuration=     8
   0.00424039  0.00297007  0.11235377
   0.35894550  0.00262872  0.09949592
   0.00409081  0.35762377  0.09949542
   0.64946120  0.64793830  0.09952851
   0.32753855  0.32603291  0.10040411
   0.68090673  0.00277740  0.10043966
   0.00424331  0.67955383  0.10044822
   0.16647931  0.33348495  0.33752982
   0.33348117  0.16648613  0.33753432
   0.16698275  0.83348046  0.33754112
   0.33331950  0.66666774  0.33693863
   0.66666113  0.33331851  0.33693862
   0.83347109  0.16698248  0.33754028
   0.66648844  0.83299496  0.33753063
   0.83298411  0.66649376  0.33752696
Direct configuration=     9
   0.00422762  0.00291419  0.11064419
   0.35874956  0.00267071  0.09971451
   0.00414696  0.35743082  0.09971430
   0.64968700  0.64817382  0.09974786
   0.32784713  0.32637414  0.10064067
   0.68059764  0.00274004  0.10068248
   0.00420011  0.67924126  0.10069211
   0.16656308  0.33355601  0.33753980
   0.33355349  0.16657588  0.33754365
   0.16694110  0.83337736  0.33754907
   0.33332705  0.66666845  0.33707621
   0.66666048  0.33332173  0.33707624
   0.83336706  0.16694078  0.33754810
   0.66641331  0.83302798  0.33753984
   0.83301240  0.66642085  0.33753696
Direct configuration=    10
   0.00420207  0.00280243  0.10722503
   0.35835769  0.00275470  0.10015169
   0.00425926  0.35704492  0.10015206
   0.65013860  0.64864488  0.10018656
   0.32846429  0.32705658  0.10111378
   0.67997946  0.00266530  0.10116813
   0.00411370  0.67861610  0.10117990
   0.16673062  0.33369813  0.33755975
   0.33369814  0.16675536  0.33756231
   0.16685781  0.83317116  0.33756497
   0.33334214  0.66666987  0.33735139
   0.66665918  0.33332817  0.33735149
   0.83315901  0.16685736  0.33756374
   0.66626306  0.83309402  0.33755824
   0.83306897  0.66627502  0.33755697
Direct configuration=    11
   0.00423730  0.00283130  0.10603466
   0.35867461  0.00280584  0.10034892
   0.00428255  0.35730382  0.10035010
   0.64978700  0.64833280  0.10037905
   0.32825904  0.32686803  0.10123128
   0.68014994  0.00271815  0.10128292
   0.00414882  0.67874132  0.10129372
   0.16656372  0.33295762  0.33756506
   0.33293942  0.16656121  0.33756696
   0.16642088  0.83342210  0.33756849
   0.33327081  0.66663442  0.33746573
   0.66662917  0.33329939  0.33746582
   0.83341407  0.16643587  0.33756727
   0.66698934  0.83352808  0.33756331
   0.83352733  0.66699406  0.33756271
Direct configuration=    12
   0.00422658  0.00282251  0.10639698
   0.35857815  0.00279027  0.10028889
   0.00427546  0.35722502  0.10028982
   0.64989402  0.64842779  0.10032046
   0.32832151  0.32692542  0.10119552
   0.68009805  0.00270206  0.10124798
   0.00413813  0.67870321  0.10125907
   0.16661452  0.33318301  0.33756344
   0.33317035  0.16662030  0.33756555
   0.16655387  0.83334572  0.33756742
   0.33329252  0.66664521  0.33743092
   0.66663830  0.33330815  0.33743102
   0.83333643  0.16656416  0.33756620
   0.66676828  0.83339596  0.33756177
   0.83338782  0.66677520  0.33756096
Direct configuration=    13
   0.00424656  0.00284818  0.10600585
   0.35902607  0.00280841  0.10040619
   0.00425928  0.35762436  0.10040767
   0.64941014  0.64797477  0.10043220
   0.32801958  0.32661648  0.10117904
   0.68038835  0.00276830  0.10122446
   0.00419323  0.67896340  0.10123386
   0.16655626  0.33321571  0.33756911
   0.33320451  0.16656136  0.33757093
   0.16662880  0.83340676  0.33757257
   0.33329499  0.66663596  0.33746893
   0.66662367  0.33330956  0.33746899
   0.83339796  0.16664229  0.33757142
   0.66672642  0.83332100  0.33756770
   0.83331817  0.66673745  0.33756710
Direct configuration=    14
   0.00426333  0.00286973  0.10567761
   0.35940197  0.00282363  0.10050464
   0.00424570  0.35795950  0.10050657
   0.64900407  0.64759459  0.10052596
   0.32776620  0.32635721  0.10116521
   0.68063197  0.00282388  0.10120471
   0.00423947  0.67918176  0.10121269
   0.16650737  0.33324316  0.33757387
   0.33323318  0.16651189  0.33757545
   0.16669169  0.83345798  0.33757688
   0.33329707  0.66662821  0.33750082
   0.66661139  0.33331074  0.33750085
   0.83344960  0.16670787  0.33757580
   0.66669128  0.83325809  0.33757267
   0.83325971  0.66670577  0.33757224
Direct configuration=    15
   0.00421364  0.00278958  0.10546442
   0.35951721  0.00280866  0.10059125
   0.00422067  0.35808445  0.10059327
   0.64891181  0.64750582  0.10060762
   0.32786062  0.32643657  0.10113031
   0.68059120  0.00282763  0.10116162
   0.00424704  0.67916414  0.10116786
   0.16674613  0.33341162  0.33758575
   0.33339971  0.16676015  0.33758731
   0.16663336  0.83317763  0.33758901
   0.33329908  0.66666541  0.33750502
   0.66666043  0.33330586  0.33750502
   0.83316190  0.16663547  0.33758798
   0.66654358  0.83331142  0.33758504
   0.83328764  0.66654959  0.33758453
Direct configuration=    16
   0.00423058  0.00281691  0.10553710
   0.35947792  0.00281376  0.10056173
   0.00422920  0.35804186  0.10056371
   0.64894326  0.64753608  0.10057978
   0.32782843  0.32640951  0.10114221
   0.68060510  0.00282635  0.10117631
   0.00424446  0.67917015  0.10118314
   0.16666473  0.33335419  0.33758170
   0.33334294  0.16667551  0.33758327
   0.16665325  0.83327321  0.33758488
   0.33329839  0.66665273  0.33750359
   0.66664371  0.33330752  0.33750360
   0.83325998  0.16666015  0.33758383
   0.66659393  0.83329323  0.33758082
   0.83327812  0.66660283  0.33758034
Direct configuration=    17
   0.00419126  0.00275385  0.10540862
   0.35939224  0.00280016  0.10061670
   0.00421618  0.35797507  0.10061864
   0.64905712  0.64764367  0.10063086
   0.32799159  0.32656370  0.10111582
   0.68048340  0.00281211  0.10114251
   0.00423503  0.67907148  0.10114778
   0.16664052  0.33333384  0.33759465
   0.33332432  0.16665586  0.33759631
   0.16663485  0.83328913  0.33759832
   0.33330696  0.66664979  0.33749534
   0.66664062  0.33331379  0.33749534
   0.83327826  0.16664367  0.33759732
   0.66661285  0.83330479  0.33759422
   0.83328879  0.66662309  0.33759357
Direct configuration=    18
   0.00415291  0.00269233  0.10528326
   0.35930865  0.00278689  0.10067034
   0.00420348  0.35790990  0.10067224
   0.64916820  0.64774863  0.10068070
   0.32815077  0.32671413  0.10109008
   0.68036468  0.00279821  0.10110954
   0.00422583  0.67897521  0.10111328
   0.16661690  0.33331398  0.33760728
   0.33330616  0.16663668  0.33760903
   0.16661689  0.83330467  0.33761143
   0.33331532  0.66664693  0.33748729
   0.66663760  0.33331991  0.33748729
   0.83329608  0.16662760  0.33761048
   0.66663131  0.83331606  0.33760729
   0.83329921  0.66664286  0.33760647
Direct configuration=    19
   0.00420619  0.00277424  0.10511828
   0.35918574  0.00280950  0.10070844
   0.00422172  0.35776156  0.10071043
   0.64926939  0.64785118  0.10071454
   0.32804656  0.32662041  0.10108716
   0.68042170  0.00281534  0.10109762
   0.00423454  0.67900108  0.10109937
   0.16658174  0.33328935  0.33762284
   0.33327391  0.16658382  0.33762469
   0.16669938  0.83337622  0.33762737
   0.33327802  0.66664073  0.33748179
   0.66662739  0.33329561  0.33748178
   0.83336051  0.16671003  0.33762651
   0.66664482  0.83324930  0.33762310
   0.83324239  0.66665562  0.33762207
Direct configuration=    20
   0.00420802  0.00277707  0.10511259
   0.35918150  0.00281028  0.10070975
   0.00422235  0.35775645  0.10071175
   0.64927289  0.64785471  0.10071571
   0.32804297  0.32661718  0.10108706
   0.68042366  0.00281593  0.10109721
   0.00423484  0.67900197  0.10109889
   0.16658052  0.33328850  0.33762338
   0.33327280  0.16658199  0.33762523
   0.16670222  0.83337869  0.33762792
   0.33327673  0.66664052  0.33748160
   0.66662704  0.33329477  0.33748159
   0.83336274  0.16671287  0.33762707
   0.66664528  0.83324700  0.33762364
   0.83324043  0.66665606  0.33762261
Direct configuration=    21
   0.00425864  0.00285538  0.10494245
   0.35916130  0.00282942  0.10072782
   0.00424138  0.35771544  0.10072992
   0.64927201  0.64785399  0.10073067
   0.32794377  0.32652850  0.10110254
   0.68048054  0.00282764  0.10110484
   0.00424083  0.67903173  0.10110484
   0.16661793  0.33331596  0.33763744
   0.33330417  0.16662695  0.33763934
   0.16664876  0.83332522  0.33764215
   0.33329224  0.66663583  0.33748411
   0.66662017  0.33330491  0.33748410
   0.83331261  0.16666180  0.33764139
   0.66661571  0.83329171  0.33763777
   0.83328392  0.66662952  0.33763661
Direct configuration=    22
   0.00428750  0.00290005  0.10484542
   0.35914978  0.00284034  0.10073812
   0.00425223  0.35769206  0.10074027
   0.64927152  0.64785358  0.10073920
   0.32788720  0.32647792  0.10111137
   0.68051298  0.00283432  0.10110919
   0.00424425  0.67904870  0.10110823
   0.16663926  0.33333162  0.33764547
   0.33332207  0.16665260  0.33764740
   0.16661827  0.83329473  0.33765027
   0.33330109  0.66663315  0.33748554
   0.66661626  0.33331070  0.33748553
   0.83328403  0.16663266  0.33764956
   0.66659885  0.83331720  0.33764583
   0.83330872  0.66661437  0.33764459
Direct configuration=    23
   0.00429235  0.00290728  0.10473596
   0.35918115  0.00284077  0.10074605
   0.00425615  0.35772511  0.10074821
   0.64924205  0.64782134  0.10074576
   0.32789229  0.32648418  0.10112368
   0.68050769  0.00283058  0.10111729
   0.00424192  0.67904325  0.10111545
   0.16663786  0.33332908  0.33765364
   0.33331932  0.16665412  0.33765558
   0.16661241  0.83328726  0.33765846
   0.33330337  0.66663705  0.33749069
   0.66662217  0.33331196  0.33749068
   0.83327638  0.16662598  0.33765780
   0.66660296  0.83331834  0.33765401
   0.83330592  0.66661769  0.33765272
Direct configuration=    24
   0.00430690  0.00292897  0.10440757
   0.35927526  0.00284205  0.10076986
   0.00426790  0.35782426  0.10077203
   0.64915363  0.64772464  0.10076546
   0.32790758  0.32650297  0.10116058
   0.68049181  0.00281936  0.10114159
   0.00423492  0.67902692  0.10113711
   0.16663364  0.33332144  0.33767816
   0.33331108  0.16665869  0.33768014
   0.16659486  0.83326488  0.33768305
   0.33331024  0.66664875  0.33750614
   0.66663991  0.33331573  0.33750612
   0.83325344  0.16660594  0.33768253
   0.66661531  0.83332175  0.33767856
   0.83329751  0.66662765  0.33767711
Direct configuration=    25
   0.00433600  0.00297234  0.10375079
   0.35946348  0.00284461  0.10081746
   0.00429141  0.35802258  0.10081967
   0.64897680  0.64753123  0.10080484
   0.32793815  0.32654055  0.10123440
   0.68046005  0.00279692  0.10119019
   0.00422094  0.67899425  0.10118043
   0.16662520  0.33330616  0.33772720
   0.33329460  0.16666783  0.33772926
   0.16655974  0.83322012  0.33773222
   0.33332398  0.66667214  0.33753702
   0.66667539  0.33332328  0.33753700
   0.83320755  0.16656586  0.33773198
   0.66664001  0.83332856  0.33772764
   0.83328071  0.66664757  0.33772589
Direct configuration=    26
   0.00439419  0.00305909  0.10243724
   0.35983991  0.00284974  0.10091268
   0.00433843  0.35841920  0.10091493
   0.64862313  0.64714442  0.10088360
   0.32799928  0.32661570  0.10138203
   0.68039653  0.00275205  0.10128740
   0.00419296  0.67892890  0.10126708
   0.16660833  0.33327561  0.33782528
   0.33326164  0.16668611  0.33782750
   0.16648950  0.83313058  0.33783057
   0.33335144  0.66671893  0.33759879
   0.66674636  0.33333839  0.33759877
   0.83311578  0.16648569  0.33783088
   0.66668941  0.83334219  0.33782580
   0.83324710  0.66668740  0.33782345
Direct configuration=    27
   0.00435075  0.00299434  0.10341777
   0.35955891  0.00284591  0.10084160
   0.00430333  0.35812313  0.10084382
   0.64888713  0.64743316  0.10082481
   0.32795365  0.32655960  0.10127183
   0.68044395  0.00278555  0.10121484
   0.00421385  0.67897768  0.10120240
   0.16662093  0.33329842  0.33775206
   0.33328624  0.16667247  0.33775417
   0.16654193  0.83319742  0.33775716
   0.33333094  0.66668400  0.33755268
   0.66669338  0.33332711  0.33755266
   0.83318429  0.16654553  0.33775706
   0.66665253  0.83333201  0.33775253
   0.83327219  0.66665766  0.33775062
Direct configuration=    28
   0.00432560  0.00295432  0.10322000
   0.35956924  0.00283376  0.10086555
   0.00429643  0.35814933  0.10086775
   0.64889942  0.64744093  0.10084766
   0.32798516  0.32658401  0.10128085
   0.68044077  0.00277573  0.10121888
   0.00421042  0.67899182  0.10120541
   0.16659263  0.33329583  0.33776526
   0.33328146  0.16662866  0.33776732
   0.16659200  0.83326628  0.33777023
   0.33330740  0.66665684  0.33756880
   0.66665277  0.33331299  0.33756878
   0.83325122  0.16660278  0.33777016
   0.66663287  0.83329609  0.33776563
   0.83325661  0.66664464  0.33776372
Direct configuration=    29
   0.00427613  0.00287563  0.10283110
   0.35958953  0.00280986  0.10091265
   0.00428285  0.35820083  0.10091480
   0.64892359  0.64745621  0.10089259
   0.32804712  0.32663201  0.10129861
   0.68043454  0.00275641  0.10122683
   0.00420369  0.67901963  0.10121132
   0.16653699  0.33329075  0.33779120
   0.33327204  0.16654251  0.33779319
   0.16669048  0.83340170  0.33779593
   0.33326112  0.66660342  0.33760050
   0.66657291  0.33328523  0.33760048
   0.83338284  0.16671534  0.33779594
   0.66659421  0.83322544  0.33779140
   0.83322597  0.66661903  0.33778946
Direct configuration=    30
   0.00424312  0.00282291  0.10260722
   0.35953579  0.00279593  0.10095478
   0.00426776  0.35815884  0.10095694
   0.64900096  0.64753457  0.10093548
   0.32807036  0.32664285  0.10128841
   0.68044654  0.00275917  0.10121521
   0.00421147  0.67904870  0.10119946
   0.16656241  0.33328849  0.33780427
   0.33326679  0.16656110  0.33780610
   0.16668619  0.83338949  0.33780861
   0.33324435  0.66659717  0.33762726
   0.66656277  0.33327414  0.33762724
   0.83336738  0.16671176  0.33780860
   0.66658769  0.83323542  0.33780410
   0.83324044  0.66661345  0.33780231
Direct configuration=    31
   0.00414410  0.00266476  0.10193558
   0.35937455  0.00275413  0.10108117
   0.00422251  0.35803287  0.10108336
   0.64923309  0.64776966  0.10106413
   0.32814008  0.32667539  0.10125783
   0.68048254  0.00276747  0.10118036
   0.00423479  0.67913591  0.10116389
   0.16663865  0.33328171  0.33784350
   0.33325103  0.16661687  0.33784483
   0.16667331  0.83335286  0.33784666
   0.33319403  0.66657842  0.33770753
   0.66653235  0.33324088  0.33770752
   0.83332098  0.16670100  0.33784659
   0.66656812  0.83326536  0.33784221
   0.83328388  0.66659670  0.33784085
Direct configuration=    32
   0.00411276  0.00261472  0.10172308
   0.35932353  0.00274091  0.10112115
   0.00420819  0.35799302  0.10112336
   0.64930653  0.64784404  0.10110483
   0.32816213  0.32668568  0.10124815
   0.68049394  0.00277010  0.10116933
   0.00424217  0.67916350  0.10115263
   0.16666278  0.33327956  0.33785591
   0.33324605  0.16663452  0.33785708
   0.16666923  0.83334127  0.33785869
   0.33317811  0.66657249  0.33773292
   0.66652273  0.33323035  0.33773292
   0.83330630  0.16669760  0.33785861
   0.66656193  0.83327484  0.33785427
   0.83329762  0.66659140  0.33785304
Direct configuration=    33
   0.00415703  0.00268004  0.10140280
   0.35929715  0.00276260  0.10118703
   0.00421457  0.35792883  0.10118932
   0.64929943  0.64785117  0.10117372
   0.32816509  0.32669044  0.10122241
   0.68046962  0.00281312  0.10114677
   0.00427436  0.67910471  0.10113093
   0.16660263  0.33328159  0.33787491
   0.33325635  0.16661679  0.33787592
   0.16661096  0.83329555  0.33787713
   0.33324409  0.66661031  0.33777185
   0.66658172  0.33327208  0.33777184
   0.83326921  0.16663440  0.33787702
   0.66658827  0.83327966  0.33787270
   0.83326351  0.66661273  0.33787166
Direct configuration=    34
   0.00420591  0.00275215  0.10104921
   0.35926803  0.00278655  0.10125976
   0.00422162  0.35785797  0.10126215
   0.64929159  0.64785904  0.10124977
   0.32816836  0.32669568  0.10119398
   0.68044277  0.00286062  0.10112186
   0.00430990  0.67903980  0.10110697
   0.16653624  0.33328383  0.33789588
   0.33326772  0.16659721  0.33789671
   0.16654663  0.83324506  0.33789748
   0.33331693  0.66665206  0.33781483
   0.66664685  0.33331816  0.33781482
   0.83322826  0.16656463  0.33789734
   0.66661734  0.83328498  0.33789305
   0.83322586  0.66663628  0.33789220
Direct configuration=    35
   0.00426681  0.00284015  0.10089238
   0.35933296  0.00282026  0.10128638
   0.00424731  0.35788663  0.10128879
   0.64919030  0.64776479  0.10127946
   0.32814638  0.32668880  0.10118176
   0.68042118  0.00288154  0.10111704
   0.00431863  0.67898012  0.10110384
   0.16654921  0.33327962  0.33790727
   0.33325633  0.16658381  0.33790809
   0.16660139  0.83329445  0.33790893
   0.33327128  0.66662432  0.33782773
   0.66660482  0.33328983  0.33782772
   0.83327049  0.16662414  0.33790876
   0.66659635  0.83325579  0.33790431
   0.83322055  0.66661973  0.33790354
Direct configuration=    36
   0.00429354  0.00287877  0.10082355
   0.35936146  0.00283506  0.10129806
   0.00425858  0.35789921  0.10130048
   0.64914584  0.64772343  0.10129249
   0.32813673  0.32668578  0.10117640
   0.68041171  0.00289072  0.10111493
   0.00432247  0.67895393  0.10110247
   0.16655491  0.33327778  0.33791227
   0.33325133  0.16657793  0.33791308
   0.16662543  0.83331613  0.33791396
   0.33325124  0.66661215  0.33783339
   0.66658637  0.33327739  0.33783339
   0.83328902  0.16665026  0.33791377
   0.66658714  0.83324298  0.33790925
   0.83321822  0.66661247  0.33790852
Direct configuration=    37
   0.00429171  0.00286957  0.10075759
   0.35941289  0.00284316  0.10130103
   0.00427154  0.35795641  0.10130346
   0.64910924  0.64768144  0.10129783
   0.32811394  0.32666963  0.10117506
   0.68043365  0.00287280  0.10112162
   0.00430517  0.67897897  0.10111090
   0.16657751  0.33327601  0.33791924
   0.33324891  0.16659515  0.33792020
   0.16661315  0.83330639  0.33792129
   0.33323938  0.66660401  0.33783225
   0.66657271  0.33326935  0.33783224
   0.83327848  0.16663994  0.33792106
   0.66658120  0.83326248  0.33791651
   0.83324451  0.66660871  0.33791571
Direct configuration=    38
   0.00428980  0.00286000  0.10068910
   0.35946630  0.00285158  0.10130412
   0.00428500  0.35801581  0.10130656
   0.64907123  0.64763783  0.10130338
   0.32809027  0.32665286  0.10117366
   0.68045644  0.00285419  0.10112858
   0.00428722  0.67900496  0.10111966
   0.16660098  0.33327416  0.33792648
   0.33324639  0.16661303  0.33792760
   0.16660040  0.83329627  0.33792891
   0.33322707  0.66659555  0.33783106
   0.66655853  0.33326100  0.33783104
   0.83326754  0.16662923  0.33792862
   0.66657503  0.83328272  0.33792404
   0.83327180  0.66660480  0.33792319
Direct configuration=    39
   0.00427232  0.00282703  0.10061459
   0.35950155  0.00285322  0.10130274
   0.00429443  0.35806646  0.10130520
   0.64906423  0.64762245  0.10130517
   0.32807301  0.32663995  0.10117351
   0.68048531  0.00282879  0.10114073
   0.00426620  0.67904654  0.10113442
   0.16656245  0.33327460  0.33793554
   0.33324814  0.16658959  0.33793695
   0.16660013  0.83329526  0.33793855
   0.33325172  0.66661260  0.33782704
   0.66658617  0.33327708  0.33782702
   0.83326801  0.16662579  0.33793818
   0.66658691  0.83326120  0.33793369
   0.83323342  0.66661342  0.33793268
Direct configuration=    40
   0.00427083  0.00282423  0.10060825
   0.35950455  0.00285336  0.10130262
   0.00429524  0.35807077  0.10130508
   0.64906363  0.64762114  0.10130532
   0.32807154  0.32663885  0.10117349
   0.68048777  0.00282663  0.10114176
   0.00426441  0.67905007  0.10113567
   0.16655917  0.33327463  0.33793632
   0.33324829  0.16658759  0.33793775
   0.16660011  0.83329518  0.33793937
   0.33325382  0.66661405  0.33782670
   0.66658852  0.33327845  0.33782668
   0.83326805  0.16662550  0.33793899
   0.66658792  0.83325937  0.33793451
   0.83323016  0.66661416  0.33793349
Direct configuration=    41
   0.00427203  0.00282749  0.10058478
   0.35948309  0.00285161  0.10130102
   0.00429340  0.35804841  0.10130344
   0.64908412  0.64764172  0.10130476
   0.32808348  0.32664961  0.10117208
   0.68047807  0.00282999  0.10114615
   0.00426892  0.67903969  0.10114126
   0.16655630  0.33327564  0.33793953
   0.33324936  0.16658533  0.33794108
   0.16660298  0.83329729  0.33794279
   0.33325389  0.66661332  0.33782589
   0.66658747  0.33327854  0.33782588
   0.83327027  0.16662879  0.33794237
   0.66658560  0.83325442  0.33793804
   0.83322502  0.66661214  0.33793694
Direct configuration=    42
   0.00427519  0.00283607  0.10052298
   0.35942659  0.00284700  0.10129680
   0.00428857  0.35798956  0.10129912
   0.64913805  0.64769591  0.10130327
   0.32811491  0.32667795  0.10116835
   0.68045252  0.00283883  0.10115769
   0.00428080  0.67901236  0.10115595
   0.16654874  0.33327829  0.33794800
   0.33325219  0.16657938  0.33794987
   0.16661052  0.83330284  0.33795180
   0.33325409  0.66661138  0.33782378
   0.66658472  0.33327875  0.33782379
   0.83327612  0.16663744  0.33795125
   0.66657950  0.83324140  0.33794734
   0.83321150  0.66660683  0.33794602
Direct configuration=    43
   0.00427831  0.00284146  0.10049557
   0.35941354  0.00284506  0.10129750
   0.00428631  0.35797501  0.10129977
   0.64914925  0.64770753  0.10130488
   0.32812134  0.32668194  0.10116368
   0.68044779  0.00284445  0.10115934
   0.00428726  0.67900706  0.10115888
   0.16656355  0.33327260  0.33795130
   0.33324472  0.16659026  0.33795326
   0.16659633  0.83329224  0.33795529
   0.33324591  0.66660862  0.33782563
   0.66658031  0.33327335  0.33782565
   0.83326361  0.16662331  0.33795468
   0.66658217  0.83326122  0.33795096
   0.83323358  0.66660990  0.33794961
Direct configuration=    44
   0.00427886  0.00284243  0.10049066
   0.35941120  0.00284471  0.10129763
   0.00428590  0.35797241  0.10129988
   0.64915125  0.64770961  0.10130517
   0.32812250  0.32668266  0.10116284
   0.68044695  0.00284545  0.10115964
   0.00428842  0.67900611  0.10115941
   0.16656620  0.33327158  0.33795189
   0.33324339  0.16659221  0.33795386
   0.16659379  0.83329035  0.33795591
   0.33324445  0.66660813  0.33782596
   0.66657952  0.33327238  0.33782598
   0.83326137  0.16662078  0.33795530
   0.66658265  0.83326476  0.33795161
   0.83323754  0.66661045  0.33795025
Direct configuration=    45
   0.00428055  0.00284430  0.10046829
   0.35941705  0.00284357  0.10130076
   0.00428481  0.35797796  0.10130296
   0.64914591  0.64770433  0.10130870
   0.32811941  0.32667720  0.10115628
   0.68045215  0.00284899  0.10115741
   0.00429228  0.67901179  0.10115804
   0.16656526  0.33326954  0.33795418
   0.33324104  0.16659110  0.33795615
   0.16659225  0.83329016  0.33795829
   0.33324267  0.66660749  0.33783021
   0.66657814  0.33327101  0.33783023
   0.83326088  0.16661976  0.33795765
   0.66658270  0.83326571  0.33795408
   0.83323889  0.66661110  0.33795276
Direct configuration=    46
   0.00428561  0.00284991  0.10040118
   0.35943458  0.00284015  0.10131017
   0.00428155  0.35799461  0.10131220
   0.64912988  0.64768849  0.10131930
   0.32811014  0.32666085  0.10113657
   0.68046778  0.00285961  0.10115074
   0.00430384  0.67902880  0.10115396
   0.16656244  0.33326344  0.33796102
   0.33323400  0.16658776  0.33796300
   0.16658764  0.83328960  0.33796545
   0.33323732  0.66660558  0.33784296
   0.66657400  0.33326690  0.33784297
   0.83325941  0.16661669  0.33796469
   0.66658285  0.83326855  0.33796150
   0.83324297  0.66661305  0.33796028
Direct configuration=    47
   0.00429573  0.00286112  0.10026695
   0.35946964  0.00283332  0.10132899
   0.00427503  0.35802790  0.10133067
   0.64909783  0.64765682  0.10134049
   0.32809161  0.32662813  0.10109717
   0.68049903  0.00288085  0.10113740
   0.00432697  0.67906284  0.10114579
   0.16655679  0.33325124  0.33797471
   0.33321992  0.16658109  0.33797671
   0.16657840  0.83328849  0.33797975
   0.33322662  0.66660175  0.33786846
   0.66656572  0.33325869  0.33786845
   0.83325646  0.16661056  0.33797879
   0.66658314  0.83327424  0.33797634
   0.83325112  0.66661696  0.33797533
Direct configuration=    48
   0.00429458  0.00285968  0.10024572
   0.35947211  0.00283367  0.10133113
   0.00427597  0.35803061  0.10133277
   0.64909836  0.64765690  0.10134282
   0.32809466  0.32663115  0.10109314
   0.68050066  0.00288006  0.10113598
   0.00432625  0.67906348  0.10114489
   0.16655296  0.33325650  0.33797696
   0.33322510  0.16657954  0.33797896
   0.16658298  0.83328904  0.33798208
   0.33322990  0.66660149  0.33787201
   0.66656697  0.33326164  0.33787200
   0.83325697  0.16661461  0.33798110
   0.66657847  0.83326424  0.33797871
   0.83323806  0.66661140  0.33797773
Direct configuration=    49
   0.00429113  0.00285537  0.10018202
   0.35947954  0.00283470  0.10133757
   0.00427877  0.35803872  0.10133909
   0.64909995  0.64765712  0.10134981
   0.32810378  0.32664019  0.10108105
   0.68050558  0.00287771  0.10113172
   0.00432410  0.67906538  0.10114218
   0.16654147  0.33327228  0.33798374
   0.33324064  0.16657491  0.33798570
   0.16659672  0.83329070  0.33798907
   0.33323976  0.66660072  0.33788264
   0.66657071  0.33327048  0.33788263
   0.83325851  0.16662676  0.33798804
   0.66656446  0.83323424  0.33798581
   0.83319887  0.66659471  0.33798492
Direct configuration=    50
   0.00428923  0.00285228  0.10015230
   0.35947679  0.00283805  0.10133888
   0.00428358  0.35803628  0.10134037
   0.64910933  0.64766512  0.10135105
   0.32811229  0.32665150  0.10107925
   0.68050260  0.00287252  0.10113098
   0.00431893  0.67906007  0.10114165
   0.16654077  0.33327265  0.33798724
   0.33324101  0.16657599  0.33798918
   0.16659385  0.83328727  0.33799262
   0.33324038  0.66660065  0.33788653
   0.66657085  0.33327068  0.33788653