Lattice                                 
           1
     4.321467    2.495000    0.000000
    -4.321467    2.495000    0.000000
     0.000000    0.000000   15.000000
   B    C 
     8     8
Direct configuration=     1
   0.66888689  0.00000000  0.10000000
   0.33111211  0.00000000  0.10000000
   0.00000000  0.33111211  0.10000000
   0.00000000  0.66888689  0.10000000
   0.33111211  0.33111211  0.10000000
   0.66888689  0.66888689  0.10000000
   0.66666600  0.33333300  0.09922189
   0.33333300  0.66666600  0.10077811
   0.24999933  0.24999967  0.46906667
   0.41666633  0.08333267  0.46906667
   0.24999933  0.74999967  0.46906667
   0.41666633  0.58333267  0.46906667
   0.74999933  0.24999967  0.46906667
   0.91666633  0.08333267  0.46906667
   0.74999933  0.74999967  0.46906667
   0.91666633  0.58333267  0.46906667
Direct configuration=     2
   0.67030394 -0.00000013  0.10002635
   0.32969521 -0.00000016  0.10002642
   0.00000013  0.32969506  0.10002635
   0.00000016  0.67030379  0.10002642
   0.32969490  0.32969484  0.10002643
   0.67030416  0.67030410  0.10002643
   0.66666609  0.33333291  0.09924758
   0.33333255  0.66666645  0.10081156
   0.24999509  0.24999489  0.46903975
   0.41666297  0.08333420  0.46903920
   0.24999892  0.75000008  0.46903880
   0.41666705  0.58333195  0.46903944
   0.75000222  0.24999678  0.46903957
   0.91666736  0.08333164  0.46904011
   0.75000411  0.75000391  0.46903975
   0.91666480  0.58333603  0.46903920
Direct configuration=     3
   0.66963184 -0.00000007  0.10001385
   0.33036724 -0.00000008  0.10001389
   0.00000007  0.33036716  0.10001385
   0.00000008  0.66963176  0.10001389
   0.33036708  0.33036704  0.10001389
   0.66963196  0.66963192  0.10001389
   0.66666604  0.33333296  0.09923539
   0.33333276  0.66666624  0.10079570
   0.24999710  0.24999715  0.46905252
   0.41666457  0.08333347  0.46905222
   0.24999912  0.74999988  0.46905202
   0.41666671  0.58333229  0.46905235
   0.75000085  0.24999815  0.46905242
   0.91666687  0.08333213  0.46905270
   0.75000185  0.75000190  0.46905252
   0.91666553  0.58333443  0.46905222
Direct configuration=     4
   0.66963509 -0.00000007  0.10001391
   0.33036399 -0.00000008  0.10001395
   0.00000007  0.33036391  0.10001391
   0.00000008  0.66963501  0.10001395
   0.33036382  0.33036379  0.10001395
   0.66963521  0.66963518  0.10001395
   0.66666605  0.33333295  0.09923545
   0.33333276  0.66666624  0.10079578
   0.24999709  0.24999714  0.46905245
   0.41666456  0.08333347  0.46905216
   0.24999912  0.74999988  0.46905195
   0.41666671  0.58333229  0.46905229
   0.75000086  0.24999814  0.46905236
   0.91666687  0.08333213  0.46905264
   0.75000186  0.75000191  0.46905245
   0.91666553  0.58333444  0.46905216
Direct configuration=     5
   0.66963384 -0.00000007  0.10001389
   0.33036524 -0.00000008  0.10001393
   0.00000007  0.33036516  0.10001389
   0.00000008  0.66963376  0.10001393
   0.33036507  0.33036504  0.10001393
   0.66963396  0.66963393  0.10001393
   0.66666604  0.33333296  0.09923543
   0.33333276  0.66666624  0.10079575
   0.24999710  0.24999715  0.46905248
   0.41666456  0.08333347  0.46905219
   0.24999912  0.74999988  0.46905198
   0.41666671  0.58333229  0.46905231
   0.75000086  0.24999814  0.46905238
   0.91666687  0.08333213  0.46905267
   0.75000185  0.75000190  0.46905248
   0.91666553  0.58333444  0.46905219
Direct configuration=     6
   0.66963284 -0.00000007  0.10001387
   0.33036624 -0.00000008  0.10001391
   0.00000007  0.33036616  0.10001387
   0.00000008  0.66963276  0.10001391
   0.33036607  0.33036604  0.10001391
   0.66963296  0.66963293  0.10001391
   0.66666604  0.33333296  0.09923541
   0.33333276  0.66666624  0.10079572
   0.24999710  0.24999715  0.46905250
   0.41666456  0.08333347  0.46905221
   0.24999912  0.74999988  0.46905200
   0.41666671  0.58333229  0.46905233
   0.75000085  0.24999815  0.46905240
   0.91666687  0.08333213  0.46905269
   0.75000185  0.75000190  0.46905250
   0.91666553  0.58333444  0.46905221
Direct configuration=     7
   0.66963297 -0.00000009  0.10003806
   0.33036626 -0.00000005  0.10003816
   0.00000009  0.33036603  0.10003806
   0.00000005  0.66963274  0.10003816
   0.33036613  0.33036608  0.10003818
   0.66963292  0.66963287  0.10003818
   0.66666602  0.33333298  0.09926129
   0.33333274  0.66666626  0.10082330
   0.24999994  0.25000116  0.46902782
   0.41666743  0.08333188  0.46902715
   0.24999902  0.74999998  0.46902668
   0.41666647  0.58333253  0.46902744
   0.74999820  0.25000080  0.46902761
   0.91666646  0.08333254  0.46902825
   0.74999784  0.74999906  0.46902782
   0.91666712  0.58333157  0.46902715
Direct configuration=     8
   0.66963334 -0.00000018  0.10011065
   0.33036634  0.00000004  0.10011094
   0.00000018  0.33036566  0.10011065
  -0.00000004  0.66963266  0.10011094
   0.33036628  0.33036618  0.10011099
   0.66963282  0.66963272  0.10011099
   0.66666595  0.33333305  0.09933893
   0.33333268  0.66666632  0.10090601
   0.25000844  0.25001320  0.46895381
   0.41667604  0.08332709  0.46895197
   0.24999871  0.75000029  0.46895073
   0.41666574  0.58333326  0.46895276
   0.74999024  0.25000876  0.46895323
   0.91666524  0.08333376  0.46895496
   0.74998580  0.74999056  0.46895381
   0.91667191  0.58332296  0.46895197
Direct configuration=     9
   0.66963408 -0.00000035  0.10025582
   0.33036650  0.00000022  0.10025649
   0.00000035  0.33036492  0.10025582
  -0.00000022  0.66963250  0.10025649
   0.33036659  0.33036639  0.10025660
   0.66963261  0.66963241  0.10025660
   0.66666580  0.33333320  0.09949420
   0.33333255  0.66666645  0.10107145
   0.25002546  0.25003728  0.46880578
   0.41669324  0.08331752  0.46880163
   0.24999810  0.75000090  0.46879883
   0.41666428  0.58333472  0.46880339
   0.74997432  0.25002468  0.46880447
   0.91666279  0.08333621  0.46880836
   0.74996172  0.74997354  0.46880578
   0.91668148  0.58330576  0.46880163
Direct configuration=    10
   0.66963558 -0.00000070  0.10054617
   0.33036681  0.00000058  0.10054758
   0.00000070  0.33036342  0.10054617
  -0.00000058  0.66963219  0.10054758
   0.33036722  0.33036681  0.10054783
   0.66963219  0.66963178  0.10054783
   0.66666550  0.33333350  0.09980474
   0.33333230  0.66666670  0.10140233
   0.25005949  0.25008543  0.46850971
   0.41672766  0.08329838  0.46850093
   0.24999689  0.75000211  0.46849503
   0.41666135  0.58333765  0.46850466
   0.74994247  0.25005653  0.46850694
   0.91665790  0.08334110  0.46851517
   0.74991357  0.74993951  0.46850971
   0.91670062  0.58327134  0.46850093
Direct configuration=    11
   0.66963856 -0.00000138  0.10112687
   0.33036743  0.00000130  0.10112977
   0.00000138  0.33036044  0.10112687
  -0.00000130  0.66963157  0.10112977
   0.33036847  0.33036764  0.10113029
   0.66963136  0.66963053  0.10113029
   0.66666490  0.33333410  0.10042582
   0.33333180  0.66666720  0.10206407
   0.25012755  0.25018173  0.46791759
   0.41679649  0.08326010  0.46789954
   0.24999445  0.75000455  0.46788743
   0.41665551  0.58334349  0.46790721
   0.74987878  0.25012022  0.46791190
   0.91664812  0.08335088  0.46792879
   0.74981727  0.74987145  0.46791759
   0.91673890  0.58320251  0.46789954
Direct configuration=    12
   0.66964452 -0.00000276  0.10228826
   0.33036867  0.00000274  0.10229416
   0.00000276  0.33035448  0.10228826
  -0.00000274  0.66963033  0.10229416
   0.33037097  0.33036931  0.10229520
   0.66962969  0.66962803  0.10229520
   0.66666371  0.33333529  0.10166799
   0.33333080  0.66666820  0.10338757
   0.25026367  0.25037434  0.46673333
   0.41693415  0.08318353  0.46669677
   0.24998959  0.75000941  0.46667223
   0.41664381  0.58335519  0.46671230
   0.74975139  0.25024761  0.46672181
   0.91662855  0.08337045  0.46675602
   0.74962466  0.74973533  0.46673333
   0.91681547  0.58306485  0.46669677
Direct configuration=    13
   0.66965646 -0.00000550  0.10461103
   0.33037114  0.00000562  0.10462292
   0.00000550  0.33034254  0.10461103
  -0.00000562  0.66962786  0.10462292
   0.33037597  0.33037265  0.10462502
   0.66962635  0.66962303  0.10462502
   0.66666132  0.33333768  0.10415232
   0.33332880  0.66667020  0.10603457
   0.25053591  0.25075955  0.46436482
   0.41720948  0.08303040  0.46429121
   0.24997985  0.75001915  0.46424182
   0.41662042  0.58337858  0.46432248
   0.74949662  0.25050238  0.46434163
   0.91658941  0.08340959  0.46441050
   0.74923945  0.74946309  0.46436482
   0.91696860  0.58278952  0.46429121
Direct configuration=    14
   0.66968032 -0.00001100  0.10925659
   0.33037610  0.00001139  0.10928045
   0.00001100  0.33031868  0.10925659
  -0.00001139  0.66962290  0.10928045
   0.33038597  0.33037933  0.10928466
   0.66961967  0.66961303  0.10928466
   0.66665655  0.33334245  0.10912099
   0.33332479  0.66667421  0.11132856
   0.25108040  0.25152998  0.45962780
   0.41776013  0.08272414  0.45948011
   0.24996038  0.75003862  0.45938101
   0.41657364  0.58342536  0.45954284
   0.74898708  0.25101192  0.45958127
   0.91651113  0.08348787  0.45971944
   0.74846902  0.74891860  0.45962780
   0.91727486  0.58223887  0.45948011
Direct configuration=    15
   0.66968032 -0.00001100  0.10925777
   0.33037610  0.00001139  0.10928164
   0.00001100  0.33031868  0.10925777
  -0.00001139  0.66962290  0.10928164
   0.33038597  0.33037933  0.10928585
   0.66961967  0.66961303  0.10928585
   0.66665655  0.33334245  0.10912225
   0.33332479  0.66667421  0.11132991
   0.25108044  0.25153001  0.45962659
   0.41776015  0.08272413  0.45947888
   0.24996039  0.75003861  0.45937978
   0.41657363  0.58342537  0.45954162
   0.74898707  0.25101193  0.45958005
   0.91651111  0.08348789  0.45971825
   0.74846899  0.74891856  0.45962659
   0.91727487  0.58223885  0.45947888
Direct configuration=    16
   0.66968033 -0.00001101  0.10926133
   0.33037611  0.00001139  0.10928520
   0.00001101  0.33031867  0.10926133
  -0.00001139  0.66962289  0.10928520
   0.33038598  0.33037934  0.10928941
   0.66961966  0.66961302  0.10928941
   0.66665655  0.33334245  0.10912605
   0.33332479  0.66667421  0.11133395
   0.25108056  0.25153011  0.45962297
   0.41776021  0.08272411  0.45947521
   0.24996042  0.75003858  0.45937607
   0.41657359  0.58342541  0.45953797
   0.74898701  0.25101199  0.45957641
   0.91651106  0.08348794  0.45971465
   0.74846889  0.74891844  0.45962297
   0.91727489  0.58223879  0.45947521
Direct configuration=    17
   0.66968035 -0.00001102  0.10926844
   0.33037612  0.00001138  0.10929233
   0.00001102  0.33031865  0.10926844
  -0.00001138  0.66962288  0.10929233
   0.33038599  0.33037935  0.10929654
   0.66961965  0.66961301  0.10929654
   0.66665655  0.33334245  0.10913364
   0.33332478  0.66667422  0.11134203
   0.25108080  0.25153032  0.45961572
   0.41776033  0.08272407  0.45946785
   0.24996048  0.75003852  0.45936865
   0.41657351  0.58342549  0.45953066
   0.74898690  0.25101210  0.45956913
   0.91651097  0.08348803  0.45970746
   0.74846868  0.74891820  0.45961572
   0.91727493  0.58223867  0.45946785
Direct configuration=    18
   0.66968039 -0.00001105  0.10928266
   0.33037613  0.00001138  0.10930658
   0.00001105  0.33031861  0.10928266
  -0.00001138  0.66962287  0.10930658
   0.33038602  0.33037938  0.10931080
   0.66961962  0.66961298  0.10931080
   0.66665654  0.33334246  0.10914881
   0.33332477  0.66667423  0.11135821
   0.25108128  0.25153073  0.45960122
   0.41776057  0.08272398  0.45945315
   0.24996059  0.75003841  0.45935381
   0.41657334  0.58342566  0.45951604
   0.74898669  0.25101231  0.45955457
   0.91651078  0.08348822  0.45969309
   0.74846827  0.74891772  0.45960122
   0.91727502  0.58223843  0.45945315
Direct configuration=    19
   0.66968046 -0.00001110  0.10931109
   0.33037617  0.00001137  0.10933509
   0.00001110  0.33031854  0.10931109
  -0.00001137  0.66962283  0.10933509
   0.33038608  0.33037943  0.10933932
   0.66961957  0.66961292  0.10933932
   0.66665654  0.33334246  0.10917916
   0.33332475  0.66667425  0.11139055
   0.25108223  0.25153155  0.45957221
   0.41776104  0.08272381  0.45942374
   0.24996081  0.75003819  0.45932413
   0.41657301  0.58342599  0.45948680
   0.74898625  0.25101275  0.45952543
   0.91651039  0.08348861  0.45966434
   0.74846745  0.74891677  0.45957221
   0.91727519  0.58223796  0.45942374
Direct configuration=    20
   0.66968060 -0.00001121  0.10936796
   0.33037624  0.00001135  0.10939211
   0.00001121  0.33031840  0.10936796
  -0.00001135  0.66962276  0.10939211
   0.33038619  0.33037954  0.10939636
   0.66961946  0.66961281  0.10939636
   0.66665652  0.33334248  0.10923987
   0.33332470  0.66667430  0.11145523
   0.25108415  0.25153319  0.45951421
   0.41776199  0.08272347  0.45936493
   0.24996126  0.75003774  0.45926477
   0.41657235  0.58342665  0.45942832
   0.74898538  0.25101362  0.45946717
   0.91650963  0.08348937  0.45960683
   0.74846581  0.74891485  0.45951421
   0.91727553  0.58223701  0.45936493
Direct configuration=    21
   0.66968089 -0.00001142  0.10948171
   0.33037638  0.00001132  0.10950614
   0.00001142  0.33031811  0.10948171
  -0.00001132  0.66962262  0.10950614
   0.33038642  0.33037976  0.10951044
   0.66961924  0.66961258  0.10951044
   0.66665649  0.33334251  0.10936127
   0.33332461  0.66667439  0.11158460
   0.25108797  0.25153648  0.45939820
   0.41776389  0.08272278  0.45924729
   0.24996217  0.75003683  0.45914606
   0.41657102  0.58342798  0.45931136
   0.74898364  0.25101536  0.45935065
   0.91650810  0.08349090  0.45949183
   0.74846252  0.74891103  0.45939820
   0.91727622  0.58223511  0.45924729
Direct configuration=    22
   0.66968146 -0.00001184  0.10970920
   0.33037667  0.00001125  0.10973420
   0.00001184  0.33031754  0.10970920
  -0.00001125  0.66962233  0.10973420
   0.33038688  0.33038019  0.10973861
   0.66961881  0.66961212  0.10973861
   0.66665643  0.33334257  0.10960409
   0.33332443  0.66667457  0.11184333
   0.25109563  0.25154304  0.45916617
   0.41776769  0.08272140  0.45901203
   0.24996397  0.75003503  0.45890863
   0.41656836  0.58343064  0.45907745
   0.74898016  0.25101884  0.45911760
   0.91650504  0.08349396  0.45926181
   0.74845596  0.74890337  0.45916617
   0.91727760  0.58223131  0.45901203
Direct configuration=    23
   0.66968260 -0.00001269  0.11016417
   0.33037724  0.00001112  0.11019033
   0.00001269  0.33031640  0.11016417
  -0.00001112  0.66962176  0.11019033
   0.33038781  0.33038107  0.11019493
   0.66961793  0.66961119  0.11019493
   0.66665630  0.33334270  0.11008972
   0.33332407  0.66667493  0.11236080
   0.25111093  0.25155618  0.45870213
   0.41777528  0.08271864  0.45854150
   0.24996757  0.75003143  0.45843377
   0.41656306  0.58343594  0.45860963
   0.74897319  0.25102581  0.45865150
   0.91649893  0.08350007  0.45880179
   0.74844282  0.74888807  0.45870213
   0.91728036  0.58222372  0.45854150
Direct configuration=    24
   0.66968488 -0.00001438  0.11107413
   0.33037839  0.00001085  0.11110258
   0.00001438  0.33031412  0.11107413
  -0.00001085  0.66962061  0.11110258
   0.33038965  0.33038281  0.11110758
   0.66961619  0.66960935  0.11110758
   0.66665606  0.33334294  0.11106098
   0.33332336  0.66667564  0.11339574
   0.25114155  0.25158245  0.45777405
   0.41779047  0.08271313  0.45760044
   0.24997478  0.75002422  0.45748405
   0.41655244  0.58344656  0.45767398
   0.74895926  0.25103974  0.45771931
   0.91648670  0.08351230  0.45788173
   0.74841655  0.74885745  0.45777405
   0.91728587  0.58220853  0.45760044
Direct configuration=    25
   0.66968945 -0.00001777  0.11289403
   0.33038068  0.00001030  0.11292709
   0.00001777  0.33030955  0.11289403
  -0.00001030  0.66961832  0.11292709
   0.33039333  0.33038630  0.11293288
   0.66961270  0.66960567  0.11293288
   0.66665556  0.33334344  0.11300351
   0.33332192  0.66667708  0.11546562
   0.25120277  0.25163499  0.45591787
   0.41782084  0.08270210  0.45571832
   0.24998920  0.75000980  0.45558462
   0.41653121  0.58346779  0.45580268
   0.74893140  0.25106760  0.45585492
   0.91646223  0.08353677  0.45604162
   0.74836401  0.74879623  0.45591787
   0.91729690  0.58217816  0.45571832
Direct configuration=    26
   0.66969859 -0.00002454  0.11653384
   0.33038526  0.00000922  0.11657610
   0.00002454  0.33030041  0.11653384
  -0.00000922  0.66961374  0.11657610
   0.33040071  0.33039328  0.11658347
   0.66960572  0.66959829  0.11658347
   0.66665457  0.33334443  0.11688856
   0.33331905  0.66667995  0.11960537
   0.25132522  0.25174007  0.45220553
   0.41788158  0.08268005  0.45195407
   0.25001804  0.74998096  0.45178574
   0.41648875  0.58351025  0.45206007
   0.74887568  0.25112332  0.45212614
   0.91641331  0.08358569  0.45236141
   0.74825893  0.74867378  0.45220553
   0.91731895  0.58211742  0.45195407
Direct configuration=    27
   0.66971686 -0.00003808  0.12381347
   0.33039442  0.00000705  0.12387413
   0.00003808  0.33028214  0.12381347
  -0.00000705  0.66960458  0.12387413
   0.33041545  0.33040724  0.12388466
   0.66959176  0.66958355  0.12388466
   0.66665259  0.33334641  0.12465865
   0.33331331  0.66668569  0.12788488
   0.25157013  0.25195023  0.44478084
   0.41800307  0.08263594  0.44442559
   0.25007572  0.74992328  0.44418800
   0.41640382  0.58359518  0.44457487
   0.74876423  0.25123477  0.44466859
   0.91631546  0.08368354  0.44500097
   0.74804877  0.74842887  0.44478084
   0.91736306  0.58199593  0.44442559
Direct configuration=    28
   0.66975339 -0.00006517  0.13837271
   0.33041274  0.00000271  0.13847018
   0.00006517  0.33024561  0.13837271
  -0.00000271  0.66958626  0.13847018
   0.33044493  0.33043517  0.13848704
   0.66956383  0.66955407  0.13848704
   0.66664862  0.33335038  0.14019884
   0.33330183  0.66669717  0.14444389
   0.25205993  0.25237055  0.42993146
   0.41824605  0.08254773  0.42936862
   0.25019109  0.74980791  0.42899251
   0.41623397  0.58376503  0.42960447
   0.74854135  0.25145765  0.42975348
   0.91611976  0.08387924  0.43028010
   0.74762845  0.74793907  0.42993146
   0.91745127  0.58175295  0.42936862
Direct configuration=    29
   0.66982647 -0.00011935  0.16749121
   0.33044938 -0.00000597  0.16766229
   0.00011935  0.33017253  0.16749121
   0.00000597  0.66954962  0.16766229
   0.33050391  0.33049101  0.16769180
   0.66950799  0.66949509  0.16769180
   0.66664069  0.33335831  0.17127923
   0.33327886  0.66672014  0.17756192
   0.25303954  0.25321119  0.40023270
   0.41873201  0.08237131  0.39925469
   0.25042181  0.74957719  0.39860152
   0.41589427  0.58410473  0.39966366
   0.74809557  0.25190343  0.39992327
   0.91572836  0.08427064  0.40083836
   0.74678781  0.74695946  0.40023270
   0.91762769  0.58126699  0.39925469
Direct configuration=    30
   0.66978933 -0.00009181  0.15268945
   0.33043075 -0.00000156  0.15282311
   0.00009181  0.33020967  0.15268945
   0.00000156  0.66956825  0.15282311
   0.33047393  0.33046263  0.15284619
   0.66953637  0.66952507  0.15284619
   0.66664472  0.33335428  0.15548018
   0.33329054  0.66670846  0.16072709
   0.25254158  0.25278387  0.41532942
   0.41848498  0.08246099  0.41456246
   0.25030453  0.74969447  0.41405012
   0.41606695  0.58393205  0.41488343
   0.74832217  0.25167683  0.41508681
   0.91592732  0.08407168  0.41580444
   0.74721513  0.74745742  0.41532942
   0.91753801  0.58151402  0.41456246
Direct configuration=    31
   0.66980790 -0.00010558  0.16009033
   0.33044006 -0.00000376  0.16024270
   0.00010558  0.33019110  0.16009033
   0.00000376  0.66955894  0.16024270
   0.33048892  0.33047682  0.16026900
   0.66952218  0.66951008  0.16026900
   0.66664270  0.33335630  0.16337971
   0.33328470  0.66671430  0.16914451
   0.25279056  0.25299753  0.40778106
   0.41860850  0.08241615  0.40690857
   0.25036317  0.74963583  0.40632582
   0.41598061  0.58401839  0.40727354
   0.74820887  0.25179013  0.40750504
   0.91582784  0.08417116  0.40832140
   0.74700147  0.74720844  0.40778106
   0.91758285  0.58139050  0.40690857
Direct configuration=    32
   0.66981719 -0.00011246  0.16379077
   0.33044472 -0.00000487  0.16395249
   0.00011246  0.33018181  0.16379077
   0.00000487  0.66955428  0.16395249
   0.33049641  0.33048392  0.16398040
   0.66951508  0.66950259  0.16398040
   0.66664170  0.33335730  0.16732947
   0.33328178  0.66671722  0.17335322
   0.25291505  0.25310436  0.40400688
   0.41867025  0.08239373  0.40308163
   0.25039249  0.74960651  0.40246367
   0.41593744  0.58406156  0.40346860
   0.74815222  0.25184678  0.40371416
   0.91577810  0.08422090  0.40457988
   0.74689464  0.74708395  0.40400688
   0.91760527  0.58132875  0.40308163
Direct configuration=    33
   0.66975126 -0.00016929  0.16952027
   0.33047690 -0.00005008  0.16969566
   0.00016929  0.33024774  0.16952027
   0.00005008  0.66952210  0.16969566
   0.33052311  0.33053166  0.16972596
   0.66946734  0.66947589  0.16972596
   0.66663710  0.33336190  0.17339890
   0.33327145  0.66672755  0.17981954
   0.25240525  0.25247263  0.39815925
   0.41820861  0.08263428  0.39718649
   0.25035913  0.74963987  0.39653343
   0.41601985  0.58397915  0.39759435
   0.74855985  0.25143915  0.39785292
   0.91586935  0.08412965  0.39875894
   0.74752637  0.74759375  0.39815925
   0.91736472  0.58179039  0.39718649
Direct configuration=    34
   0.66978369 -0.00014134  0.16670214
   0.33046107 -0.00002784  0.16687080
   0.00014134  0.33021531  0.16670214
   0.00002784  0.66953793  0.16687080
   0.33050998  0.33050818  0.16689993
   0.66949082  0.66948902  0.16689993
   0.66663936  0.33335964  0.17041356
   0.33327653  0.66672247  0.17663899
   0.25265600  0.25278336  0.40103549
   0.41843568  0.08251596  0.40008610
   0.25037554  0.74962346  0.39945030
   0.41597931  0.58401969  0.40048368
   0.74835935  0.25163965  0.40073585
   0.91582447  0.08417453  0.40162205
   0.74721564  0.74734300  0.40103549
   0.91748304  0.58156332  0.40008610
Direct configuration=    35
   0.66971388 -0.00018169  0.16624368
   0.33048553 -0.00006264  0.16641039
   0.00018169  0.33028512  0.16624368
   0.00006264  0.66951347  0.16641039
   0.33052447  0.33053727  0.16643927
   0.66946173  0.66947453  0.16643927
   0.66663283  0.33336617  0.16988414
   0.33326976  0.66672924  0.17607447
   0.25211794  0.25219479  0.40149969
   0.41803149  0.08271639  0.40058636
   0.25030532  0.74969368  0.39997097
   0.41610381  0.58389519  0.40097073
   0.74871833  0.25128067  0.40121296
   0.91596343  0.08403557  0.40206128
   0.74780421  0.74788106  0.40149969
   0.91728261  0.58196751  0.40058636
Direct configuration=    36
   0.66950446 -0.00030276  0.16486830
   0.33055888 -0.00016702  0.16502915
   0.00030276  0.33049454  0.16486830
   0.00016702  0.66944012  0.16502915
   0.33056794  0.33062454  0.16505732
   0.66937446  0.66943106  0.16505732
   0.66661325  0.33338575  0.16829589
   0.33324946  0.66674954  0.17438091
   0.25050377  0.25042911  0.40289231
   0.41681893  0.08331770  0.40208715
   0.25009466  0.74990434  0.40153297
   0.41647731  0.58352169  0.40243186
   0.74979524  0.25020376  0.40264427
   0.91638033  0.08361867  0.40337896
   0.74956989  0.74949523  0.40289231
   0.91668130  0.58318007  0.40208715
Direct configuration=    37
   0.66944967 -0.00033442  0.16450854
   0.33057807 -0.00019433  0.16466785
   0.00033442  0.33054933  0.16450854
   0.00019433  0.66942093  0.16466785
   0.33057931  0.33064737  0.16469583
   0.66935163  0.66941969  0.16469583
   0.66660813  0.33339087  0.16788044
   0.33324414  0.66675486  0.17393791
   0.25008154  0.24996724  0.40325659
   0.41650175  0.08347499  0.40247973
   0.25003956  0.74995944  0.40194155
   0.41657501  0.58342399  0.40281406
   0.75007694  0.24992206  0.40301867
   0.91648939  0.08350961  0.40372363
   0.75003176  0.74991746  0.40325659
   0.91652401  0.58349725  0.40247973
Direct configuration=    38
   0.66940623 -0.00034689  0.16449440
   0.33060213 -0.00021190  0.16465266
   0.00034689  0.33059277  0.16449440
   0.00021190  0.66939687  0.16465266
   0.33059259  0.33065960  0.16468015
   0.66933940  0.66940641  0.16468015
   0.66660430  0.33339470  0.16779186
   0.33324340  0.66675560  0.17384502
   0.24997929  0.24996929  0.40326753
   0.41653389  0.08344253  0.40253825
   0.24998435  0.75001465  0.40202957
   0.41662825  0.58337075  0.40285430
   0.75003696  0.24996204  0.40304428
   0.91656390  0.08343510  0.40370234
   0.75002971  0.75001971  0.40326753
   0.91655647  0.58346511  0.40253825
Direct configuration=    39
   0.66927591 -0.00038430  0.16445198
   0.33067431 -0.00026462  0.16460709
   0.00038430  0.33072309  0.16445198
   0.00026462  0.66932469  0.16460709
   0.33063244  0.33069627  0.16463311
   0.66930273  0.66936656  0.16463311
   0.66659281  0.33340619  0.16752611
   0.33324115  0.66675785  0.17356635
   0.24967252  0.24997543  0.40330033
   0.41663031  0.08334517  0.40271381
   0.24981872  0.75018028  0.40229362
   0.41678797  0.58321103  0.40297502
   0.74991700  0.25008200  0.40312108
   0.91678746  0.08321154  0.40363848
   0.75002357  0.75032648  0.40330033
   0.91665383  0.58336869  0.40271381
Direct configuration=    40
   0.66923017 -0.00039743  0.16443710
   0.33069964 -0.00028312  0.16459110
   0.00039743  0.33076883  0.16443710
   0.00028312  0.66929936  0.16459110
   0.33064642  0.33070914  0.16461660
   0.66928986  0.66935258  0.16461660
   0.66658878  0.33341022  0.16743284
   0.33324036  0.66675864  0.17346855
   0.24956486  0.24997758  0.40331185
   0.41666415  0.08331100  0.40277543
   0.24976059  0.75023841  0.40238629
   0.41684403  0.58315497  0.40301738
   0.74987491  0.25012409  0.40314804
   0.91686592  0.08313308  0.40361607
   0.75002142  0.75043414  0.40331185
   0.91668800  0.58333485  0.40277543
Direct configuration=    41
   0.66920008 -0.00039953  0.16443632
   0.33072285 -0.00029267  0.16458882
   0.00039953  0.33079892  0.16443632
   0.00029267  0.66927615  0.16458882
   0.33065565  0.33070921  0.16461336
   0.66928979  0.66934335  0.16461336
   0.66658359  0.33341541  0.16730982
   0.33324394  0.66675506  0.17334127
   0.24959969  0.24998510  0.40331014
   0.41666381  0.08332116  0.40284494
   0.24977671  0.75022229  0.40250021
   0.41681992  0.58317908  0.40305937
   0.74987363  0.25012537  0.40316879
   0.91684607  0.08315293  0.40356672
   0.75001390  0.75039931  0.40331014
   0.91667784  0.58333519  0.40284494
Direct configuration=    42
   0.66910981 -0.00040581  0.16443398
   0.33079249 -0.00032132  0.16458197
   0.00040581  0.33088919  0.16443398
   0.00032132  0.66920651  0.16458197
   0.33068334  0.33070945  0.16460363
   0.66928955  0.66931566  0.16460363
   0.66656801  0.33343099  0.16694076
   0.33325469  0.66674431  0.17295941
   0.24970418  0.25000766  0.40330501
   0.41666277  0.08335166  0.40305348
   0.24982509  0.75017391  0.40284196
   0.41674758  0.58325142  0.40318534
   0.74986980  0.25012920  0.40323103
   0.91678654  0.08321246  0.40341869
   0.74999134  0.75029482  0.40330501
   0.91664734  0.58333623  0.40305348
Direct configuration=    43
   0.66892927 -0.00041838  0.16442931
   0.33093176 -0.00037861  0.16456827
   0.00041838  0.33106973  0.16442931
   0.00037861  0.66906724  0.16456827
   0.33073872  0.33070992  0.16458418
   0.66928908  0.66926028  0.16458418
   0.66653687  0.33346213  0.16620264
   0.33327617  0.66672283  0.17219569
   0.24991315  0.25005277  0.40329476
   0.41666070  0.08341266  0.40347055
   0.24992185  0.75007715  0.40352547
   0.41660291  0.58339609  0.40343726
   0.74986215  0.25013685  0.40335553
   0.91666748  0.08333152  0.40312262
   0.74994623  0.75008585  0.40329476
   0.91658634  0.58333830  0.40347055
Direct configuration=    44
   0.66856819 -0.00044352  0.16441996
   0.33121032 -0.00049320  0.16454087
   0.00044352  0.33143081  0.16441996
   0.00049320  0.66878868  0.16454087
   0.33084948  0.33071087  0.16454527
   0.66928813  0.66914952  0.16454527
   0.66647457  0.33352443  0.16472639
   0.33331913  0.66667987  0.17066825
   0.25033110  0.25014300  0.40327424
   0.41665655  0.08353465  0.40430471
   0.25011537  0.74988363  0.40489248
   0.41631356  0.58368544  0.40394112
   0.74984684  0.25015216  0.40360451
   0.91642935  0.08356965  0.40253049
   0.74985600  0.74966790  0.40327424
   0.91646435  0.58334245  0.40430471
Direct configuration=    45
   0.66883076 -0.00042524  0.16442676
   0.33100776 -0.00040988  0.16456079
   0.00042524  0.33116824  0.16442676
   0.00040988  0.66899124  0.16456079
   0.33076894  0.33071018  0.16457356
   0.66928882  0.66923006  0.16457356
   0.66651987  0.33347913  0.16579986
   0.33328789  0.66671111  0.17177895
   0.25002718  0.25007739  0.40328916
   0.41665957  0.08344594  0.40369814
   0.24997465  0.75002435  0.40389844
   0.41652396  0.58347504  0.40357474
   0.74985797  0.25014103  0.40342346
   0.91660251  0.08339649  0.40296107
   0.74992161  0.74997182  0.40328916
   0.91655306  0.58333943  0.40369814
Direct configuration=    46
   0.66912405 -0.00032000  0.16445837
   0.33087427 -0.00030371  0.16459155
   0.00032000  0.33087495  0.16445837
   0.00030371  0.66912473  0.16459155
   0.33066021  0.33056453  0.16459974
   0.66943447  0.66933879  0.16459974
   0.66652893  0.33347007  0.16555204
   0.33332759  0.66667141  0.17153429
   0.24998046  0.25009543  0.40330735
   0.41660450  0.08343186  0.40375600
   0.24992678  0.75007222  0.40398643
   0.41659328  0.58340572  0.40362047
   0.74993362  0.25006538  0.40345880
   0.91657708  0.08342192  0.40295528
   0.74990357  0.75001854  0.40330735
   0.91656714  0.58339450  0.40375600
Direct configuration=    47
   0.66971997 -0.00010617  0.16452261
   0.33060304 -0.00008799  0.16465404
   0.00010617  0.33027903  0.16452261
   0.00008799  0.66939596  0.16465404
   0.33043930  0.33026858  0.16465294
   0.66973042  0.66955970  0.16465294
   0.66654733  0.33345167  0.16504850
   0.33340826  0.66659074  0.17103719
   0.24988553  0.25013209  0.40334430
   0.41649261  0.08340325  0.40387355
   0.24982952  0.75016948  0.40416523
   0.41673411  0.58326489  0.40371340
   0.75008732  0.24991168  0.40353060