  15  15   0   4
  0.2028716E+02  0.4840000E-09  0.4840000E-09  0.1500000E-08  0.5000000E-15
  1.000000000000000E-004
  CAR 
 Lattice                                 
     10.32769950    -21.68181527  301     -0.27464028      1.00000000
    -21.682  0.0000E+00  0.0000E+00  0.0000E+00  0.0000E+00
    -21.575  0.0000E+00  0.0000E+00  0.0000E+00  0.0000E+00
    -21.468  0.0000E+00  0.0000E+00  0.0000E+00  0.0000E+00
    -21.362  0.0000E+00  0.0000E+00  0.0000E+00  0.0000E+00
    -21.255  0.0000E+00  0.0000E+00  0.0000E+00  0.0000E+00
    -21.148  0.0000E+00  0.0000E+00  0.0000E+00  0.0000E+00
    -21.042  0.0000E+00  0.0000E+00  0.0000E+00  0.0000E+00
    -20.935  0.0000E+00  0.0000E+00  0.0000E+00  0.0000E+00
    -20.828  0.0000E+00  0.0000E+00  0.0000E+00  0.0000E+00
    -20.722  0.7161E-15  0.7161E-15  0.7641E-16  0.7641E-16
    -20.615  0.1214E-10  0.1214E-10  0.1296E-11  0.1296E-11
    -20.508  0.2481E-07  0.2481E-07  0.2649E-08  0.2649E-08
    -20.401  0.6724E-05  0.6724E-05  0.7201E-06  0.7200E-06
    -20.295  0.2700E-03  0.2700E-03  0.2953E-04  0.2953E-04
    -20.188  0.1967E-02  0.1967E-02  0.2394E-03  0.2394E-03
    -20.081  0.4139E-02  0.4139E-02  0.6811E-03  0.6811E-03
    -19.975  0.4505E-02  0.4505E-02  0.1162E-02  0.1162E-02
    -19.868  0.4927E-02  0.4927E-02  0.1687E-02  0.1687E-02
    -19.761  0.4138E-02  0.4138E-02  0.2129E-02  0.2129E-02
    -19.655  0.5360E-02  0.5360E-02  0.2701E-02  0.2701E-02
    -19.548  0.4234E-02  0.4234E-02  0.3153E-02  0.3153E-02
    -19.441  0.4196E-02  0.4196E-02  0.3600E-02  0.3600E-02
    -19.334  0.6001E-02  0.6001E-02  0.4241E-02  0.4241E-02
    -19.228  0.3865E-02  0.3865E-02  0.4653E-02  0.4653E-02
    -19.121  0.3793E-02  0.3793E-02  0.5058E-02  0.5058E-02
    -19.014  0.6079E-02  0.6079E-02  0.5707E-02  0.5707E-02
    -18.908  0.5259E-02  0.5259E-02  0.6268E-02  0.6268E-02
    -18.801  0.3016E-02  0.3016E-02  0.6589E-02  0.6589E-02
    -18.694  0.4189E-02  0.4189E-02  0.7036E-02  0.7036E-02
    -18.588  0.6917E-02  0.6917E-02  0.7774E-02  0.7774E-02
    -18.481  0.4648E-02  0.4648E-02  0.8270E-02  0.8270E-02
    -18.374  0.3824E-02  0.3824E-02  0.8678E-02  0.8678E-02
    -18.267  0.2915E-02  0.2915E-02  0.8989E-02  0.8989E-02
    -18.161  0.6392E-02  0.6392E-02  0.9671E-02  0.9671E-02
    -18.054  0.6756E-02  0.6756E-02  0.1039E-01  0.1039E-01
    -17.947  0.3685E-02  0.3685E-02  0.1079E-01  0.1079E-01
    -17.841  0.3180E-02  0.3180E-02  0.1112E-01  0.1112E-01
    -17.734  0.4051E-02  0.4051E-02  0.1156E-01  0.1156E-01
    -17.627  0.5993E-02  0.5993E-02  0.1220E-01  0.1220E-01
    -17.521  0.6936E-02  0.6936E-02  0.1294E-01  0.1294E-01
    -17.414  0.6317E-02  0.6317E-02  0.1361E-01  0.1361E-01
    -17.307  0.7669E-02  0.7669E-02  0.1443E-01  0.1443E-01
    -17.200  0.1020E-01  0.1020E-01  0.1552E-01  0.1552E-01
    -17.094  0.1455E-01  0.1455E-01  0.1707E-01  0.1707E-01
    -16.987  0.1605E-01  0.1605E-01  0.1878E-01  0.1878E-01
    -16.880  0.1811E-01  0.1811E-01  0.2071E-01  0.2071E-01
    -16.774  0.2110E-01  0.2110E-01  0.2297E-01  0.2297E-01
    -16.667  0.1422E-01  0.1422E-01  0.2448E-01  0.2448E-01
    -16.560  0.3746E-02  0.3746E-02  0.2488E-01  0.2488E-01
    -16.454  0.6474E-02  0.6474E-02  0.2557E-01  0.2557E-01
    -16.347  0.8535E-02  0.8535E-02  0.2648E-01  0.2648E-01
    -16.240  0.4707E-02  0.4707E-02  0.2699E-01  0.2699E-01
    -16.133  0.4211E-02  0.4211E-02  0.2744E-01  0.2744E-01
    -16.027  0.3789E-02  0.3789E-02  0.2784E-01  0.2784E-01
    -15.920  0.3952E-02  0.3952E-02  0.2826E-01  0.2826E-01
    -15.813  0.3354E-02  0.3354E-02  0.2862E-01  0.2862E-01
    -15.707  0.7500E-02  0.7500E-02  0.2942E-01  0.2942E-01
    -15.600  0.8517E-02  0.8517E-02  0.3033E-01  0.3033E-01
    -15.493  0.4232E-02  0.4232E-02  0.3078E-01  0.3078E-01
    -15.387  0.3857E-02  0.3857E-02  0.3119E-01  0.3119E-01
    -15.280  0.3322E-02  0.3322E-02  0.3155E-01  0.3155E-01
    -15.173  0.4393E-02  0.4393E-02  0.3201E-01  0.3201E-01
    -15.067  0.6226E-02  0.6226E-02  0.3268E-01  0.3268E-01
    -14.960  0.1191E-01  0.1191E-01  0.3395E-01  0.3395E-01
    -14.853  0.1828E-01  0.1828E-01  0.3590E-01  0.3590E-01
    -14.746  0.1901E-01  0.1901E-01  0.3793E-01  0.3793E-01
    -14.640  0.1624E-01  0.1624E-01  0.3966E-01  0.3966E-01
    -14.533  0.1102E-01  0.1102E-01  0.4084E-01  0.4084E-01
    -14.426  0.7923E-02  0.7923E-02  0.4168E-01  0.4168E-01
    -14.320  0.1320E-01  0.1320E-01  0.4309E-01  0.4309E-01
    -14.213  0.1604E-01  0.1604E-01  0.4480E-01  0.4480E-01
    -14.106  0.1294E-01  0.1294E-01  0.4618E-01  0.4618E-01
    -14.000  0.1061E-01  0.1061E-01  0.4731E-01  0.4731E-01
    -13.893  0.1326E-01  0.1326E-01  0.4873E-01  0.4873E-01
    -13.786  0.1923E-01  0.1923E-01  0.5078E-01  0.5078E-01
    -13.679  0.1841E-01  0.1841E-01  0.5275E-01  0.5275E-01
    -13.573  0.1749E-01  0.1749E-01  0.5461E-01  0.5461E-01
    -13.466  0.1055E-01  0.1055E-01  0.5574E-01  0.5574E-01
    -13.359  0.6253E-02  0.6253E-02  0.5641E-01  0.5641E-01
    -13.253  0.3450E-02  0.3450E-02  0.5677E-01  0.5677E-01
    -13.146  0.3637E-02  0.3637E-02  0.5716E-01  0.5716E-01
    -13.039  0.6351E-02  0.6351E-02  0.5784E-01  0.5784E-01
    -12.933  0.7250E-02  0.7250E-02  0.5861E-01  0.5861E-01
    -12.826  0.4884E-02  0.4884E-02  0.5913E-01  0.5913E-01
    -12.719  0.6229E-02  0.6229E-02  0.5980E-01  0.5980E-01
    -12.612  0.7200E-02  0.7200E-02  0.6057E-01  0.6057E-01
    -12.506  0.5752E-02  0.5752E-02  0.6118E-01  0.6118E-01
    -12.399  0.5537E-02  0.5537E-02  0.6177E-01  0.6177E-01
    -12.292  0.3629E-02  0.3629E-02  0.6216E-01  0.6216E-01
    -12.186  0.5301E-02  0.5301E-02  0.6272E-01  0.6272E-01
    -12.079  0.8399E-02  0.8399E-02  0.6362E-01  0.6362E-01
    -11.972  0.4172E-02  0.4172E-02  0.6407E-01  0.6407E-01
    -11.866  0.3113E-02  0.3113E-02  0.6440E-01  0.6440E-01
    -11.759  0.3418E-02  0.3418E-02  0.6476E-01  0.6476E-01
    -11.652  0.5072E-02  0.5072E-02  0.6530E-01  0.6530E-01
    -11.545  0.7050E-02  0.7050E-02  0.6606E-01  0.6606E-01
    -11.439  0.4667E-02  0.4667E-02  0.6655E-01  0.6655E-01
    -11.332  0.1824E-02  0.1824E-02  0.6675E-01  0.6675E-01
    -11.225  0.4023E-02  0.4023E-02  0.6718E-01  0.6718E-01
    -11.119  0.5834E-02  0.5834E-02  0.6780E-01  0.6780E-01
    -11.012  0.5316E-02  0.5316E-02  0.6837E-01  0.6837E-01
    -10.905  0.7064E-02  0.7064E-02  0.6912E-01  0.6912E-01
    -10.799  0.7200E-02  0.7200E-02  0.6989E-01  0.6989E-01
    -10.692  0.3123E-02  0.3123E-02  0.7022E-01  0.7022E-01
    -10.585  0.8031E-02  0.8031E-02  0.7108E-01  0.7108E-01
    -10.478  0.1362E-01  0.1362E-01  0.7253E-01  0.7253E-01
    -10.372  0.1517E-01  0.1517E-01  0.7415E-01  0.7415E-01
    -10.265  0.1545E-01  0.1545E-01  0.7580E-01  0.7580E-01
    -10.158  0.1565E-01  0.1565E-01  0.7747E-01  0.7747E-01
    -10.052  0.1706E-01  0.1706E-01  0.7929E-01  0.7929E-01
     -9.945  0.1625E-01  0.1625E-01  0.8102E-01  0.8102E-01
     -9.838  0.1034E-01  0.1034E-01  0.8213E-01  0.8213E-01
     -9.732  0.9741E-02  0.9741E-02  0.8316E-01  0.8316E-01
     -9.625  0.1342E-01  0.1342E-01  0.8460E-01  0.8460E-01
     -9.518  0.1188E-01  0.1188E-01  0.8586E-01  0.8586E-01
     -9.412  0.1635E-01  0.1635E-01  0.8761E-01  0.8761E-01
     -9.305  0.1908E-01  0.1908E-01  0.8964E-01  0.8964E-01
     -9.198  0.1367E-01  0.1367E-01  0.9110E-01  0.9110E-01
     -9.091  0.9276E-02  0.9276E-02  0.9209E-01  0.9209E-01
     -8.985  0.6598E-02  0.6598E-02  0.9280E-01  0.9280E-01
     -8.878  0.1651E-01  0.1651E-01  0.9456E-01  0.9456E-01
     -8.771  0.2156E-01  0.2156E-01  0.9686E-01  0.9686E-01
     -8.665  0.1333E-01  0.1333E-01  0.9828E-01  0.9828E-01
     -8.558  0.8043E-02  0.8042E-02  0.9914E-01  0.9914E-01
     -8.451  0.1174E-01  0.1174E-01  0.1004E+00  0.1004E+00
     -8.345  0.1918E-01  0.1918E-01  0.1024E+00  0.1024E+00
     -8.238  0.1784E-01  0.1784E-01  0.1043E+00  0.1043E+00
     -8.131  0.1301E-01  0.1301E-01  0.1057E+00  0.1057E+00
     -8.024  0.1725E-01  0.1725E-01  0.1076E+00  0.1076E+00
     -7.918  0.2341E-01  0.2341E-01  0.1101E+00  0.1101E+00
     -7.811  0.2426E-01  0.2426E-01  0.1127E+00  0.1127E+00
     -7.704  0.1944E-01  0.1944E-01  0.1147E+00  0.1147E+00
     -7.598  0.1122E-01  0.1122E-01  0.1159E+00  0.1159E+00
     -7.491  0.7004E-02  0.7004E-02  0.1167E+00  0.1167E+00
     -7.384  0.1632E-01  0.1632E-01  0.1184E+00  0.1184E+00
     -7.278  0.1874E-01  0.1874E-01  0.1204E+00  0.1204E+00
     -7.171  0.1305E-01  0.1305E-01  0.1218E+00  0.1218E+00
     -7.064  0.1118E-01  0.1118E-01  0.1230E+00  0.1230E+00
     -6.957  0.1571E-01  0.1571E-01  0.1247E+00  0.1247E+00
     -6.851  0.1808E-01  0.1808E-01  0.1266E+00  0.1266E+00
     -6.744  0.1906E-01  0.1906E-01  0.1286E+00  0.1286E+00
     -6.637  0.2236E-01  0.2236E-01  0.1310E+00  0.1310E+00
     -6.531  0.1965E-01  0.1965E-01  0.1331E+00  0.1331E+00
     -6.424  0.2156E-01  0.2156E-01  0.1354E+00  0.1354E+00
     -6.317  0.1746E-01  0.1746E-01  0.1373E+00  0.1373E+00
     -6.211  0.1777E-01  0.1777E-01  0.1392E+00  0.1392E+00
     -6.104  0.2548E-01  0.2548E-01  0.1419E+00  0.1419E+00
     -5.997  0.2468E-01  0.2468E-01  0.1445E+00  0.1445E+00
     -5.890  0.3092E-01  0.3092E-01  0.1478E+00  0.1478E+00
     -5.784  0.2679E-01  0.2679E-01  0.1507E+00  0.1507E+00
     -5.677  0.1876E-01  0.1876E-01  0.1527E+00  0.1527E+00
     -5.570  0.2110E-01  0.2110E-01  0.1549E+00  0.1549E+00
     -5.464  0.3255E-01  0.3255E-01  0.1584E+00  0.1584E+00
     -5.357  0.3401E-01  0.3401E-01  0.1620E+00  0.1620E+00
     -5.250  0.2104E-01  0.2104E-01  0.1643E+00  0.1643E+00
     -5.144  0.1638E-01  0.1638E-01  0.1660E+00  0.1660E+00
     -5.037  0.1057E-01  0.1057E-01  0.1672E+00  0.1672E+00
     -4.930  0.9998E-02  0.9998E-02  0.1682E+00  0.1682E+00
     -4.823  0.1371E-01  0.1371E-01  0.1697E+00  0.1697E+00
     -4.717  0.1183E-01  0.1183E-01  0.1710E+00  0.1710E+00
     -4.610  0.8159E-02  0.8159E-02  0.1718E+00  0.1718E+00
     -4.503  0.8568E-02  0.8568E-02  0.1727E+00  0.1727E+00
     -4.397  0.1496E-01  0.1496E-01  0.1743E+00  0.1743E+00
     -4.290  0.2354E-01  0.2354E-01  0.1769E+00  0.1769E+00
     -4.183  0.2147E-01  0.2147E-01  0.1791E+00  0.1791E+00
     -4.077  0.1776E-01  0.1776E-01  0.1810E+00  0.1810E+00
     -3.970  0.1984E-01  0.1984E-01  0.1832E+00  0.1832E+00
     -3.863  0.2513E-01  0.2513E-01  0.1858E+00  0.1858E+00
     -3.756  0.1926E-01  0.1926E-01  0.1879E+00  0.1879E+00
     -3.650  0.1922E-01  0.1922E-01  0.1899E+00  0.1899E+00
     -3.543  0.1971E-01  0.1971E-01  0.1920E+00  0.1920E+00
     -3.436  0.1654E-01  0.1654E-01  0.1938E+00  0.1938E+00
     -3.330  0.1216E-01  0.1216E-01  0.1951E+00  0.1951E+00
     -3.223  0.1277E-01  0.1277E-01  0.1965E+00  0.1965E+00
     -3.116  0.1827E-01  0.1827E-01  0.1984E+00  0.1984E+00
     -3.010  0.1760E-01  0.1760E-01  0.2003E+00  0.2003E+00
     -2.903  0.1218E-01  0.1218E-01  0.2016E+00  0.2016E+00
     -2.796  0.1242E-01  0.1242E-01  0.2029E+00  0.2029E+00
     -2.690  0.8274E-02  0.8274E-02  0.2038E+00  0.2038E+00
     -2.583  0.9497E-02  0.9497E-02  0.2048E+00  0.2048E+00
     -2.476  0.1636E-01  0.1636E-01  0.2066E+00  0.2066E+00
     -2.369  0.1728E-01  0.1728E-01  0.2084E+00  0.2084E+00
     -2.263  0.5234E-02  0.5234E-02  0.2090E+00  0.2090E+00
     -2.156  0.5405E-02  0.5405E-02  0.2095E+00  0.2095E+00
     -2.049  0.1111E-01  0.1111E-01  0.2107E+00  0.2107E+00
     -1.943  0.9198E-02  0.9198E-02  0.2117E+00  0.2117E+00
     -1.836  0.1049E-01  0.1049E-01  0.2128E+00  0.2128E+00
     -1.729  0.1068E-01  0.1068E-01  0.2140E+00  0.2140E+00
     -1.623  0.1028E-01  0.1028E-01  0.2151E+00  0.2151E+00
     -1.516  0.8025E-02  0.8025E-02  0.2159E+00  0.2159E+00
     -1.409  0.3657E-02  0.3657E-02  0.2163E+00  0.2163E+00
     -1.302  0.4208E-02  0.4208E-02  0.2168E+00  0.2168E+00
     -1.196  0.4332E-02  0.4332E-02  0.2172E+00  0.2172E+00
     -1.089  0.3148E-02  0.3148E-02  0.2176E+00  0.2176E+00
     -0.982  0.5161E-02  0.5161E-02  0.2181E+00  0.2181E+00
     -0.876  0.4024E-02  0.4024E-02  0.2185E+00  0.2185E+00
     -0.769  0.9006E-03  0.9006E-03  0.2186E+00  0.2186E+00
     -0.662  0.7681E-04  0.7681E-04  0.2186E+00  0.2186E+00
     -0.556  0.1543E-05  0.1543E-05  0.2186E+00  0.2186E+00
     -0.449  0.1483E-04  0.1483E-04  0.2186E+00  0.2186E+00
     -0.342  0.3353E-03  0.3353E-03  0.2187E+00  0.2187E+00
     -0.235  0.1091E-02  0.1091E-02  0.2188E+00  0.2188E+00
     -0.129  0.5512E-03  0.5512E-03  0.2189E+00  0.2189E+00
     -0.022  0.4124E-04  0.4124E-04  0.2189E+00  0.2189E+00
      0.085  0.4176E-06  0.4176E-06  0.2189E+00  0.2189E+00
      0.191  0.5245E-05  0.5244E-05  0.2189E+00  0.2189E+00
      0.298  0.3090E-03  0.3090E-03  0.2189E+00  0.2189E+00
      0.405  0.2429E-02  0.2429E-02  0.2192E+00  0.2192E+00
      0.511  0.2859E-02  0.2859E-02  0.2195E+00  0.2195E+00
      0.618  0.1069E-02  0.1069E-02  0.2196E+00  0.2196E+00
      0.725  0.3674E-02  0.3674E-02  0.2200E+00  0.2200E+00
      0.832  0.5837E-02  0.5837E-02  0.2206E+00  0.2206E+00
      0.938  0.7935E-02  0.7935E-02  0.2214E+00  0.2214E+00
      1.045  0.2099E-01  0.2099E-01  0.2237E+00  0.2237E+00
      1.152  0.2312E-01  0.2312E-01  0.2261E+00  0.2261E+00
      1.258  0.7804E-02  0.7803E-02  0.2270E+00  0.2270E+00
      1.365  0.3292E-02  0.3292E-02  0.2273E+00  0.2273E+00
      1.472  0.6371E-02  0.6371E-02  0.2280E+00  0.2280E+00
      1.578  0.1323E-01  0.1323E-01  0.2294E+00  0.2294E+00
      1.685  0.1887E-01  0.1887E-01  0.2314E+00  0.2314E+00
      1.792  0.1471E-01  0.1471E-01  0.2330E+00  0.2330E+00
      1.899  0.8114E-02  0.8114E-02  0.2339E+00  0.2339E+00
      2.005  0.6737E-02  0.6737E-02  0.2346E+00  0.2346E+00
      2.112  0.1058E-01  0.1058E-01  0.2357E+00  0.2357E+00
      2.219  0.7680E-02  0.7680E-02  0.2365E+00  0.2365E+00
      2.325  0.7933E-02  0.7933E-02  0.2374E+00  0.2374E+00
      2.432  0.7486E-02  0.7486E-02  0.2382E+00  0.2382E+00
      2.539  0.7174E-02  0.7174E-02  0.2389E+00  0.2389E+00
      2.645  0.1252E-01  0.1252E-01  0.2403E+00  0.2403E+00
      2.752  0.9019E-02  0.9019E-02  0.2412E+00  0.2412E+00
      2.859  0.5556E-02  0.5556E-02  0.2418E+00  0.2418E+00
      2.966  0.7593E-02  0.7592E-02  0.2426E+00  0.2426E+00
      3.072  0.1123E-01  0.1123E-01  0.2438E+00  0.2438E+00
      3.179  0.1113E-01  0.1113E-01  0.2450E+00  0.2450E+00
      3.286  0.9675E-02  0.9675E-02  0.2461E+00  0.2461E+00
      3.392  0.1016E-01  0.1016E-01  0.2471E+00  0.2471E+00
      3.499  0.8698E-02  0.8697E-02  0.2481E+00  0.2481E+00
      3.606  0.1674E-01  0.1674E-01  0.2499E+00  0.2499E+00
      3.712  0.2240E-01  0.2240E-01  0.2522E+00  0.2522E+00
      3.819  0.2392E-01  0.2392E-01  0.2548E+00  0.2548E+00
      3.926  0.2171E-01  0.2172E-01  0.2571E+00  0.2571E+00
      4.032  0.2221E-01  0.2221E-01  0.2595E+00  0.2595E+00
      4.139  0.2472E-01  0.2472E-01  0.2621E+00  0.2621E+00
      4.246  0.2612E-01  0.2612E-01  0.2649E+00  0.2649E+00
      4.353  0.2410E-01  0.2410E-01  0.2675E+00  0.2675E+00
      4.459  0.2543E-01  0.2543E-01  0.2702E+00  0.2702E+00
      4.566  0.2387E-01  0.2387E-01  0.2727E+00  0.2727E+00
      4.673  0.2107E-01  0.2107E-01  0.2750E+00  0.2750E+00
      4.779  0.2612E-01  0.2612E-01  0.2778E+00  0.2778E+00
      4.886  0.2609E-01  0.2609E-01  0.2806E+00  0.2806E+00
      4.993  0.2353E-01  0.2352E-01  0.2831E+00  0.2831E+00
      5.099  0.2438E-01  0.2438E-01  0.2857E+00  0.2857E+00
      5.206  0.2614E-01  0.2614E-01  0.2885E+00  0.2885E+00
      5.313  0.2146E-01  0.2146E-01  0.2908E+00  0.2908E+00
      5.420  0.1923E-01  0.1922E-01  0.2928E+00  0.2928E+00
      5.526  0.2245E-01  0.2245E-01  0.2952E+00  0.2952E+00
      5.633  0.2925E-01  0.2925E-01  0.2983E+00  0.2983E+00
      5.740  0.2576E-01  0.2576E-01  0.3011E+00  0.3011E+00
      5.846  0.2032E-01  0.2032E-01  0.3032E+00  0.3032E+00
      5.953  0.1914E-01  0.1914E-01  0.3053E+00  0.3053E+00
      6.060  0.2090E-01  0.2090E-01  0.3075E+00  0.3075E+00
      6.166  0.1611E-01  0.1612E-01  0.3092E+00  0.3092E+00
      6.273  0.1889E-01  0.1889E-01  0.3112E+00  0.3112E+00
      6.380  0.2167E-01  0.2167E-01  0.3136E+00  0.3136E+00
      6.487  0.2427E-01  0.2427E-01  0.3161E+00  0.3161E+00
      6.593  0.2502E-01  0.2502E-01  0.3188E+00  0.3188E+00
      6.700  0.2877E-01  0.2877E-01  0.3219E+00  0.3219E+00
      6.807  0.3444E-01  0.3444E-01  0.3256E+00  0.3256E+00
      6.913  0.2713E-01  0.2713E-01  0.3285E+00  0.3285E+00
      7.020  0.2510E-01  0.2511E-01  0.3311E+00  0.3311E+00
      7.127  0.2453E-01  0.2452E-01  0.3337E+00  0.3337E+00
      7.233  0.1971E-01  0.1971E-01  0.3359E+00  0.3359E+00
      7.340  0.1918E-01  0.1918E-01  0.3379E+00  0.3379E+00
      7.447  0.2422E-01  0.2422E-01  0.3405E+00  0.3405E+00
      7.554  0.2120E-01  0.2120E-01  0.3427E+00  0.3427E+00
      7.660  0.2158E-01  0.2157E-01  0.3450E+00  0.3450E+00
      7.767  0.2843E-01  0.2842E-01  0.3481E+00  0.3481E+00
      7.874  0.3161E-01  0.3161E-01  0.3515E+00  0.3515E+00
      7.980  0.3336E-01  0.3337E-01  0.3550E+00  0.3550E+00
      8.087  0.3145E-01  0.3145E-01  0.3584E+00  0.3584E+00
      8.194  0.2867E-01  0.2867E-01  0.3614E+00  0.3614E+00
      8.300  0.2781E-01  0.2781E-01  0.3644E+00  0.3644E+00
      8.407  0.3463E-01  0.3463E-01  0.3681E+00  0.3681E+00
      8.514  0.3109E-01  0.3109E-01  0.3714E+00  0.3714E+00
      8.621  0.1726E-01  0.1726E-01  0.3732E+00  0.3732E+00
      8.727  0.9014E-02  0.9015E-02  0.3742E+00  0.3742E+00
      8.834  0.4217E-02  0.4218E-02  0.3747E+00  0.3747E+00
      8.941  0.2611E-02  0.2612E-02  0.3749E+00  0.3749E+00
      9.047  0.5506E-03  0.5505E-03  0.3750E+00  0.3750E+00
      9.154  0.2060E-04  0.2059E-04  0.3750E+00  0.3750E+00
      9.261  0.1025E-06  0.1025E-06  0.3750E+00  0.3750E+00
      9.367  0.5930E-10  0.5925E-10  0.3750E+00  0.3750E+00
      9.474  0.3769E-14  0.3765E-14  0.3750E+00  0.3750E+00
      9.581  0.0000E+00  0.0000E+00  0.3750E+00  0.3750E+00
      9.688  0.0000E+00  0.0000E+00  0.3750E+00  0.3750E+00
      9.794  0.0000E+00  0.0000E+00  0.3750E+00  0.3750E+00
      9.901  0.0000E+00  0.0000E+00  0.3750E+00  0.3750E+00
     10.008  0.0000E+00  0.0000E+00  0.3750E+00  0.3750E+00
     10.114  0.0000E+00  0.0000E+00  0.3750E+00  0.3750E+00
     10.221  0.0000E+00  0.0000E+00  0.3750E+00  0.3750E+00
     10.328  0.0000E+00  0.0000E+00  0.3750E+00  0.3750E+00
