Lattice                                 
           1
     4.191563    2.420000    0.000000
    -4.191563    2.420000    0.000000
     0.000000    0.000000   15.000000
   B    C 
     4    11
Direct configuration=     1
   0.00415361  0.00267210  0.12034134
   0.35695335  0.00285503  0.09748893
   0.00423858  0.35550699  0.09749256
   0.65142295  0.65006557  0.09747688
   0.32808646  0.32671938  0.10030508
   0.68027775  0.00278085  0.10027562
   0.00416530  0.67883808  0.10026559
   0.11111044  0.38888856  0.33726667
   0.27777744  0.22222156  0.33726667
   0.11111044  0.88888856  0.33726667
   0.27777744  0.72222156  0.33726667
   0.61111044  0.38888856  0.33726667
   0.77777744  0.22222156  0.33726667
   0.61111044  0.88888856  0.33726667
   0.77777744  0.72222156  0.33726667
Direct configuration=     2
   0.00416838  0.00269762  0.11909661
   0.35576771  0.00279129  0.09781163
   0.00418859  0.35455013  0.09786789
   0.65249814  0.65103162  0.09783842
   0.32487947  0.32335062  0.10031193
   0.68375086  0.00279485  0.10032559
   0.00422534  0.68206591  0.10028050
   0.11103966  0.38899179  0.33727935
   0.27791669  0.22234755  0.33735273
   0.11129731  0.88901752  0.33728999
   0.27796823  0.72221839  0.33720494
   0.61107097  0.38883631  0.33720006
   0.77773593  0.22226669  0.33728878
   0.61092677  0.88884034  0.33734196
   0.77741550  0.72207783  0.33728894
Direct configuration=     3
   0.00416100  0.00268487  0.11971863
   0.35636020  0.00282314  0.09765037
   0.00421357  0.35502830  0.09768033
   0.65196084  0.65054886  0.09765775
   0.32648208  0.32503407  0.10030850
   0.68201526  0.00278786  0.10030062
   0.00419534  0.68045288  0.10027305
   0.11107503  0.38894020  0.33727301
   0.27784711  0.22228459  0.33730972
   0.11120393  0.88895307  0.33727834
   0.27787289  0.72221997  0.33723578
   0.61109070  0.38886242  0.33723334
   0.77775668  0.22224413  0.33727773
   0.61101856  0.88886443  0.33730434
   0.77759637  0.72214965  0.33727781
Direct configuration=     4
   0.00417115  0.00272198  0.11858784
   0.35685914  0.00275588  0.09796178
   0.00420888  0.35552594  0.09804578
   0.65152831  0.64998279  0.09800854
   0.32663699  0.32506310  0.10028250
   0.68195151  0.00278312  0.10031670
   0.00424013  0.68034663  0.10025507
   0.11109303  0.38887774  0.33728848
   0.27767614  0.22224809  0.33738382
   0.11097600  0.88885796  0.33730536
   0.27765756  0.72226473  0.33718915
   0.61109047  0.38892438  0.33718534
   0.77773711  0.22222550  0.33729820
   0.61115231  0.88897382  0.33737064
   0.77787081  0.72232677  0.33730014
Direct configuration=     5
   0.00420161  0.00283334  0.11519548
   0.35835596  0.00255409  0.09889603
   0.00419481  0.35701888  0.09914213
   0.65023072  0.64828460  0.09906093
   0.32710171  0.32515021  0.10020448
   0.68176023  0.00276889  0.10036495
   0.00437453  0.68002788  0.10020111
   0.11114701  0.38869035  0.33733489
   0.27716323  0.22213861  0.33760610
   0.11029221  0.88857263  0.33738642
   0.27701158  0.72239902  0.33704924
   0.61108980  0.38911027  0.33704132
   0.77767843  0.22216959  0.33735960
   0.61155359  0.88930197  0.33756954
   0.77869413  0.72285811  0.33736713
Direct configuration=     6
   0.00420775  0.00283765  0.11478809
   0.35848165  0.00253659  0.09898685
   0.00420501  0.35712515  0.09924712
   0.65013606  0.64815280  0.09916200
   0.32719725  0.32521727  0.10022054
   0.68168248  0.00275683  0.10039301
   0.00438560  0.67994531  0.10021972
   0.11109897  0.38877773  0.33734023
   0.27727197  0.22216749  0.33762101
   0.11046320  0.88870589  0.33739523
   0.27715986  0.72239228  0.33704552
   0.61105283  0.38909623  0.33703810
   0.77767552  0.22221770  0.33736518
   0.61140308  0.88922209  0.33758310
   0.77842833  0.72272742  0.33737364
Direct configuration=     7
   0.00422617  0.00285060  0.11356591
   0.35885870  0.00248410  0.09925930
   0.00423561  0.35744394  0.09956211
   0.64985206  0.64775740  0.09946520
   0.32748389  0.32541843  0.10026874
   0.68144923  0.00272066  0.10047719
   0.00441882  0.67969758  0.10027554
   0.11095483  0.38903987  0.33735625
   0.27759821  0.22225414  0.33766575
   0.11097617  0.88910567  0.33742165
   0.27760467  0.72237209  0.33703438
   0.61094192  0.38905409  0.33702842
   0.77766681  0.22236205  0.33738193
   0.61095155  0.88898245  0.33762379
   0.77763093  0.72233537  0.33739318
Direct configuration=     8
   0.00426300  0.00287651  0.11112157
   0.35961280  0.00237913  0.09980422
   0.00429680  0.35808153  0.10019208
   0.64928406  0.64696661  0.10007160
   0.32805716  0.32582077  0.10036513
   0.68098273  0.00264830  0.10064557
   0.00448525  0.67920214  0.10038717
   0.11066656  0.38956414  0.33738829
   0.27825068  0.22242742  0.33775521
   0.11200211  0.88990523  0.33747449
   0.27849429  0.72233170  0.33701209
   0.61072010  0.38896980  0.33700906
   0.77764937  0.22265073  0.33741543
   0.61004850  0.88850317  0.33770517
   0.77603613  0.72155127  0.33743226
Direct configuration=     9
   0.00423827  0.00285911  0.11276293
   0.35910643  0.00244962  0.09943831
   0.00425571  0.35765339  0.09976906
   0.64966547  0.64749762  0.09966441
   0.32767221  0.32555060  0.10030040
   0.68129598  0.00269689  0.10053251
   0.00444064  0.67953483  0.10031221
   0.11086013  0.38921209  0.33736678
   0.27781255  0.22231106  0.33769514
   0.11131319  0.88936833  0.33743901
   0.27789691  0.72235882  0.33702706
   0.61086905  0.38902640  0.33702206
   0.77766108  0.22245688  0.33739294
   0.61065490  0.88882500  0.33765052
   0.77710703  0.72207779  0.33740602
Direct configuration=    10
   0.00425448  0.00284065  0.11222877
   0.35909813  0.00244211  0.09951399
   0.00429008  0.35760246  0.09984989
   0.64971260  0.64752397  0.09974356
   0.32775802  0.32563144  0.10037579
   0.68121696  0.00266277  0.10061533
   0.00444760  0.67944810  0.10038947
   0.11086126  0.38920145  0.33737316
   0.27781846  0.22241733  0.33768880
   0.11128080  0.88931056  0.33744714
   0.27789827  0.72237746  0.33705141
   0.61086559  0.38898794  0.33704846
   0.77760839  0.22245354  0.33739660
   0.61065242  0.88886591  0.33764538
   0.77708650  0.72211276  0.33741157
Direct configuration=    11
   0.00430313  0.00278528  0.11062627
   0.35907323  0.00241958  0.09974103
   0.00439319  0.35744966  0.10009240
   0.64985400  0.64760303  0.09998102
   0.32801546  0.32587396  0.10060197
   0.68097988  0.00256040  0.10086381
   0.00446846  0.67918792  0.10062127
   0.11086464  0.38916954  0.33739232
   0.27783619  0.22273612  0.33766980
   0.11118361  0.88913722  0.33747152
   0.27790232  0.72243337  0.33712448
   0.61085523  0.38887255  0.33712767
   0.77745032  0.22244349  0.33740761
   0.61064499  0.88898865  0.33762994
   0.77702493  0.72221767  0.33742824
Direct configuration=    12
   0.00440042  0.00267453  0.10742127
   0.35902343  0.00237453  0.10019512
   0.00459942  0.35714407  0.10057741
   0.65013680  0.64776114  0.10045595
   0.32853032  0.32635900  0.10105432
   0.68050572  0.00235568  0.10136076
   0.00451019  0.67866756  0.10108487
   0.11087140  0.38910571  0.33743063
   0.27787164  0.22337370  0.33763180
   0.11098923  0.88879056  0.33752028
   0.27791042  0.72254518  0.33727061
   0.61083449  0.38864178  0.33728608
   0.77713417  0.22242341  0.33742961
   0.61063012  0.88923411  0.33759905
   0.77690177  0.72242749  0.33746156
Direct configuration=    13
   0.00444359  0.00262494  0.10647843
   0.35903898  0.00237130  0.10033808
   0.00465029  0.35712507  0.10071272
   0.65015000  0.64776444  0.10059331
   0.32857045  0.32638293  0.10119024
   0.68051342  0.00231333  0.10149800
   0.00453402  0.67858314  0.10122258
   0.11078536  0.38915975  0.33744079
   0.27760605  0.22287345  0.33761230
   0.11082964  0.88902510  0.33753105
   0.27763515  0.72249343  0.33732801
   0.61080998  0.38897265  0.33734330
   0.77730982  0.22242424  0.33743815
   0.61074355  0.88928944  0.33757996
   0.77722925  0.72247523  0.33747242
Direct configuration=    14
   0.00447497  0.00258889  0.10579291
   0.35905029  0.00236896  0.10044203
   0.00468727  0.35711125  0.10081110
   0.65015961  0.64776684  0.10069318
   0.32859963  0.32640033  0.10128907
   0.68051903  0.00228255  0.10159779
   0.00455135  0.67852176  0.10132271
   0.11072280  0.38919904  0.33744818
   0.27741295  0.22250972  0.33759812
   0.11071361  0.88919563  0.33753888
   0.27743500  0.72245580  0.33736975
   0.61079216  0.38921321  0.33738489
   0.77743752  0.22242485  0.33744435
   0.61082602  0.88932967  0.33756607
   0.77746735  0.72250994  0.33748032
Direct configuration=    15
   0.00447662  0.00258700  0.10575698
   0.35905088  0.00236883  0.10044747
   0.00468921  0.35711053  0.10081626
   0.65016011  0.64776697  0.10069842
   0.32860116  0.32640124  0.10129424
   0.68051932  0.00228093  0.10160302
   0.00455226  0.67851855  0.10132795
   0.11071952  0.38920110  0.33744856
   0.27740283  0.22249066  0.33759738
   0.11070753  0.88920457  0.33753929
   0.27742451  0.72245383  0.33737193
   0.61079123  0.38922582  0.33738707
   0.77744422  0.22242488  0.33744468
   0.61083034  0.88933178  0.33756534
   0.77747982  0.72251176  0.33748073
Direct configuration=    16
   0.00449354  0.00256404  0.10558852
   0.35914897  0.00237323  0.10050199
   0.00467988  0.35721524  0.10085148
   0.65004324  0.64766764  0.10073950
   0.32850752  0.32628624  0.10130238
   0.68065759  0.00230129  0.10159760
   0.00457013  0.67858127  0.10133518
   0.11073367  0.38918983  0.33745019
   0.27738708  0.22243737  0.33759243
   0.11076301  0.88925418  0.33753797
   0.27741729  0.72252754  0.33738903
   0.61075687  0.38922735  0.33739976
   0.77746077  0.22252287  0.33744995
   0.61077716  0.88919755  0.33755842
   0.77745282  0.72253282  0.33748495
Direct configuration=    17
   0.00452306  0.00252400  0.10529473
   0.35932002  0.00238089  0.10059707
   0.00466362  0.35739784  0.10091290
   0.64983943  0.64749442  0.10081115
   0.32834421  0.32608570  0.10131657
   0.68089871  0.00233678  0.10158816
   0.00460131  0.67869065  0.10134777
   0.11075836  0.38917018  0.33745302
   0.27735962  0.22234444  0.33758380
   0.11085977  0.88934068  0.33753566
   0.27740470  0.72265609  0.33741884
   0.61069696  0.38923001  0.33742189
   0.77748965  0.22269374  0.33745913
   0.61068441  0.88896347  0.33754635
   0.77740573  0.72256954  0.33749230
Direct configuration=    18
   0.00454044  0.00248140  0.10508981
   0.35952972  0.00238430  0.10069215
   0.00464088  0.35755657  0.10096728
   0.64963213  0.64731066  0.10087787
   0.32824955  0.32595246  0.10131005
   0.68105318  0.00237792  0.10155009
   0.00462761  0.67877382  0.10133904
   0.11077238  0.38921134  0.33745684
   0.27741388  0.22249356  0.33757897
   0.11082029  0.88928181  0.33753324
   0.27743982  0.72261503  0.33744018
   0.61069118  0.38919882  0.33743681
   0.77740518  0.22260882  0.33746838
   0.61067486  0.88908823  0.33754019
   0.77735846  0.72254371  0.33749842
Direct configuration=    19
   0.00455439  0.00244717  0.10492519
   0.35969818  0.00238703  0.10076853
   0.00462262  0.35768407  0.10101097
   0.64946560  0.64716304  0.10093147
   0.32817350  0.32584543  0.10130481
   0.68117726  0.00241097  0.10151951
   0.00464874  0.67884063  0.10133203
   0.11078365  0.38924440  0.33745992
   0.27745746  0.22261335  0.33757509
   0.11078859  0.88923452  0.33753129
   0.27746802  0.72258205  0.33745732
   0.61068654  0.38917376  0.33744880
   0.77733732  0.22254059  0.33747581
   0.61066719  0.88918846  0.33753524
   0.77732049  0.72252296  0.33750334
Direct configuration=    20
   0.00455333  0.00242248  0.10483659
   0.35976619  0.00238285  0.10082060
   0.00461869  0.35765782  0.10103630
   0.64944863  0.64713821  0.10096482
   0.32825225  0.32590790  0.10129763
   0.68110494  0.00241772  0.10148779
   0.00465248  0.67880094  0.10132327
   0.11070234  0.38923199  0.33746533
   0.27740020  0.22256944  0.33757686
   0.11074127  0.88925374  0.33753309
   0.27742999  0.72254772  0.33745914
   0.61072413  0.38921226  0.33745167
   0.77738289  0.22252739  0.33748024
   0.61072191  0.88926445  0.33754120
   0.77735032  0.72254354  0.33750479
Direct configuration=    21
   0.00455271  0.00240791  0.10478430
   0.35980633  0.00238038  0.10085134
   0.00461638  0.35764232  0.10105125
   0.64943862  0.64712356  0.10098451
   0.32829873  0.32594477  0.10129339
   0.68106225  0.00242171  0.10146908
   0.00465468  0.67877751  0.10131811
   0.11065434  0.38922466  0.33746853
   0.27736641  0.22254353  0.33757790
   0.11071334  0.88926508  0.33753415
   0.27740754  0.72252746  0.33746022
   0.61074632  0.38923498  0.33745337
   0.77740979  0.22251960  0.33748285
   0.61075421  0.88930930  0.33754471
   0.77736793  0.72255568  0.33750564
Direct configuration=    22
   0.00455919  0.00238704  0.10468321
   0.35978434  0.00237606  0.10090633
   0.00462251  0.35754509  0.10107422
   0.64951260  0.64717612  0.10101711
   0.32838977  0.32601904  0.10129042
   0.68098457  0.00241480  0.10143329
   0.00465655  0.67870914  0.10131310
   0.11066799  0.38921718  0.33747661
   0.27735597  0.22254154  0.33758383
   0.11073247  0.88927798  0.33753842
   0.27739720  0.72258681  0.33745683
   0.61071844  0.38922791  0.33745330
   0.77740152  0.22258418  0.33748827
   0.61071605  0.88923223  0.33755742
   0.77735038  0.72258332  0.33750697
Direct configuration=    23
   0.00456343  0.00237338  0.10461705
   0.35976996  0.00237323  0.10094232
   0.00462652  0.35748145  0.10108925
   0.64956102  0.64721052  0.10103845
   0.32844935  0.32606764  0.10128847
   0.68093373  0.00241028  0.10140988
   0.00465778  0.67866441  0.10130983
   0.11067692  0.38921228  0.33748190
   0.27734915  0.22254023  0.33758771
   0.11074499  0.88928643  0.33754121
   0.27739043  0.72262566  0.33745461
   0.61070019  0.38922329  0.33745325
   0.77739611  0.22262645  0.33749181
   0.61069109  0.88918180  0.33756573
   0.77733889  0.72260141  0.33750785
Direct configuration=    24
   0.00458930  0.00236484  0.10449785
   0.35966637  0.00237043  0.10098807
   0.00464416  0.35739002  0.10110448
   0.64967777  0.64729781  0.10106281
   0.32845519  0.32605227  0.10129817
   0.68096791  0.00238968  0.10138329
   0.00466621  0.67862289  0.10131728
   0.11072324  0.38927607  0.33749017
   0.27738384  0.22258803  0.33759772
   0.11073760  0.88929847  0.33754647
   0.27740047  0.72261748  0.33745080
   0.61065376  0.38923885  0.33745140
   0.77733001  0.22258682  0.33749923
   0.61064370  0.88921772  0.33758053
   0.77731002  0.72256707  0.33751106
Direct configuration=    25
   0.00459904  0.00236162  0.10445294
   0.35962735  0.00236937  0.10100531
   0.00465080  0.35735557  0.10111021
   0.64972176  0.64733070  0.10107199
   0.32845739  0.32604648  0.10130182
   0.68098078  0.00238192  0.10137328
   0.00466939  0.67860725  0.10132009
   0.11074069  0.38930010  0.33749329
   0.27739692  0.22260604  0.33760149
   0.11073482  0.88930301  0.33754845
   0.27740426  0.72261440  0.33744937
   0.61063626  0.38924471  0.33745071
   0.77730511  0.22257189  0.33750202
   0.61062584  0.88923125  0.33758610
   0.77729915  0.72255413  0.33751227
Direct configuration=    26
   0.00462842  0.00236076  0.10433183
   0.35958766  0.00235922  0.10102957
   0.00467461  0.35734359  0.10111557
   0.64976862  0.64734134  0.10108291
   0.32843104  0.32599383  0.10132366
   0.68104716  0.00235429  0.10136523
   0.00468527  0.67859671  0.10134015
   0.11065734  0.38927752  0.33749930
   0.27734671  0.22261044  0.33761264
   0.11069469  0.88930567  0.33755307
   0.27737400  0.72260840  0.33745013
   0.61066361  0.38925686  0.33744997
   0.77733218  0.22258733  0.33751052
   0.61066124  0.88928922  0.33759683
   0.77729699  0.72259325  0.33751798
Direct configuration=    27
   0.00464841  0.00236017  0.10424946
   0.35956067  0.00235232  0.10104608
   0.00469081  0.35733544  0.10111921
   0.64980050  0.64734857  0.10109033
   0.32841312  0.32595801  0.10133851
   0.68109232  0.00233550  0.10135975
   0.00469607  0.67858955  0.10135379
   0.11060064  0.38926216  0.33750338
   0.27731256  0.22261343  0.33762022
   0.11066739  0.88930748  0.33755621
   0.27735342  0.72260432  0.33745064
   0.61068222  0.38926513  0.33744947
   0.77735059  0.22259783  0.33751630
   0.61068532  0.88932866  0.33760412
   0.77729552  0.72261986  0.33752186
Direct configuration=    28
   0.00466310  0.00235602  0.10415586
   0.35959872  0.00233713  0.10105783
   0.00470893  0.35735406  0.10112263
   0.64979037  0.64730618  0.10109615
   0.32842328  0.32594453  0.10135663
   0.68110252  0.00231484  0.10135946
   0.00470995  0.67858247  0.10137096
   0.11059056  0.38926679  0.33750750
   0.27729697  0.22261756  0.33762778
   0.11066230  0.88932027  0.33755998
   0.27734141  0.72262678  0.33745395
   0.61066937  0.38927290  0.33745111
   0.77734165  0.22262416  0.33752251
   0.61066832  0.88931794  0.33761005
   0.77728210  0.72263681  0.33752694
Direct configuration=    29
   0.00470717  0.00234356  0.10387509
   0.35971289  0.00229157  0.10109310
   0.00476328  0.35740990  0.10113288
   0.64975999  0.64717902  0.10111360
   0.32845376  0.32590410  0.10141099
   0.68113312  0.00225287  0.10135857
   0.00475157  0.67856122  0.10142246
   0.11056030  0.38928068  0.33751984
   0.27725021  0.22262995  0.33765047
   0.11064705  0.88935863  0.33757128
   0.27730538  0.72269414  0.33746387
   0.61063084  0.38929621  0.33745603
   0.77731485  0.22270314  0.33754115
   0.61061731  0.88928579  0.33762785
   0.77724184  0.72268766  0.33754216
Direct configuration=    30
   0.00479531  0.00231865  0.10331353
   0.35994123  0.00220044  0.10116363
   0.00487198  0.35752160  0.10115338
   0.64969923  0.64692470  0.10114852
   0.32851471  0.32582323  0.10151971
   0.68119433  0.00212894  0.10135679
   0.00483481  0.67851873  0.10152545
   0.11049979  0.38930846  0.33754453
   0.27715668  0.22265472  0.33769585
   0.11061655  0.88943536  0.33759389
   0.27723332  0.72282887  0.33748372
   0.61055376  0.38934281  0.33746585
   0.77726124  0.22286111  0.33757842
   0.61051529  0.88922149  0.33766345
   0.77716132  0.72278935  0.33757261
Direct configuration=    31
   0.00475628  0.00232969  0.10356221
   0.35984011  0.00224079  0.10113240
   0.00482384  0.35747214  0.10114430
   0.64972614  0.64703732  0.10113306
   0.32848772  0.32585904  0.10147156
   0.68116723  0.00218382  0.10135757
   0.00479794  0.67853754  0.10147984
   0.11052659  0.38929616  0.33753360
   0.27719810  0.22264375  0.33767576
   0.11063005  0.88940138  0.33758388
   0.27726523  0.72276921  0.33747493
   0.61058789  0.38932217  0.33746150
   0.77728498  0.22279115  0.33756191
   0.61056047  0.88924996  0.33764769
   0.77719698  0.72274431  0.33755912
Direct configuration=    32
   0.00476606  0.00232006  0.10347151
   0.35988100  0.00222362  0.10114460
   0.00483874  0.35747838  0.10115229
   0.64972041  0.64700102  0.10114220
   0.32850858  0.32585333  0.10148423
   0.68116854  0.00216790  0.10135652
   0.00481211  0.67853052  0.10149189
   0.11053271  0.38932864  0.33753819
   0.27720062  0.22266013  0.33768119
   0.11061402  0.88941490  0.33758840
   0.27725636  0.72276511  0.33747946
   0.61056387  0.38934232  0.33746575
   0.77725701  0.22277485  0.33756691
   0.61054205  0.88928159  0.33765252
   0.77718748  0.72273607  0.33756366
Direct configuration=    33
   0.00479540  0.00229117  0.10319940
   0.36000367  0.00217212  0.10118122
   0.00488343  0.35749710  0.10117626
   0.64970322  0.64689212  0.10116965
   0.32857116  0.32583621  0.10152225
   0.68117248  0.00212014  0.10135335
   0.00485462  0.67850945  0.10152804
   0.11055108  0.38942608  0.33755195
   0.27720820  0.22270926  0.33769747
   0.11056591  0.88945546  0.33760198
   0.27722973  0.72275282  0.33749305
   0.61049180  0.38940277  0.33747851
   0.77717309  0.22272595  0.33758190
   0.61048680  0.88937645  0.33766703
   0.77715898  0.72271136  0.33757728
Direct configuration=    34
   0.00479825  0.00227782  0.10315037
   0.36000598  0.00216174  0.10119093
   0.00488711  0.35747280  0.10119036
   0.64972223  0.64689787  0.10118235
   0.32858709  0.32583130  0.10151859
   0.68117913  0.00211973  0.10135047
   0.00486404  0.67850364  0.10152457
   0.11053512  0.38942783  0.33755551
   0.27720133  0.22272957  0.33769718
   0.11055206  0.88945264  0.33760588
   0.27722187  0.72275308  0.33749765
   0.61048974  0.38940384  0.33748529
   0.77716624  0.22272581  0.33758284
   0.61048859  0.88940012  0.33766823
   0.77715079  0.72272065  0.33757912
Direct configuration=    35
   0.00480680  0.00223777  0.10300329
   0.36001292  0.00213063  0.10122003
   0.00489814  0.35739990  0.10123267
   0.64977926  0.64691514  0.10122045
   0.32863487  0.32581658  0.10150761
   0.68119907  0.00211849  0.10134183
   0.00489231  0.67848620  0.10151416
   0.11048726  0.38943305  0.33756620
   0.27718074  0.22279049  0.33769629
   0.11051051  0.88944419  0.33761758
   0.27719827  0.72275386  0.33751145
   0.61048357  0.38940707  0.33750565
   0.77714570  0.22272541  0.33758564
   0.61049394  0.88947111  0.33767185
   0.77712620  0.72274854  0.33758464
Direct configuration=    36
   0.00482389  0.00215768  0.10270913
   0.36002680  0.00206841  0.10127824
   0.00492020  0.35725411  0.10131729
   0.64989331  0.64694969  0.10129665
   0.32873045  0.32578713  0.10148564
   0.68123896  0.00211602  0.10132455
   0.00494885  0.67845133  0.10149333
   0.11039153  0.38944351  0.33758756
   0.27713955  0.22291233  0.33769453
   0.11042742  0.88942728  0.33764098
   0.27715107  0.72275543  0.33753905
   0.61047123  0.38941353  0.33754637
   0.77710460  0.22272459  0.33759124
   0.61050466  0.88961310  0.33767909
   0.77707704  0.72280431  0.33759568
Direct configuration=    37
   0.00483157  0.00214618  0.10266050
   0.36002544  0.00206023  0.10128761
   0.00492529  0.35723445  0.10133242
   0.64990998  0.64695366  0.10130999
   0.32874375  0.32577982  0.10148043
   0.68124917  0.00211544  0.10132271
   0.00495896  0.67843944  0.10148845
   0.11038478  0.38945016  0.33759071
   0.27712863  0.22290794  0.33769464
   0.11042627  0.88944216  0.33764456
   0.27714443  0.72276872  0.33754408
   0.61046300  0.38942256  0.33755281
   0.77710018  0.22274174  0.33759251
   0.61049089  0.88960420  0.33767990
   0.77706723  0.72281174  0.33759800
Direct configuration=    38
   0.00485461  0.00211168  0.10251460
   0.36002133  0.00203568  0.10131574
   0.00494056  0.35717547  0.10137782
   0.64995998  0.64696557  0.10135002
   0.32878366  0.32575790  0.10146478
   0.68127979  0.00211372  0.10131717
   0.00498931  0.67840379  0.10147381
   0.11036453  0.38947014  0.33760016
   0.27709585  0.22289475  0.33769498
   0.11042282  0.88948680  0.33765532
   0.27712452  0.72280859  0.33755917
   0.61043832  0.38944965  0.33757214
   0.77708692  0.22279319  0.33759633
   0.61044956  0.88957748  0.33768232
   0.77703780  0.72283403  0.33760498
Direct configuration=    39
   0.00490069  0.00204267  0.10222282
   0.36001313  0.00198660  0.10137199
   0.00497110  0.35705752  0.10146861
   0.65006000  0.64698941  0.10143006
   0.32886347  0.32571405  0.10143350
   0.68134103  0.00211028  0.10130609
   0.00505000  0.67833248  0.10144454
   0.11032405  0.38951009  0.33761906
   0.27703029  0.22286838  0.33769564
   0.11041591  0.88957607  0.33767683
   0.27708469  0.72288833  0.33758936
   0.61038895  0.38950383  0.33761079
   0.77706039  0.22289609  0.33760396
   0.61036691  0.88952404  0.33768716
   0.77697894  0.72287860  0.33761893
Direct configuration=    40
   0.00492155  0.00204321  0.10218612
   0.36002523  0.00198774  0.10137446
   0.00498425  0.35707525  0.10147624
   0.65004782  0.64696453  0.10143619
   0.32886256  0.32570404  0.10143160
   0.68135246  0.00210020  0.10131244
   0.00505731  0.67831179  0.10144322
   0.11034349  0.38953287  0.33761916
   0.27703119  0.22286378  0.33770019
   0.11040688  0.88958708  0.33767739
   0.27707352  0.72289537  0.33759294
   0.61036563  0.38952264  0.33761065
   0.77704108  0.22288925  0.33760779
   0.61035090  0.88952551  0.33768778
   0.77698569  0.72287518  0.33762317
Direct configuration=    41
   0.00497991  0.00204473  0.10208342
   0.36005909  0.00199095  0.10138139
   0.00502104  0.35712489  0.10149759
   0.65001373  0.64689492  0.10145334
   0.32886001  0.32567601  0.10142631
   0.68138444  0.00207199  0.10133022
   0.00507778  0.67825389  0.10143953
   0.11039788  0.38959660  0.33761941
   0.27703368  0.22285092  0.33771292
   0.11038159  0.88961787  0.33767895
   0.27704228  0.72291509  0.33760294
   0.61030038  0.38957528  0.33761028
   0.77698706  0.22287010  0.33761849
   0.61030611  0.88952962  0.33768950
   0.77700458  0.72286559  0.33763504
Direct configuration=    42
   0.00500609  0.00204370  0.10203367
   0.36009199  0.00199285  0.10138095
   0.00504280  0.35715322  0.10150393
   0.64999297  0.64685216  0.10145778
   0.32885352  0.32566126  0.10142606
   0.68139941  0.00204923  0.10134542
   0.00508492  0.67823731  0.10144029
   0.11038456  0.38959739  0.33761895
   0.27702300  0.22286930  0.33772160
   0.11036887  0.88961706  0.33767912
   0.27703098  0.72292550  0.33760618
   0.61029384  0.38957694  0.33760704
   0.77697853  0.22288062  0.33762495
   0.61030237  0.88954118  0.33769186
   0.77699571  0.72288072  0.33764153
Direct configuration=    43
   0.00508462  0.00204064  0.10188443
   0.36019069  0.00199856  0.10137961
   0.00510807  0.35723822  0.10152295
   0.64993068  0.64672389  0.10147110
   0.32883404  0.32561700  0.10142532
   0.68144430  0.00198097  0.10139103
   0.00510634  0.67818756  0.10144254
   0.11034460  0.38959976  0.33761757
   0.27699097  0.22292446  0.33774763
   0.11033069  0.88961462  0.33767963
   0.27699711  0.72295671  0.33761589
   0.61027423  0.38958191  0.33759730
   0.77695295  0.22291217  0.33764433
   0.61029115  0.88957586  0.33769897
   0.77696911  0.72292610  0.33766102
Direct configuration=    44
   0.00507149  0.00201784  0.10184888
   0.36022080  0.00198562  0.10137830
   0.00511568  0.35720458  0.10152408
   0.64995842  0.64672856  0.10147167
   0.32884086  0.32561282  0.10142621
   0.68144846  0.00196172  0.10140547
   0.00510787  0.67821779  0.10144428
   0.11029474  0.38959644  0.33762114
   0.27697218  0.22292602  0.33775119
   0.11033497  0.88963722  0.33768339
   0.27700409  0.72295227  0.33761344
   0.61029199  0.38958266  0.33759737
   0.77696736  0.22293413  0.33764600
   0.61028807  0.88958980  0.33770588
   0.77693257  0.72293097  0.33766205
Direct configuration=    45
   0.00506122  0.00200001  0.10182108
   0.36024436  0.00197549  0.10137727
   0.00512163  0.35717826  0.10152495
   0.64998011  0.64673222  0.10147211
   0.32884620  0.32560955  0.10142690
   0.68145172  0.00194666  0.10141677
   0.00510907  0.67824143  0.10144563
   0.11025573  0.38959384  0.33762393
   0.27695749  0.22292724  0.33775398
   0.11033832  0.88965490  0.33768633
   0.27700955  0.72294880  0.33761153
   0.61030588  0.38958325  0.33759742
   0.77697863  0.22295131  0.33764730
   0.61028566  0.88960071  0.33771128
   0.77690399  0.72293479  0.33766286
Direct configuration=    46
   0.00504834  0.00197972  0.10179625
   0.36024777  0.00195933  0.10137749
   0.00512362  0.35713778  0.10152416
   0.65001816  0.64675133  0.10147188
   0.32886537  0.32561197  0.10142667
   0.68145325  0.00193772  0.10142752
   0.00511544  0.67825498  0.10144605
   0.11026810  0.38960857  0.33762927
   0.27695747  0.22293588  0.33775405
   0.11032549  0.88965614  0.33769142
   0.27699764  0.72295766  0.33760751
   0.61028605  0.38959435  0.33760003
   0.77695942  0.22294662  0.33764661
   0.61027472  0.88960789  0.33771921
   0.77690871  0.72293852  0.33766121
Direct configuration=    47
   0.00503420  0.00195745  0.10176899
   0.36025151  0.00194158  0.10137774
   0.00512580  0.35709335  0.10152330
   0.65005994  0.64677230  0.10147162
   0.32888643  0.32561463  0.10142641
   0.68145494  0.00192791  0.10143932
   0.00512244  0.67826985  0.10144651
   0.11028167  0.38962475  0.33763513
   0.27695744  0.22294536  0.33775414
   0.11031140  0.88965749  0.33769700
   0.27698457  0.72296739  0.33760311
   0.61026429  0.38960653  0.33760289
   0.77693832  0.22294147  0.33764586
   0.61026272  0.88961577  0.33772792
   0.77691390  0.72294262  0.33765939
Direct configuration=    48
   0.00505042  0.00195507  0.10174316
   0.36023201  0.00192920  0.10138085
   0.00513225  0.35708181  0.10152315
   0.65007932  0.64677293  0.10147279
   0.32891055  0.32561110  0.10142380
   0.68146259  0.00192771  0.10144787
   0.00514141  0.67823524  0.10144453
   0.11028127  0.38962940  0.33763975
   0.27694704  0.22295472  0.33775477
   0.11030050  0.88965960  0.33770095
   0.27696954  0.72298301  0.33760168
   0.61025074  0.38961307  0.33760568
   0.77692646  0.22295371  0.33764683
   0.61025389  0.88961469  0.33773432
   0.77691157  0.72295718  0.33765920
Direct configuration=    49
   0.00507732  0.00195112  0.10170034
   0.36019970  0.00190869  0.10138599
   0.00514294  0.35706267  0.10152290
   0.65011145  0.64677397  0.10147472
   0.32895054  0.32560525  0.10141949
   0.68147529  0.00192739  0.10146203
   0.00517283  0.67817788  0.10144124
   0.11028059  0.38963711  0.33764741
   0.27692979  0.22297024  0.33775582
   0.11028243  0.88966309  0.33770750
   0.27694463  0.72300890  0.33759932
   0.61022829  0.38962391  0.33761030
   0.77690680  0.22297401  0.33764843
   0.61023926  0.88961290  0.33774494
   0.77690770  0.72298131  0.33765889
Direct configuration=    50
   0.00509207  0.00195072  0.10168128
   0.36019605  0.00190029  0.10138937
   0.00515041  0.35705759  0.10152368
   0.65011951  0.64676652  0.10147653
   0.32896216  0.32559614  0.10141678
   0.68148281  0.00192543  0.10146637
   0.00518615  0.67815836  0.10143893
   0.11026284  0.38964435  0.33764936
   0.27692047  0.22297193  0.33775736
   0.11027774  0.88967669  0.33770891
   0.27694150  0.72300956  0.33760058
   0.61022653  0.38963204  0.33761165