<?xml version="1.0" encoding="ISO-8859-1"?>
<modeling>
 <generator>
  <i name="program" type="string">vasp </i>
  <i name="version" type="string">6.3.2  </i>
  <i name="subversion" type="string">27Jun22 (build Dec 22 2022 13:13:19) complex                          parallel </i>
  <i name="platform" type="string">LinuxIFC </i>
  <i name="date" type="string">2023 08 23 </i>
  <i name="time" type="string">00:25:03 </i>
 </generator>
 <incar>
  <i type="string" name="SYSTEM">Lattice</i>
  <i type="int" name="ISTART">     0</i>
  <i type="string" name="PREC">Accurate</i>
  <i type="string" name="ALGO">Normal</i>
  <i type="int" name="ISPIN">     2</i>
  <i type="int" name="ICHARG">     2</i>
  <i type="int" name="NELM">    64</i>
  <i type="int" name="IBRION">     2</i>
  <i name="EDIFF">      0.00000100</i>
  <i name="EDIFFG">     -0.00100000</i>
  <i type="int" name="NSW">   128</i>
  <i type="int" name="ISIF">     2</i>
  <i name="ENCUT">    450.00000000</i>
  <i name="POTIM">      0.50000000</i>
  <i type="int" name="ISMEAR">     0</i>
  <i name="SIGMA">      0.10000000</i>
  <i type="logical" name="LWAVE"> F  </i>
  <i type="logical" name="LCHARG"> F  </i>
  <i type="string" name="GGA">PE</i>
  <i type="int" name="IVDW">    12</i>
 </incar>
 <primitive_cell>
  <structure name="primitive_cell" >
   <crystal>
    <varray name="basis" >
     <v>       4.30674433       2.48650000       0.00000000 </v>
     <v>      -4.30674433       2.48650000       0.00000000 </v>
     <v>       0.00000000       0.00000000      15.00000000 </v>
    </varray>
    <i name="volume">    321.26159352 </i>
    <varray name="rec_basis" >
     <v>       0.11609698       0.20108586       0.00000000 </v>
     <v>      -0.11609698       0.20108586       0.00000000 </v>
     <v>       0.00000000       0.00000000       0.06666667 </v>
    </varray>
   </crystal>
   <varray name="positions" >
    <v>       0.66888689       0.00000000       0.10000000 </v>
    <v>       0.33111211       0.00000000       0.10000000 </v>
    <v>       0.00000000       0.33111211       0.10000000 </v>
    <v>       0.00000000       0.66888689       0.10000000 </v>
    <v>       0.33111211       0.33111211       0.10000000 </v>
    <v>       0.66888689       0.66888689       0.10000000 </v>
    <v>       0.66666600       0.33333300       0.09922189 </v>
    <v>       0.33333300       0.66666600       0.10077811 </v>
    <v>       0.24999933       0.24999967       0.46906667 </v>
    <v>       0.41666633       0.08333267       0.46906667 </v>
    <v>       0.24999933       0.74999967       0.46906667 </v>
    <v>       0.41666633       0.58333267       0.46906667 </v>
    <v>       0.74999933       0.24999967       0.46906667 </v>
    <v>       0.91666633       0.08333267       0.46906667 </v>
    <v>       0.74999933       0.74999967       0.46906667 </v>
    <v>       0.91666633       0.58333267       0.46906667 </v>
   </varray>
  </structure>
  <varray name="primitive_index" >
   <v type="int" >        1 </v>
   <v type="int" >        2 </v>
   <v type="int" >        3 </v>
   <v type="int" >        4 </v>
   <v type="int" >        5 </v>
   <v type="int" >        6 </v>
   <v type="int" >        7 </v>
   <v type="int" >        8 </v>
   <v type="int" >        9 </v>
   <v type="int" >       10 </v>
   <v type="int" >       11 </v>
   <v type="int" >       12 </v>
   <v type="int" >       13 </v>
   <v type="int" >       14 </v>
   <v type="int" >       15 </v>
   <v type="int" >       16 </v>
  </varray>
 </primitive_cell>
 <kpoints>
  <generation param="Gamma">
   <v type="int" name="divisions">      12       12        1 </v>
   <v name="usershift">      0.00000000       0.00000000       0.00000000 </v>
   <v name="genvec1">      0.08333333      -0.00000000       0.00000000 </v>
   <v name="genvec2">     -0.00000000       0.08333333       0.00000000 </v>
   <v name="genvec3">      0.00000000       0.00000000       1.00000000 </v>
   <v name="shift">      0.00000000       0.00000000       0.00000000 </v>
  </generation>
  <varray name="kpointlist" >
   <v>       0.00000000       0.00000000       0.00000000 </v>
   <v>       0.08333333       0.00000000       0.00000000 </v>
   <v>      -0.08333333       0.08333333       0.00000000 </v>
   <v>       0.16666667       0.00000000       0.00000000 </v>
   <v>      -0.16666667       0.16666667       0.00000000 </v>
   <v>       0.25000000       0.00000000       0.00000000 </v>
   <v>      -0.25000000       0.25000000       0.00000000 </v>
   <v>       0.33333333       0.00000000       0.00000000 </v>
   <v>      -0.33333333       0.33333333       0.00000000 </v>
   <v>       0.41666667      -0.00000000       0.00000000 </v>
   <v>      -0.41666667       0.41666667       0.00000000 </v>
   <v>       0.50000000       0.00000000       0.00000000 </v>
   <v>       0.50000000       0.50000000       0.00000000 </v>
   <v>       0.08333333       0.08333333       0.00000000 </v>
   <v>      -0.08333333       0.16666667       0.00000000 </v>
   <v>       0.16666667       0.08333333       0.00000000 </v>
   <v>      -0.08333333       0.25000000       0.00000000 </v>
   <v>      -0.25000000       0.16666667       0.00000000 </v>
   <v>       0.25000000       0.08333333       0.00000000 </v>
   <v>      -0.08333333       0.33333333       0.00000000 </v>
   <v>      -0.33333333       0.25000000       0.00000000 </v>
   <v>       0.33333333       0.08333333       0.00000000 </v>
   <v>      -0.08333333       0.41666667       0.00000000 </v>
   <v>      -0.41666667       0.33333333       0.00000000 </v>
   <v>       0.41666667       0.08333333       0.00000000 </v>
   <v>      -0.08333333       0.50000000       0.00000000 </v>
   <v>       0.50000000       0.41666667       0.00000000 </v>
   <v>       0.16666667       0.16666667       0.00000000 </v>
   <v>      -0.16666667       0.33333333       0.00000000 </v>
   <v>       0.25000000       0.16666667       0.00000000 </v>
   <v>      -0.16666667       0.41666667       0.00000000 </v>
   <v>      -0.41666667       0.25000000       0.00000000 </v>
   <v>       0.33333333       0.16666667       0.00000000 </v>
   <v>      -0.16666667       0.50000000       0.00000000 </v>
   <v>       0.50000000       0.33333333       0.00000000 </v>
   <v>       0.41666667       0.16666667       0.00000000 </v>
   <v>       0.41666667       0.41666667       0.00000000 </v>
   <v>       0.25000000       0.25000000       0.00000000 </v>
   <v>      -0.25000000       0.50000000       0.00000000 </v>
   <v>       0.33333333       0.25000000       0.00000000 </v>
   <v>      -0.25000000      -0.41666667       0.00000000 </v>
   <v>       0.41666667       0.33333333       0.00000000 </v>
   <v>       0.33333333       0.33333333       0.00000000 </v>
  </varray>
  <varray name="weights" >
   <v>       0.00694444 </v>
   <v>       0.02777778 </v>
   <v>       0.01388889 </v>
   <v>       0.02777778 </v>
   <v>       0.01388889 </v>
   <v>       0.02777778 </v>
   <v>       0.01388889 </v>
   <v>       0.02777778 </v>
   <v>       0.01388889 </v>
   <v>       0.02777778 </v>
   <v>       0.01388889 </v>
   <v>       0.01388889 </v>
   <v>       0.00694444 </v>
   <v>       0.01388889 </v>
   <v>       0.02777778 </v>
   <v>       0.02777778 </v>
   <v>       0.02777778 </v>
   <v>       0.02777778 </v>
   <v>       0.02777778 </v>
   <v>       0.02777778 </v>
   <v>       0.02777778 </v>
   <v>       0.02777778 </v>
   <v>       0.02777778 </v>
   <v>       0.02777778 </v>
   <v>       0.02777778 </v>
   <v>       0.02777778 </v>
   <v>       0.02777778 </v>
   <v>       0.01388889 </v>
   <v>       0.02777778 </v>
   <v>       0.02777778 </v>
   <v>       0.02777778 </v>
   <v>       0.02777778 </v>
   <v>       0.02777778 </v>
   <v>       0.02777778 </v>
   <v>       0.02777778 </v>
   <v>       0.02777778 </v>
   <v>       0.01388889 </v>
   <v>       0.01388889 </v>
   <v>       0.02777778 </v>
   <v>       0.02777778 </v>
   <v>       0.02777778 </v>
   <v>       0.02777778 </v>
   <v>       0.01388889 </v>
  </varray>
 </kpoints>
 <parameters>
  <separator name="general" >
   <i type="string" name="SYSTEM">Lattice</i>
   <i type="logical" name="LCOMPAT"> F  </i>
  </separator>
  <separator name="electronic" >
   <i type="string" name="PREC">accura</i>
   <i name="ENMAX">    450.00000000</i>
   <i name="ENAUG">    644.87300000</i>
   <i name="EDIFF">      0.00000100</i>
   <i type="int" name="IALGO">    38</i>
   <i type="int" name="IWAVPR">    11</i>
   <i type="int" name="NBANDS">    48</i>
   <i type="int" name="NBANDSLOW">    -1</i>
   <i type="int" name="NBANDSHIGH">    -1</i>
   <i name="NELECT">     56.00000000</i>
   <i type="int" name="TURBO">     0</i>
   <i type="int" name="IRESTART">     0</i>
   <i type="int" name="NREBOOT">     0</i>
   <i type="int" name="NMIN">     0</i>
   <i name="EREF">      0.00000000</i>
   <separator name="electronic smearing" >
    <i type="int" name="ISMEAR">     0</i>
    <i name="SIGMA">      0.10000000</i>
    <i name="KSPACING">      0.50000000</i>
    <i type="logical" name="KGAMMA"> T  </i>
    <i type="logical" name="KBLOWUP"> T  </i>
   </separator>
   <separator name="electronic projectors" >
    <i type="logical" name="LREAL"> F  </i>
    <v name="ROPT">      0.00000000      0.00000000</v>
    <i type="int" name="LMAXPAW">  -100</i>
    <i type="int" name="LMAXMIX">     2</i>
    <i type="logical" name="NLSPLINE"> F  </i>
   </separator>
   <separator name="electronic startup" >
    <i type="int" name="ISTART">     0</i>
    <i type="int" name="ICHARG">     2</i>
    <i type="int" name="INIWAV">     1</i>
   </separator>
   <separator name="electronic spin" >
    <i type="int" name="ISPIN">     2</i>
    <i type="logical" name="LNONCOLLINEAR"> F  </i>
    <v name="MAGMOM">      1.00000000      1.00000000      1.00000000      1.00000000      1.00000000      1.00000000      1.00000000      1.00000000      1.00000000      1.00000000      1.00000000      1.00000000      1.00000000      1.00000000      1.00000000      1.00000000</v>
    <i name="NUPDOWN">     -1.00000000</i>
    <i type="logical" name="LSORBIT"> F  </i>
    <v name="SAXIS">      0.00000000      0.00000000      1.00000000</v>
    <i type="logical" name="LSPIRAL"> F  </i>
    <v name="QSPIRAL">      0.00000000      0.00000000      0.00000000</v>
    <i type="logical" name="LZEROZ"> F  </i>
   </separator>
   <separator name="electronic exchange-correlation" >
    <i type="logical" name="LASPH"> F  </i>
    <i type="logical" name="LMETAGGA"> F  </i>
   </separator>
   <separator name="electronic convergence" >
    <i type="int" name="NELM">    64</i>
    <i type="int" name="NELMDL">    -5</i>
    <i type="int" name="NELMIN">     2</i>
    <i name="ENINI">    450.00000000</i>
    <separator name="electronic convergence detail" >
     <i type="logical" name="LDIAG"> T  </i>
     <i type="logical" name="LSUBROT"> F  </i>
     <i name="WEIMIN">      0.00100000</i>
     <i name="EBREAK">      0.00000001</i>
     <i name="DEPER">      0.30000000</i>
     <i type="int" name="NRMM">     4</i>
     <i name="TIME">      0.40000000</i>
    </separator>
   </separator>
   <separator name="electronic mixer" >
    <i name="AMIX">      0.40000000</i>
    <i name="BMIX">      1.00000000</i>
    <i name="AMIN">      0.10000000</i>
    <i name="AMIX_MAG">      1.60000000</i>
    <i name="BMIX_MAG">      1.00000000</i>
    <separator name="electronic mixer details" >
     <i type="int" name="IMIX">     4</i>
     <i type="logical" name="MIXFIRST"> F  </i>
     <i type="int" name="MAXMIX">   -45</i>
     <i name="WC">    100.00000000</i>
     <i type="int" name="INIMIX">     1</i>
     <i type="int" name="MIXPRE">     1</i>
     <i type="int" name="MREMOVE">     5</i>
    </separator>
   </separator>
   <separator name="electronic dipolcorrection" >
    <i type="logical" name="LDIPOL"> F  </i>
    <i type="logical" name="LMONO"> F  </i>
    <i type="int" name="IDIPOL">     0</i>
    <i name="EPSILON">      1.00000000</i>
    <v name="DIPOL">   -100.00000000   -100.00000000   -100.00000000</v>
    <i name="EFIELD">      0.00000000</i>
   </separator>
  </separator>
  <separator name="grids" >
   <i type="int" name="NGX">    36</i>
   <i type="int" name="NGY">    36</i>
   <i type="int" name="NGZ">   108</i>
   <i type="int" name="NGXF">    72</i>
   <i type="int" name="NGYF">    72</i>
   <i type="int" name="NGZF">   216</i>
   <i type="logical" name="ADDGRID"> F  </i>
  </separator>
  <separator name="ionic" >
   <i type="int" name="NSW">   128</i>
   <i type="int" name="IBRION">     2</i>
   <i type="int" name="MDALGO">     0</i>
   <i type="int" name="ISIF">     2</i>
   <i name="PSTRESS">      0.00000000</i>
   <i name="EDIFFG">     -0.00100000</i>
   <i type="int" name="NFREE">     1</i>
   <i name="POTIM">      0.50000000</i>
   <i name="SMASS">     -3.00000000</i>
   <i name="SCALEE">      1.00000000</i>
  </separator>
  <separator name="ionic md" >
   <i name="TEBEG">      0.00010000</i>
   <i name="TEEND">      0.00010000</i>
   <i type="int" name="NBLOCK">     1</i>
   <i type="int" name="KBLOCK">   128</i>
   <i type="int" name="NPACO">   256</i>
   <i name="APACO">     10.00000000</i>
  </separator>
  <separator name="symmetry" >
   <i type="int" name="ISYM">     2</i>
   <i name="SYMPREC">      0.00001000</i>
  </separator>
  <separator name="dos" >
   <i type="int" name="LORBIT">     0</i>
   <v name="RWIGS">     -1.00000000     -1.00000000</v>
   <i type="int" name="NEDOS">   301</i>
   <i name="EMIN">     10.00000000</i>
   <i name="EMAX">    -10.00000000</i>
   <i name="EFERMI">      0.00000000</i>
  </separator>
  <separator name="writing" >
   <i type="int" name="NWRITE">     2</i>
   <i type="logical" name="LWAVE"> F  </i>
   <i type="logical" name="LDOWNSAMPLE"> F  </i>
   <i type="logical" name="LCHARG"> F  </i>
   <i type="logical" name="LPARD"> F  </i>
   <i type="logical" name="LVTOT"> F  </i>
   <i type="logical" name="LVHAR"> F  </i>
   <i type="logical" name="LELF"> F  </i>
   <i type="logical" name="LOPTICS"> F  </i>
   <v name="STM">      0.00000000      0.00000000      0.00000000      0.00000000      0.00000000      0.00000000      0.00000000</v>
  </separator>
  <separator name="performance" >
   <i type="int" name="NPAR">    48</i>
   <i type="int" name="NSIM">     4</i>
   <i type="int" name="NBLK">    -1</i>
   <i type="logical" name="LPLANE"> T  </i>
   <i type="logical" name="LSCALAPACK"> T  </i>
   <i type="logical" name="LSCAAWARE"> F  </i>
   <i type="logical" name="LSCALU"> F  </i>
   <i type="logical" name="LASYNC"> F  </i>
   <i type="logical" name="LORBITALREAL"> F  </i>
  </separator>
  <separator name="miscellaneous" >
   <i type="int" name="IDIOT">     3</i>
   <i type="int" name="PHON_NSTRUCT">    -1</i>
   <i type="logical" name="LMUSIC"> F  </i>
   <v name="POMASS">     10.81100000     12.01100000</v>
   <v name="DARWINR">      0.00000000      0.00000000</v>
   <v name="DARWINV">      1.00000000      1.00000000</v>
   <i type="logical" name="LCORR"> T  </i>
  </separator>
  <i type="logical" name="GGA_COMPAT"> T  </i>
  <i type="logical" name="LBERRY"> F  </i>
  <i type="int" name="ICORELEVEL">     0</i>
  <i type="logical" name="LDAU"> F  </i>
  <i type="int" name="I_CONSTRAINED_M">     0</i>
  <separator name="electronic exchange-correlation" >
   <i type="string" name="GGA">PE</i>
   <i type="int" name="VOSKOWN">     0</i>
   <i type="logical" name="LHFCALC"> F  </i>
   <i type="string" name="PRECFOCK"></i>
   <i type="logical" name="LSYMGRAD"> F  </i>
   <i type="logical" name="LHFONE"> F  </i>
   <i type="logical" name="LRHFCALC"> F  </i>
   <i type="logical" name="LTHOMAS"> F  </i>
   <i type="logical" name="LMODELHF"> F  </i>
   <i type="logical" name="LFOCKACE"> F  </i>
   <i name="ENCUT4O">     -1.00000000</i>
   <i type="int" name="EXXOEP">     0</i>
   <i type="int" name="FOURORBIT">     0</i>
   <i name="AEXX">      0.00000000</i>
   <i name="HFALPHA">      0.00000000</i>
   <i name="MCALPHA">      0.00000000</i>
   <i name="ALDAX">      1.00000000</i>
   <i name="AGGAX">      1.00000000</i>
   <i name="ALDAC">      1.00000000</i>
   <i name="AGGAC">      1.00000000</i>
   <i type="int" name="NKREDX">     1</i>
   <i type="int" name="NKREDY">     1</i>
   <i type="int" name="NKREDZ">     1</i>
   <i type="logical" name="SHIFTRED"> F  </i>
   <i type="logical" name="ODDONLY"> F  </i>
   <i type="logical" name="EVENONLY"> F  </i>
   <i type="int" name="LMAXFOCK">     0</i>
   <i type="int" name="NMAXFOCKAE">     0</i>
   <i type="logical" name="LFOCKAEDFT"> F  </i>
   <i name="HFSCREEN">      0.00000000</i>
   <i name="HFSCREENC">      0.00000000</i>
   <i type="int" name="NBANDSGWLOW">     0</i>
  </separator>
  <separator name="vdW DFT" >
   <i type="logical" name="LUSE_VDW"> F  </i>
   <i name="Zab_VDW">     -0.84910000</i>
   <i name="PARAM1">      0.12340000</i>
   <i name="PARAM2">      1.00000000</i>
   <i name="PARAM3">      0.00000000</i>
  </separator>
  <separator name="model GW" >
   <i type="int" name="MODEL_GW">     0</i>
   <i name="MODEL_EPS0">     12.04730976</i>
   <i name="MODEL_ALPHA">      1.00000000</i>
  </separator>
  <separator name="linear response parameters" >
   <i type="logical" name="LEPSILON"> F  </i>
   <i type="logical" name="LRPA"> F  </i>
   <i type="logical" name="LNABLA"> F  </i>
   <i type="logical" name="LVEL"> F  </i>
   <i name="CSHIFT">      0.10000000</i>
   <i name="OMEGAMAX">     -1.00000000</i>
   <i name="DEG_THRESHOLD">      0.00200000</i>
   <i name="RTIME">     -0.10000000</i>
   <i name="WPLASMAI">      0.00000000</i>
   <v name="DFIELD">      0.00000000      0.00000000      0.00000000</v>
   <v name="WPLASMA">      0.00000000      0.00000000      0.00000000      0.00000000      0.00000000      0.00000000      0.00000000      0.00000000      0.00000000</v>
  </separator>
  <separator name="orbital magnetization" >
   <i type="logical" name="NUCIND"> F  </i>
   <v name="MAGPOS">      0.00000000      0.00000000      0.00000000</v>
   <i type="logical" name="LNICSALL"> T  </i>
   <i type="logical" name="ORBITALMAG"> F  </i>
   <i type="logical" name="LMAGBLOCH"> F  </i>
   <i type="logical" name="LCHIMAG"> F  </i>
   <i type="logical" name="LGAUGE"> T  </i>
   <i type="int" name="MAGATOM">     0</i>
   <v name="MAGDIPOL">      0.00000000      0.00000000      0.00000000</v>
   <v name="AVECCONST">      0.00000000      0.00000000      0.00000000</v>
  </separator>
  <separator name="response functions" >
   <i type="logical" name="LFINITE_TEMPERATURE"> F  </i>
   <i type="logical" name="LADDER"> F  </i>
   <i type="logical" name="LRPAFORCE"> F  </i>
   <i type="logical" name="LFXC"> F  </i>
   <i type="logical" name="LHARTREE"> T  </i>
   <i type="int" name="IBSE">     0</i>
   <v type="int" name="KPOINT">    -1     0     0     0</v>
   <i type="logical" name="LTCTC"> F  </i>
   <i type="logical" name="LTCTE"> F  </i>
   <i type="logical" name="LTETE"> F  </i>
   <i type="logical" name="LTRIPLET"> F  </i>
   <i type="logical" name="LFXCEPS"> F  </i>
   <i type="logical" name="LFXHEG"> F  </i>
   <i type="int" name="NATURALO">     2</i>
   <i type="logical" name="LHOLEGF"> F  </i>
   <i type="logical" name="L2ORDER"> F  </i>
   <i type="logical" name="LDMP1"> F  </i>
   <i type="logical" name="LMP2LT"> F  </i>
   <i type="logical" name="LSMP2LT"> F  </i>
   <i type="logical" name="LGWLF"> F  </i>
   <i name="ENCUTGW">     -2.00000000</i>
   <i name="ENCUTGWSOFT">     -2.00000000</i>
   <i name="ENCUTLF">     -1.00000000</i>
   <i type="logical" name="LESF_SPLINES"> F  </i>
   <i type="int" name="LMAXMP2">    -1</i>
   <i name="SCISSOR">      0.00000000</i>
   <i type="int" name="NOMEGA">     0</i>
   <i type="int" name="NOMEGAR">     0</i>
   <i type="int" name="NBANDSGW">    -1</i>
   <i type="int" name="NBANDSO">    -1</i>
   <i type="int" name="NBANDSV">    -1</i>
   <i type="int" name="NELMGW">     1</i>
   <i type="int" name="NELMHF">     1</i>
   <i type="int" name="DIM">     3</i>
   <i type="int" name="IESPILON">     4</i>
   <i type="int" name="ANTIRES">     0</i>
   <i name="OMEGAMAX">    -30.00000000</i>
   <i name="OMEGAMIN">    -30.00000000</i>
   <i name="OMEGATL">   -200.00000000</i>
   <i type="int" name="OMEGAGRID">     0</i>
   <i name="CSHIFT">     -0.10000000</i>
   <i type="logical" name="LSELFENERGY"> F  </i>
   <i type="logical" name="LSPECTRAL"> F  </i>
   <i type="logical" name="LSPECTRALGW"> F  </i>
   <i type="logical" name="LSINGLES"> F  </i>
   <i type="logical" name="LFERMIGW"> F  </i>
   <i type="logical" name="ODDONLYGW"> F  </i>
   <i type="logical" name="EVENONLYGW"> F  </i>
   <i type="int" name="NKREDLFX">     1</i>
   <i type="int" name="NKREDLFY">     1</i>
   <i type="int" name="NKREDLFZ">     1</i>
   <i type="int" name="MAXMEM">  2800</i>
   <i type="int" name="TELESCOPE">     0</i>
   <i type="int" name="NTAUPAR">    -1</i>
   <i type="int" name="NOMEGAPAR">    -1</i>
   <i name="DAMP_NEWTON">      0.80000001</i>
   <i name="LAMBDA">      1.00000000</i>
  </separator>
  <separator name="External order field" >
   <i name="OFIELD_KAPPA">      0.00000000</i>
   <v name="OFIELD_K">      0.00000000      0.00000000      0.00000000</v>
   <i name="OFIELD_Q6_NEAR">      0.00000000</i>
   <i name="OFIELD_Q6_FAR">      0.00000000</i>
   <i name="OFIELD_A">      0.00000000</i>
  </separator>
  <separator name="optional k-points parameters" >
   <i type="int" name="KPOINTS_OPT_MODE">     1</i>
   <i type="logical" name="LKPOINTS_OPT"> F  </i>
  </separator>
  <separator name="solvation model" >
   <i type="logical" name="LSOL"> F  </i>
  </separator>
 </parameters>
 <atominfo>
  <atoms>      16 </atoms>
  <types>       2 </types>
  <array name="atoms" >
   <dimension dim="1">ion</dimension>
   <field type="string">element</field>
   <field type="int">atomtype</field>
   <set>
    <rc><c>B </c><c>   1</c></rc>
    <rc><c>B </c><c>   1</c></rc>
    <rc><c>B </c><c>   1</c></rc>
    <rc><c>B </c><c>   1</c></rc>
    <rc><c>B </c><c>   1</c></rc>
    <rc><c>B </c><c>   1</c></rc>
    <rc><c>B </c><c>   1</c></rc>
    <rc><c>B </c><c>   1</c></rc>
    <rc><c>C </c><c>   2</c></rc>
    <rc><c>C </c><c>   2</c></rc>
    <rc><c>C </c><c>   2</c></rc>
    <rc><c>C </c><c>   2</c></rc>
    <rc><c>C </c><c>   2</c></rc>
    <rc><c>C </c><c>   2</c></rc>
    <rc><c>C </c><c>   2</c></rc>
    <rc><c>C </c><c>   2</c></rc>
   </set>
  </array>
  <array name="atomtypes" >
   <dimension dim="1">type</dimension>
   <field type="int">atomspertype</field>
   <field type="string">element</field>
   <field>mass</field>
   <field>valence</field>
   <field type="string">pseudopotential</field>
   <set>
    <rc><c>   8</c><c>B </c><c>     10.81100000</c><c>      3.00000000</c><c>  PAW_PBE B 06Sep2000                   </c></rc>
    <rc><c>   8</c><c>C </c><c>     12.01100000</c><c>      4.00000000</c><c>  PAW_PBE C 08Apr2002                   </c></rc>
   </set>
  </array>
 </atominfo>
 <structure name="initialpos" >
  <crystal>
   <varray name="basis" >
    <v>       4.30674433       2.48650000       0.00000000 </v>
    <v>      -4.30674433       2.48650000       0.00000000 </v>
    <v>       0.00000000       0.00000000      15.00000000 </v>
   </varray>
   <i name="volume">    321.26159352 </i>
   <varray name="rec_basis" >
    <v>       0.11609698       0.20108586       0.00000000 </v>
    <v>      -0.11609698       0.20108586       0.00000000 </v>
    <v>       0.00000000       0.00000000       0.06666667 </v>
   </varray>
  </crystal>
  <varray name="positions" >
   <v>       0.66888689       0.00000000       0.10000000 </v>
   <v>       0.33111211       0.00000000       0.10000000 </v>
   <v>       0.00000000       0.33111211       0.10000000 </v>
   <v>       0.00000000       0.66888689       0.10000000 </v>
   <v>       0.33111211       0.33111211       0.10000000 </v>
   <v>       0.66888689       0.66888689       0.10000000 </v>
   <v>       0.66666600       0.33333300       0.09922189 </v>
   <v>       0.33333300       0.66666600       0.10077811 </v>
   <v>       0.24999933       0.24999967       0.46906667 </v>
   <v>       0.41666633       0.08333267       0.46906667 </v>
   <v>       0.24999933       0.74999967       0.46906667 </v>
   <v>       0.41666633       0.58333267       0.46906667 </v>
   <v>       0.74999933       0.24999967       0.46906667 </v>
   <v>       0.91666633       0.08333267       0.46906667 </v>
   <v>       0.74999933       0.74999967       0.46906667 </v>
   <v>       0.91666633       0.58333267       0.46906667 </v>
  </varray>
 </structure>
 <calculation>
  <scstep>
   <time name="dav">    3.29    3.33</time>
   <time name="total">    3.34    3.38</time>
   <energy>
    <i name="alphaZ">     60.61674889 </i>
    <i name="ewald">   1884.27344541 </i>
    <i name="hartreedc">  -3297.36848589 </i>
    <i name="XCdc">    163.58328660 </i>
    <i name="pawpsdc">   1214.24570090 </i>
    <i name="pawaedc">  -1211.68112031 </i>
    <i name="eentropy">     -0.02116557 </i>
    <i name="bandstr">   -372.44707833 </i>
    <i name="atom">   1746.50554237 </i>
    <i name="e_fr_energy">    187.70687408 </i>
    <i name="e_wo_entrp">    187.72803965 </i>
    <i name="e_0_energy">    187.71745686 </i>
   </energy>
  </scstep>
  <scstep>
   <time name="dav">    5.29    5.34</time>
   <time name="total">    5.29    5.34</time>
   <energy>
    <i name="e_fr_energy">   -118.59159327 </i>
    <i name="e_wo_entrp">   -118.58143839 </i>
    <i name="e_0_energy">   -118.58651583 </i>
   </energy>
  </scstep>
  <scstep>
   <time name="dav">    5.96    6.01</time>
   <time name="total">    5.96    6.01</time>
   <energy>
    <i name="e_fr_energy">   -128.02443264 </i>
    <i name="e_wo_entrp">   -128.01214938 </i>
    <i name="e_0_energy">   -128.01829101 </i>
   </energy>
  </scstep>
  <scstep>
   <time name="dav">    5.44    5.49</time>
   <time name="total">    5.44    5.49</time>
   <energy>
    <i name="e_fr_energy">   -128.04810207 </i>
    <i name="e_wo_entrp">   -128.03579063 </i>
    <i name="e_0_energy">   -128.04194635 </i>
   </energy>
  </scstep>
  <scstep>
   <time name="dav">    5.45    5.49</time>
   <time name="total">    5.64    5.72</time>
   <energy>
    <i name="e_fr_energy">   -128.04813759 </i>
    <i name="e_wo_entrp">   -128.03582608 </i>
    <i name="e_0_energy">   -128.04198183 </i>
   </energy>
  </scstep>
  <scstep>
   <time name="dav">    4.31    4.34</time>
   <time name="total">    4.54    4.60</time>
   <energy>
    <i name="e_fr_energy">    -94.59959297 </i>
    <i name="e_wo_entrp">    -94.58834280 </i>
    <i name="e_0_energy">    -94.59396789 </i>
   </energy>
  </scstep>
  <scstep>
   <time name="dav">    5.36    5.41</time>
   <time name="total">    5.58    5.65</time>
   <energy>
    <i name="e_fr_energy">   -105.69569926 </i>
    <i name="e_wo_entrp">   -105.68615618 </i>
    <i name="e_0_energy">   -105.69092772 </i>
   </energy>
  </scstep>
  <scstep>
   <time name="dav">    5.15    5.20</time>
   <time name="total">    5.37    5.43</time>
   <energy>
    <i name="e_fr_energy">   -111.48842516 </i>
    <i name="e_wo_entrp">   -111.47908375 </i>
    <i name="e_0_energy">   -111.48375445 </i>
   </energy>
  </scstep>
  <scstep>
   <time name="dav">    4.29    4.33</time>
   <time name="total">    4.51    4.56</time>
   <energy>
    <i name="e_fr_energy">   -116.77766133 </i>
    <i name="e_wo_entrp">   -116.77517851 </i>
    <i name="e_0_energy">   -116.77641992 </i>
   </energy>
  </scstep>
  <scstep>
   <time name="dav">    5.37    5.41</time>
   <time name="total">    5.60    5.64</time>
   <energy>
    <i name="e_fr_energy">   -120.92210484 </i>
    <i name="e_wo_entrp">   -120.91723482 </i>
    <i name="e_0_energy">   -120.91966983 </i>
   </energy>
  </scstep>
  <scstep>
   <time name="dav">    5.11    5.15</time>
   <time name="total">    5.33    5.37</time>
   <energy>
    <i name="e_fr_energy">   -122.76621033 </i>
    <i name="e_wo_entrp">   -122.76300439 </i>
    <i name="e_0_energy">   -122.76460736 </i>
   </energy>
  </scstep>
  <scstep>
   <time name="dav">    5.47    5.51</time>
   <time name="total">    5.69    5.74</time>
   <energy>
    <i name="e_fr_energy">   -123.75581934 </i>
    <i name="e_wo_entrp">   -123.75106425 </i>
    <i name="e_0_energy">   -123.75344180 </i>
   </energy>
  </scstep>
  <scstep>
   <time name="dav">    5.09    5.13</time>
   <time name="total">    5.31    5.36</time>
   <energy>
    <i name="e_fr_energy">   -124.05842733 </i>
    <i name="e_wo_entrp">   -124.05236996 </i>
    <i name="e_0_energy">   -124.05539864 </i>
   </energy>
  </scstep>
  <scstep>
   <time name="dav">    4.37    4.40</time>
   <time name="total">    4.59    4.63</time>
   <energy>
    <i name="e_fr_energy">   -124.11184731 </i>
    <i name="e_wo_entrp">   -124.10575886 </i>
    <i name="e_0_energy">   -124.10880308 </i>
   </energy>
  </scstep>
  <scstep>
   <time name="dav">    3.92    3.94</time>
   <time name="total">    4.13    4.17</time>
   <energy>
    <i name="e_fr_energy">   -124.13546684 </i>
    <i name="e_wo_entrp">   -124.12939741 </i>
    <i name="e_0_energy">   -124.13243212 </i>
   </energy>
  </scstep>
  <scstep>
   <time name="dav">    4.03    4.06</time>
   <time name="total">    4.24    4.28</time>
   <energy>
    <i name="e_fr_energy">   -124.13693975 </i>
    <i name="e_wo_entrp">   -124.13088700 </i>
    <i name="e_0_energy">   -124.13391338 </i>
   </energy>
  </scstep>
  <scstep>
   <time name="dav">    3.69    3.71</time>
   <time name="total">    3.90    3.94</time>
   <energy>
    <i name="e_fr_energy">   -124.13745253 </i>
    <i name="e_wo_entrp">   -124.13140558 </i>
    <i name="e_0_energy">   -124.13442906 </i>
   </energy>
  </scstep>
  <scstep>
   <time name="dav">    3.69    3.72</time>
   <time name="total">    3.91    3.95</time>
   <energy>
    <i name="e_fr_energy">   -124.13749329 </i>
    <i name="e_wo_entrp">   -124.13143592 </i>
    <i name="e_0_energy">   -124.13446460 </i>
   </energy>
  </scstep>
  <scstep>
   <time name="dav">    3.43    3.46</time>
   <time name="total">    3.65    3.69</time>
   <energy>
    <i name="e_fr_energy">   -124.13754939 </i>
    <i name="e_wo_entrp">   -124.13148799 </i>
    <i name="e_0_energy">   -124.13451869 </i>
   </energy>
  </scstep>
  <scstep>
   <time name="dav">    3.65    3.67</time>
   <time name="total">    3.86    3.90</time>
   <energy>
    <i name="e_fr_energy">   -124.13757782 </i>
    <i name="e_wo_entrp">   -124.13151929 </i>
    <i name="e_0_energy">   -124.13454855 </i>
   </energy>
  </scstep>
  <scstep>
   <time name="dav">    3.42    3.44</time>
   <time name="total">    3.63    3.68</time>
   <energy>
    <i name="e_fr_energy">   -124.13762791 </i>
    <i name="e_wo_entrp">   -124.13157111 </i>
    <i name="e_0_energy">   -124.13459951 </i>
   </energy>
  </scstep>
  <scstep>
   <time name="dav">    3.87    3.90</time>
   <time name="total">    4.09    4.13</time>
   <energy>
    <i name="e_fr_energy">   -124.13765298 </i>
    <i name="e_wo_entrp">   -124.13159562 </i>
    <i name="e_0_energy">   -124.13462430 </i>
   </energy>
  </scstep>
  <scstep>
   <time name="dav">    4.78    4.82</time>
   <time name="total">    5.00    5.04</time>
   <energy>
    <i name="e_fr_energy">   -124.13765719 </i>
    <i name="e_wo_entrp">   -124.13159957 </i>
    <i name="e_0_energy">   -124.13462838 </i>
   </energy>
  </scstep>
  <scstep>
   <time name="dav">    5.10    5.14</time>
   <time name="total">    5.32    5.36</time>
   <energy>
    <i name="e_fr_energy">   -124.13766017 </i>
    <i name="e_wo_entrp">   -124.13160242 </i>
    <i name="e_0_energy">   -124.13463129 </i>
   </energy>
  </scstep>
  <scstep>
   <time name="dav">    4.13    4.16</time>
   <time name="total">    4.34    4.39</time>
   <energy>
    <i name="e_fr_energy">   -124.13766158 </i>
    <i name="e_wo_entrp">   -124.13160390 </i>
    <i name="e_0_energy">   -124.13463274 </i>
   </energy>
  </scstep>
  <scstep>
   <time name="dav">    5.34    5.38</time>
   <time name="total">    5.38    5.41</time>
   <energy>
    <i name="alphaZ">     60.61674889 </i>
    <i name="ewald">   1884.27344541 </i>
    <i name="hartreedc">  -3494.45379348 </i>
    <i name="XCdc">    168.46600178 </i>
    <i name="pawpsdc">   5841.39770343 </i>
    <i name="pawaedc">  -5840.78772714 </i>
    <i name="eentropy">     -0.00605753 </i>
    <i name="bandstr">   -490.14952566 </i>
    <i name="atom">   1746.50554237 </i>
    <i name="e_fr_energy">   -124.13766193 </i>
    <i name="e_wo_entrp">   -124.13160440 </i>
    <i name="e_0_energy">   -124.13463316 </i>
   </energy>
  </scstep>
  <structure>
   <crystal>
    <varray name="basis" >
     <v>       4.30674433       2.48650000       0.00000000 </v>
     <v>      -4.30674433       2.48650000       0.00000000 </v>
     <v>       0.00000000       0.00000000      15.00000000 </v>
    </varray>
    <i name="volume">    321.26159352 </i>
    <varray name="rec_basis" >
     <v>       0.11609698       0.20108586       0.00000000 </v>
     <v>      -0.11609698       0.20108586       0.00000000 </v>
     <v>       0.00000000       0.00000000       0.06666667 </v>
    </varray>
   </crystal>
   <varray name="positions" >
    <v>       0.66888689       0.00000000       0.10000000 </v>
    <v>       0.33111211       0.00000000       0.10000000 </v>
    <v>       0.00000000       0.33111211       0.10000000 </v>
    <v>       0.00000000       0.66888689       0.10000000 </v>
    <v>       0.33111211       0.33111211       0.10000000 </v>
    <v>       0.66888689       0.66888689       0.10000000 </v>
    <v>       0.66666600       0.33333300       0.09922189 </v>
    <v>       0.33333300       0.66666600       0.10077811 </v>
    <v>       0.24999933       0.24999967       0.46906667 </v>
    <v>       0.41666633       0.08333267       0.46906667 </v>
    <v>       0.24999933       0.74999967       0.46906667 </v>
    <v>       0.41666633       0.58333267       0.46906667 </v>
    <v>       0.74999933       0.24999967       0.46906667 </v>
    <v>       0.91666633       0.08333267       0.46906667 </v>
    <v>       0.74999933       0.74999967       0.46906667 </v>
    <v>       0.91666633       0.58333267       0.46906667 </v>
   </varray>
  </structure>
  <varray name="forces" >
   <v>       0.16514825       0.09533783       0.00822436 </v>
   <v>      -0.16511231      -0.09534230       0.00824612 </v>
   <v>       0.16514825      -0.09533783       0.00822436 </v>
   <v>      -0.16511231       0.09534230       0.00824612 </v>
   <v>       0.00000695      -0.19070519       0.00825015 </v>
   <v>       0.00000695       0.19070519       0.00825015 </v>
   <v>       0.00001771       0.00000000       0.00652867 </v>
   <v>      -0.00008101       0.00000000       0.01175741 </v>
   <v>       0.00005111      -0.00046994      -0.00838082 </v>
   <v>      -0.00044198      -0.00009717      -0.00855292 </v>
   <v>      -0.00007272       0.00000000      -0.00867455 </v>
   <v>       0.00012602       0.00000000      -0.00847940 </v>
   <v>       0.00052285       0.00000000      -0.00843689 </v>
   <v>       0.00018311       0.00000000      -0.00826906 </v>
   <v>       0.00005111       0.00046994      -0.00838082 </v>
   <v>      -0.00044198       0.00009717      -0.00855292 </v>
  </varray>
  <varray name="stress" >
   <v>       8.71322736       0.00000000      -0.00066831 </v>
   <v>       0.00000000       8.71395789       0.00000000 </v>
   <v>      -0.00066833       0.00000000      -3.64453941 </v>
  </varray>
  <energy>
   <i name="e_fr_energy">   -125.63089726 </i>
   <i name="e_wo_entrp">   -125.62483973 </i>
   <i name="e_0_energy">   -125.62786849 </i>
  </energy>
  <time name="totalsc">  126.76  128.02</time>
 </calculation>
 <calculation>
  <scstep>
   <time name="dav">    3.38    3.41</time>
   <time name="total">    3.60    3.64</time>
   <energy>
    <i name="alphaZ">     60.61674889 </i>
    <i name="ewald">   1883.16085942 </i>
    <i name="hartreedc">  -3494.11163699 </i>
    <i name="XCdc">    168.42745025 </i>
    <i name="pawpsdc">   5841.39850331 </i>
    <i name="pawaedc">  -5840.78853015 </i>
    <i name="eentropy">     -0.00605058 </i>
    <i name="bandstr">   -489.34508253 </i>
    <i name="atom">   1746.50554237 </i>
    <i name="e_fr_energy">   -124.14219600 </i>
    <i name="e_wo_entrp">   -124.13614542 </i>
    <i name="e_0_energy">   -124.13917071 </i>
   </energy>
  </scstep>
  <scstep>
   <time name="dav">    5.32    5.36</time>
   <time name="total">    5.54    5.59</time>
   <energy>
    <i name="e_fr_energy">   -124.13822766 </i>
    <i name="e_wo_entrp">   -124.13214253 </i>
    <i name="e_0_energy">   -124.13518509 </i>
   </energy>
  </scstep>
  <scstep>
   <time name="dav">    4.82    4.85</time>
   <time name="total">    5.04    5.08</time>
   <energy>
    <i name="e_fr_energy">   -124.13760365 </i>
    <i name="e_wo_entrp">   -124.13155050 </i>
    <i name="e_0_energy">   -124.13457708 </i>
   </energy>
  </scstep>
  <scstep>
   <time name="dav">    5.29    5.33</time>
   <time name="total">    5.50    5.55</time>
   <energy>
    <i name="e_fr_energy">   -124.13758080 </i>
    <i name="e_wo_entrp">   -124.13153912 </i>
    <i name="e_0_energy">   -124.13455996 </i>
   </energy>
  </scstep>
  <scstep>
   <time name="dav">    5.22    5.25</time>
   <time name="total">    5.43    5.48</time>
   <energy>
    <i name="e_fr_energy">   -124.13758043 </i>
    <i name="e_wo_entrp">   -124.13153611 </i>
    <i name="e_0_energy">   -124.13455827 </i>
   </energy>
  </scstep>
  <scstep>
   <time name="dav">    3.85    3.88</time>
   <time name="total">    4.08    4.14</time>
   <energy>
    <i name="e_fr_energy">   -124.13758177 </i>
    <i name="e_wo_entrp">   -124.13153736 </i>
    <i name="e_0_energy">   -124.13455957 </i>
   </energy>
  </scstep>
  <scstep>
   <time name="dav">    4.21    4.24</time>
   <time name="total">    4.43    4.46</time>
   <energy>
    <i name="e_fr_energy">   -124.13758332 </i>
    <i name="e_wo_entrp">   -124.13153959 </i>
    <i name="e_0_energy">   -124.13456146 </i>
   </energy>
  </scstep>
  <scstep>
   <time name="dav">    3.82    3.84</time>
   <time name="total">    4.03    4.07</time>
   <energy>
    <i name="e_fr_energy">   -124.13758567 </i>
    <i name="e_wo_entrp">   -124.13154277 </i>
    <i name="e_0_energy">   -124.13456422 </i>
   </energy>
  </scstep>
  <scstep>
   <time name="dav">    4.23    4.27</time>
   <time name="total">    4.45    4.49</time>
   <energy>
    <i name="e_fr_energy">   -124.13758767 </i>
    <i name="e_wo_entrp">   -124.13154479 </i>
    <i name="e_0_energy">   -124.13456623 </i>
   </energy>
  </scstep>
  <scstep>
   <time name="dav">    3.92    3.95</time>
   <time name="total">    3.96    3.98</time>
   <energy>
    <i name="alphaZ">     60.61674889 </i>
    <i name="ewald">   1883.16085942 </i>
    <i name="hartreedc">  -3493.42870783 </i>
    <i name="XCdc">    168.41444450 </i>
    <i name="pawpsdc">   5823.03550587 </i>
    <i name="pawaedc">  -5822.41990953 </i>
    <i name="eentropy">     -0.00604286 </i>
    <i name="bandstr">   -490.01602931 </i>
    <i name="atom">   1746.50554237 </i>
    <i name="e_fr_energy">   -124.13758849 </i>
    <i name="e_wo_entrp">   -124.13154562 </i>
    <i name="e_0_energy">   -124.13456706 </i>
   </energy>
  </scstep>
  <structure>
   <crystal>
    <varray name="basis" >
     <v>       4.30674433       2.48650000       0.00000000 </v>
     <v>      -4.30674433       2.48650000       0.00000000 </v>
     <v>       0.00000000       0.00000000      15.00000000 </v>
    </varray>
    <i name="volume">    321.26159352 </i>
    <varray name="rec_basis" >
     <v>       0.11609698       0.20108586       0.00000000 </v>
     <v>      -0.11609698       0.20108586       0.00000000 </v>
     <v>       0.00000000       0.00000000       0.06666667 </v>
    </varray>
   </crystal>
   <varray name="positions" >
    <v>       0.67073672      -0.00000010       0.10002645 </v>
    <v>       0.32926244      -0.00000014       0.10002652 </v>
    <v>       0.00000010       0.32926228       0.10002645 </v>
    <v>       0.00000014       0.67073656       0.10002652 </v>
    <v>       0.32926214       0.32926206       0.10002653 </v>
    <v>       0.67073694       0.67073686       0.10002653 </v>
    <v>       0.66666610       0.33333290       0.09924288 </v>
    <v>       0.33333255       0.66666645       0.10081593 </v>
    <v>       0.24999506       0.24999482       0.46903971 </v>
    <v>       0.41666292       0.08333420       0.46903916 </v>
    <v>       0.24999893       0.75000007       0.46903877 </v>
    <v>       0.41666704       0.58333196       0.46903940 </v>
    <v>       0.75000226       0.24999674       0.46903953 </v>
    <v>       0.91666736       0.08333164       0.46904007 </v>
    <v>       0.75000418       0.75000394       0.46903971 </v>
    <v>       0.91666480       0.58333608       0.46903916 </v>
   </varray>
  </structure>
  <varray name="forces" >
   <v>      -0.15949096      -0.09207755       0.00830642 </v>
   <v>       0.15948291       0.09209885       0.00832581 </v>
   <v>      -0.15949096       0.09207755       0.00830642 </v>
   <v>       0.15948291      -0.09209885       0.00832581 </v>
   <v>      -0.00000392       0.18421364       0.00832944 </v>
   <v>      -0.00000392      -0.18421364       0.00832944 </v>
   <v>      -0.00002441      -0.00000000       0.00857685 </v>
   <v>       0.00007036      -0.00000000       0.00925479 </v>
   <v>      -0.00029092       0.00121703      -0.00842344 </v>
   <v>       0.00129140       0.00024953      -0.00851738 </v>
   <v>       0.00003419      -0.00000000      -0.00857503 </v>
   <v>      -0.00019819      -0.00000000      -0.00847774 </v>
   <v>      -0.00152983      -0.00000000      -0.00845131 </v>
   <v>      -0.00032913      -0.00000000      -0.00836925 </v>
   <v>      -0.00029092      -0.00121703      -0.00842344 </v>
   <v>       0.00129140      -0.00024953      -0.00851738 </v>
  </varray>
  <varray name="stress" >
   <v>       7.13169602       0.00000000      -0.00063686 </v>
   <v>       0.00000000       7.12846621       0.00000000 </v>
   <v>      -0.00063684       0.00000000      -3.64694737 </v>
  </varray>
  <energy>
   <i name="e_fr_energy">   -125.63108333 </i>
   <i name="e_wo_entrp">   -125.62504046 </i>
   <i name="e_0_energy">   -125.62806189 </i>
  </energy>
  <time name="totalsc">   49.17   49.63</time>
 </calculation>
 <calculation>
  <scstep>
   <time name="dav">    3.39    3.42</time>
   <time name="total">    3.61    3.64</time>
   <energy>
    <i name="alphaZ">     60.61674889 </i>
    <i name="ewald">   1883.69385968 </i>
    <i name="hartreedc">  -3493.58250017 </i>
    <i name="XCdc">    168.43298758 </i>
    <i name="pawpsdc">   5823.02577369 </i>
    <i name="pawaedc">  -5822.41017991 </i>
    <i name="eentropy">     -0.00593899 </i>
    <i name="bandstr">   -490.41760349 </i>
    <i name="atom">   1746.50554237 </i>
    <i name="e_fr_energy">   -124.14131035 </i>
    <i name="e_wo_entrp">   -124.13537135 </i>
    <i name="e_0_energy">   -124.13834085 </i>
   </energy>
  </scstep>
  <scstep>
   <time name="dav">    5.48    5.51</time>
   <time name="total">    5.69    5.73</time>
   <energy>
    <i name="e_fr_energy">   -124.14036383 </i>
    <i name="e_wo_entrp">   -124.13436806 </i>
    <i name="e_0_energy">   -124.13736595 </i>
   </energy>
  </scstep>
  <scstep>
   <time name="dav">    6.17    6.21</time>
   <time name="total">    6.38    6.43</time>
   <energy>
    <i name="e_fr_energy">   -124.14021372 </i>
    <i name="e_wo_entrp">   -124.13418264 </i>
    <i name="e_0_energy">   -124.13719818 </i>
   </energy>
  </scstep>
  <scstep>
   <time name="dav">    4.87    4.90</time>
   <time name="total">    5.08    5.13</time>
   <energy>
    <i name="e_fr_energy">   -124.14020839 </i>
    <i name="e_wo_entrp">   -124.13417437 </i>
    <i name="e_0_energy">   -124.13719138 </i>
   </energy>
  </scstep>
  <scstep>
   <time name="dav">    6.06    6.09</time>
   <time name="total">    6.09    6.13</time>
   <energy>
    <i name="alphaZ">     60.61674889 </i>
    <i name="ewald">   1883.69385968 </i>
    <i name="hartreedc">  -3493.90138403 </i>
    <i name="XCdc">    168.43918458 </i>
    <i name="pawpsdc">   5831.82759528 </i>
    <i name="pawaedc">  -5831.21464779 </i>
    <i name="eentropy">     -0.00603372 </i>
    <i name="bandstr">   -490.10107369 </i>
    <i name="atom">   1746.50554237 </i>
    <i name="e_fr_energy">   -124.14020843 </i>
    <i name="e_wo_entrp">   -124.13417471 </i>
    <i name="e_0_energy">   -124.13719157 </i>
   </energy>
  </scstep>
  <structure>
   <crystal>
    <varray name="basis" >
     <v>       4.30674433       2.48650000       0.00000000 </v>
     <v>      -4.30674433       2.48650000       0.00000000 </v>
     <v>       0.00000000       0.00000000      15.00000000 </v>
    </varray>
    <i name="volume">    321.26159352 </i>
    <varray name="rec_basis" >
     <v>       0.11609698       0.20108586       0.00000000 </v>
     <v>      -0.11609698       0.20108586       0.00000000 </v>
     <v>       0.00000000       0.00000000       0.06666667 </v>
    </varray>
   </crystal>
   <varray name="positions" >
    <v>       0.66982624      -0.00000005       0.10001343 </v>
    <v>       0.33017284      -0.00000007       0.10001347 </v>
    <v>       0.00000005       0.33017276       0.10001343 </v>
    <v>       0.00000007       0.66982616       0.10001347 </v>
    <v>       0.33017269       0.33017265       0.10001347 </v>
    <v>       0.66982635       0.66982631       0.10001347 </v>
    <v>       0.66666605       0.33333295       0.09923255 </v>
    <v>       0.33333277       0.66666623       0.10079732 </v>
    <v>       0.24999716       0.24999721       0.46905298 </v>
    <v>       0.41666460       0.08333345       0.46905270 </v>
    <v>       0.24999913       0.74999987       0.46905250 </v>
    <v>       0.41666669       0.58333231       0.46905282 </v>
    <v>       0.75000082       0.24999818       0.46905289 </v>
    <v>       0.91666685       0.08333215       0.46905316 </v>
    <v>       0.75000179       0.75000184       0.46905298 </v>
    <v>       0.91666555       0.58333440       0.46905270 </v>
   </varray>
  </structure>
  <varray name="forces" >
   <v>       0.00013076       0.00007105       0.00826803 </v>
   <v>      -0.00011597      -0.00006466       0.00828914 </v>
   <v>       0.00013076      -0.00007105       0.00826803 </v>
   <v>      -0.00011597       0.00006466       0.00828914 </v>
   <v>       0.00000006      -0.00012876       0.00829268 </v>
   <v>       0.00000006       0.00012876       0.00829268 </v>
   <v>      -0.00000381       0.00000000       0.00756011 </v>
   <v>      -0.00000364      -0.00000000       0.01045524 </v>
   <v>      -0.00012223       0.00038482      -0.00839862 </v>
   <v>       0.00043680       0.00007807      -0.00853182 </v>
   <v>      -0.00001907      -0.00000000      -0.00862133 </v>
   <v>      -0.00003810      -0.00000000      -0.00847570 </v>
   <v>      -0.00051859       0.00000000      -0.00844170 </v>
   <v>      -0.00007561      -0.00000000      -0.00831545 </v>
   <v>      -0.00012223      -0.00038482      -0.00839862 </v>
   <v>       0.00043680      -0.00007807      -0.00853182 </v>
  </varray>
  <varray name="stress" >
   <v>       7.85831987       0.00000000      -0.00064951 </v>
   <v>       0.00000000       7.85703733       0.00000000 </v>
   <v>      -0.00064950       0.00000000      -3.63719888 </v>
  </varray>
  <energy>
   <i name="e_fr_energy">   -125.63357681 </i>
   <i name="e_wo_entrp">   -125.62754309 </i>
   <i name="e_0_energy">   -125.63055995 </i>
  </energy>
  <time name="totalsc">   29.97   30.21</time>
 </calculation>
 <calculation>
  <scstep>
   <time name="dav">    3.56    3.58</time>
   <time name="total">    3.78    3.82</time>
   <energy>
    <i name="alphaZ">     60.61674889 </i>
    <i name="ewald">   1883.69045989 </i>
    <i name="hartreedc">  -3493.90243370 </i>
    <i name="XCdc">    168.43898844 </i>
    <i name="pawpsdc">   5831.89206602 </i>
    <i name="pawaedc">  -5831.27911444 </i>
    <i name="eentropy">     -0.00603390 </i>
    <i name="bandstr">   -490.09643126 </i>
    <i name="atom">   1746.50554237 </i>
    <i name="e_fr_energy">   -124.14020769 </i>
    <i name="e_wo_entrp">   -124.13417380 </i>
    <i name="e_0_energy">   -124.13719075 </i>
   </energy>
  </scstep>
  <scstep>
   <time name="dav">    4.47    4.49</time>
   <time name="total">    4.50    4.53</time>
   <energy>
    <i name="alphaZ">     60.61674889 </i>
    <i name="ewald">   1883.69045989 </i>
    <i name="hartreedc">  -3493.90378701 </i>
    <i name="XCdc">    168.43900198 </i>
    <i name="pawpsdc">   5831.85611180 </i>
    <i name="pawaedc">  -5831.24315663 </i>
    <i name="eentropy">     -0.00603403 </i>
    <i name="bandstr">   -490.09509503 </i>
    <i name="atom">   1746.50554237 </i>
    <i name="e_fr_energy">   -124.14020778 </i>
    <i name="e_wo_entrp">   -124.13417375 </i>
    <i name="e_0_energy">   -124.13719076 </i>
   </energy>
  </scstep>
  <structure>
   <crystal>
    <varray name="basis" >
     <v>       4.30674433       2.48650000       0.00000000 </v>
     <v>      -4.30674433       2.48650000       0.00000000 </v>
     <v>       0.00000000       0.00000000      15.00000000 </v>
    </varray>
    <i name="volume">    321.26159352 </i>
    <varray name="rec_basis" >
     <v>       0.11609698       0.20108586       0.00000000 </v>
     <v>      -0.11609698       0.20108586       0.00000000 </v>
     <v>       0.00000000       0.00000000       0.06666667 </v>
    </varray>
   </crystal>
   <varray name="positions" >
    <v>       0.66983190      -0.00000005       0.10001351 </v>
    <v>       0.33016718      -0.00000007       0.10001355 </v>
    <v>       0.00000005       0.33016710       0.10001351 </v>
    <v>       0.00000007       0.66983182       0.10001355 </v>
    <v>       0.33016703       0.33016699       0.10001356 </v>
    <v>       0.66983201       0.66983197       0.10001356 </v>
    <v>       0.66666605       0.33333295       0.09923261 </v>
    <v>       0.33333277       0.66666623       0.10079743 </v>
    <v>       0.24999715       0.24999719       0.46905290 </v>
    <v>       0.41666459       0.08333345       0.46905261 </v>
    <v>       0.24999913       0.74999987       0.46905241 </v>
    <v>       0.41666669       0.58333231       0.46905273 </v>
    <v>       0.75000083       0.24999817       0.46905280 </v>
    <v>       0.91666686       0.08333214       0.46905308 </v>
    <v>       0.75000181       0.75000185       0.46905290 </v>
    <v>       0.91666555       0.58333441       0.46905261 </v>
   </varray>
  </structure>
  <varray name="forces" >
   <v>      -0.00152844      -0.00088531       0.00826126 </v>
   <v>       0.00154172       0.00089428       0.00828181 </v>
   <v>      -0.00152844       0.00088531       0.00826126 </v>
   <v>       0.00154172      -0.00089428       0.00828181 </v>
   <v>       0.00000122       0.00178681       0.00828560 </v>
   <v>       0.00000122      -0.00178681       0.00828560 </v>
   <v>      -0.00000404      -0.00000000       0.00757247 </v>
   <v>      -0.00000288      -0.00000000       0.01043825 </v>
   <v>      -0.00012369       0.00039214      -0.00839353 </v>
   <v>       0.00044394       0.00007979      -0.00852549 </v>
   <v>      -0.00001801       0.00000000      -0.00861451 </v>
   <v>      -0.00003957      -0.00000000      -0.00846901 </v>
   <v>      -0.00052650       0.00000000      -0.00843502 </v>
   <v>      -0.00007849       0.00000000      -0.00831149 </v>
   <v>      -0.00012369      -0.00039214      -0.00839353 </v>
   <v>       0.00044394      -0.00007979      -0.00852549 </v>
  </varray>
  <varray name="stress" >
   <v>       7.85828390       0.00000000      -0.00065180 </v>
   <v>       0.00000000       7.85695541       0.00000000 </v>
   <v>      -0.00065180       0.00000000      -3.63918107 </v>
  </varray>
  <energy>
   <i name="e_fr_energy">   -125.63357696 </i>
   <i name="e_wo_entrp">   -125.62754292 </i>
   <i name="e_0_energy">   -125.63055994 </i>
  </energy>
  <time name="totalsc">   11.40   11.50</time>
 </calculation>
 <calculation>
  <scstep>
   <time name="dav">    3.88    3.91</time>
   <time name="total">    4.09    4.13</time>
   <energy>
    <i name="alphaZ">     60.61674889 </i>
    <i name="ewald">   1883.69182697 </i>
    <i name="hartreedc">  -3493.90607024 </i>
    <i name="XCdc">    168.43907354 </i>
    <i name="pawpsdc">   5831.82965551 </i>
    <i name="pawaedc">  -5831.21669706 </i>
    <i name="eentropy">     -0.00603384 </i>
    <i name="bandstr">   -490.09425444 </i>
    <i name="atom">   1746.50554237 </i>
    <i name="e_fr_energy">   -124.14020831 </i>
    <i name="e_wo_entrp">   -124.13417447 </i>
    <i name="e_0_energy">   -124.13719139 </i>
   </energy>
  </scstep>
  <scstep>
   <time name="dav">    4.53    4.56</time>
   <time name="total">    4.57    4.59</time>
   <energy>
    <i name="alphaZ">     60.61674889 </i>
    <i name="ewald">   1883.69182697 </i>
    <i name="hartreedc">  -3493.90784708 </i>
    <i name="XCdc">    168.43910333 </i>
    <i name="pawpsdc">   5831.83084969 </i>
    <i name="pawaedc">  -5831.21789363 </i>
    <i name="eentropy">     -0.00603399 </i>
    <i name="bandstr">   -490.09250496 </i>
    <i name="atom">   1746.50554237 </i>
    <i name="e_fr_energy">   -124.14020840 </i>
    <i name="e_wo_entrp">   -124.13417442 </i>
    <i name="e_0_energy">   -124.13719141 </i>
   </energy>
  </scstep>
  <structure>
   <crystal>
    <varray name="basis" >
     <v>       4.30674433       2.48650000       0.00000000 </v>
     <v>      -4.30674433       2.48650000       0.00000000 </v>
     <v>       0.00000000       0.00000000      15.00000000 </v>
    </varray>
    <i name="volume">    321.26159352 </i>
    <varray name="rec_basis" >
     <v>       0.11609698       0.20108586       0.00000000 </v>
     <v>      -0.11609698       0.20108586       0.00000000 </v>
     <v>       0.00000000       0.00000000       0.06666667 </v>
    </varray>
   </crystal>
   <varray name="positions" >
    <v>       0.66982962      -0.00000005       0.10001348 </v>
    <v>       0.33016946      -0.00000007       0.10001352 </v>
    <v>       0.00000005       0.33016938       0.10001348 </v>
    <v>       0.00000007       0.66982954       0.10001352 </v>
    <v>       0.33016930       0.33016926       0.10001352 </v>
    <v>       0.66982974       0.66982970       0.10001352 </v>
    <v>       0.66666605       0.33333295       0.09923259 </v>
    <v>       0.33333277       0.66666623       0.10079738 </v>
    <v>       0.24999716       0.24999720       0.46905293 </v>
    <v>       0.41666459       0.08333345       0.46905265 </v>
    <v>       0.24999913       0.74999987       0.46905245 </v>
    <v>       0.41666669       0.58333231       0.46905277 </v>
    <v>       0.75000083       0.24999817       0.46905284 </v>
    <v>       0.91666686       0.08333214       0.46905311 </v>
    <v>       0.75000180       0.75000184       0.46905293 </v>
    <v>       0.91666555       0.58333441       0.46905265 </v>
   </varray>
  </structure>
  <varray name="forces" >
   <v>      -0.00137591      -0.00079728       0.00825963 </v>
   <v>       0.00138932       0.00080612       0.00828012 </v>
   <v>      -0.00137591       0.00079728       0.00825963 </v>
   <v>       0.00138932      -0.00080612       0.00828012 </v>
   <v>       0.00000117       0.00161071       0.00828384 </v>
   <v>       0.00000117      -0.00161071       0.00828384 </v>
   <v>      -0.00000400      -0.00000000       0.00757845 </v>
   <v>      -0.00000306      -0.00000000       0.01044328 </v>
   <v>      -0.00012351       0.00038985      -0.00839355 </v>
   <v>       0.00044172       0.00007950      -0.00852574 </v>
   <v>      -0.00001826      -0.00000000      -0.00861481 </v>
   <v>      -0.00003886       0.00000000      -0.00846922 </v>
   <v>      -0.00052389      -0.00000000      -0.00843520 </v>
   <v>      -0.00007754      -0.00000000      -0.00831107 </v>
   <v>      -0.00012351      -0.00038985      -0.00839355 </v>
   <v>       0.00044172      -0.00007950      -0.00852574 </v>
  </varray>
  <varray name="stress" >
   <v>       7.86032522       0.00000000      -0.00065217 </v>
   <v>       0.00000000       7.85898108       0.00000000 </v>
   <v>      -0.00065216       0.00000000      -3.63810647 </v>
  </varray>
  <energy>
   <i name="e_fr_energy">   -125.63357726 </i>
   <i name="e_wo_entrp">   -125.62754327 </i>
   <i name="e_0_energy">   -125.63056026 </i>
  </energy>
  <time name="totalsc">   11.77   11.87</time>
 </calculation>
 <calculation>
  <scstep>
   <time name="dav">    4.05    4.08</time>
   <time name="total">    4.27    4.30</time>
   <energy>
    <i name="alphaZ">     60.61674889 </i>
    <i name="ewald">   1883.69284328 </i>
    <i name="hartreedc">  -3493.90970400 </i>
    <i name="XCdc">    168.43916042 </i>
    <i name="pawpsdc">   5831.82923858 </i>
    <i name="pawaedc">  -5831.21628364 </i>
    <i name="eentropy">     -0.00603394 </i>
    <i name="bandstr">   -490.09172071 </i>
    <i name="atom">   1746.50554237 </i>
    <i name="e_fr_energy">   -124.14020875 </i>
    <i name="e_wo_entrp">   -124.13417481 </i>
    <i name="e_0_energy">   -124.13719178 </i>
   </energy>
  </scstep>
  <scstep>
   <time name="dav">    4.78    4.81</time>
   <time name="total">    4.81    4.84</time>
   <energy>
    <i name="alphaZ">     60.61674889 </i>
    <i name="ewald">   1883.69284328 </i>
    <i name="hartreedc">  -3493.91101937 </i>
    <i name="XCdc">    168.43918093 </i>
    <i name="pawpsdc">   5831.83597699 </i>
    <i name="pawaedc">  -5831.22302456 </i>
    <i name="eentropy">     -0.00603406 </i>
    <i name="bandstr">   -490.09042326 </i>
    <i name="atom">   1746.50554237 </i>
    <i name="e_fr_energy">   -124.14020880 </i>
    <i name="e_wo_entrp">   -124.13417474 </i>
    <i name="e_0_energy">   -124.13719177 </i>
   </energy>
  </scstep>
  <structure>
   <crystal>
    <varray name="basis" >
     <v>       4.30674433       2.48650000       0.00000000 </v>
     <v>      -4.30674433       2.48650000       0.00000000 </v>
     <v>       0.00000000       0.00000000      15.00000000 </v>
    </varray>
    <i name="volume">    321.26159352 </i>
    <varray name="rec_basis" >
     <v>       0.11609698       0.20108586       0.00000000 </v>
     <v>      -0.11609698       0.20108586       0.00000000 </v>
     <v>       0.00000000       0.00000000       0.06666667 </v>
    </varray>
   </crystal>
   <varray name="positions" >
    <v>       0.66982793      -0.00000005       0.10001346 </v>
    <v>       0.33017115      -0.00000007       0.10001349 </v>
    <v>       0.00000005       0.33017107       0.10001346 </v>
    <v>       0.00000007       0.66982785       0.10001349 </v>
    <v>       0.33017099       0.33017095       0.10001350 </v>
    <v>       0.66982805       0.66982801       0.10001350 </v>
    <v>       0.66666605       0.33333295       0.09923257 </v>
    <v>       0.33333277       0.66666623       0.10079735 </v>
    <v>       0.24999716       0.24999720       0.46905295 </v>
    <v>       0.41666459       0.08333345       0.46905267 </v>
    <v>       0.24999913       0.74999987       0.46905247 </v>
    <v>       0.41666669       0.58333231       0.46905279 </v>
    <v>       0.75000082       0.24999818       0.46905286 </v>
    <v>       0.91666686       0.08333214       0.46905314 </v>
    <v>       0.75000180       0.75000184       0.46905295 </v>
    <v>       0.91666555       0.58333441       0.46905267 </v>
   </varray>
  </structure>
  <varray name="forces" >
   <v>      -0.00107706      -0.00062483       0.00826003 </v>
   <v>       0.00109058       0.00063358       0.00828055 </v>
   <v>      -0.00107706       0.00062483       0.00826003 </v>
   <v>       0.00109058      -0.00063358       0.00828055 </v>
   <v>       0.00000114       0.00126562       0.00828429 </v>
   <v>       0.00000114      -0.00126562       0.00828429 </v>
   <v>      -0.00000399      -0.00000000       0.00757984 </v>
   <v>      -0.00000315      -0.00000000       0.01044946 </v>
   <v>      -0.00012327       0.00038828      -0.00839472 </v>
   <v>       0.00044018       0.00007918      -0.00852708 </v>
   <v>      -0.00001841       0.00000000      -0.00861621 </v>
   <v>      -0.00003852      -0.00000000      -0.00847056 </v>
   <v>      -0.00052204       0.00000000      -0.00843654 </v>
   <v>      -0.00007705       0.00000000      -0.00831215 </v>
   <v>      -0.00012327      -0.00038828      -0.00839472 </v>
   <v>       0.00044018      -0.00007918      -0.00852708 </v>
  </varray>
  <varray name="stress" >
   <v>       7.86181016       0.00000000      -0.00065195 </v>
   <v>       0.00000000       7.86046649       0.00000000 </v>
   <v>      -0.00065196       0.00000000      -3.63997552 </v>
  </varray>
  <energy>
   <i name="e_fr_energy">   -125.63357742 </i>
   <i name="e_wo_entrp">   -125.62754336 </i>
   <i name="e_0_energy">   -125.63056039 </i>
  </energy>
  <time name="totalsc">   12.18   12.27</time>
 </calculation>
 <calculation>
  <scstep>
   <time name="dav">    4.03    4.06</time>
   <time name="total">    4.24    4.29</time>
   <energy>
    <i name="alphaZ">     60.61674889 </i>
    <i name="ewald">   1883.69335147 </i>
    <i name="hartreedc">  -3493.91256182 </i>
    <i name="XCdc">    168.43921628 </i>
    <i name="pawpsdc">   5831.84033011 </i>
    <i name="pawaedc">  -5831.22737913 </i>
    <i name="eentropy">     -0.00603408 </i>
    <i name="bandstr">   -490.08942307 </i>
    <i name="atom">   1746.50554237 </i>
    <i name="e_fr_energy">   -124.14020898 </i>
    <i name="e_wo_entrp">   -124.13417490 </i>
    <i name="e_0_energy">   -124.13719194 </i>
   </energy>
  </scstep>
  <scstep>
   <time name="dav">    5.07    5.10</time>
   <time name="total">    5.10    5.13</time>
   <energy>
    <i name="alphaZ">     60.61674889 </i>
    <i name="ewald">   1883.69335147 </i>
    <i name="hartreedc">  -3493.91336598 </i>
    <i name="XCdc">    168.43922710 </i>
    <i name="pawpsdc">   5831.84506253 </i>
    <i name="pawaedc">  -5831.23211273 </i>
    <i name="eentropy">     -0.00603414 </i>
    <i name="bandstr">   -490.08862852 </i>
    <i name="atom">   1746.50554237 </i>
    <i name="e_fr_energy">   -124.14020901 </i>
    <i name="e_wo_entrp">   -124.13417487 </i>
    <i name="e_0_energy">   -124.13719194 </i>
   </energy>
  </scstep>
  <structure>
   <crystal>
    <varray name="basis" >
     <v>       4.30674433       2.48650000       0.00000000 </v>
     <v>      -4.30674433       2.48650000       0.00000000 </v>
     <v>       0.00000000       0.00000000      15.00000000 </v>
    </varray>
    <i name="volume">    321.26159352 </i>
    <varray name="rec_basis" >
     <v>       0.11609698       0.20108586       0.00000000 </v>
     <v>      -0.11609698       0.20108586       0.00000000 </v>
     <v>       0.00000000       0.00000000       0.06666667 </v>
    </varray>
   </crystal>
   <varray name="positions" >
    <v>       0.66982709      -0.00000005       0.10001344 </v>
    <v>       0.33017199      -0.00000007       0.10001348 </v>
    <v>       0.00000005       0.33017191       0.10001344 </v>
    <v>       0.00000007       0.66982701       0.10001348 </v>
    <v>       0.33017184       0.33017180       0.10001349 </v>
    <v>       0.66982720       0.66982716       0.10001349 </v>
    <v>       0.66666605       0.33333295       0.09923256 </v>
    <v>       0.33333277       0.66666623       0.10079733 </v>
    <v>       0.24999716       0.24999720       0.46905297 </v>
    <v>       0.41666460       0.08333345       0.46905269 </v>
    <v>       0.24999913       0.74999987       0.46905249 </v>
    <v>       0.41666669       0.58333231       0.46905281 </v>
    <v>       0.75000082       0.24999818       0.46905288 </v>
    <v>       0.91666685       0.08333215       0.46905315 </v>
    <v>       0.75000180       0.75000184       0.46905297 </v>
    <v>       0.91666555       0.58333440       0.46905269 </v>
   </varray>
  </structure>
  <varray name="forces" >
   <v>      -0.00089878      -0.00052192       0.00826122 </v>
   <v>       0.00091234       0.00053061       0.00828178 </v>
   <v>      -0.00089878       0.00052192       0.00826122 </v>
   <v>       0.00091234      -0.00053061       0.00828178 </v>
   <v>       0.00000113       0.00105972       0.00828548 </v>
   <v>       0.00000113      -0.00105972       0.00828548 </v>
   <v>      -0.00000396       0.00000000       0.00758094 </v>
   <v>      -0.00000323      -0.00000000       0.01045308 </v>
   <v>      -0.00012312       0.00038749      -0.00839614 </v>
   <v>       0.00043940       0.00007900      -0.00852856 </v>
   <v>      -0.00001846       0.00000000      -0.00861782 </v>
   <v>      -0.00003838       0.00000000      -0.00847212 </v>
   <v>      -0.00052111       0.00000000      -0.00843810 </v>
   <v>      -0.00007680      -0.00000000      -0.00831351 </v>
   <v>      -0.00012312      -0.00038749      -0.00839614 </v>
   <v>       0.00043940      -0.00007900      -0.00852856 </v>
  </varray>
  <varray name="stress" >
   <v>       7.86261680       0.00000000      -0.00065195 </v>
   <v>       0.00000000       7.86127683       0.00000000 </v>
   <v>      -0.00065197       0.00000000      -3.64183097 </v>
  </varray>
  <energy>
   <i name="e_fr_energy">   -125.63357751 </i>
   <i name="e_wo_entrp">   -125.62754337 </i>
   <i name="e_0_energy">   -125.63056044 </i>
  </energy>
  <time name="totalsc">   12.44   12.54</time>
 </calculation>
 <calculation>
  <scstep>
   <time name="dav">    3.29    3.31</time>
   <time name="total">    3.51    3.54</time>
   <energy>
    <i name="alphaZ">     60.61674889 </i>
    <i name="ewald">   1884.32215090 </i>
    <i name="hartreedc">  -3494.54301847 </i>
    <i name="XCdc">    168.43923505 </i>
    <i name="pawpsdc">   5831.84816073 </i>
    <i name="pawaedc">  -5831.23521154 </i>
    <i name="eentropy">     -0.00603422 </i>
    <i name="bandstr">   -490.08778958 </i>
    <i name="atom">   1746.50554237 </i>
    <i name="e_fr_energy">   -124.14021587 </i>
    <i name="e_wo_entrp">   -124.13418165 </i>
    <i name="e_0_energy">   -124.13719876 </i>
   </energy>
  </scstep>
  <scstep>
   <time name="dav">    3.74    3.76</time>
   <time name="total">    3.96    3.99</time>
   <energy>
    <i name="e_fr_energy">   -124.14021483 </i>
    <i name="e_wo_entrp">   -124.13418035 </i>
    <i name="e_0_energy">   -124.13719759 </i>
   </energy>
  </scstep>
  <scstep>
   <time name="dav">    4.29    4.32</time>
   <time name="total">    4.32    4.35</time>
   <energy>
    <i name="alphaZ">     60.61674889 </i>
    <i name="ewald">   1884.32215090 </i>
    <i name="hartreedc">  -3494.55204755 </i>
    <i name="XCdc">    168.43926236 </i>
    <i name="pawpsdc">   5831.84104763 </i>
    <i name="pawaedc">  -5831.22809618 </i>
    <i name="eentropy">     -0.00603430 </i>
    <i name="bandstr">   -490.07878830 </i>
    <i name="atom">   1746.50554237 </i>
    <i name="e_fr_energy">   -124.14021418 </i>
    <i name="e_wo_entrp">   -124.13417988 </i>
    <i name="e_0_energy">   -124.13719703 </i>
   </energy>
  </scstep>
  <structure>
   <crystal>
    <varray name="basis" >
     <v>       4.30674433       2.48650000       0.00000000 </v>
     <v>      -4.30674433       2.48650000       0.00000000 </v>
     <v>       0.00000000       0.00000000      15.00000000 </v>
    </varray>
    <i name="volume">    321.26159352 </i>
    <varray name="rec_basis" >
     <v>       0.11609698       0.20108586       0.00000000 </v>
     <v>      -0.11609698       0.20108586       0.00000000 </v>
     <v>       0.00000000       0.00000000       0.06666667 </v>
    </varray>
   </crystal>
   <varray name="positions" >
    <v>       0.66982717      -0.00000008       0.10003753 </v>
    <v>       0.33017206      -0.00000004       0.10003763 </v>
    <v>       0.00000008       0.33017183       0.10003753 </v>
    <v>       0.00000004       0.66982694       0.10003763 </v>
    <v>       0.33017193       0.33017188       0.10003764 </v>
    <v>       0.66982712       0.66982707       0.10003764 </v>
    <v>       0.66666603       0.33333297       0.09925465 </v>
    <v>       0.33333275       0.66666625       0.10082783 </v>
    <v>       0.24999991       0.25000119       0.46902849 </v>
    <v>       0.41666749       0.08333193       0.46902782 </v>
    <v>       0.24999903       0.74999997       0.46902736 </v>
    <v>       0.41666650       0.58333250       0.46902810 </v>
    <v>       0.74999820       0.25000080       0.46902827 </v>
    <v>       0.91666647       0.08333253       0.46902891 </v>
    <v>       0.74999781       0.74999909       0.46902849 </v>
    <v>       0.91666707       0.58333151       0.46902782 </v>
   </varray>
  </structure>
  <varray name="forces" >
   <v>      -0.00087903      -0.00051542       0.00798009 </v>
   <v>       0.00088820       0.00049983       0.00799964 </v>
   <v>      -0.00087903       0.00051542       0.00798009 </v>
   <v>       0.00088820      -0.00049983       0.00799964 </v>
   <v>      -0.00000139       0.00101498       0.00800271 </v>
   <v>      -0.00000139      -0.00101498       0.00800271 </v>
   <v>       0.00000834       0.00000000       0.00728930 </v>
   <v>      -0.00000493       0.00000000       0.01019126 </v>
   <v>       0.00044754      -0.00091850      -0.00814372 </v>
   <v>      -0.00120852      -0.00019615      -0.00821752 </v>
   <v>       0.00018806       0.00000000      -0.00826353 </v>
   <v>      -0.00007997       0.00000000      -0.00819130 </v>
   <v>       0.00138146      -0.00000000      -0.00817111 </v>
   <v>       0.00001344       0.00000000      -0.00809700 </v>
   <v>       0.00044754       0.00091850      -0.00814372 </v>
   <v>      -0.00120852       0.00019615      -0.00821752 </v>
  </varray>
  <varray name="stress" >
   <v>       7.86061616       0.00000000      -0.00065224 </v>
   <v>       0.00000000       7.86312955       0.00000000 </v>
   <v>      -0.00065223       0.00000000      -3.64658571 </v>
  </varray>
  <energy>
   <i name="e_fr_energy">   -125.63362789 </i>
   <i name="e_wo_entrp">   -125.62759359 </i>
   <i name="e_0_energy">   -125.63061074 </i>
  </energy>
  <time name="totalsc">   14.90   15.02</time>
 </calculation>
 <calculation>
  <scstep>
   <time name="dav">    3.35    3.39</time>
   <time name="total">    3.59    3.63</time>
   <energy>
    <i name="alphaZ">     60.61674889 </i>
    <i name="ewald">   1886.20996271 </i>
    <i name="hartreedc">  -3496.43787508 </i>
    <i name="XCdc">    168.43925481 </i>
    <i name="pawpsdc">   5831.84446570 </i>
    <i name="pawaedc">  -5831.23151388 </i>
    <i name="eentropy">     -0.00603430 </i>
    <i name="bandstr">   -490.08079530 </i>
    <i name="atom">   1746.50554237 </i>
    <i name="e_fr_energy">   -124.14024408 </i>
    <i name="e_wo_entrp">   -124.13420978 </i>
    <i name="e_0_energy">   -124.13722693 </i>
   </energy>
  </scstep>
  <scstep>
   <time name="dav">    3.56    3.58</time>
   <time name="total">    3.77    3.81</time>
   <energy>
    <i name="e_fr_energy">   -124.14023418 </i>
    <i name="e_wo_entrp">   -124.13419912 </i>
    <i name="e_0_energy">   -124.13721665 </i>
   </energy>
  </scstep>
  <scstep>
   <time name="dav">    5.10    5.13</time>
   <time name="total">    5.32    5.37</time>
   <energy>
    <i name="e_fr_energy">   -124.14022787 </i>
    <i name="e_wo_entrp">   -124.13419338 </i>
    <i name="e_0_energy">   -124.13721062 </i>
   </energy>
  </scstep>
  <scstep>
   <time name="dav">    3.77    3.79</time>
   <time name="total">    3.80    3.83</time>
   <energy>
    <i name="alphaZ">     60.61674889 </i>
    <i name="ewald">   1886.20996271 </i>
    <i name="hartreedc">  -3496.45319641 </i>
    <i name="XCdc">    168.43930075 </i>
    <i name="pawpsdc">   5831.83795463 </i>
    <i name="pawaedc">  -5831.22499606 </i>
    <i name="eentropy">     -0.00603428 </i>
    <i name="bandstr">   -490.06551092 </i>
    <i name="atom">   1746.50554237 </i>
    <i name="e_fr_energy">   -124.14022831 </i>
    <i name="e_wo_entrp">   -124.13419404 </i>
    <i name="e_0_energy">   -124.13721117 </i>
   </energy>
  </scstep>
  <structure>
   <crystal>
    <varray name="basis" >
     <v>       4.30674433       2.48650000       0.00000000 </v>
     <v>      -4.30674433       2.48650000       0.00000000 </v>
     <v>       0.00000000       0.00000000      15.00000000 </v>
    </varray>
    <i name="volume">    321.26159352 </i>
    <varray name="rec_basis" >
     <v>       0.11609698       0.20108586       0.00000000 </v>
     <v>      -0.11609698       0.20108586       0.00000000 </v>
     <v>       0.00000000       0.00000000       0.06666667 </v>
    </varray>
   </crystal>
   <varray name="positions" >
    <v>       0.66982740      -0.00000016       0.10010980 </v>
    <v>       0.33017226       0.00000006       0.10011007 </v>
    <v>       0.00000016       0.33017160       0.10010980 </v>
    <v>      -0.00000006       0.66982674       0.10011007 </v>
    <v>       0.33017221       0.33017212       0.10011012 </v>
    <v>       0.66982688       0.66982679       0.10011012 </v>
    <v>       0.66666597       0.33333303       0.09932091 </v>
    <v>       0.33333270       0.66666630       0.10091933 </v>
    <v>       0.25000815       0.25001315       0.46895504 </v>
    <v>       0.41667617       0.08332736       0.46895321 </v>
    <v>       0.24999875       0.75000025       0.46895197 </v>
    <v>       0.41666593       0.58333307       0.46895399 </v>
    <v>       0.74999035       0.25000865       0.46895446 </v>
    <v>       0.91666532       0.08333368       0.46895619 </v>
    <v>       0.74998585       0.74999085       0.46895504 </v>
    <v>       0.91667164       0.58332283       0.46895321 </v>
   </varray>
  </structure>
  <varray name="forces" >
   <v>      -0.00091134      -0.00055586       0.00832744 </v>
   <v>       0.00091402       0.00046353       0.00834264 </v>
   <v>      -0.00091134       0.00055586       0.00832744 </v>
   <v>       0.00091402      -0.00046353       0.00834264 </v>
   <v>      -0.00001612       0.00099228       0.00834368 </v>
   <v>      -0.00001612      -0.00099228       0.00834368 </v>
   <v>       0.00004974       0.00000000       0.00744887 </v>
   <v>      -0.00000046       0.00000000       0.01040487 </v>
   <v>       0.00215447      -0.00465932      -0.00853040 </v>
   <v>      -0.00604748      -0.00095111      -0.00843800 </v>
   <v>       0.00089865       0.00000000      -0.00835901 </v>
   <v>      -0.00025845       0.00000000      -0.00848845 </v>
   <v>       0.00697422       0.00000000      -0.00850863 </v>
   <v>       0.00014921       0.00000000      -0.00858840 </v>
   <v>       0.00215447       0.00465932      -0.00853040 </v>
   <v>      -0.00604748       0.00095111      -0.00843800 </v>
  </varray>
  <varray name="stress" >
   <v>       7.85278903       0.00000000      -0.00065638 </v>
   <v>       0.00000000       7.87069997       0.00000000 </v>
   <v>      -0.00065637       0.00000000      -3.65113815 </v>
  </varray>
  <energy>
   <i name="e_fr_energy">   -125.63377787 </i>
   <i name="e_wo_entrp">   -125.62774360 </i>
   <i name="e_0_energy">   -125.63076074 </i>
  </energy>
  <time name="totalsc">   19.58   19.76</time>
 </calculation>
 <calculation>
  <scstep>
   <time name="dav">    3.27    3.30</time>
   <time name="total">    3.48    3.52</time>
   <energy>
    <i name="alphaZ">     60.61674889 </i>
    <i name="ewald">   1889.99194620 </i>
    <i name="hartreedc">  -3500.22873331 </i>
    <i name="XCdc">    168.43928911 </i>
    <i name="pawpsdc">   5831.84020566 </i>
    <i name="pawaedc">  -5831.22725015 </i>
    <i name="eentropy">     -0.00603428 </i>
    <i name="bandstr">   -490.07202955 </i>
    <i name="atom">   1746.50554237 </i>
    <i name="e_fr_energy">   -124.14031505 </i>
    <i name="e_wo_entrp">   -124.13428078 </i>
    <i name="e_0_energy">   -124.13729792 </i>
   </energy>
  </scstep>
  <scstep>
   <time name="dav">    3.54    3.57</time>
   <time name="total">    3.76    3.80</time>
   <energy>
    <i name="e_fr_energy">   -124.14027866 </i>
    <i name="e_wo_entrp">   -124.13424289 </i>
    <i name="e_0_energy">   -124.13726078 </i>
   </energy>
  </scstep>
  <scstep>
   <time name="dav">    4.74    4.77</time>
   <time name="total">    4.95    5.00</time>
   <energy>
    <i name="e_fr_energy">   -124.14025029 </i>
    <i name="e_wo_entrp">   -124.13421562 </i>
    <i name="e_0_energy">   -124.13723296 </i>
   </energy>
  </scstep>
  <scstep>
   <time name="dav">    4.61    4.64</time>
   <time name="total">    4.83    4.87</time>
   <energy>
    <i name="e_fr_energy">   -124.14025156 </i>
    <i name="e_wo_entrp">   -124.13421731 </i>
    <i name="e_0_energy">   -124.13723443 </i>
   </energy>
  </scstep>
  <scstep>
   <time name="dav">    3.64    3.67</time>
   <time name="total">    3.67    3.70</time>
   <energy>
    <i name="alphaZ">     60.61674889 </i>
    <i name="ewald">   1889.99194620 </i>
    <i name="hartreedc">  -3500.24535218 </i>
    <i name="XCdc">    168.43936121 </i>
    <i name="pawpsdc">   5831.82943655 </i>
    <i name="pawaedc">  -5831.21647459 </i>
    <i name="eentropy">     -0.00603416 </i>
    <i name="bandstr">   -490.05542654 </i>
    <i name="atom">   1746.50554237 </i>
    <i name="e_fr_energy">   -124.14025225 </i>
    <i name="e_wo_entrp">   -124.13421809 </i>
    <i name="e_0_energy">   -124.13723517 </i>
   </energy>
  </scstep>
  <structure>
   <crystal>
    <varray name="basis" >
     <v>       4.30674433       2.48650000       0.00000000 </v>
     <v>      -4.30674433       2.48650000       0.00000000 </v>
     <v>       0.00000000       0.00000000      15.00000000 </v>
    </varray>
    <i name="volume">    321.26159352 </i>
    <varray name="rec_basis" >
     <v>       0.11609698       0.20108586       0.00000000 </v>
     <v>      -0.11609698       0.20108586       0.00000000 </v>
     <v>       0.00000000       0.00000000       0.06666667 </v>
    </varray>
   </crystal>
   <varray name="positions" >
    <v>       0.66982787      -0.00000032       0.10025432 </v>
    <v>       0.33017266       0.00000026       0.10025496 </v>
    <v>       0.00000032       0.33017113       0.10025432 </v>
    <v>      -0.00000026       0.66982634       0.10025496 </v>
    <v>       0.33017275       0.33017260       0.10025507 </v>
    <v>       0.66982640       0.66982625       0.10025507 </v>
    <v>       0.66666586       0.33333314       0.09945344 </v>
    <v>       0.33333258       0.66666642       0.10110234 </v>
    <v>       0.25002462       0.25003707       0.46880815 </v>
    <v>       0.41669353       0.08331824       0.46880400 </v>
    <v>       0.24999817       0.75000083       0.46880120 </v>
    <v>       0.41666479       0.58333421       0.46880577 </v>
    <v>       0.74997465       0.25002435       0.46880683 </v>
    <v>       0.91666303       0.08333597       0.46881075 </v>
    <v>       0.74996193       0.74997438       0.46880815 </v>
    <v>       0.91668076       0.58330547       0.46880400 </v>
   </varray>
  </structure>
  <varray name="forces" >
   <v>      -0.00098052      -0.00062261       0.00832442 </v>
   <v>       0.00095340       0.00039925       0.00833104 </v>
   <v>      -0.00098052       0.00062261       0.00832442 </v>
   <v>       0.00095340      -0.00039925       0.00833104 </v>
   <v>      -0.00002997       0.00094173       0.00832872 </v>
[...]
    <i name="e_fr_energy">   -124.05494369 </i>
    <i name="e_wo_entrp">   -124.05129829 </i>
    <i name="e_0_energy">   -124.05312099 </i>
   </energy>
  </scstep>
  <scstep>
   <time name="dav">    4.97    5.00</time>
   <time name="total">    5.18    5.22</time>
   <energy>
    <i name="e_fr_energy">   -124.05494379 </i>
    <i name="e_wo_entrp">   -124.05129728 </i>
    <i name="e_0_energy">   -124.05312054 </i>
   </energy>
  </scstep>
  <scstep>
   <time name="dav">    4.54    4.57</time>
   <time name="total">    4.57    4.61</time>
   <energy>
    <i name="alphaZ">     60.61674889 </i>
    <i name="ewald">   4453.39039369 </i>
    <i name="hartreedc">  -6064.17183487 </i>
    <i name="XCdc">    168.55981814 </i>
    <i name="pawpsdc">   5800.60637908 </i>
    <i name="pawaedc">  -5799.98420953 </i>
    <i name="eentropy">     -0.00364664 </i>
    <i name="bandstr">   -489.57413439 </i>
    <i name="atom">   1746.50554237 </i>
    <i name="e_fr_energy">   -124.05494325 </i>
    <i name="e_wo_entrp">   -124.05129661 </i>
    <i name="e_0_energy">   -124.05311993 </i>
   </energy>
  </scstep>
  <structure>
   <crystal>
    <varray name="basis" >
     <v>       4.30674433       2.48650000       0.00000000 </v>
     <v>      -4.30674433       2.48650000       0.00000000 </v>
     <v>       0.00000000       0.00000000      15.00000000 </v>
    </varray>
    <i name="volume">    321.26159352 </i>
    <varray name="rec_basis" >
     <v>       0.11609698       0.20108586       0.00000000 </v>
     <v>      -0.11609698       0.20108586       0.00000000 </v>
     <v>       0.00000000       0.00000000       0.06666667 </v>
    </varray>
   </crystal>
   <varray name="positions" >
    <v>       0.67037472      -0.00170768       0.16713990 </v>
    <v>       0.33309250      -0.00168819       0.16712090 </v>
    <v>       0.00170768       0.32962428       0.16713990 </v>
    <v>       0.00168819       0.66690650       0.16712090 </v>
    <v>       0.33275561       0.32952640       0.16615751 </v>
    <v>       0.67047260       0.66724339       0.16615751 </v>
    <v>       0.66795319       0.33204581       0.15450466 </v>
    <v>       0.33475064       0.66524836       0.17985235 </v>
    <v>       0.24843100       0.25160675       0.40218452 </v>
    <v>       0.41508187       0.08497938       0.40214858 </v>
    <v>       0.24840521       0.75159379       0.40218774 </v>
    <v>       0.41509484       0.58490416       0.40229228 </v>
    <v>       0.74839324       0.25160576       0.40211227 </v>
    <v>       0.91504651       0.08495249       0.40208119 </v>
    <v>       0.74839225       0.75156800       0.40218452 </v>
    <v>       0.91501962       0.58491713       0.40214858 </v>
   </varray>
  </structure>
  <varray name="forces" >
   <v>       0.00865470      -0.00268003       0.00272169 </v>
   <v>      -0.00680647      -0.00120747       0.00368009 </v>
   <v>       0.00865470       0.00268003       0.00272169 </v>
   <v>      -0.00680647       0.00120747       0.00368009 </v>
   <v>       0.00259658       0.00670667       0.00047269 </v>
   <v>       0.00259658      -0.00670667       0.00047269 </v>
   <v>       0.01696898       0.00000000      -0.00342423 </v>
   <v>      -0.00360742      -0.00000000      -0.00685714 </v>
   <v>      -0.00633703      -0.00750228      -0.00419265 </v>
   <v>       0.00286486      -0.00322978       0.00527328 </v>
   <v>      -0.01229200      -0.00000000       0.00577436 </v>
   <v>      -0.00328768      -0.00000000      -0.00610166 </v>
   <v>      -0.00783454      -0.00000000       0.00287504 </v>
   <v>       0.00810738      -0.00000000      -0.00817656 </v>
   <v>      -0.00633703       0.00750228      -0.00419265 </v>
   <v>       0.00286486       0.00322978       0.00527328 </v>
  </varray>
  <varray name="stress" >
   <v>       4.20355091       0.00000000      -0.40601853 </v>
   <v>       0.00000000       3.98793043       0.00000000 </v>
   <v>      -0.40601853       0.00000000      -1.68364656 </v>
  </varray>
  <energy>
   <i name="e_fr_energy">   -125.91515110 </i>
   <i name="e_wo_entrp">   -125.91150446 </i>
   <i name="e_0_energy">   -125.91332778 </i>
  </energy>
  <time name="totalsc">   16.35   16.49</time>
 </calculation>
 <calculation>
  <scstep>
   <time name="dav">    3.28    3.30</time>
   <time name="total">    3.49    3.52</time>
   <energy>
    <i name="alphaZ">     60.61674889 </i>
    <i name="ewald">   4455.18515614 </i>
    <i name="hartreedc">  -6065.97043908 </i>
    <i name="XCdc">    168.56045776 </i>
    <i name="pawpsdc">   5800.60372456 </i>
    <i name="pawaedc">  -5799.98155557 </i>
    <i name="eentropy">     -0.00370309 </i>
    <i name="bandstr">   -489.57051527 </i>
    <i name="atom">   1746.50554237 </i>
    <i name="e_fr_energy">   -124.05458328 </i>
    <i name="e_wo_entrp">   -124.05088019 </i>
    <i name="e_0_energy">   -124.05273174 </i>
   </energy>
  </scstep>
  <scstep>
   <time name="dav">    4.09    4.11</time>
   <time name="total">    4.30    4.33</time>
   <energy>
    <i name="e_fr_energy">   -124.05458294 </i>
    <i name="e_wo_entrp">   -124.05087783 </i>
    <i name="e_0_energy">   -124.05273039 </i>
   </energy>
  </scstep>
  <scstep>
   <time name="dav">    4.85    4.88</time>
   <time name="total">    5.06    5.10</time>
   <energy>
    <i name="e_fr_energy">   -124.05458051 </i>
    <i name="e_wo_entrp">   -124.05087531 </i>
    <i name="e_0_energy">   -124.05272791 </i>
   </energy>
  </scstep>
  <scstep>
   <time name="dav">    3.41    3.44</time>
   <time name="total">    3.45    3.47</time>
   <energy>
    <i name="alphaZ">     60.61674889 </i>
    <i name="ewald">   4455.18515614 </i>
    <i name="hartreedc">  -6065.96861361 </i>
    <i name="XCdc">    168.55949984 </i>
    <i name="pawpsdc">   5800.33774397 </i>
    <i name="pawaedc">  -5799.71548794 </i>
    <i name="eentropy">     -0.00370453 </i>
    <i name="bandstr">   -489.57146653 </i>
    <i name="atom">   1746.50554237 </i>
    <i name="e_fr_energy">   -124.05458140 </i>
    <i name="e_wo_entrp">   -124.05087687 </i>
    <i name="e_0_energy">   -124.05272914 </i>
   </energy>
  </scstep>
  <structure>
   <crystal>
    <varray name="basis" >
     <v>       4.30674433       2.48650000       0.00000000 </v>
     <v>      -4.30674433       2.48650000       0.00000000 </v>
     <v>       0.00000000       0.00000000      15.00000000 </v>
    </varray>
    <i name="volume">    321.26159352 </i>
    <varray name="rec_basis" >
     <v>       0.11609698       0.20108586       0.00000000 </v>
     <v>      -0.11609698       0.20108586       0.00000000 </v>
     <v>       0.00000000       0.00000000       0.06666667 </v>
    </varray>
   </crystal>
   <varray name="positions" >
    <v>       0.67052103      -0.00172631       0.16719228 </v>
    <v>       0.33310295      -0.00177865       0.16717873 </v>
    <v>       0.00172631       0.32947797       0.16719228 </v>
    <v>       0.00177865       0.66689605       0.16717873 </v>
    <v>       0.33275447       0.32935579       0.16620884 </v>
    <v>       0.67064321       0.66724453       0.16620884 </v>
    <v>       0.66802385       0.33197515       0.15453066 </v>
    <v>       0.33484748       0.66515152       0.17978264 </v>
    <v>       0.24831418       0.25163291       0.40215447 </v>
    <v>       0.41498408       0.08502555       0.40210883 </v>
    <v>       0.24831474       0.75168426       0.40215088 </v>
    <v>       0.41500841       0.58499059       0.40225865 </v>
    <v>       0.74831534       0.25168366       0.40207539 </v>
    <v>       0.91498544       0.08501356       0.40204883 </v>
    <v>       0.74836609       0.75168482       0.40215447 </v>
    <v>       0.91497345       0.58501492       0.40210883 </v>
   </varray>
  </structure>
  <varray name="forces" >
   <v>       0.00491029      -0.01466026       0.00221859 </v>
   <v>       0.00102439       0.00783915       0.00290391 </v>
   <v>       0.00491029       0.01466026       0.00221859 </v>
   <v>       0.00102439      -0.00783915       0.00290391 </v>
   <v>       0.00071010       0.02025425       0.00001138 </v>
   <v>       0.00071010      -0.02025425       0.00001138 </v>
   <v>       0.01504978       0.00000000      -0.00146895 </v>
   <v>      -0.00589198       0.00000000      -0.00544438 </v>
   <v>      -0.00830093       0.00871715      -0.00537315 </v>
   <v>       0.00008517       0.00543654       0.00646629 </v>
   <v>      -0.00138274       0.00000000       0.00564689 </v>
   <v>       0.00408262       0.00000000      -0.00576519 </v>
   <v>      -0.00614596       0.00000000       0.00263531 </v>
   <v>      -0.00256975       0.00000000      -0.00805771 </v>
   <v>      -0.00830093      -0.00871715      -0.00537315 </v>
   <v>       0.00008517      -0.00543654       0.00646629 </v>
  </varray>
  <varray name="stress" >
   <v>       4.19369254       0.00000000      -0.40619850 </v>
   <v>       0.00000000       3.92382964       0.00000000 </v>
   <v>      -0.40619853       0.00000000      -1.66739444 </v>
  </varray>
  <energy>
   <i name="e_fr_energy">   -125.91518019 </i>
   <i name="e_wo_entrp">   -125.91147566 </i>
   <i name="e_0_energy">   -125.91332793 </i>
  </energy>
  <time name="totalsc">   19.40   19.57</time>
 </calculation>
 <calculation>
  <scstep>
   <time name="dav">    3.29    3.31</time>
   <time name="total">    3.50    3.53</time>
   <energy>
    <i name="alphaZ">     60.61674889 </i>
    <i name="ewald">   4456.30997712 </i>
    <i name="hartreedc">  -6067.07717643 </i>
    <i name="XCdc">    168.56068107 </i>
    <i name="pawpsdc">   5800.32477473 </i>
    <i name="pawaedc">  -5799.70251736 </i>
    <i name="eentropy">     -0.00371303 </i>
    <i name="bandstr">   -489.58870836 </i>
    <i name="atom">   1746.50554237 </i>
    <i name="e_fr_energy">   -124.05439099 </i>
    <i name="e_wo_entrp">   -124.05067796 </i>
    <i name="e_0_energy">   -124.05253447 </i>
   </energy>
  </scstep>
  <scstep>
   <time name="dav">    4.79    4.82</time>
   <time name="total">    5.00    5.04</time>
   <energy>
    <i name="e_fr_energy">   -124.05439248 </i>
    <i name="e_wo_entrp">   -124.05067904 </i>
    <i name="e_0_energy">   -124.05253576 </i>
   </energy>
  </scstep>
  <scstep>
   <time name="dav">    4.41    4.44</time>
   <time name="total">    4.45    4.48</time>
   <energy>
    <i name="alphaZ">     60.61674889 </i>
    <i name="ewald">   4456.30997712 </i>
    <i name="hartreedc">  -6067.08903218 </i>
    <i name="XCdc">    168.56029376 </i>
    <i name="pawpsdc">   5800.50409724 </i>
    <i name="pawaedc">  -5799.88189749 </i>
    <i name="eentropy">     -0.00371412 </i>
    <i name="bandstr">   -489.57640763 </i>
    <i name="atom">   1746.50554237 </i>
    <i name="e_fr_energy">   -124.05439204 </i>
    <i name="e_wo_entrp">   -124.05067791 </i>
    <i name="e_0_energy">   -124.05253497 </i>
   </energy>
  </scstep>
  <structure>
   <crystal>
    <varray name="basis" >
     <v>       4.30674433       2.48650000       0.00000000 </v>
     <v>      -4.30674433       2.48650000       0.00000000 </v>
     <v>       0.00000000       0.00000000      15.00000000 </v>
    </varray>
    <i name="volume">    321.26159352 </i>
    <varray name="rec_basis" >
     <v>       0.11609698       0.20108586       0.00000000 </v>
     <v>      -0.11609698       0.20108586       0.00000000 </v>
     <v>       0.00000000       0.00000000       0.06666667 </v>
    </varray>
   </crystal>
   <varray name="positions" >
    <v>       0.67056057      -0.00180628       0.16722603 </v>
    <v>       0.33314235      -0.00180334       0.16721659 </v>
    <v>       0.00180628       0.32943843       0.16722603 </v>
    <v>       0.00180334       0.66685665       0.16721659 </v>
    <v>       0.33283529       0.32933356       0.16623908 </v>
    <v>       0.67066544       0.66716371       0.16623908 </v>
    <v>       0.66809974       0.33189926       0.15454405 </v>
    <v>       0.33489110       0.66510790       0.17973447 </v>
    <v>       0.24826085       0.25170160       0.40212974 </v>
    <v>       0.41494811       0.08507398       0.40209386 </v>
    <v>       0.24825831       0.75174069       0.40213656 </v>
    <v>       0.41496680       0.58503220       0.40223130 </v>
    <v>       0.74825546       0.25174354       0.40205711 </v>
    <v>       0.91494362       0.08505538       0.40201924 </v>
    <v>       0.74829740       0.75173815       0.40212974 </v>
    <v>       0.91492502       0.58505089       0.40209386 </v>
   </varray>
  </structure>
  <varray name="forces" >
   <v>       0.00207510      -0.00862514       0.00131992 </v>
   <v>       0.00393942       0.00719106       0.00201631 </v>
   <v>       0.00207510       0.00862514       0.00131992 </v>
   <v>       0.00393942      -0.00719106       0.00201631 </v>
   <v>       0.00274628       0.01652208      -0.00052276 </v>
   <v>       0.00274628      -0.01652208      -0.00052276 </v>
   <v>       0.01148786      -0.00000000      -0.00067946 </v>
   <v>      -0.00664161      -0.00000000      -0.00334980 </v>
   <v>       0.00032662       0.00620872      -0.00493223 </v>
   <v>      -0.00743196       0.00338425       0.00575830 </v>
   <v>       0.00385991       0.00000000       0.00473355 </v>
   <v>      -0.00442367      -0.00000000      -0.00417584 </v>
   <v>       0.00227913       0.00000000       0.00243050 </v>
   <v>      -0.00987251       0.00000000      -0.00623804 </v>
   <v>       0.00032662      -0.00620872      -0.00493223 </v>
   <v>      -0.00743196      -0.00338425       0.00575830 </v>
  </varray>
  <varray name="stress" >
   <v>       4.15159490       0.00000000      -0.40441302 </v>
   <v>       0.00000000       3.98954800       0.00000000 </v>
   <v>      -0.40441300       0.00000000      -1.65013644 </v>
  </varray>
  <energy>
   <i name="e_fr_energy">   -125.91522320 </i>
   <i name="e_wo_entrp">   -125.91150908 </i>
   <i name="e_0_energy">   -125.91336614 </i>
  </energy>
  <time name="totalsc">   16.04   16.18</time>
 </calculation>
 <calculation>
  <scstep>
   <time name="dav">    3.30    3.32</time>
   <time name="total">    3.52    3.55</time>
   <energy>
    <i name="alphaZ">     60.61674889 </i>
    <i name="ewald">   4459.08712704 </i>
    <i name="hartreedc">  -6069.83299664 </i>
    <i name="XCdc">    168.56324647 </i>
    <i name="pawpsdc">   5800.53100483 </i>
    <i name="pawaedc">  -5799.90881634 </i>
    <i name="eentropy">     -0.00373655 </i>
    <i name="bandstr">   -489.61198531 </i>
    <i name="atom">   1746.50554237 </i>
    <i name="e_fr_energy">   -124.05386524 </i>
    <i name="e_wo_entrp">   -124.05012869 </i>
    <i name="e_0_energy">   -124.05199696 </i>
   </energy>
  </scstep>
  <scstep>
   <time name="dav">    4.56    4.59</time>
   <time name="total">    4.78    4.82</time>
   <energy>
    <i name="e_fr_energy">   -124.05387324 </i>
    <i name="e_wo_entrp">   -124.05013597 </i>
    <i name="e_0_energy">   -124.05200461 </i>
   </energy>
  </scstep>
  <scstep>
   <time name="dav">    4.66    4.69</time>
   <time name="total">    4.87    4.92</time>
   <energy>
    <i name="e_fr_energy">   -124.05386904 </i>
    <i name="e_wo_entrp">   -124.05013038 </i>
    <i name="e_0_energy">   -124.05199971 </i>
   </energy>
  </scstep>
  <scstep>
   <time name="dav">    4.46    4.49</time>
   <time name="total">    4.67    4.71</time>
   <energy>
    <i name="e_fr_energy">   -124.05387093 </i>
    <i name="e_wo_entrp">   -124.05013178 </i>
    <i name="e_0_energy">   -124.05200135 </i>
   </energy>
  </scstep>
  <scstep>
   <time name="dav">    3.48    3.51</time>
   <time name="total">    3.71    3.76</time>
   <energy>
    <i name="e_fr_energy">   -124.05386859 </i>
    <i name="e_wo_entrp">   -124.05012940 </i>
    <i name="e_0_energy">   -124.05199899 </i>
   </energy>
  </scstep>
  <scstep>
   <time name="dav">    5.27    5.31</time>
   <time name="total">    5.48    5.53</time>
   <energy>
    <i name="e_fr_energy">   -124.05386740 </i>
    <i name="e_wo_entrp">   -124.05012822 </i>
    <i name="e_0_energy">   -124.05199781 </i>
   </energy>
  </scstep>
  <scstep>
   <time name="dav">    6.04    6.07</time>
   <time name="total">    6.07    6.11</time>
   <energy>
    <i name="alphaZ">     60.61674889 </i>
    <i name="ewald">   4459.08712704 </i>
    <i name="hartreedc">  -6069.84490995 </i>
    <i name="XCdc">    168.56242459 </i>
    <i name="pawpsdc">   5801.07824181 </i>
    <i name="pawaedc">  -5800.45622733 </i>
    <i name="eentropy">     -0.00373916 </i>
    <i name="bandstr">   -489.59907568 </i>
    <i name="atom">   1746.50554237 </i>
    <i name="e_fr_energy">   -124.05386743 </i>
    <i name="e_wo_entrp">   -124.05012827 </i>
    <i name="e_0_energy">   -124.05199785 </i>
   </energy>
  </scstep>
  <structure>
   <crystal>
    <varray name="basis" >
     <v>       4.30674433       2.48650000       0.00000000 </v>
     <v>      -4.30674433       2.48650000       0.00000000 </v>
     <v>       0.00000000       0.00000000      15.00000000 </v>
    </varray>
    <i name="volume">    321.26159352 </i>
    <varray name="rec_basis" >
     <v>       0.11609698       0.20108586       0.00000000 </v>
     <v>      -0.11609698       0.20108586       0.00000000 </v>
     <v>       0.00000000       0.00000000       0.06666667 </v>
    </varray>
   </crystal>
   <varray name="positions" >
    <v>       0.67065820      -0.00200374       0.16730936 </v>
    <v>       0.33323963      -0.00186432       0.16731008 </v>
    <v>       0.00200374       0.32934080       0.16730936 </v>
    <v>       0.00186432       0.66675937       0.16731008 </v>
    <v>       0.33303485       0.32927868       0.16631375 </v>
    <v>       0.67072032       0.66696415       0.16631375 </v>
    <v>       0.66828712       0.33171188       0.15457713 </v>
    <v>       0.33499882       0.66500018       0.17961551 </v>
    <v>       0.24812917       0.25187120       0.40206869 </v>
    <v>       0.41485931       0.08519357       0.40205692 </v>
    <v>       0.24811897       0.75188003       0.40210118 </v>
    <v>       0.41486405       0.58513495       0.40216378 </v>
    <v>       0.74810760       0.25189140       0.40201198 </v>
    <v>       0.91484035       0.08515865       0.40194616 </v>
    <v>       0.74812780       0.75186983       0.40206869 </v>
    <v>       0.91480543       0.58513969       0.40205692 </v>
   </varray>
  </structure>
  <varray name="forces" >
   <v>      -0.00426029       0.00597369      -0.00027963 </v>
   <v>       0.01133561       0.00557101       0.00052085 </v>
   <v>      -0.00426029      -0.00597369      -0.00027963 </v>
   <v>       0.01133561      -0.00557101       0.00052085 </v>
   <v>       0.00691684       0.00772023      -0.00132608 </v>
   <v>       0.00691684      -0.00772023      -0.00132608 </v>
   <v>       0.00259123       0.00000000       0.00167293 </v>
   <v>      -0.00798239       0.00000000       0.00220312 </v>
   <v>       0.02173607       0.00000832      -0.00450047 </v>
   <v>      -0.02622066      -0.00167456       0.00357403 </v>
   <v>       0.01688519      -0.00000000       0.00209040 </v>
   <v>      -0.02564910       0.00000000      -0.00085165 </v>
   <v>       0.02325311      -0.00000000       0.00138054 </v>
   <v>      -0.02811321      -0.00000000      -0.00247274 </v>
   <v>       0.02173607      -0.00000832      -0.00450047 </v>
   <v>      -0.02622066       0.00167456       0.00357403 </v>
  </varray>
  <varray name="stress" >
   <v>       4.03008660       0.00000000      -0.39899543 </v>
   <v>       0.00000000       4.17409312       0.00000000 </v>
   <v>      -0.39899543       0.00000000      -1.62165517 </v>
  </varray>
  <energy>
   <i name="e_fr_energy">   -125.91527284 </i>
   <i name="e_wo_entrp">   -125.91153368 </i>
   <i name="e_0_energy">   -125.91340326 </i>
  </energy>
  <time name="totalsc">   36.20   36.52</time>
 </calculation>
