Lattice                                 
           1
     4.306744    2.486500    0.000000
    -4.306744    2.486500    0.000000
     0.000000    0.000000   15.000000
   B    C 
     8     8
Direct configuration=     1
   0.66888689  0.00000000  0.10000000
   0.33111211  0.00000000  0.10000000
   0.00000000  0.33111211  0.10000000
   0.00000000  0.66888689  0.10000000
   0.33111211  0.33111211  0.10000000
   0.66888689  0.66888689  0.10000000
   0.66666600  0.33333300  0.09922189
   0.33333300  0.66666600  0.10077811
   0.24999933  0.24999967  0.46906667
   0.41666633  0.08333267  0.46906667
   0.24999933  0.74999967  0.46906667
   0.41666633  0.58333267  0.46906667
   0.74999933  0.24999967  0.46906667
   0.91666633  0.08333267  0.46906667
   0.74999933  0.74999967  0.46906667
   0.91666633  0.58333267  0.46906667
Direct configuration=     2
   0.67073672 -0.00000010  0.10002645
   0.32926244 -0.00000014  0.10002652
   0.00000010  0.32926228  0.10002645
   0.00000014  0.67073656  0.10002652
   0.32926214  0.32926206  0.10002653
   0.67073694  0.67073686  0.10002653
   0.66666610  0.33333290  0.09924288
   0.33333255  0.66666645  0.10081593
   0.24999506  0.24999482  0.46903971
   0.41666292  0.08333420  0.46903916
   0.24999893  0.75000007  0.46903877
   0.41666704  0.58333196  0.46903940
   0.75000226  0.24999674  0.46903953
   0.91666736  0.08333164  0.46904007
   0.75000418  0.75000394  0.46903971
   0.91666480  0.58333608  0.46903916
Direct configuration=     3
   0.66982624 -0.00000005  0.10001343
   0.33017284 -0.00000007  0.10001347
   0.00000005  0.33017276  0.10001343
   0.00000007  0.66982616  0.10001347
   0.33017269  0.33017265  0.10001347
   0.66982635  0.66982631  0.10001347
   0.66666605  0.33333295  0.09923255
   0.33333277  0.66666623  0.10079732
   0.24999716  0.24999721  0.46905298
   0.41666460  0.08333345  0.46905270
   0.24999913  0.74999987  0.46905250
   0.41666669  0.58333231  0.46905282
   0.75000082  0.24999818  0.46905289
   0.91666685  0.08333215  0.46905316
   0.75000179  0.75000184  0.46905298
   0.91666555  0.58333440  0.46905270
Direct configuration=     4
   0.66983190 -0.00000005  0.10001351
   0.33016718 -0.00000007  0.10001355
   0.00000005  0.33016710  0.10001351
   0.00000007  0.66983182  0.10001355
   0.33016703  0.33016699  0.10001356
   0.66983201  0.66983197  0.10001356
   0.66666605  0.33333295  0.09923261
   0.33333277  0.66666623  0.10079743
   0.24999715  0.24999719  0.46905290
   0.41666459  0.08333345  0.46905261
   0.24999913  0.74999987  0.46905241
   0.41666669  0.58333231  0.46905273
   0.75000083  0.24999817  0.46905280
   0.91666686  0.08333214  0.46905308
   0.75000181  0.75000185  0.46905290
   0.91666555  0.58333441  0.46905261
Direct configuration=     5
   0.66982962 -0.00000005  0.10001348
   0.33016946 -0.00000007  0.10001352
   0.00000005  0.33016938  0.10001348
   0.00000007  0.66982954  0.10001352
   0.33016930  0.33016926  0.10001352
   0.66982974  0.66982970  0.10001352
   0.66666605  0.33333295  0.09923259
   0.33333277  0.66666623  0.10079738
   0.24999716  0.24999720  0.46905293
   0.41666459  0.08333345  0.46905265
   0.24999913  0.74999987  0.46905245
   0.41666669  0.58333231  0.46905277
   0.75000083  0.24999817  0.46905284
   0.91666686  0.08333214  0.46905311
   0.75000180  0.75000184  0.46905293
   0.91666555  0.58333441  0.46905265
Direct configuration=     6
   0.66982793 -0.00000005  0.10001346
   0.33017115 -0.00000007  0.10001349
   0.00000005  0.33017107  0.10001346
   0.00000007  0.66982785  0.10001349
   0.33017099  0.33017095  0.10001350
   0.66982805  0.66982801  0.10001350
   0.66666605  0.33333295  0.09923257
   0.33333277  0.66666623  0.10079735
   0.24999716  0.24999720  0.46905295
   0.41666459  0.08333345  0.46905267
   0.24999913  0.74999987  0.46905247
   0.41666669  0.58333231  0.46905279
   0.75000082  0.24999818  0.46905286
   0.91666686  0.08333214  0.46905314
   0.75000180  0.75000184  0.46905295
   0.91666555  0.58333441  0.46905267
Direct configuration=     7
   0.66982709 -0.00000005  0.10001344
   0.33017199 -0.00000007  0.10001348
   0.00000005  0.33017191  0.10001344
   0.00000007  0.66982701  0.10001348
   0.33017184  0.33017180  0.10001349
   0.66982720  0.66982716  0.10001349
   0.66666605  0.33333295  0.09923256
   0.33333277  0.66666623  0.10079733
   0.24999716  0.24999720  0.46905297
   0.41666460  0.08333345  0.46905269
   0.24999913  0.74999987  0.46905249
   0.41666669  0.58333231  0.46905281
   0.75000082  0.24999818  0.46905288
   0.91666685  0.08333215  0.46905315
   0.75000180  0.75000184  0.46905297
   0.91666555  0.58333440  0.46905269
Direct configuration=     8
   0.66982717 -0.00000008  0.10003753
   0.33017206 -0.00000004  0.10003763
   0.00000008  0.33017183  0.10003753
   0.00000004  0.66982694  0.10003763
   0.33017193  0.33017188  0.10003764
   0.66982712  0.66982707  0.10003764
   0.66666603  0.33333297  0.09925465
   0.33333275  0.66666625  0.10082783
   0.24999991  0.25000119  0.46902849
   0.41666749  0.08333193  0.46902782
   0.24999903  0.74999997  0.46902736
   0.41666650  0.58333250  0.46902810
   0.74999820  0.25000080  0.46902827
   0.91666647  0.08333253  0.46902891
   0.74999781  0.74999909  0.46902849
   0.91666707  0.58333151  0.46902782
Direct configuration=     9
   0.66982740 -0.00000016  0.10010980
   0.33017226  0.00000006  0.10011007
   0.00000016  0.33017160  0.10010980
  -0.00000006  0.66982674  0.10011007
   0.33017221  0.33017212  0.10011012
   0.66982688  0.66982679  0.10011012
   0.66666597  0.33333303  0.09932091
   0.33333270  0.66666630  0.10091933
   0.25000815  0.25001315  0.46895504
   0.41667617  0.08332736  0.46895321
   0.24999875  0.75000025  0.46895197
   0.41666593  0.58333307  0.46895399
   0.74999035  0.25000865  0.46895446
   0.91666532  0.08333368  0.46895619
   0.74998585  0.74999085  0.46895504
   0.91667164  0.58332283  0.46895321
Direct configuration=    10
   0.66982787 -0.00000032  0.10025432
   0.33017266  0.00000026  0.10025496
   0.00000032  0.33017113  0.10025432
  -0.00000026  0.66982634  0.10025496
   0.33017275  0.33017260  0.10025507
   0.66982640  0.66982625  0.10025507
   0.66666586  0.33333314  0.09945344
   0.33333258  0.66666642  0.10110234
   0.25002462  0.25003707  0.46880815
   0.41669353  0.08331824  0.46880400
   0.24999817  0.75000083  0.46880120
   0.41666479  0.58333421  0.46880577
   0.74997465  0.25002435  0.46880683
   0.91666303  0.08333597  0.46881075
   0.74996193  0.74997438  0.46880815
   0.91668076  0.58330547  0.46880400
Direct configuration=    11
   0.66982882 -0.00000064  0.10054338
   0.33017346  0.00000066  0.10054473
   0.00000064  0.33017018  0.10054338
  -0.00000066  0.66982554  0.10054473
   0.33017385  0.33017355  0.10054497
   0.66982545  0.66982515  0.10054497
   0.66666562  0.33333338  0.09971850
   0.33333236  0.66666664  0.10146834
   0.25005758  0.25008492  0.46851437
   0.41672824  0.08330000  0.46850558
   0.24999703  0.75000197  0.46849965
   0.41666251  0.58333649  0.46850933
   0.74994325  0.25005575  0.46851158
   0.91665843  0.08334057  0.46851987
   0.74991408  0.74994142  0.46851437
   0.91669900  0.58327076  0.46850558
Direct configuration=    12
   0.66983071 -0.00000129  0.10112148
   0.33017505  0.00000145  0.10112428
   0.00000129  0.33016829  0.10112148
  -0.00000145  0.66982395  0.10112428
   0.33017605  0.33017546  0.10112478
   0.66982354  0.66982295  0.10112478
   0.66666515  0.33333385  0.10024861
   0.33333192  0.66666708  0.10220035
   0.25012349  0.25018061  0.46792682
   0.41679768  0.08326351  0.46790874
   0.24999474  0.75000426  0.46789655
   0.41665794  0.58334106  0.46791645
   0.74988044  0.25011856  0.46792109
   0.91664925  0.08334975  0.46793810
   0.74981839  0.74987551  0.46792682
   0.91673549  0.58320132  0.46790874
Direct configuration=    13
   0.66983449 -0.00000258  0.10227770
   0.33017825  0.00000305  0.10228337
   0.00000258  0.33016451  0.10227770
  -0.00000305  0.66982075  0.10228337
   0.33018044  0.33017929  0.10228439
   0.66981971  0.66981856  0.10228439
   0.66666422  0.33333478  0.10130883
   0.33333103  0.66666797  0.10366436
   0.25025532  0.25037198  0.46675170
   0.41693654  0.08319054  0.46671506
   0.24999017  0.75000883  0.46669035
   0.41664880  0.58335020  0.46673068
   0.74975482  0.25024418  0.46674009
   0.91663088  0.08336812  0.46677458
   0.74962702  0.74974368  0.46675170
   0.91680846  0.58306246  0.46671506
Direct configuration=    14
   0.66984205 -0.00000515  0.10459012
   0.33018464  0.00000623  0.10460155
   0.00000515  0.33015695  0.10459012
  -0.00000623  0.66981436  0.10460155
   0.33018922  0.33018693  0.10460361
   0.66981207  0.66980978  0.10460361
   0.66666235  0.33333665  0.10342928
   0.33332925  0.66666975  0.10659239
   0.25051896  0.25075474  0.46440147
   0.41721427  0.08304459  0.46432771
   0.24998103  0.75001797  0.46427796
   0.41663054  0.58336846  0.46435915
   0.74950358  0.25049542  0.46437809
   0.91659413  0.08340487  0.46444752
   0.74924426  0.74948004  0.46440147
   0.91695441  0.58278473  0.46432771
Direct configuration=    15
   0.66985716 -0.00001031  0.10921498
   0.33019741  0.00001260  0.10923792
   0.00001031  0.33014184  0.10921498
  -0.00001260  0.66980159  0.10923792
   0.33020679  0.33020223  0.10924205
   0.66979677  0.66979221  0.10924205
   0.66665860  0.33334040  0.10767018
   0.33332568  0.66667332  0.11244845
   0.25104625  0.25152024  0.45970101
   0.41776973  0.08275269  0.45955299
   0.24996273  0.75003627  0.45945317
   0.41659400  0.58340500  0.45961608
   0.74900110  0.25099790  0.45965410
   0.91652065  0.08347835  0.45979342
   0.74847876  0.74895275  0.45970101
   0.91724631  0.58222927  0.45955299
Direct configuration=    16
   0.66985716 -0.00001031  0.10921613
   0.33019741  0.00001260  0.10923908
   0.00001031  0.33014184  0.10921613
  -0.00001260  0.66980159  0.10923908
   0.33020679  0.33020223  0.10924321
   0.66979677  0.66979221  0.10924321
   0.66665860  0.33334040  0.10767123
   0.33332568  0.66667332  0.11244991
   0.25104629  0.25152028  0.45969984
   0.41776975  0.08275268  0.45955180
   0.24996274  0.75003626  0.45945197
   0.41659399  0.58340501  0.45961490
   0.74900109  0.25099791  0.45965293
   0.91652063  0.08347837  0.45979226
   0.74847872  0.74895271  0.45969984
   0.91724632  0.58222925  0.45955180
Direct configuration=    17
   0.66985716 -0.00001032  0.10921959
   0.33019742  0.00001259  0.10924254
   0.00001032  0.33014184  0.10921959
  -0.00001259  0.66980158  0.10924254
   0.33020680  0.33020225  0.10924668
   0.66979675  0.66979220  0.10924668
   0.66665860  0.33334040  0.10767440
   0.33332568  0.66667332  0.11245428
   0.25104641  0.25152038  0.45969633
   0.41776981  0.08275266  0.45954824
   0.24996277  0.75003623  0.45944838
   0.41659395  0.58340505  0.45961136
   0.74900103  0.25099797  0.45964940
   0.91652059  0.08347841  0.45978877
   0.74847862  0.74895259  0.45969633
   0.91724634  0.58222919  0.45954824
Direct configuration=    18
   0.66985717 -0.00001034  0.10922650
   0.33019744  0.00001259  0.10924948
   0.00001034  0.33014183  0.10922650
  -0.00001259  0.66980156  0.10924948
   0.33020682  0.33020228  0.10925361
   0.66979672  0.66979218  0.10925361
   0.66665860  0.33334040  0.10768072
   0.33332568  0.66667332  0.11246302
   0.25104664  0.25152058  0.45968930
   0.41776992  0.08275261  0.45954111
   0.24996282  0.75003618  0.45944118
   0.41659387  0.58340513  0.45960427
   0.74900093  0.25099807  0.45964234
   0.91652049  0.08347851  0.45978181
   0.74847842  0.74895236  0.45968930
   0.91724639  0.58222908  0.45954111
Direct configuration=    19
   0.66985717 -0.00001037  0.10924033
   0.33019747  0.00001258  0.10926334
   0.00001037  0.33014183  0.10924033
  -0.00001258  0.66980153  0.10926334
   0.33020687  0.33020233  0.10926748
   0.66979667  0.66979213  0.10926748
   0.66665860  0.33334040  0.10769338
   0.33332567  0.66667333  0.11248051
   0.25104711  0.25152097  0.45967524
   0.41777015  0.08275253  0.45952685
   0.24996293  0.75003607  0.45942679
   0.41659370  0.58340530  0.45959010
   0.74900071  0.25099829  0.45962821
   0.91652031  0.08347869  0.45976787
   0.74847803  0.74895189  0.45967524
   0.91724647  0.58222885  0.45952685
Direct configuration=    20
   0.66985718 -0.00001044  0.10926798
   0.33019754  0.00001255  0.10929106
   0.00001044  0.33014182  0.10926798
  -0.00001255  0.66980146  0.10929106
   0.33020696  0.33020244  0.10929521
   0.66979656  0.66979204  0.10929521
   0.66665859  0.33334041  0.10771869
   0.33332565  0.66667335  0.11251548
   0.25104803  0.25152177  0.45964712
   0.41777062  0.08275235  0.45949834
   0.24996315  0.75003585  0.45939801
   0.41659338  0.58340562  0.45956175
   0.74900028  0.25099872  0.45959997
   0.91651994  0.08347906  0.45974001
   0.74847723  0.74895097  0.45964712
   0.91724665  0.58222838  0.45949834
Direct configuration=    21
   0.66985721 -0.00001058  0.10932329
   0.33019768  0.00001250  0.10934650
   0.00001058  0.33014179  0.10932329
  -0.00001250  0.66980132  0.10934650
   0.33020714  0.33020267  0.10935068
   0.66979633  0.66979186  0.10935068
   0.66665859  0.33334041  0.10776930
   0.33332561  0.66667339  0.11258542
   0.25104989  0.25152337  0.45959089
   0.41777154  0.08275199  0.45944131
   0.24996358  0.75003542  0.45934044
   0.41659274  0.58340626  0.45950505
   0.74899943  0.25099957  0.45954349
   0.91651921  0.08347979  0.45968427
   0.74847563  0.74894911  0.45959089
   0.91724701  0.58222746  0.45944131
Direct configuration=    22
   0.66985725 -0.00001086  0.10943392
   0.33019796  0.00001240  0.10945740
   0.00001086  0.33014175  0.10943392
  -0.00001240  0.66980104  0.10945740
   0.33020751  0.33020311  0.10946162
   0.66979589  0.66979149  0.10946162
   0.66665857  0.33334043  0.10787054
   0.33332552  0.66667348  0.11272529
   0.25105361  0.25152656  0.45947843
   0.41777338  0.08275129  0.45932725
   0.24996444  0.75003456  0.45922531
   0.41659146  0.58340754  0.45939166
   0.74899771  0.25100129  0.45943052
   0.91651774  0.08348126  0.45957280
   0.74847244  0.74894539  0.45947843
   0.91724771  0.58222562  0.45932725
Direct configuration=    23
   0.66985734 -0.00001142  0.10965516
   0.33019851  0.00001220  0.10967918
   0.00001142  0.33014166  0.10965516
  -0.00001220  0.66980049  0.10967918
   0.33020824  0.33020401  0.10968350
   0.66979499  0.66979076  0.10968350
   0.66665854  0.33334046  0.10807300
   0.33332536  0.66667364  0.11300505
   0.25106105  0.25153294  0.45925350
   0.41777707  0.08274987  0.45909913
   0.24996617  0.75003283  0.45899505
   0.41658890  0.58341010  0.45916488
   0.74899429  0.25100471  0.45920457
   0.91651480  0.08348420  0.45934986
   0.74846606  0.74893795  0.45925350
   0.91724913  0.58222193  0.45909913
Direct configuration=    24
   0.66985752 -0.00001253  0.11009764
   0.33019961  0.00001181  0.11012274
   0.00001253  0.33014148  0.11009764
  -0.00001181  0.66979939  0.11012274
   0.33020969  0.33020579  0.11012725
   0.66979321  0.66978931  0.11012725
   0.66665848  0.33334052  0.10847794
   0.33332504  0.66667396  0.11356455
   0.25107592  0.25154570  0.45880365
   0.41778446  0.08274704  0.45864289
   0.24996962  0.75002938  0.45853454
   0.41658377  0.58341523  0.45871131
   0.74898743  0.25101157  0.45875269
   0.91650893  0.08349007  0.45890397
   0.74845330  0.74892308  0.45880365
   0.91725196  0.58221454  0.45864289
Direct configuration=    25
   0.66985787 -0.00001475  0.11098260
   0.33020181  0.00001102  0.11100987
   0.00001475  0.33014113  0.11098260
  -0.00001102  0.66979719  0.11100987
   0.33021261  0.33020936  0.11101476
   0.66978964  0.66978639  0.11101476
   0.66665836  0.33334064  0.10928781
   0.33332439  0.66667461  0.11468357
   0.25110566  0.25157123  0.45790394
   0.41779922  0.08274137  0.45773041
   0.24997653  0.75002247  0.45761350
   0.41657352  0.58342548  0.45780417
   0.74897373  0.25102527  0.45784892
   0.91649719  0.08350181  0.45801220
   0.74842777  0.74889334  0.45790394
   0.91725763  0.58219978  0.45773041
Direct configuration=    26
   0.66985858 -0.00001919  0.11275253
   0.33020622  0.00000944  0.11278414
   0.00001919  0.33014042  0.11275253
  -0.00000944  0.66979278  0.11278414
   0.33021843  0.33021650  0.11278978
   0.66978250  0.66978057  0.11278978
   0.66665812  0.33334088  0.11090755
   0.33332310  0.66667590  0.11692160
   0.25116515  0.25162227  0.45610452
   0.41782875  0.08273003  0.45590545
   0.24999035  0.75000865  0.45577143
   0.41655302  0.58344598  0.45598989
   0.74894632  0.25105268  0.45604138
   0.91647370  0.08352530  0.45622867
   0.74837673  0.74883385  0.45610452
   0.91726897  0.58217025  0.45590545
Direct configuration=    27
   0.66985999 -0.00002807  0.11629239
   0.33021504  0.00000627  0.11633266
   0.00002807  0.33013901  0.11629239
  -0.00000627  0.66978396  0.11633266
   0.33023008  0.33023079  0.11633981
   0.66976821  0.66976892  0.11633981
   0.66665764  0.33334136  0.11414703
   0.33332051  0.66667849  0.12139767
   0.25128412  0.25172437  0.45250568
   0.41788781  0.08270736  0.45225552
   0.25001798  0.74998102  0.45208729
   0.41651202  0.58348698  0.45236134
   0.74889149  0.25110751  0.45242630
   0.91642672  0.08357228  0.45266159
   0.74827463  0.74871488  0.45250568
   0.91729164  0.58211119  0.45225552
Direct configuration=    28
   0.66986282 -0.00004583  0.12337210
   0.33023268 -0.00000005  0.12342970
   0.00004583  0.33013618  0.12337210
   0.00000005  0.66976632  0.12342970
   0.33025339  0.33025936  0.12343987
   0.66973964  0.66974561  0.12343987
   0.66665668  0.33334232  0.12062598
   0.33331533  0.66668367  0.13034979
   0.25152207  0.25192857  0.44530801
   0.41800592  0.08266202  0.44495568
   0.25007324  0.74992576  0.44471901
   0.41643002  0.58356898  0.44510424
   0.74878184  0.25121716  0.44519614
   0.91633275  0.08366625  0.44552745
   0.74807043  0.74847693  0.44530801
   0.91733698  0.58199308  0.44495568
Direct configuration=    29
   0.66986847 -0.00008136  0.13753153
   0.33026795 -0.00001270  0.13762379
   0.00008136  0.33013053  0.13753153
   0.00001270  0.66973105  0.13762379
   0.33029999  0.33031650  0.13764001
   0.66968250  0.66969901  0.13764001
   0.66665475  0.33334425  0.13358389
   0.33330497  0.66669403  0.14825405
   0.25199796  0.25233696  0.43091266
   0.41824216  0.08257134  0.43035599
   0.25018376  0.74981524  0.42998245
   0.41626601  0.58373299  0.43059003
   0.74856255  0.25143645  0.43073583
   0.91614483  0.08385417  0.43125915
   0.74766204  0.74800104  0.43091266
   0.91742766  0.58175684  0.43035599
Direct configuration=    30
   0.66987977 -0.00015242  0.16585039
   0.33033849 -0.00003800  0.16601196
   0.00015242  0.33011923  0.16585039
   0.00003800  0.66966051  0.16601196
   0.33039320  0.33043078  0.16604027
   0.66956822  0.66960580  0.16604027
   0.66665091  0.33334809  0.15949971
   0.33328426  0.66671474  0.18406255
   0.25294974  0.25315374  0.40212196
   0.41871462  0.08238997  0.40115661
   0.25040481  0.74959419  0.40050933
   0.41593800  0.58406100  0.40156162
   0.74812395  0.25187505  0.40181520
   0.91576898  0.08423002  0.40272256
   0.74684526  0.74704926  0.40212196
   0.91760903  0.58128438  0.40115661
Direct configuration=    31
   0.66987599 -0.00012862  0.15636361
   0.33031485 -0.00002953  0.15650196
   0.00012862  0.33012301  0.15636361
   0.00002953  0.66968415  0.15650196
   0.33036198  0.33039250  0.15652622
   0.66960650  0.66963702  0.15652622
   0.66665219  0.33334681  0.15081795
   0.33329120  0.66670780  0.17206675
   0.25263090  0.25288012  0.41176680
   0.41855634  0.08245073  0.41093836
   0.25033076  0.74966824  0.41038278
   0.41604788  0.58395112  0.41128610
   0.74827088  0.25172812  0.41150357
   0.91589489  0.08410411  0.41228228
   0.74711888  0.74736810  0.41176680
   0.91754827  0.58144266  0.41093836
Direct configuration=    32
   0.66987835 -0.00014347  0.16228033
   0.33032959 -0.00003482  0.16243316
   0.00014347  0.33012065  0.16228033
   0.00003482  0.66966941  0.16243316
   0.33038145  0.33041637  0.16245995
   0.66958263  0.66961755  0.16245995
   0.66665139  0.33334761  0.15623259
   0.33328687  0.66671213  0.17954830
   0.25282975  0.25305077  0.40575150
   0.41865506  0.08241284  0.40483767
   0.25037694  0.74962206  0.40422490
   0.41597935  0.58401965  0.40522113
   0.74817925  0.25181975  0.40546112
   0.91581637  0.08418263  0.40632007
   0.74694823  0.74716925  0.40575150
   0.91758616  0.58134394  0.40483767
Direct configuration=    33
   0.66987877 -0.00014613  0.16334044
   0.33033223 -0.00003576  0.16349587
   0.00014613  0.33012023  0.16334044
   0.00003576  0.66966677  0.16349587
   0.33038494  0.33042065  0.16352311
   0.66957835  0.66961406  0.16352311
   0.66665125  0.33334775  0.15720275
   0.33328610  0.66671290  0.18088879
   0.25286538  0.25308135  0.40467372
   0.41867274  0.08240605  0.40374459
   0.25038521  0.74961379  0.40312157
   0.41596707  0.58403193  0.40413445
   0.74816283  0.25183617  0.40437848
   0.91580230  0.08419670  0.40525180
   0.74691765  0.74713362  0.40467372
   0.91759295  0.58132626  0.40374459
Direct configuration=    34
   0.66970573 -0.00027744  0.16847833
   0.33039670 -0.00015230  0.16864497
   0.00027744  0.33029327  0.16847833
   0.00015230  0.66960230  0.16864497
   0.33044369  0.33057636  0.16867122
   0.66942264  0.66955531  0.16867122
   0.66664675  0.33335225  0.16186977
   0.33327631  0.66672269  0.18733093
   0.25248056  0.25258317  0.39945043
   0.41830535  0.08259249  0.39847333
   0.25036106  0.74963794  0.39781694
   0.41602218  0.58397682  0.39888459
   0.74848053  0.25151847  0.39913994
   0.91586608  0.08413292  0.40005463
   0.74741583  0.74751844  0.39945043
   0.91740651  0.58169365  0.39847333
Direct configuration=    35
   0.66975885 -0.00023713  0.16690123
   0.33037691 -0.00011653  0.16706443
   0.00023713  0.33024015  0.16690123
   0.00011653  0.66962209  0.16706443
   0.33042566  0.33052856  0.16709098
   0.66947044  0.66957334  0.16709098
   0.66664813  0.33335087  0.16043720
   0.33327931  0.66671969  0.18535348
   0.25259868  0.25273609  0.40105374
   0.41841812  0.08253526  0.40009137
   0.25036847  0.74963053  0.39944523
   0.41600527  0.58399373  0.40049606
   0.74838301  0.25161599  0.40074794
   0.91584650  0.08415250  0.40164993
   0.74726291  0.74740032  0.40105374
   0.91746374  0.58158088  0.40009137
Direct configuration=    36
   0.66960396 -0.00034120  0.16648282
   0.33042731 -0.00021053  0.16664337
   0.00034120  0.33039504  0.16648282
   0.00021053  0.66957169  0.16664337
   0.33046373  0.33064275  0.16666583
   0.66935625  0.66953527  0.16666583
   0.66664166  0.33335734  0.16002241
   0.33327161  0.66672739  0.18477255
   0.25215423  0.25224170  0.40148010
   0.41808019  0.08270296  0.40054751
   0.25030767  0.74969133  0.39991995
   0.41610714  0.58389186  0.40094209
   0.74867997  0.25131903  0.40118356
   0.91596088  0.08403812  0.40205354
   0.74775730  0.74784477  0.40148010
   0.91729604  0.58191881  0.40054751
Direct configuration=    37
   0.66913928 -0.00065341  0.16522757
   0.33057850 -0.00049253  0.16538021
   0.00065341  0.33085972  0.16522757
   0.00049253  0.66942050  0.16538021
   0.33057793  0.33098533  0.16539039
   0.66901367  0.66942107  0.16539039
   0.66662226  0.33337674  0.15877803
   0.33324850  0.66675050  0.18302974
   0.25082086  0.25075852  0.40275915
   0.41706639  0.08320605  0.40191591
   0.25012527  0.74987373  0.40134412
   0.41641277  0.58358623  0.40228017
   0.74957085  0.25042815  0.40249043
   0.91630401  0.08369499  0.40326437
   0.74924048  0.74917814  0.40275915
   0.91679295  0.58293261  0.40191591
Direct configuration=    38
   0.66820992 -0.00127783  0.16271708
   0.33088088 -0.00105653  0.16285389
   0.00127783  0.33178908  0.16271708
   0.00105653  0.66911812  0.16285389
   0.33080634  0.33167049  0.16283952
   0.66832851  0.66919266  0.16283952
   0.66658347  0.33341553  0.15628926
   0.33320228  0.66679672  0.17954413
   0.24815413  0.24779216  0.40531726
   0.41503880  0.08421223  0.40465273
   0.24976046  0.75023854  0.40419245
   0.41702403  0.58297497  0.40495633
   0.75135261  0.24864639  0.40510417
   0.91699027  0.08300873  0.40568603
   0.75220684  0.75184487  0.40531726
   0.91578677  0.58496020  0.40465273
Direct configuration=    39
   0.66887635 -0.00083007  0.16451731
   0.33066405 -0.00065209  0.16466547
   0.00083007  0.33112265  0.16451731
   0.00065209  0.66933495  0.16466547
   0.33064255  0.33117917  0.16466871
   0.66881983  0.66935645  0.16466871
   0.66661129  0.33338771  0.15807391
   0.33323542  0.66676358  0.18204360
   0.25006639  0.24991928  0.40348289
   0.41649275  0.08349072  0.40269021
   0.25002206  0.74997694  0.40214996
   0.41658571  0.58341329  0.40303730
   0.75007494  0.24992406  0.40322990
   0.91649817  0.08350083  0.40394950
   0.75007972  0.74993261  0.40348289
   0.91650828  0.58350625  0.40269021
Direct configuration=    40
   0.66876311 -0.00086676  0.16451122
   0.33073814 -0.00069076  0.16465705
   0.00086676  0.33123589  0.16451122
   0.00069076  0.66926086  0.16465705
   0.33070289  0.33125846  0.16465320
   0.66874054  0.66929611  0.16465320
   0.66660700  0.33339200  0.15800647
   0.33323191  0.66676709  0.18195292
   0.24998377  0.24994124  0.40348986
   0.41653625  0.08345905  0.40273940
   0.24997509  0.75002391  0.40222755
   0.41663278  0.58336622  0.40307132
   0.75003074  0.24996826  0.40324809
   0.91656220  0.08343680  0.40392553
   0.75005776  0.75001523  0.40348986
   0.91653995  0.58346275  0.40273940
Direct configuration=    41
   0.66842342 -0.00097684  0.16449296
   0.33096039 -0.00080678  0.16463178
   0.00097684  0.33157558  0.16449296
   0.00080678  0.66903861  0.16463178
   0.33088390  0.33149630  0.16460668
   0.66850270  0.66911510  0.16460668
   0.66659413  0.33340487  0.15780414
   0.33322139  0.66677761  0.18168085
   0.24973588  0.25000710  0.40351079
   0.41666674  0.08336405  0.40288699
   0.24983418  0.75016482  0.40246030
   0.41677401  0.58322499  0.40317337
   0.74989814  0.25010086  0.40330265
   0.91675432  0.08324468  0.40385361
   0.74999190  0.75026312  0.40351079
   0.91663495  0.58333226  0.40288699
Direct configuration=    42
   0.66830685 -0.00101461  0.16448669
   0.33103666 -0.00084659  0.16462311
   0.00101461  0.33169215  0.16448669
   0.00084659  0.66896234  0.16462311
   0.33094601  0.33157792  0.16459072
   0.66842108  0.66905299  0.16459072
   0.66658972  0.33340928  0.15773472
   0.33321778  0.66678122  0.18158750
   0.24965082  0.25002970  0.40351797
   0.41671151  0.08333145  0.40293764
   0.24978582  0.75021318  0.40254017
   0.41682248  0.58317652  0.40320838
   0.74985264  0.25014636  0.40332137
   0.91682025  0.08317875  0.40382893
   0.74996930  0.75034818  0.40351797
   0.91666755  0.58328749  0.40293764
Direct configuration=    43
   0.66820812 -0.00101622  0.16450327
   0.33113588 -0.00085645  0.16463476
   0.00101622  0.33179088  0.16450327
   0.00085645  0.66886312  0.16463476
   0.33102324  0.33163731  0.16458577
   0.66836169  0.66897576  0.16458577
   0.66658250  0.33341650  0.15760753
   0.33321803  0.66678097  0.18143063
   0.24972278  0.25003620  0.40350558
   0.41669820  0.08335902  0.40301220
   0.24982370  0.75017530  0.40267297
   0.41677306  0.58322594  0.40325163
   0.74986555  0.25013345  0.40333312
   0.91677147  0.08322753  0.40375429
   0.74996280  0.75027622  0.40350558
   0.91663998  0.58330080  0.40301220
Direct configuration=    44
   0.66791193 -0.00102106  0.16455301
   0.33143356 -0.00088602  0.16466969
   0.00102106  0.33208707  0.16455301
   0.00088602  0.66856544  0.16466969
   0.33125492  0.33181550  0.16457093
   0.66818350  0.66874408  0.16457093
   0.66656085  0.33343815  0.15722596
   0.33321878  0.66678022  0.18096005
   0.24993864  0.25005569  0.40346843
   0.41665828  0.08344173  0.40323587
   0.24993731  0.75006169  0.40307135
   0.41662480  0.58337420  0.40338136
   0.74990428  0.25009472  0.40336836
   0.91662515  0.08337385  0.40353038
   0.74994331  0.75006036  0.40346843
   0.91655727  0.58334072  0.40323587
Direct configuration=    45
   0.66731955 -0.00103073  0.16465249
   0.33202892 -0.00094517  0.16473957
   0.00103073  0.33267945  0.16465249
   0.00094517  0.66797008  0.16473957
   0.33171828  0.33217186  0.16454125
   0.66782714  0.66828072  0.16454125
   0.66651753  0.33348147  0.15646283
   0.33322030  0.66677870  0.18001887
   0.25037036  0.25009466  0.40339411
   0.41657842  0.08360714  0.40368323
   0.25016455  0.74983445  0.40386812
   0.41632828  0.58367072  0.40364083
   0.74998173  0.25001727  0.40343884
   0.91633251  0.08366649  0.40308255
   0.74990434  0.74962864  0.40339411
   0.91639186  0.58342058  0.40368323
Direct configuration=    46
   0.66771820 -0.00102422  0.16458554
   0.33162827 -0.00090536  0.16469255
   0.00102422  0.33228080  0.16458554
   0.00090536  0.66837073  0.16469255
   0.33140646  0.33193204  0.16456123
   0.66806696  0.66859254  0.16456123
   0.66654668  0.33345232  0.15697638
   0.33321928  0.66677972  0.18065224
   0.25007983  0.25006844  0.40344412
   0.41663216  0.08349582  0.40338218
   0.25001163  0.74998737  0.40333193
   0.41652782  0.58347118  0.40346622
   0.74992961  0.25006939  0.40339141
   0.91652945  0.08346955  0.40338392
   0.74993056  0.74991917  0.40344412
   0.91650318  0.58336684  0.40338218
Direct configuration=    47
   0.66799707 -0.00085863  0.16464794
   0.33155054 -0.00075927  0.16474489
   0.00085863  0.33200193  0.16464794
   0.00075927  0.66844846  0.16474489
   0.33132399  0.33170213  0.16457294
   0.66829687  0.66867501  0.16457294
   0.66654232  0.33345668  0.15669806
   0.33324545  0.66675355  0.18035561
   0.25004475  0.25009246  0.40341424
   0.41661443  0.08346643  0.40349458
   0.24995769  0.75004131  0.40354030
   0.41656322  0.58343578  0.40353021
   0.74992969  0.25006931  0.40340415