       N       E                     dE             d eps       ncg     rms          rms(c)
DAV:   1     0.180916182703E+03    0.18092E+03   -0.10075E+04 16960   0.620E+02
DAV:   2    -0.503886269893E+02   -0.23130E+03   -0.20380E+03 27696   0.156E+02
DAV:   3    -0.729319828019E+02   -0.22543E+02   -0.22308E+02 24016   0.553E+01
DAV:   4    -0.734693990596E+02   -0.53742E+00   -0.53650E+00 23568   0.104E+01
DAV:   5    -0.734814492557E+02   -0.12050E-01   -0.12041E-01 21680   0.147E+00    0.132E+01
DAV:   6    -0.689753297801E+02    0.45061E+01   -0.40631E+00 24320   0.791E+00    0.742E+00
DAV:   7    -0.673314423030E+02    0.16439E+01   -0.37040E+00 24432   0.711E+00    0.220E+00
DAV:   8    -0.672518054304E+02    0.79637E-01   -0.22513E-01 22960   0.181E+00    0.525E-01
DAV:   9    -0.672369058716E+02    0.14900E-01   -0.22928E-02 22096   0.652E-01    0.180E-01
DAV:  10    -0.672258669949E+02    0.11039E-01   -0.70060E-03 22048   0.297E-01    0.158E-01
DAV:  11    -0.672252033232E+02    0.66367E-03   -0.31120E-03 22256   0.197E-01    0.517E-02
DAV:  12    -0.672231517459E+02    0.20516E-02   -0.14962E-03 18736   0.106E-01    0.403E-02
DAV:  13    -0.672258957205E+02   -0.27440E-02   -0.28204E-04 21584   0.602E-02    0.229E-02
DAV:  14    -0.672287925418E+02   -0.28968E-02   -0.59245E-04 22176   0.625E-02    0.189E-02
DAV:  15    -0.672290191285E+02   -0.22659E-03   -0.33846E-05 22176   0.191E-02    0.750E-03
DAV:  16    -0.672295951872E+02   -0.57606E-03   -0.56410E-05 21168   0.179E-02    0.250E-03
DAV:  17    -0.672296488506E+02   -0.53663E-04   -0.17706E-06 20448   0.419E-03    0.147E-03
DAV:  18    -0.672296755571E+02   -0.26706E-04   -0.86881E-07 18448   0.234E-03    0.274E-04
DAV:  19    -0.672296772494E+02   -0.16923E-05   -0.19385E-08 17264   0.455E-04    0.166E-04
DAV:  20    -0.672296783093E+02   -0.10599E-05   -0.24777E-08 14048   0.377E-04    0.418E-05
DAV:  21    -0.672296784039E+02   -0.94510E-07   -0.30516E-09 16960   0.144E-04
   1 F= -.67907715E+02 E0= -.67907715E+02  d E =-.679077E+02
