  16  16   0   4
  0.2029747E+02  0.5000000E-09  0.5000000E-09  0.1500000E-08  0.5000000E-15
  1.000000000000000E-004
  CAR 
 Lattice                                 
      9.42139854    -21.01133260  301     -0.23078661      1.00000000
    -21.011  0.0000E+00  0.0000E+00  0.0000E+00  0.0000E+00
    -20.910  0.0000E+00  0.0000E+00  0.0000E+00  0.0000E+00
    -20.808  0.0000E+00  0.0000E+00  0.0000E+00  0.0000E+00
    -20.707  0.0000E+00  0.0000E+00  0.0000E+00  0.0000E+00
    -20.606  0.0000E+00  0.0000E+00  0.0000E+00  0.0000E+00
    -20.504  0.0000E+00  0.0000E+00  0.0000E+00  0.0000E+00
    -20.403  0.0000E+00  0.0000E+00  0.0000E+00  0.0000E+00
    -20.301  0.0000E+00  0.0000E+00  0.0000E+00  0.0000E+00
    -20.200  0.1781E-18  0.1781E-18  0.1807E-19  0.1807E-19
    -20.098  0.8608E-14  0.8609E-14  0.8733E-15  0.8733E-15
    -19.997  0.6041E-10  0.6041E-10  0.6129E-11  0.6129E-11
    -19.895  0.6352E-07  0.6352E-07  0.6449E-08  0.6449E-08
    -19.794  0.1080E-04  0.1080E-04  0.1102E-05  0.1102E-05
    -19.693  0.3254E-03  0.3254E-03  0.3411E-04  0.3411E-04
    -19.591  0.2099E-02  0.2099E-02  0.2470E-03  0.2470E-03
    -19.490  0.4320E-02  0.4320E-02  0.6853E-03  0.6853E-03
    -19.388  0.4799E-02  0.4799E-02  0.1172E-02  0.1172E-02
    -19.287  0.5144E-02  0.5144E-02  0.1694E-02  0.1694E-02
    -19.185  0.4489E-02  0.4489E-02  0.2149E-02  0.2149E-02
    -19.084  0.5586E-02  0.5586E-02  0.2716E-02  0.2716E-02
    -18.982  0.4469E-02  0.4469E-02  0.3169E-02  0.3169E-02
    -18.881  0.4616E-02  0.4616E-02  0.3638E-02  0.3638E-02
    -18.780  0.6186E-02  0.6186E-02  0.4265E-02  0.4265E-02
    -18.678  0.4038E-02  0.4038E-02  0.4675E-02  0.4675E-02
    -18.577  0.4271E-02  0.4271E-02  0.5108E-02  0.5108E-02
    -18.475  0.6375E-02  0.6375E-02  0.5755E-02  0.5755E-02
    -18.374  0.5370E-02  0.5370E-02  0.6299E-02  0.6299E-02
    -18.272  0.3173E-02  0.3173E-02  0.6621E-02  0.6621E-02
    -18.171  0.4906E-02  0.4906E-02  0.7119E-02  0.7119E-02
    -18.070  0.7083E-02  0.7083E-02  0.7838E-02  0.7838E-02
    -17.968  0.4783E-02  0.4783E-02  0.8323E-02  0.8323E-02
    -17.867  0.3890E-02  0.3890E-02  0.8717E-02  0.8717E-02
    -17.765  0.3476E-02  0.3476E-02  0.9070E-02  0.9070E-02
    -17.664  0.7138E-02  0.7138E-02  0.9794E-02  0.9794E-02
    -17.562  0.6649E-02  0.6649E-02  0.1047E-01  0.1047E-01
    -17.461  0.3612E-02  0.3612E-02  0.1083E-01  0.1083E-01
    -17.359  0.3640E-02  0.3640E-02  0.1120E-01  0.1120E-01
    -17.258  0.4513E-02  0.4513E-02  0.1166E-01  0.1166E-01
    -17.157  0.6838E-02  0.6838E-02  0.1236E-01  0.1236E-01
    -17.055  0.6827E-02  0.6827E-02  0.1305E-01  0.1305E-01
    -16.954  0.4731E-02  0.4731E-02  0.1353E-01  0.1353E-01
    -16.852  0.2475E-02  0.2475E-02  0.1378E-01  0.1378E-01
    -16.751  0.4115E-02  0.4115E-02  0.1420E-01  0.1420E-01
    -16.649  0.7141E-02  0.7142E-02  0.1492E-01  0.1492E-01
    -16.548  0.6693E-02  0.6693E-02  0.1560E-01  0.1560E-01
    -16.446  0.5552E-02  0.5552E-02  0.1616E-01  0.1616E-01
    -16.345  0.4627E-02  0.4627E-02  0.1663E-01  0.1663E-01
    -16.244  0.3085E-02  0.3085E-02  0.1695E-01  0.1695E-01
    -16.142  0.3158E-02  0.3158E-02  0.1727E-01  0.1727E-01
    -16.041  0.9943E-02  0.9943E-02  0.1827E-01  0.1827E-01
    -15.939  0.1179E-01  0.1179E-01  0.1947E-01  0.1947E-01
    -15.838  0.1087E-01  0.1087E-01  0.2057E-01  0.2057E-01
    -15.736  0.1064E-01  0.1064E-01  0.2165E-01  0.2165E-01
    -15.635  0.1092E-01  0.1092E-01  0.2276E-01  0.2276E-01
    -15.533  0.1015E-01  0.1015E-01  0.2379E-01  0.2379E-01
    -15.432  0.1280E-01  0.1280E-01  0.2509E-01  0.2509E-01
    -15.331  0.1733E-01  0.1733E-01  0.2685E-01  0.2685E-01
    -15.229  0.1561E-01  0.1561E-01  0.2843E-01  0.2843E-01
    -15.128  0.1402E-01  0.1402E-01  0.2985E-01  0.2985E-01
    -15.026  0.1014E-01  0.1014E-01  0.3088E-01  0.3088E-01
    -14.925  0.8355E-02  0.8355E-02  0.3173E-01  0.3173E-01
    -14.823  0.6374E-02  0.6374E-02  0.3238E-01  0.3238E-01
    -14.722  0.9753E-02  0.9753E-02  0.3336E-01  0.3336E-01
    -14.620  0.1156E-01  0.1156E-01  0.3454E-01  0.3454E-01
    -14.519  0.1194E-01  0.1194E-01  0.3575E-01  0.3575E-01
    -14.418  0.1276E-01  0.1276E-01  0.3704E-01  0.3704E-01
    -14.316  0.1022E-01  0.1022E-01  0.3808E-01  0.3808E-01
    -14.215  0.9080E-02  0.9080E-02  0.3900E-01  0.3900E-01
    -14.113  0.1056E-01  0.1056E-01  0.4007E-01  0.4007E-01
    -14.012  0.1383E-01  0.1383E-01  0.4147E-01  0.4147E-01
    -13.910  0.8096E-02  0.8096E-02  0.4230E-01  0.4230E-01
    -13.809  0.3785E-02  0.3785E-02  0.4268E-01  0.4268E-01
    -13.707  0.2777E-02  0.2777E-02  0.4296E-01  0.4296E-01
    -13.606  0.5897E-02  0.5897E-02  0.4356E-01  0.4356E-01
    -13.505  0.6182E-02  0.6182E-02  0.4419E-01  0.4419E-01
    -13.403  0.6284E-02  0.6284E-02  0.4482E-01  0.4482E-01
    -13.302  0.6302E-02  0.6302E-02  0.4546E-01  0.4546E-01
    -13.200  0.7444E-02  0.7444E-02  0.4622E-01  0.4622E-01
    -13.099  0.7188E-02  0.7188E-02  0.4695E-01  0.4695E-01
    -12.997  0.6541E-02  0.6541E-02  0.4761E-01  0.4761E-01
    -12.896  0.6386E-02  0.6386E-02  0.4826E-01  0.4826E-01
    -12.794  0.8802E-02  0.8802E-02  0.4915E-01  0.4915E-01
    -12.693  0.1274E-01  0.1274E-01  0.5045E-01  0.5045E-01
    -12.592  0.1235E-01  0.1235E-01  0.5170E-01  0.5170E-01
    -12.490  0.1471E-01  0.1471E-01  0.5319E-01  0.5319E-01
    -12.389  0.1467E-01  0.1467E-01  0.5468E-01  0.5468E-01
    -12.287  0.1391E-01  0.1391E-01  0.5609E-01  0.5609E-01
    -12.186  0.1750E-01  0.1750E-01  0.5787E-01  0.5787E-01
    -12.084  0.1498E-01  0.1498E-01  0.5938E-01  0.5938E-01
    -11.983  0.1667E-01  0.1667E-01  0.6108E-01  0.6108E-01
    -11.882  0.1687E-01  0.1687E-01  0.6279E-01  0.6279E-01
    -11.780  0.9917E-02  0.9917E-02  0.6379E-01  0.6379E-01
    -11.679  0.6230E-02  0.6230E-02  0.6443E-01  0.6443E-01
    -11.577  0.5017E-02  0.5017E-02  0.6493E-01  0.6493E-01
    -11.476  0.6730E-02  0.6730E-02  0.6562E-01  0.6562E-01
    -11.374  0.5968E-02  0.5968E-02  0.6622E-01  0.6622E-01
    -11.273  0.5427E-02  0.5427E-02  0.6677E-01  0.6677E-01
    -11.171  0.4561E-02  0.4561E-02  0.6724E-01  0.6724E-01
    -11.070  0.4221E-02  0.4221E-02  0.6766E-01  0.6766E-01
    -10.969  0.5521E-02  0.5521E-02  0.6822E-01  0.6822E-01
    -10.867  0.1068E-01  0.1068E-01  0.6931E-01  0.6931E-01
    -10.766  0.1207E-01  0.1207E-01  0.7053E-01  0.7053E-01
    -10.664  0.1205E-01  0.1205E-01  0.7175E-01  0.7175E-01
    -10.563  0.1466E-01  0.1466E-01  0.7324E-01  0.7324E-01
    -10.461  0.1404E-01  0.1404E-01  0.7467E-01  0.7467E-01
    -10.360  0.1165E-01  0.1165E-01  0.7585E-01  0.7585E-01
    -10.258  0.1012E-01  0.1012E-01  0.7687E-01  0.7687E-01
    -10.157  0.9991E-02  0.9991E-02  0.7789E-01  0.7789E-01
    -10.056  0.9669E-02  0.9669E-02  0.7887E-01  0.7887E-01
     -9.954  0.6736E-02  0.6736E-02  0.7955E-01  0.7955E-01
     -9.853  0.1172E-01  0.1172E-01  0.8074E-01  0.8074E-01
     -9.751  0.1063E-01  0.1063E-01  0.8182E-01  0.8182E-01
     -9.650  0.1474E-01  0.1474E-01  0.8331E-01  0.8331E-01
     -9.548  0.1805E-01  0.1805E-01  0.8514E-01  0.8514E-01
     -9.447  0.1126E-01  0.1126E-01  0.8629E-01  0.8629E-01
     -9.345  0.1708E-01  0.1708E-01  0.8802E-01  0.8802E-01
     -9.244  0.1739E-01  0.1739E-01  0.8978E-01  0.8978E-01
     -9.143  0.1244E-01  0.1244E-01  0.9104E-01  0.9104E-01
     -9.041  0.9890E-02  0.9890E-02  0.9205E-01  0.9205E-01
     -8.940  0.1881E-01  0.1881E-01  0.9396E-01  0.9396E-01
     -8.838  0.2323E-01  0.2323E-01  0.9631E-01  0.9631E-01
     -8.737  0.9379E-02  0.9379E-02  0.9726E-01  0.9726E-01
     -8.635  0.5988E-02  0.5988E-02  0.9787E-01  0.9787E-01
     -8.534  0.1451E-01  0.1451E-01  0.9934E-01  0.9934E-01
     -8.432  0.1784E-01  0.1784E-01  0.1012E+00  0.1012E+00
     -8.331  0.1499E-01  0.1499E-01  0.1027E+00  0.1027E+00
     -8.230  0.1539E-01  0.1538E-01  0.1042E+00  0.1042E+00
     -8.128  0.1246E-01  0.1246E-01  0.1055E+00  0.1055E+00
     -8.027  0.1042E-01  0.1042E-01  0.1066E+00  0.1066E+00
     -7.925  0.1366E-01  0.1366E-01  0.1079E+00  0.1079E+00
     -7.824  0.1896E-01  0.1896E-01  0.1099E+00  0.1099E+00
     -7.722  0.2345E-01  0.2345E-01  0.1122E+00  0.1122E+00
     -7.621  0.1654E-01  0.1654E-01  0.1139E+00  0.1139E+00
     -7.519  0.1338E-01  0.1338E-01  0.1153E+00  0.1153E+00
     -7.418  0.1268E-01  0.1268E-01  0.1166E+00  0.1166E+00
     -7.317  0.1712E-01  0.1712E-01  0.1183E+00  0.1183E+00
     -7.215  0.2045E-01  0.2045E-01  0.1204E+00  0.1204E+00
     -7.114  0.1604E-01  0.1604E-01  0.1220E+00  0.1220E+00
     -7.012  0.1882E-01  0.1882E-01  0.1239E+00  0.1239E+00
     -6.911  0.1930E-01  0.1930E-01  0.1259E+00  0.1259E+00
     -6.809  0.2204E-01  0.2204E-01  0.1281E+00  0.1281E+00
     -6.708  0.2703E-01  0.2703E-01  0.1308E+00  0.1308E+00
     -6.607  0.3523E-01  0.3523E-01  0.1344E+00  0.1344E+00
     -6.505  0.3474E-01  0.3474E-01  0.1379E+00  0.1379E+00
     -6.404  0.2007E-01  0.2007E-01  0.1400E+00  0.1400E+00
     -6.302  0.1618E-01  0.1618E-01  0.1416E+00  0.1416E+00
     -6.201  0.1844E-01  0.1844E-01  0.1435E+00  0.1435E+00
     -6.099  0.1769E-01  0.1769E-01  0.1453E+00  0.1453E+00
     -5.998  0.1759E-01  0.1759E-01  0.1471E+00  0.1471E+00
     -5.896  0.1474E-01  0.1474E-01  0.1486E+00  0.1486E+00
     -5.795  0.1621E-01  0.1621E-01  0.1502E+00  0.1502E+00
     -5.694  0.1990E-01  0.1990E-01  0.1522E+00  0.1522E+00
     -5.592  0.1331E-01  0.1331E-01  0.1536E+00  0.1536E+00
     -5.491  0.8747E-02  0.8747E-02  0.1545E+00  0.1545E+00
     -5.389  0.1388E-01  0.1388E-01  0.1559E+00  0.1559E+00
     -5.288  0.2061E-01  0.2061E-01  0.1580E+00  0.1580E+00
     -5.186  0.1691E-01  0.1691E-01  0.1597E+00  0.1597E+00
     -5.085  0.1180E-01  0.1180E-01  0.1609E+00  0.1609E+00
     -4.983  0.1574E-01  0.1574E-01  0.1625E+00  0.1625E+00
     -4.882  0.2152E-01  0.2152E-01  0.1647E+00  0.1647E+00
     -4.781  0.1192E-01  0.1192E-01  0.1659E+00  0.1659E+00
     -4.679  0.7864E-02  0.7864E-02  0.1667E+00  0.1667E+00
     -4.578  0.1717E-01  0.1717E-01  0.1684E+00  0.1684E+00
     -4.476  0.2010E-01  0.2010E-01  0.1704E+00  0.1704E+00
     -4.375  0.2021E-01  0.2021E-01  0.1725E+00  0.1725E+00
     -4.273  0.2281E-01  0.2281E-01  0.1748E+00  0.1748E+00
     -4.172  0.2029E-01  0.2029E-01  0.1769E+00  0.1769E+00
     -4.070  0.2138E-01  0.2138E-01  0.1790E+00  0.1790E+00
     -3.969  0.2411E-01  0.2411E-01  0.1815E+00  0.1815E+00
     -3.868  0.2902E-01  0.2902E-01  0.1844E+00  0.1844E+00
     -3.766  0.2659E-01  0.2659E-01  0.1871E+00  0.1871E+00
     -3.665  0.2021E-01  0.2021E-01  0.1892E+00  0.1892E+00
     -3.563  0.1965E-01  0.1965E-01  0.1912E+00  0.1912E+00
     -3.462  0.1635E-01  0.1635E-01  0.1928E+00  0.1928E+00
     -3.360  0.1280E-01  0.1280E-01  0.1941E+00  0.1941E+00
     -3.259  0.7104E-02  0.7104E-02  0.1948E+00  0.1948E+00
     -3.157  0.8293E-02  0.8293E-02  0.1957E+00  0.1957E+00
     -3.056  0.1479E-01  0.1479E-01  0.1972E+00  0.1972E+00
     -2.955  0.1618E-01  0.1618E-01  0.1988E+00  0.1988E+00
     -2.853  0.1217E-01  0.1217E-01  0.2001E+00  0.2001E+00
     -2.752  0.1197E-01  0.1197E-01  0.2013E+00  0.2013E+00
     -2.650  0.1093E-01  0.1093E-01  0.2024E+00  0.2024E+00
     -2.549  0.1152E-01  0.1152E-01  0.2036E+00  0.2036E+00
     -2.447  0.1580E-01  0.1580E-01  0.2052E+00  0.2052E+00
     -2.346  0.1284E-01  0.1284E-01  0.2065E+00  0.2065E+00
     -2.244  0.9243E-02  0.9243E-02  0.2074E+00  0.2074E+00
     -2.143  0.1131E-01  0.1131E-01  0.2085E+00  0.2085E+00
     -2.042  0.7762E-02  0.7762E-02  0.2093E+00  0.2093E+00
     -1.940  0.5197E-02  0.5197E-02  0.2099E+00  0.2099E+00
     -1.839  0.6125E-02  0.6125E-02  0.2105E+00  0.2105E+00
     -1.737  0.9208E-02  0.9208E-02  0.2114E+00  0.2114E+00
     -1.636  0.8814E-02  0.8814E-02  0.2123E+00  0.2123E+00
     -1.534  0.9198E-02  0.9198E-02  0.2132E+00  0.2132E+00
     -1.433  0.7380E-02  0.7380E-02  0.2140E+00  0.2140E+00
     -1.331  0.4895E-02  0.4895E-02  0.2145E+00  0.2145E+00
     -1.230  0.4963E-02  0.4963E-02  0.2150E+00  0.2150E+00
     -1.129  0.6071E-02  0.6071E-02  0.2156E+00  0.2156E+00
     -1.027  0.7454E-02  0.7454E-02  0.2164E+00  0.2164E+00
     -0.926  0.6146E-02  0.6146E-02  0.2170E+00  0.2170E+00
     -0.824  0.3555E-02  0.3555E-02  0.2173E+00  0.2173E+00
     -0.723  0.1794E-02  0.1794E-02  0.2175E+00  0.2175E+00
     -0.621  0.9746E-03  0.9746E-03  0.2176E+00  0.2176E+00
     -0.520  0.3126E-02  0.3126E-02  0.2179E+00  0.2179E+00
     -0.419  0.3743E-02  0.3743E-02  0.2183E+00  0.2183E+00
     -0.317  0.1826E-02  0.1826E-02  0.2185E+00  0.2185E+00
     -0.216  0.2946E-02  0.2946E-02  0.2188E+00  0.2188E+00
     -0.114  0.4418E-02  0.4418E-02  0.2193E+00  0.2193E+00
     -0.013  0.3995E-02  0.3995E-02  0.2197E+00  0.2197E+00
      0.089  0.3583E-02  0.3583E-02  0.2200E+00  0.2200E+00
      0.190  0.7128E-02  0.7128E-02  0.2207E+00  0.2207E+00
      0.292  0.1112E-01  0.1112E-01  0.2219E+00  0.2219E+00
      0.393  0.1172E-01  0.1172E-01  0.2231E+00  0.2231E+00
      0.494  0.1001E-01  0.1001E-01  0.2241E+00  0.2241E+00
      0.596  0.5792E-02  0.5792E-02  0.2247E+00  0.2247E+00
      0.697  0.6048E-02  0.6048E-02  0.2253E+00  0.2253E+00
      0.799  0.1044E-01  0.1044E-01  0.2263E+00  0.2263E+00
      0.900  0.7017E-02  0.7017E-02  0.2271E+00  0.2271E+00
      1.002  0.4499E-02  0.4499E-02  0.2275E+00  0.2275E+00
      1.103  0.7635E-02  0.7635E-02  0.2283E+00  0.2283E+00
      1.205  0.1492E-01  0.1492E-01  0.2298E+00  0.2298E+00
      1.306  0.1684E-01  0.1684E-01  0.2315E+00  0.2315E+00
      1.407  0.1615E-01  0.1615E-01  0.2331E+00  0.2331E+00
      1.509  0.1272E-01  0.1272E-01  0.2344E+00  0.2344E+00
      1.610  0.7652E-02  0.7652E-02  0.2352E+00  0.2352E+00
      1.712  0.1044E-01  0.1044E-01  0.2363E+00  0.2363E+00
      1.813  0.9609E-02  0.9609E-02  0.2372E+00  0.2372E+00
      1.915  0.9000E-02  0.9000E-02  0.2382E+00  0.2382E+00
      2.016  0.1455E-01  0.1455E-01  0.2396E+00  0.2396E+00
      2.118  0.1577E-01  0.1577E-01  0.2412E+00  0.2412E+00
      2.219  0.1273E-01  0.1273E-01  0.2425E+00  0.2425E+00
      2.320  0.6518E-02  0.6518E-02  0.2432E+00  0.2432E+00
      2.422  0.4282E-02  0.4282E-02  0.2436E+00  0.2436E+00
      2.523  0.9185E-02  0.9185E-02  0.2445E+00  0.2445E+00
      2.625  0.1197E-01  0.1197E-01  0.2458E+00  0.2458E+00
      2.726  0.1532E-01  0.1532E-01  0.2473E+00  0.2473E+00
      2.828  0.1675E-01  0.1675E-01  0.2490E+00  0.2490E+00
      2.929  0.1451E-01  0.1452E-01  0.2505E+00  0.2505E+00
      3.031  0.1356E-01  0.1356E-01  0.2519E+00  0.2519E+00
      3.132  0.1314E-01  0.1314E-01  0.2532E+00  0.2532E+00
      3.233  0.1170E-01  0.1170E-01  0.2544E+00  0.2544E+00
      3.335  0.1768E-01  0.1768E-01  0.2562E+00  0.2562E+00
      3.436  0.2112E-01  0.2112E-01  0.2583E+00  0.2583E+00
      3.538  0.1947E-01  0.1947E-01  0.2603E+00  0.2603E+00
      3.639  0.2262E-01  0.2263E-01  0.2626E+00  0.2626E+00
      3.741  0.2303E-01  0.2303E-01  0.2649E+00  0.2649E+00
      3.842  0.2381E-01  0.2381E-01  0.2673E+00  0.2673E+00
      3.944  0.2102E-01  0.2103E-01  0.2695E+00  0.2695E+00
      4.045  0.1847E-01  0.1847E-01  0.2713E+00  0.2713E+00
      4.146  0.1809E-01  0.1809E-01  0.2732E+00  0.2732E+00
      4.248  0.1861E-01  0.1862E-01  0.2751E+00  0.2751E+00
      4.349  0.2283E-01  0.2283E-01  0.2774E+00  0.2774E+00
      4.451  0.2357E-01  0.2357E-01  0.2798E+00  0.2798E+00
      4.552  0.1822E-01  0.1823E-01  0.2816E+00  0.2816E+00
      4.654  0.2141E-01  0.2141E-01  0.2838E+00  0.2838E+00
      4.755  0.2684E-01  0.2685E-01  0.2865E+00  0.2865E+00
      4.856  0.3146E-01  0.3146E-01  0.2897E+00  0.2897E+00
      4.958  0.2389E-01  0.2388E-01  0.2921E+00  0.2921E+00
      5.059  0.1923E-01  0.1925E-01  0.2941E+00  0.2941E+00
      5.161  0.2306E-01  0.2306E-01  0.2964E+00  0.2964E+00
      5.262  0.2182E-01  0.2181E-01  0.2986E+00  0.2986E+00
      5.364  0.2517E-01  0.2517E-01  0.3012E+00  0.3012E+00
      5.465  0.2547E-01  0.2546E-01  0.3038E+00  0.3038E+00
      5.567  0.2953E-01  0.2953E-01  0.3068E+00  0.3068E+00
      5.668  0.3070E-01  0.3070E-01  0.3099E+00  0.3099E+00
      5.769  0.2810E-01  0.2810E-01  0.3127E+00  0.3127E+00
      5.871  0.2200E-01  0.2199E-01  0.3150E+00  0.3150E+00
      5.972  0.1413E-01  0.1413E-01  0.3164E+00  0.3164E+00
      6.074  0.2156E-01  0.2157E-01  0.3186E+00  0.3186E+00
      6.175  0.2750E-01  0.2750E-01  0.3214E+00  0.3214E+00
      6.277  0.2890E-01  0.2890E-01  0.3243E+00  0.3243E+00
      6.378  0.3290E-01  0.3290E-01  0.3276E+00  0.3277E+00
      6.480  0.2756E-01  0.2755E-01  0.3304E+00  0.3304E+00
      6.581  0.2084E-01  0.2084E-01  0.3326E+00  0.3326E+00
      6.682  0.2445E-01  0.2446E-01  0.3350E+00  0.3350E+00
      6.784  0.3000E-01  0.2999E-01  0.3381E+00  0.3381E+00
      6.885  0.2958E-01  0.2959E-01  0.3411E+00  0.3411E+00
      6.987  0.3363E-01  0.3364E-01  0.3445E+00  0.3445E+00
      7.088  0.3844E-01  0.3844E-01  0.3484E+00  0.3484E+00
      7.190  0.3291E-01  0.3291E-01  0.3517E+00  0.3517E+00
      7.291  0.3332E-01  0.3332E-01  0.3551E+00  0.3551E+00
      7.393  0.3270E-01  0.3269E-01  0.3584E+00  0.3584E+00
      7.494  0.2895E-01  0.2895E-01  0.3614E+00  0.3614E+00
      7.595  0.3375E-01  0.3375E-01  0.3648E+00  0.3648E+00
      7.697  0.3173E-01  0.3173E-01  0.3680E+00  0.3680E+00
      7.798  0.2837E-01  0.2837E-01  0.3709E+00  0.3709E+00
      7.900  0.2122E-01  0.2122E-01  0.3730E+00  0.3730E+00
      8.001  0.1185E-01  0.1184E-01  0.3742E+00  0.3742E+00
      8.103  0.6163E-02  0.6150E-02  0.3749E+00  0.3749E+00
      8.204  0.1273E-02  0.1271E-02  0.3750E+00  0.3750E+00
      8.306  0.5968E-04  0.5963E-04  0.3750E+00  0.3750E+00
      8.407  0.4675E-06  0.4671E-06  0.3750E+00  0.3750E+00
      8.508  0.5310E-09  0.5305E-09  0.3750E+00  0.3750E+00
      8.610  0.8252E-13  0.8244E-13  0.3750E+00  0.3750E+00
      8.711  0.1663E-17  0.1663E-17  0.3750E+00  0.3750E+00
      8.813  0.0000E+00  0.0000E+00  0.3750E+00  0.3750E+00
      8.914  0.0000E+00  0.0000E+00  0.3750E+00  0.3750E+00
      9.016  0.0000E+00  0.0000E+00  0.3750E+00  0.3750E+00
      9.117  0.0000E+00  0.0000E+00  0.3750E+00  0.3750E+00
      9.219  0.0000E+00  0.0000E+00  0.3750E+00  0.3750E+00
      9.320  0.0000E+00  0.0000E+00  0.3750E+00  0.3750E+00
      9.421  0.0000E+00  0.0000E+00  0.3750E+00  0.3750E+00
