<?xml version="1.0" encoding="ISO-8859-1"?>
<modeling>
 <generator>
  <i name="program" type="string">vasp </i>
  <i name="version" type="string">6.3.2  </i>
  <i name="subversion" type="string">27Jun22 (build Dec 22 2022 13:13:19) complex                          parallel </i>
  <i name="platform" type="string">LinuxIFC </i>
  <i name="date" type="string">2023 08 21 </i>
  <i name="time" type="string">19:45:50 </i>
 </generator>
 <incar>
  <i type="string" name="SYSTEM">Lattice</i>
  <i type="int" name="ISTART">     0</i>
  <i type="string" name="PREC">Accurate</i>
  <i type="string" name="ALGO">Normal</i>
  <i type="int" name="ISPIN">     2</i>
  <i type="int" name="ICHARG">     2</i>
  <i type="int" name="NELM">    64</i>
  <i type="int" name="IBRION">     2</i>
  <i name="EDIFF">      0.00000100</i>
  <i name="EDIFFG">     -0.00100000</i>
  <i type="int" name="NSW">   128</i>
  <i type="int" name="ISIF">     2</i>
  <i name="ENCUT">    450.00000000</i>
  <i name="POTIM">      0.50000000</i>
  <i type="int" name="ISMEAR">     0</i>
  <i name="SIGMA">      0.10000000</i>
  <i type="logical" name="LWAVE"> F  </i>
  <i type="logical" name="LCHARG"> F  </i>
  <i type="string" name="GGA">PE</i>
  <i type="int" name="IVDW">    12</i>
 </incar>
 <primitive_cell>
  <structure name="primitive_cell" >
   <crystal>
    <varray name="basis" >
     <v>       4.29548600       2.48000000       0.00000000 </v>
     <v>      -4.29548600       2.48000000       0.00000000 </v>
     <v>       0.00000000       0.00000000      15.00000000 </v>
    </varray>
    <i name="volume">    319.58415861 </i>
    <varray name="rec_basis" >
     <v>       0.11640126       0.20161290       0.00000000 </v>
     <v>      -0.11640126       0.20161290       0.00000000 </v>
     <v>       0.00000000       0.00000000       0.06666667 </v>
    </varray>
   </crystal>
   <varray name="positions" >
    <v>       0.33833034       0.66916432       0.10000000 </v>
    <v>       0.67165522       0.33584146       0.10000000 </v>
    <v>       0.16373946       0.31999962       0.10000000 </v>
    <v>       0.32250218       0.16126397       0.10000000 </v>
    <v>       0.16376430       0.84376384       0.10000000 </v>
    <v>       0.84623863       0.16123684       0.10000000 </v>
    <v>       0.68749850       0.84373000       0.10000000 </v>
    <v>       0.84626736       0.68499594       0.10000000 </v>
    <v>       0.16666600       0.33333300       0.32880000 </v>
    <v>       0.33333300       0.16666600       0.32880000 </v>
    <v>       0.16666600       0.83333300       0.32880000 </v>
    <v>       0.33333300       0.66666600       0.32880000 </v>
    <v>       0.66666600       0.33333300       0.32880000 </v>
    <v>       0.83333300       0.16666600       0.32880000 </v>
    <v>       0.66666600       0.83333300       0.32880000 </v>
    <v>       0.83333300       0.66666600       0.32880000 </v>
   </varray>
  </structure>
  <varray name="primitive_index" >
   <v type="int" >        1 </v>
   <v type="int" >        2 </v>
   <v type="int" >        3 </v>
   <v type="int" >        4 </v>
   <v type="int" >        5 </v>
   <v type="int" >        6 </v>
   <v type="int" >        7 </v>
   <v type="int" >        8 </v>
   <v type="int" >        9 </v>
   <v type="int" >       10 </v>
   <v type="int" >       11 </v>
   <v type="int" >       12 </v>
   <v type="int" >       13 </v>
   <v type="int" >       14 </v>
   <v type="int" >       15 </v>
   <v type="int" >       16 </v>
  </varray>
 </primitive_cell>
 <kpoints>
  <generation param="Gamma">
   <v type="int" name="divisions">      12       12        1 </v>
   <v name="usershift">      0.00000000       0.00000000       0.00000000 </v>
   <v name="genvec1">      0.08333333      -0.00000000       0.00000000 </v>
   <v name="genvec2">     -0.00000000       0.08333333       0.00000000 </v>
   <v name="genvec3">      0.00000000       0.00000000       1.00000000 </v>
   <v name="shift">      0.00000000       0.00000000       0.00000000 </v>
  </generation>
  <varray name="kpointlist" >
   <v>       0.00000000       0.00000000       0.00000000 </v>
   <v>       0.08333333       0.00000000       0.00000000 </v>
   <v>      -0.00000000       0.08333333       0.00000000 </v>
   <v>      -0.08333333       0.08333333       0.00000000 </v>
   <v>       0.16666667      -0.00000000       0.00000000 </v>
   <v>      -0.00000000       0.16666667       0.00000000 </v>
   <v>      -0.16666667       0.16666667       0.00000000 </v>
   <v>       0.25000000      -0.00000000       0.00000000 </v>
   <v>      -0.00000000       0.25000000       0.00000000 </v>
   <v>      -0.25000000       0.25000000       0.00000000 </v>
   <v>       0.33333333      -0.00000000       0.00000000 </v>
   <v>      -0.00000000       0.33333333       0.00000000 </v>
   <v>      -0.33333333       0.33333333       0.00000000 </v>
   <v>       0.41666667       0.00000000       0.00000000 </v>
   <v>      -0.00000000       0.41666667       0.00000000 </v>
   <v>      -0.41666667       0.41666667       0.00000000 </v>
   <v>       0.50000000      -0.00000000       0.00000000 </v>
   <v>      -0.00000000       0.50000000       0.00000000 </v>
   <v>       0.50000000       0.50000000       0.00000000 </v>
   <v>       0.08333333       0.08333333       0.00000000 </v>
   <v>      -0.08333333       0.16666667       0.00000000 </v>
   <v>      -0.16666667       0.08333333       0.00000000 </v>
   <v>       0.16666667       0.08333333       0.00000000 </v>
   <v>      -0.08333333       0.25000000       0.00000000 </v>
   <v>      -0.25000000       0.16666667       0.00000000 </v>
   <v>      -0.16666667       0.25000000       0.00000000 </v>
   <v>       0.08333333       0.16666667       0.00000000 </v>
   <v>       0.25000000      -0.08333333       0.00000000 </v>
   <v>       0.25000000       0.08333333       0.00000000 </v>
   <v>      -0.08333333       0.33333333       0.00000000 </v>
   <v>      -0.33333333       0.25000000       0.00000000 </v>
   <v>      -0.25000000       0.33333333       0.00000000 </v>
   <v>       0.08333333       0.25000000       0.00000000 </v>
   <v>       0.33333333      -0.08333333       0.00000000 </v>
   <v>       0.33333333       0.08333333       0.00000000 </v>
   <v>      -0.08333333       0.41666667       0.00000000 </v>
   <v>      -0.41666667       0.33333333       0.00000000 </v>
   <v>      -0.33333333       0.41666667       0.00000000 </v>
   <v>       0.08333333       0.33333333       0.00000000 </v>
   <v>       0.41666667      -0.08333333       0.00000000 </v>
   <v>       0.41666667       0.08333333       0.00000000 </v>
   <v>      -0.08333333       0.50000000       0.00000000 </v>
   <v>       0.50000000       0.41666667       0.00000000 </v>
   <v>      -0.41666667       0.50000000       0.00000000 </v>
   <v>       0.08333333       0.41666667       0.00000000 </v>
   <v>       0.50000000      -0.08333333       0.00000000 </v>
   <v>       0.16666667       0.16666667       0.00000000 </v>
   <v>      -0.16666667       0.33333333       0.00000000 </v>
   <v>      -0.33333333       0.16666667       0.00000000 </v>
   <v>       0.25000000       0.16666667       0.00000000 </v>
   <v>      -0.16666667       0.41666667       0.00000000 </v>
   <v>      -0.41666667       0.25000000       0.00000000 </v>
   <v>      -0.25000000       0.41666667       0.00000000 </v>
   <v>       0.16666667       0.25000000       0.00000000 </v>
   <v>       0.41666667      -0.16666667       0.00000000 </v>
   <v>       0.33333333       0.16666667       0.00000000 </v>
   <v>      -0.16666667       0.50000000       0.00000000 </v>
   <v>       0.50000000       0.33333333       0.00000000 </v>
   <v>      -0.33333333       0.50000000       0.00000000 </v>
   <v>       0.16666667       0.33333333       0.00000000 </v>
   <v>       0.50000000      -0.16666667       0.00000000 </v>
   <v>       0.41666667       0.16666667       0.00000000 </v>
   <v>      -0.16666667      -0.41666667       0.00000000 </v>
   <v>       0.41666667       0.41666667       0.00000000 </v>
   <v>       0.25000000       0.25000000       0.00000000 </v>
   <v>      -0.25000000       0.50000000       0.00000000 </v>
   <v>       0.50000000       0.25000000       0.00000000 </v>
   <v>       0.33333333       0.25000000       0.00000000 </v>
   <v>      -0.25000000      -0.41666667       0.00000000 </v>
   <v>       0.41666667       0.33333333       0.00000000 </v>
   <v>      -0.33333333      -0.41666667       0.00000000 </v>
   <v>       0.25000000       0.33333333       0.00000000 </v>
   <v>      -0.41666667      -0.25000000       0.00000000 </v>
   <v>       0.33333333       0.33333333       0.00000000 </v>
  </varray>
  <varray name="weights" >
   <v>       0.00694444 </v>
   <v>       0.01388889 </v>
   <v>       0.01388889 </v>
   <v>       0.01388889 </v>
   <v>       0.01388889 </v>
   <v>       0.01388889 </v>
   <v>       0.01388889 </v>
   <v>       0.01388889 </v>
   <v>       0.01388889 </v>
   <v>       0.01388889 </v>
   <v>       0.01388889 </v>
   <v>       0.01388889 </v>
   <v>       0.01388889 </v>
   <v>       0.01388889 </v>
   <v>       0.01388889 </v>
   <v>       0.01388889 </v>
   <v>       0.00694444 </v>
   <v>       0.00694444 </v>
   <v>       0.00694444 </v>
   <v>       0.01388889 </v>
   <v>       0.01388889 </v>
   <v>       0.01388889 </v>
   <v>       0.01388889 </v>
   <v>       0.01388889 </v>
   <v>       0.01388889 </v>
   <v>       0.01388889 </v>
   <v>       0.01388889 </v>
   <v>       0.01388889 </v>
   <v>       0.01388889 </v>
   <v>       0.01388889 </v>
   <v>       0.01388889 </v>
   <v>       0.01388889 </v>
   <v>       0.01388889 </v>
   <v>       0.01388889 </v>
   <v>       0.01388889 </v>
   <v>       0.01388889 </v>
   <v>       0.01388889 </v>
   <v>       0.01388889 </v>
   <v>       0.01388889 </v>
   <v>       0.01388889 </v>
   <v>       0.01388889 </v>
   <v>       0.01388889 </v>
   <v>       0.01388889 </v>
   <v>       0.01388889 </v>
   <v>       0.01388889 </v>
   <v>       0.01388889 </v>
   <v>       0.01388889 </v>
   <v>       0.01388889 </v>
   <v>       0.01388889 </v>
   <v>       0.01388889 </v>
   <v>       0.01388889 </v>
   <v>       0.01388889 </v>
   <v>       0.01388889 </v>
   <v>       0.01388889 </v>
   <v>       0.01388889 </v>
   <v>       0.01388889 </v>
   <v>       0.01388889 </v>
   <v>       0.01388889 </v>
   <v>       0.01388889 </v>
   <v>       0.01388889 </v>
   <v>       0.01388889 </v>
   <v>       0.01388889 </v>
   <v>       0.01388889 </v>
   <v>       0.01388889 </v>
   <v>       0.01388889 </v>
   <v>       0.01388889 </v>
   <v>       0.01388889 </v>
   <v>       0.01388889 </v>
   <v>       0.01388889 </v>
   <v>       0.01388889 </v>
   <v>       0.01388889 </v>
   <v>       0.01388889 </v>
   <v>       0.01388889 </v>
   <v>       0.01388889 </v>
  </varray>
 </kpoints>
 <parameters>
  <separator name="general" >
   <i type="string" name="SYSTEM">Lattice</i>
   <i type="logical" name="LCOMPAT"> F  </i>
  </separator>
  <separator name="electronic" >
   <i type="string" name="PREC">accura</i>
   <i name="ENMAX">    450.00000000</i>
   <i name="ENAUG">    644.87300000</i>
   <i name="EDIFF">      0.00000100</i>
   <i type="int" name="IALGO">    38</i>
   <i type="int" name="IWAVPR">    11</i>
   <i type="int" name="NBANDS">    48</i>
   <i type="int" name="NBANDSLOW">    -1</i>
   <i type="int" name="NBANDSHIGH">    -1</i>
   <i name="NELECT">     62.00000000</i>
   <i type="int" name="TURBO">     0</i>
   <i type="int" name="IRESTART">     0</i>
   <i type="int" name="NREBOOT">     0</i>
   <i type="int" name="NMIN">     0</i>
   <i name="EREF">      0.00000000</i>
   <separator name="electronic smearing" >
    <i type="int" name="ISMEAR">     0</i>
    <i name="SIGMA">      0.10000000</i>
    <i name="KSPACING">      0.50000000</i>
    <i type="logical" name="KGAMMA"> T  </i>
    <i type="logical" name="KBLOWUP"> T  </i>
   </separator>
   <separator name="electronic projectors" >
    <i type="logical" name="LREAL"> F  </i>
    <v name="ROPT">      0.00000000      0.00000000</v>
    <i type="int" name="LMAXPAW">  -100</i>
    <i type="int" name="LMAXMIX">     2</i>
    <i type="logical" name="NLSPLINE"> F  </i>
   </separator>
   <separator name="electronic startup" >
    <i type="int" name="ISTART">     0</i>
    <i type="int" name="ICHARG">     2</i>
    <i type="int" name="INIWAV">     1</i>
   </separator>
   <separator name="electronic spin" >
    <i type="int" name="ISPIN">     2</i>
    <i type="logical" name="LNONCOLLINEAR"> F  </i>
    <v name="MAGMOM">      1.00000000      1.00000000      1.00000000      1.00000000      1.00000000      1.00000000      1.00000000      1.00000000      1.00000000      1.00000000      1.00000000      1.00000000      1.00000000      1.00000000      1.00000000      1.00000000</v>
    <i name="NUPDOWN">     -1.00000000</i>
    <i type="logical" name="LSORBIT"> F  </i>
    <v name="SAXIS">      0.00000000      0.00000000      1.00000000</v>
    <i type="logical" name="LSPIRAL"> F  </i>
    <v name="QSPIRAL">      0.00000000      0.00000000      0.00000000</v>
    <i type="logical" name="LZEROZ"> F  </i>
   </separator>
   <separator name="electronic exchange-correlation" >
    <i type="logical" name="LASPH"> F  </i>
    <i type="logical" name="LMETAGGA"> F  </i>
   </separator>
   <separator name="electronic convergence" >
    <i type="int" name="NELM">    64</i>
    <i type="int" name="NELMDL">    -5</i>
    <i type="int" name="NELMIN">     2</i>
    <i name="ENINI">    450.00000000</i>
    <separator name="electronic convergence detail" >
     <i type="logical" name="LDIAG"> T  </i>
     <i type="logical" name="LSUBROT"> F  </i>
     <i name="WEIMIN">      0.00100000</i>
     <i name="EBREAK">      0.00000001</i>
     <i name="DEPER">      0.30000000</i>
     <i type="int" name="NRMM">     4</i>
     <i name="TIME">      0.40000000</i>
    </separator>
   </separator>
   <separator name="electronic mixer" >
    <i name="AMIX">      0.40000000</i>
    <i name="BMIX">      1.00000000</i>
    <i name="AMIN">      0.10000000</i>
    <i name="AMIX_MAG">      1.60000000</i>
    <i name="BMIX_MAG">      1.00000000</i>
    <separator name="electronic mixer details" >
     <i type="int" name="IMIX">     4</i>
     <i type="logical" name="MIXFIRST"> F  </i>
     <i type="int" name="MAXMIX">   -45</i>
     <i name="WC">    100.00000000</i>
     <i type="int" name="INIMIX">     1</i>
     <i type="int" name="MIXPRE">     1</i>
     <i type="int" name="MREMOVE">     5</i>
    </separator>
   </separator>
   <separator name="electronic dipolcorrection" >
    <i type="logical" name="LDIPOL"> F  </i>
    <i type="logical" name="LMONO"> F  </i>
    <i type="int" name="IDIPOL">     0</i>
    <i name="EPSILON">      1.00000000</i>
    <v name="DIPOL">   -100.00000000   -100.00000000   -100.00000000</v>
    <i name="EFIELD">      0.00000000</i>
   </separator>
  </separator>
  <separator name="grids" >
   <i type="int" name="NGX">    36</i>
   <i type="int" name="NGY">    36</i>
   <i type="int" name="NGZ">   108</i>
   <i type="int" name="NGXF">    72</i>
   <i type="int" name="NGYF">    72</i>
   <i type="int" name="NGZF">   216</i>
   <i type="logical" name="ADDGRID"> F  </i>
  </separator>
  <separator name="ionic" >
   <i type="int" name="NSW">   128</i>
   <i type="int" name="IBRION">     2</i>
   <i type="int" name="MDALGO">     0</i>
   <i type="int" name="ISIF">     2</i>
   <i name="PSTRESS">      0.00000000</i>
   <i name="EDIFFG">     -0.00100000</i>
   <i type="int" name="NFREE">     1</i>
   <i name="POTIM">      0.50000000</i>
   <i name="SMASS">     -3.00000000</i>
   <i name="SCALEE">      1.00000000</i>
  </separator>
  <separator name="ionic md" >
   <i name="TEBEG">      0.00010000</i>
   <i name="TEEND">      0.00010000</i>
   <i type="int" name="NBLOCK">     1</i>
   <i type="int" name="KBLOCK">   128</i>
   <i type="int" name="NPACO">   256</i>
   <i name="APACO">     10.00000000</i>
  </separator>
  <separator name="symmetry" >
   <i type="int" name="ISYM">     2</i>
   <i name="SYMPREC">      0.00001000</i>
  </separator>
  <separator name="dos" >
   <i type="int" name="LORBIT">     0</i>
   <v name="RWIGS">     -1.00000000     -1.00000000</v>
   <i type="int" name="NEDOS">   301</i>
   <i name="EMIN">     10.00000000</i>
   <i name="EMAX">    -10.00000000</i>
   <i name="EFERMI">      0.00000000</i>
  </separator>
  <separator name="writing" >
   <i type="int" name="NWRITE">     2</i>
   <i type="logical" name="LWAVE"> F  </i>
   <i type="logical" name="LDOWNSAMPLE"> F  </i>
   <i type="logical" name="LCHARG"> F  </i>
   <i type="logical" name="LPARD"> F  </i>
   <i type="logical" name="LVTOT"> F  </i>
   <i type="logical" name="LVHAR"> F  </i>
   <i type="logical" name="LELF"> F  </i>
   <i type="logical" name="LOPTICS"> F  </i>
   <v name="STM">      0.00000000      0.00000000      0.00000000      0.00000000      0.00000000      0.00000000      0.00000000</v>
  </separator>
  <separator name="performance" >
   <i type="int" name="NPAR">    48</i>
   <i type="int" name="NSIM">     4</i>
   <i type="int" name="NBLK">    -1</i>
   <i type="logical" name="LPLANE"> T  </i>
   <i type="logical" name="LSCALAPACK"> T  </i>
   <i type="logical" name="LSCAAWARE"> F  </i>
   <i type="logical" name="LSCALU"> F  </i>
   <i type="logical" name="LASYNC"> F  </i>
   <i type="logical" name="LORBITALREAL"> F  </i>
  </separator>
  <separator name="miscellaneous" >
   <i type="int" name="IDIOT">     3</i>
   <i type="int" name="PHON_NSTRUCT">    -1</i>
   <i type="logical" name="LMUSIC"> F  </i>
   <v name="POMASS">     10.81100000     12.01100000</v>
   <v name="DARWINR">      0.00000000      0.00000000</v>
   <v name="DARWINV">      1.00000000      1.00000000</v>
   <i type="logical" name="LCORR"> T  </i>
  </separator>
  <i type="logical" name="GGA_COMPAT"> T  </i>
  <i type="logical" name="LBERRY"> F  </i>
  <i type="int" name="ICORELEVEL">     0</i>
  <i type="logical" name="LDAU"> F  </i>
  <i type="int" name="I_CONSTRAINED_M">     0</i>
  <separator name="electronic exchange-correlation" >
   <i type="string" name="GGA">PE</i>
   <i type="int" name="VOSKOWN">     0</i>
   <i type="logical" name="LHFCALC"> F  </i>
   <i type="string" name="PRECFOCK"></i>
   <i type="logical" name="LSYMGRAD"> F  </i>
   <i type="logical" name="LHFONE"> F  </i>
   <i type="logical" name="LRHFCALC"> F  </i>
   <i type="logical" name="LTHOMAS"> F  </i>
   <i type="logical" name="LMODELHF"> F  </i>
   <i type="logical" name="LFOCKACE"> F  </i>
   <i name="ENCUT4O">     -1.00000000</i>
   <i type="int" name="EXXOEP">     0</i>
   <i type="int" name="FOURORBIT">     0</i>
   <i name="AEXX">      0.00000000</i>
   <i name="HFALPHA">      0.00000000</i>
   <i name="MCALPHA">      0.00000000</i>
   <i name="ALDAX">      1.00000000</i>
   <i name="AGGAX">      1.00000000</i>
   <i name="ALDAC">      1.00000000</i>
   <i name="AGGAC">      1.00000000</i>
   <i type="int" name="NKREDX">     1</i>
   <i type="int" name="NKREDY">     1</i>
   <i type="int" name="NKREDZ">     1</i>
   <i type="logical" name="SHIFTRED"> F  </i>
   <i type="logical" name="ODDONLY"> F  </i>
   <i type="logical" name="EVENONLY"> F  </i>
   <i type="int" name="LMAXFOCK">     0</i>
   <i type="int" name="NMAXFOCKAE">     0</i>
   <i type="logical" name="LFOCKAEDFT"> F  </i>
   <i name="HFSCREEN">      0.00000000</i>
   <i name="HFSCREENC">      0.00000000</i>
   <i type="int" name="NBANDSGWLOW">     0</i>
  </separator>
  <separator name="vdW DFT" >
   <i type="logical" name="LUSE_VDW"> F  </i>
   <i name="Zab_VDW">     -0.84910000</i>
   <i name="PARAM1">      0.12340000</i>
   <i name="PARAM2">      1.00000000</i>
   <i name="PARAM3">      0.00000000</i>
  </separator>
  <separator name="model GW" >
   <i type="int" name="MODEL_GW">     0</i>
   <i name="MODEL_EPS0">     11.98440595</i>
   <i name="MODEL_ALPHA">      1.00000000</i>
  </separator>
  <separator name="linear response parameters" >
   <i type="logical" name="LEPSILON"> F  </i>
   <i type="logical" name="LRPA"> F  </i>
   <i type="logical" name="LNABLA"> F  </i>
   <i type="logical" name="LVEL"> F  </i>
   <i name="CSHIFT">      0.10000000</i>
   <i name="OMEGAMAX">     -1.00000000</i>
   <i name="DEG_THRESHOLD">      0.00200000</i>
   <i name="RTIME">     -0.10000000</i>
   <i name="WPLASMAI">      0.00000000</i>
   <v name="DFIELD">      0.00000000      0.00000000      0.00000000</v>
   <v name="WPLASMA">      0.00000000      0.00000000      0.00000000      0.00000000      0.00000000      0.00000000      0.00000000      0.00000000      0.00000000</v>
  </separator>
  <separator name="orbital magnetization" >
   <i type="logical" name="NUCIND"> F  </i>
   <v name="MAGPOS">      0.00000000      0.00000000      0.00000000</v>
   <i type="logical" name="LNICSALL"> T  </i>
   <i type="logical" name="ORBITALMAG"> F  </i>
   <i type="logical" name="LMAGBLOCH"> F  </i>
   <i type="logical" name="LCHIMAG"> F  </i>
   <i type="logical" name="LGAUGE"> T  </i>
   <i type="int" name="MAGATOM">     0</i>
   <v name="MAGDIPOL">      0.00000000      0.00000000      0.00000000</v>
   <v name="AVECCONST">      0.00000000      0.00000000      0.00000000</v>
  </separator>
  <separator name="response functions" >
   <i type="logical" name="LFINITE_TEMPERATURE"> F  </i>
   <i type="logical" name="LADDER"> F  </i>
   <i type="logical" name="LRPAFORCE"> F  </i>
   <i type="logical" name="LFXC"> F  </i>
   <i type="logical" name="LHARTREE"> T  </i>
   <i type="int" name="IBSE">     0</i>
   <v type="int" name="KPOINT">    -1     0     0     0</v>
   <i type="logical" name="LTCTC"> F  </i>
   <i type="logical" name="LTCTE"> F  </i>
   <i type="logical" name="LTETE"> F  </i>
   <i type="logical" name="LTRIPLET"> F  </i>
   <i type="logical" name="LFXCEPS"> F  </i>
   <i type="logical" name="LFXHEG"> F  </i>
   <i type="int" name="NATURALO">     2</i>
   <i type="logical" name="LHOLEGF"> F  </i>
   <i type="logical" name="L2ORDER"> F  </i>
   <i type="logical" name="LDMP1"> F  </i>
   <i type="logical" name="LMP2LT"> F  </i>
   <i type="logical" name="LSMP2LT"> F  </i>
   <i type="logical" name="LGWLF"> F  </i>
   <i name="ENCUTGW">     -2.00000000</i>
   <i name="ENCUTGWSOFT">     -2.00000000</i>
   <i name="ENCUTLF">     -1.00000000</i>
   <i type="logical" name="LESF_SPLINES"> F  </i>
   <i type="int" name="LMAXMP2">    -1</i>
   <i name="SCISSOR">      0.00000000</i>
   <i type="int" name="NOMEGA">     0</i>
   <i type="int" name="NOMEGAR">     0</i>
   <i type="int" name="NBANDSGW">    -1</i>
   <i type="int" name="NBANDSO">    -1</i>
   <i type="int" name="NBANDSV">    -1</i>
   <i type="int" name="NELMGW">     1</i>
   <i type="int" name="NELMHF">     1</i>
   <i type="int" name="DIM">     3</i>
   <i type="int" name="IESPILON">     4</i>
   <i type="int" name="ANTIRES">     0</i>
   <i name="OMEGAMAX">    -30.00000000</i>
   <i name="OMEGAMIN">    -30.00000000</i>
   <i name="OMEGATL">   -200.00000000</i>
   <i type="int" name="OMEGAGRID">     0</i>
   <i name="CSHIFT">     -0.10000000</i>
   <i type="logical" name="LSELFENERGY"> F  </i>
   <i type="logical" name="LSPECTRAL"> F  </i>
   <i type="logical" name="LSPECTRALGW"> F  </i>
   <i type="logical" name="LSINGLES"> F  </i>
   <i type="logical" name="LFERMIGW"> F  </i>
   <i type="logical" name="ODDONLYGW"> F  </i>
   <i type="logical" name="EVENONLYGW"> F  </i>
   <i type="int" name="NKREDLFX">     1</i>
   <i type="int" name="NKREDLFY">     1</i>
   <i type="int" name="NKREDLFZ">     1</i>
   <i type="int" name="MAXMEM">  2800</i>
   <i type="int" name="TELESCOPE">     0</i>
   <i type="int" name="NTAUPAR">    -1</i>
   <i type="int" name="NOMEGAPAR">    -1</i>
   <i name="DAMP_NEWTON">      0.80000001</i>
   <i name="LAMBDA">      1.00000000</i>
  </separator>
  <separator name="External order field" >
   <i name="OFIELD_KAPPA">      0.00000000</i>
   <v name="OFIELD_K">      0.00000000      0.00000000      0.00000000</v>
   <i name="OFIELD_Q6_NEAR">      0.00000000</i>
   <i name="OFIELD_Q6_FAR">      0.00000000</i>
   <i name="OFIELD_A">      0.00000000</i>
  </separator>
  <separator name="optional k-points parameters" >
   <i type="int" name="KPOINTS_OPT_MODE">     1</i>
   <i type="logical" name="LKPOINTS_OPT"> F  </i>
  </separator>
  <separator name="solvation model" >
   <i type="logical" name="LSOL"> F  </i>
  </separator>
 </parameters>
 <atominfo>
  <atoms>      16 </atoms>
  <types>       2 </types>
  <array name="atoms" >
   <dimension dim="1">ion</dimension>
   <field type="string">element</field>
   <field type="int">atomtype</field>
   <set>
    <rc><c>B </c><c>   1</c></rc>
    <rc><c>B </c><c>   1</c></rc>
    <rc><c>C </c><c>   2</c></rc>
    <rc><c>C </c><c>   2</c></rc>
    <rc><c>C </c><c>   2</c></rc>
    <rc><c>C </c><c>   2</c></rc>
    <rc><c>C </c><c>   2</c></rc>
    <rc><c>C </c><c>   2</c></rc>
    <rc><c>C </c><c>   2</c></rc>
    <rc><c>C </c><c>   2</c></rc>
    <rc><c>C </c><c>   2</c></rc>
    <rc><c>C </c><c>   2</c></rc>
    <rc><c>C </c><c>   2</c></rc>
    <rc><c>C </c><c>   2</c></rc>
    <rc><c>C </c><c>   2</c></rc>
    <rc><c>C </c><c>   2</c></rc>
   </set>
  </array>
  <array name="atomtypes" >
   <dimension dim="1">type</dimension>
   <field type="int">atomspertype</field>
   <field type="string">element</field>
   <field>mass</field>
   <field>valence</field>
   <field type="string">pseudopotential</field>
   <set>
    <rc><c>   2</c><c>B </c><c>     10.81100000</c><c>      3.00000000</c><c>  PAW_PBE B 06Sep2000                   </c></rc>
    <rc><c>  14</c><c>C </c><c>     12.01100000</c><c>      4.00000000</c><c>  PAW_PBE C 08Apr2002                   </c></rc>
   </set>
  </array>
 </atominfo>
 <structure name="initialpos" >
  <crystal>
   <varray name="basis" >
    <v>       4.29548600       2.48000000       0.00000000 </v>
    <v>      -4.29548600       2.48000000       0.00000000 </v>
    <v>       0.00000000       0.00000000      15.00000000 </v>
   </varray>
   <i name="volume">    319.58415861 </i>
   <varray name="rec_basis" >
    <v>       0.11640126       0.20161290       0.00000000 </v>
    <v>      -0.11640126       0.20161290       0.00000000 </v>
    <v>       0.00000000       0.00000000       0.06666667 </v>
   </varray>
  </crystal>
  <varray name="positions" >
   <v>       0.33833034       0.66916432       0.10000000 </v>
   <v>       0.67165522       0.33584146       0.10000000 </v>
   <v>       0.16373946       0.31999962       0.10000000 </v>
   <v>       0.32250218       0.16126397       0.10000000 </v>
   <v>       0.16376430       0.84376384       0.10000000 </v>
   <v>       0.84623863       0.16123684       0.10000000 </v>
   <v>       0.68749850       0.84373000       0.10000000 </v>
   <v>       0.84626736       0.68499594       0.10000000 </v>
   <v>       0.16666600       0.33333300       0.32880000 </v>
   <v>       0.33333300       0.16666600       0.32880000 </v>
   <v>       0.16666600       0.83333300       0.32880000 </v>
   <v>       0.33333300       0.66666600       0.32880000 </v>
   <v>       0.66666600       0.33333300       0.32880000 </v>
   <v>       0.83333300       0.16666600       0.32880000 </v>
   <v>       0.66666600       0.83333300       0.32880000 </v>
   <v>       0.83333300       0.66666600       0.32880000 </v>
  </varray>
 </structure>
 <calculation>
  <scstep>
   <time name="dav">    5.69    5.75</time>
   <time name="total">    5.74    5.80</time>
   <energy>
    <i name="alphaZ">     64.67582166 </i>
    <i name="ewald">   5604.95593491 </i>
    <i name="hartreedc">  -7409.53877964 </i>
    <i name="XCdc">    201.49274208 </i>
    <i name="pawpsdc">   1604.28699987 </i>
    <i name="pawaedc">  -1610.37247880 </i>
    <i name="eentropy">     -0.01786256 </i>
    <i name="bandstr">   -395.12059821 </i>
    <i name="atom">   2202.35892741 </i>
    <i name="e_fr_energy">    262.72070672 </i>
    <i name="e_wo_entrp">    262.73856928 </i>
    <i name="e_0_energy">    262.72963800 </i>
   </energy>
  </scstep>
  <scstep>
   <time name="dav">    8.89    8.97</time>
   <time name="total">    8.89    8.97</time>
   <energy>
    <i name="e_fr_energy">   -131.57970941 </i>
    <i name="e_wo_entrp">   -131.57033248 </i>
    <i name="e_0_energy">   -131.57502095 </i>
   </energy>
  </scstep>
  <scstep>
   <time name="dav">   11.11   11.20</time>
   <time name="total">   11.11   11.20</time>
   <energy>
    <i name="e_fr_energy">   -147.02078401 </i>
    <i name="e_wo_entrp">   -147.01397220 </i>
    <i name="e_0_energy">   -147.01737810 </i>
   </energy>
  </scstep>
  <scstep>
   <time name="dav">    9.62    9.71</time>
   <time name="total">    9.62    9.71</time>
   <energy>
    <i name="e_fr_energy">   -147.05488033 </i>
    <i name="e_wo_entrp">   -147.04806658 </i>
    <i name="e_0_energy">   -147.05147346 </i>
   </energy>
  </scstep>
  <scstep>
   <time name="dav">   10.22   10.29</time>
   <time name="total">   10.53   10.61</time>
   <energy>
    <i name="e_fr_energy">   -147.05494261 </i>
    <i name="e_wo_entrp">   -147.04812895 </i>
    <i name="e_0_energy">   -147.05153578 </i>
   </energy>
  </scstep>
  <scstep>
   <time name="dav">   10.19   10.27</time>
   <time name="total">   10.54   10.64</time>
   <energy>
    <i name="e_fr_energy">   -107.27724940 </i>
    <i name="e_wo_entrp">   -107.25802278 </i>
    <i name="e_0_energy">   -107.26763609 </i>
   </energy>
  </scstep>
  <scstep>
   <time name="dav">    9.74    9.81</time>
   <time name="total">   10.09   10.17</time>
   <energy>
    <i name="e_fr_energy">   -113.62791198 </i>
    <i name="e_wo_entrp">   -113.61475405 </i>
    <i name="e_0_energy">   -113.62133302 </i>
   </energy>
  </scstep>
  <scstep>
   <time name="dav">   11.06   11.14</time>
   <time name="total">   11.40   11.49</time>
   <energy>
    <i name="e_fr_energy">   -123.16899471 </i>
    <i name="e_wo_entrp">   -123.15839781 </i>
    <i name="e_0_energy">   -123.16369626 </i>
   </energy>
  </scstep>
  <scstep>
   <time name="dav">    7.50    7.55</time>
   <time name="total">    7.85    7.91</time>
   <energy>
    <i name="e_fr_energy">   -131.62217699 </i>
    <i name="e_wo_entrp">   -131.61657510 </i>
    <i name="e_0_energy">   -131.61937604 </i>
   </energy>
  </scstep>
  <scstep>
   <time name="dav">    9.72    9.78</time>
   <time name="total">   10.06   10.14</time>
   <energy>
    <i name="e_fr_energy">   -137.94768270 </i>
    <i name="e_wo_entrp">   -137.94422273 </i>
    <i name="e_0_energy">   -137.94595272 </i>
   </energy>
  </scstep>
  <scstep>
   <time name="dav">    8.63    8.70</time>
   <time name="total">    8.98    9.06</time>
   <energy>
    <i name="e_fr_energy">   -139.53308301 </i>
    <i name="e_wo_entrp">   -139.53058045 </i>
    <i name="e_0_energy">   -139.53183173 </i>
   </energy>
  </scstep>
  <scstep>
   <time name="dav">    9.27    9.33</time>
   <time name="total">    9.61    9.69</time>
   <energy>
    <i name="e_fr_energy">   -139.95250249 </i>
    <i name="e_wo_entrp">   -139.95070748 </i>
    <i name="e_0_energy">   -139.95160499 </i>
   </energy>
  </scstep>
  <scstep>
   <time name="dav">    7.79    7.85</time>
   <time name="total">    8.13    8.20</time>
   <energy>
    <i name="e_fr_energy">   -140.00366816 </i>
    <i name="e_wo_entrp">   -140.00163284 </i>
    <i name="e_0_energy">   -140.00265050 </i>
   </energy>
  </scstep>
  <scstep>
   <time name="dav">    8.49    8.56</time>
   <time name="total">    8.83    8.91</time>
   <energy>
    <i name="e_fr_energy">   -140.02200279 </i>
    <i name="e_wo_entrp">   -140.01972834 </i>
    <i name="e_0_energy">   -140.02086556 </i>
   </energy>
  </scstep>
  <scstep>
   <time name="dav">    7.08    7.12</time>
   <time name="total">    7.42    7.48</time>
   <energy>
    <i name="e_fr_energy">   -140.03088872 </i>
    <i name="e_wo_entrp">   -140.02847003 </i>
    <i name="e_0_energy">   -140.02967938 </i>
   </energy>
  </scstep>
  <scstep>
   <time name="dav">    6.47    6.51</time>
   <time name="total">    6.81    6.87</time>
   <energy>
    <i name="e_fr_energy">   -140.03218711 </i>
    <i name="e_wo_entrp">   -140.02972565 </i>
    <i name="e_0_energy">   -140.03095638 </i>
   </energy>
  </scstep>
  <scstep>
   <time name="dav">    6.40    6.45</time>
   <time name="total">    6.74    6.80</time>
   <energy>
    <i name="e_fr_energy">   -140.03399129 </i>
    <i name="e_wo_entrp">   -140.03153213 </i>
    <i name="e_0_energy">   -140.03276171 </i>
   </energy>
  </scstep>
  <scstep>
   <time name="dav">    6.64    6.69</time>
   <time name="total">    6.98    7.04</time>
   <energy>
    <i name="e_fr_energy">   -140.03494709 </i>
    <i name="e_wo_entrp">   -140.03251014 </i>
    <i name="e_0_energy">   -140.03372862 </i>
   </energy>
  </scstep>
  <scstep>
   <time name="dav">    6.87    6.92</time>
   <time name="total">    7.22    7.27</time>
   <energy>
    <i name="e_fr_energy">   -140.03546930 </i>
    <i name="e_wo_entrp">   -140.03303479 </i>
    <i name="e_0_energy">   -140.03425204 </i>
   </energy>
  </scstep>
  <scstep>
   <time name="dav">    7.26    7.30</time>
   <time name="total">    7.60    7.66</time>
   <energy>
    <i name="e_fr_energy">   -140.03564625 </i>
    <i name="e_wo_entrp">   -140.03320257 </i>
    <i name="e_0_energy">   -140.03442441 </i>
   </energy>
  </scstep>
  <scstep>
   <time name="dav">    8.53    8.59</time>
   <time name="total">    8.87    8.94</time>
   <energy>
    <i name="e_fr_energy">   -140.03565841 </i>
    <i name="e_wo_entrp">   -140.03321245 </i>
    <i name="e_0_energy">   -140.03443543 </i>
   </energy>
  </scstep>
  <scstep>
   <time name="dav">    9.17    9.23</time>
   <time name="total">    9.52    9.59</time>
   <energy>
    <i name="e_fr_energy">   -140.03568576 </i>
    <i name="e_wo_entrp">   -140.03323955 </i>
    <i name="e_0_energy">   -140.03446265 </i>
   </energy>
  </scstep>
  <scstep>
   <time name="dav">    8.18    8.23</time>
   <time name="total">    8.52    8.58</time>
   <energy>
    <i name="e_fr_energy">   -140.03569606 </i>
    <i name="e_wo_entrp">   -140.03324873 </i>
    <i name="e_0_energy">   -140.03447240 </i>
   </energy>
  </scstep>
  <scstep>
   <time name="dav">    9.12    9.18</time>
   <time name="total">    9.46    9.53</time>
   <energy>
    <i name="e_fr_energy">   -140.03569903 </i>
    <i name="e_wo_entrp">   -140.03325171 </i>
    <i name="e_0_energy">   -140.03447537 </i>
   </energy>
  </scstep>
  <scstep>
   <time name="dav">    7.82    7.87</time>
   <time name="total">    8.16    8.23</time>
   <energy>
    <i name="e_fr_energy">   -140.03570063 </i>
    <i name="e_wo_entrp">   -140.03325386 </i>
    <i name="e_0_energy">   -140.03447725 </i>
   </energy>
  </scstep>
  <scstep>
   <time name="dav">    7.98    8.04</time>
   <time name="total">    8.02    8.07</time>
   <energy>
    <i name="alphaZ">     64.67582166 </i>
    <i name="ewald">   5604.95593491 </i>
    <i name="hartreedc">  -7660.37048834 </i>
    <i name="XCdc">    208.68927956 </i>
    <i name="pawpsdc">   6820.69020660 </i>
    <i name="pawaedc">  -6828.91065570 </i>
    <i name="eentropy">     -0.00244650 </i>
    <i name="bandstr">   -552.12228113 </i>
    <i name="atom">   2202.35892741 </i>
    <i name="e_fr_energy">   -140.03570153 </i>
    <i name="e_wo_entrp">   -140.03325503 </i>
    <i name="e_0_energy">   -140.03447828 </i>
   </energy>
  </scstep>
  <structure>
   <crystal>
    <varray name="basis" >
     <v>       4.29548600       2.48000000       0.00000000 </v>
     <v>      -4.29548600       2.48000000       0.00000000 </v>
     <v>       0.00000000       0.00000000      15.00000000 </v>
    </varray>
    <i name="volume">    319.58415861 </i>
    <varray name="rec_basis" >
     <v>       0.11640126       0.20161290       0.00000000 </v>
     <v>      -0.11640126       0.20161290       0.00000000 </v>
     <v>       0.00000000       0.00000000       0.06666667 </v>
    </varray>
   </crystal>
   <varray name="positions" >
    <v>       0.33833034       0.66916432       0.10000000 </v>
    <v>       0.67165522       0.33584146       0.10000000 </v>
    <v>       0.16373946       0.31999962       0.10000000 </v>
    <v>       0.32250218       0.16126397       0.10000000 </v>
    <v>       0.16376430       0.84376384       0.10000000 </v>
    <v>       0.84623863       0.16123684       0.10000000 </v>
    <v>       0.68749850       0.84373000       0.10000000 </v>
    <v>       0.84626736       0.68499594       0.10000000 </v>
    <v>       0.16666600       0.33333300       0.32880000 </v>
    <v>       0.33333300       0.16666600       0.32880000 </v>
    <v>       0.16666600       0.83333300       0.32880000 </v>
    <v>       0.33333300       0.66666600       0.32880000 </v>
    <v>       0.66666600       0.33333300       0.32880000 </v>
    <v>       0.83333300       0.16666600       0.32880000 </v>
    <v>       0.66666600       0.83333300       0.32880000 </v>
    <v>       0.83333300       0.66666600       0.32880000 </v>
   </varray>
  </structure>
  <varray name="forces" >
   <v>      -0.00001002      -0.00005461       0.04357985 </v>
   <v>       0.00503043      -0.00033011       0.04357835 </v>
   <v>      -0.52172249       0.90204146      -0.01311837 </v>
   <v>       0.52105757       0.90168049      -0.01322122 </v>
   <v>       1.04314724      -0.00058686      -0.01311341 </v>
   <v>      -1.04272911      -0.00081933      -0.01295324 </v>
   <v>      -0.52182014      -0.89960700      -0.01288386 </v>
   <v>       0.51742663      -0.90169185      -0.01295665 </v>
   <v>       0.02679295      -0.04599434       0.01906781 </v>
   <v>      -0.02673212      -0.04605011       0.01924694 </v>
   <v>      -0.05301443       0.00008658       0.01906582 </v>
   <v>      -0.00038558      -0.00041530      -0.06103026 </v>
   <v>      -0.00009640      -0.00040444      -0.06102940 </v>
   <v>       0.05297497       0.00010906       0.01866166 </v>
   <v>       0.02668722       0.04598396       0.01843936 </v>
   <v>      -0.02660673       0.04605239       0.01866663 </v>
  </varray>
  <varray name="stress" >
   <v>      93.46743483       0.00381938      -0.00932985 </v>
   <v>       0.00381942      93.48007418      -0.01603567 </v>
   <v>      -0.00932985      -0.01603566      -2.55472919 </v>
  </varray>
  <energy>
   <i name="e_fr_energy">   -141.93731237 </i>
   <i name="e_wo_entrp">   -141.93486587 </i>
   <i name="e_0_energy">   -141.93608912 </i>
  </energy>
  <time name="totalsc">  231.91  233.80</time>
 </calculation>
 <calculation>
  <scstep>
   <time name="dav">    5.75    5.79</time>
   <time name="total">    6.08    6.13</time>
   <energy>
    <i name="alphaZ">     64.67582166 </i>
    <i name="ewald">   5590.86156018 </i>
    <i name="hartreedc">  -7650.01916512 </i>
    <i name="XCdc">    208.44668178 </i>
    <i name="pawpsdc">   6820.69224989 </i>
    <i name="pawaedc">  -6828.91270120 </i>
    <i name="eentropy">     -0.00737014 </i>
    <i name="bandstr">   -547.94194760 </i>
    <i name="atom">   2202.35892741 </i>
    <i name="e_fr_energy">   -139.84594313 </i>
    <i name="e_wo_entrp">   -139.83857299 </i>
    <i name="e_0_energy">   -139.84225806 </i>
   </energy>
  </scstep>
  <scstep>
   <time name="dav">    8.78    8.83</time>
   <time name="total">    9.11    9.18</time>
   <energy>
    <i name="e_fr_energy">   -139.69990623 </i>
    <i name="e_wo_entrp">   -139.69564719 </i>
    <i name="e_0_energy">   -139.69777671 </i>
   </energy>
  </scstep>
  <scstep>
   <time name="dav">   10.33   10.40</time>
   <time name="total">   10.66   10.74</time>
   <energy>
    <i name="e_fr_energy">   -139.68848447 </i>
    <i name="e_wo_entrp">   -139.68468663 </i>
    <i name="e_0_energy">   -139.68658555 </i>
   </energy>
  </scstep>
  <scstep>
   <time name="dav">    8.59    8.64</time>
   <time name="total">    8.92    8.99</time>
   <energy>
    <i name="e_fr_energy">   -139.68800217 </i>
    <i name="e_wo_entrp">   -139.68377682 </i>
    <i name="e_0_energy">   -139.68588950 </i>
   </energy>
  </scstep>
  <scstep>
   <time name="dav">    8.41    8.47</time>
   <time name="total">    8.75    8.81</time>
   <energy>
    <i name="e_fr_energy">   -139.68797835 </i>
    <i name="e_wo_entrp">   -139.68358669 </i>
    <i name="e_0_energy">   -139.68578252 </i>
   </energy>
  </scstep>
  <scstep>
   <time name="dav">    8.61    8.67</time>
   <time name="total">    8.95    9.02</time>
   <energy>
    <i name="e_fr_energy">   -139.68797075 </i>
    <i name="e_wo_entrp">   -139.68359432 </i>
    <i name="e_0_energy">   -139.68578253 </i>
   </energy>
  </scstep>
  <scstep>
   <time name="dav">    8.34    8.40</time>
   <time name="total">    8.68    8.75</time>
   <energy>
    <i name="e_fr_energy">   -139.68799178 </i>
    <i name="e_wo_entrp">   -139.68360918 </i>
    <i name="e_0_energy">   -139.68580048 </i>
   </energy>
  </scstep>
  <scstep>
   <time name="dav">    8.28    8.34</time>
   <time name="total">    8.62    8.68</time>
   <energy>
    <i name="e_fr_energy">   -139.68800749 </i>
    <i name="e_wo_entrp">   -139.68361473 </i>
    <i name="e_0_energy">   -139.68581111 </i>
   </energy>
  </scstep>
  <scstep>
   <time name="dav">    7.21    7.26</time>
   <time name="total">    7.55    7.61</time>
   <energy>
    <i name="e_fr_energy">   -139.68804759 </i>
    <i name="e_wo_entrp">   -139.68363787 </i>
    <i name="e_0_energy">   -139.68584273 </i>
   </energy>
  </scstep>
  <scstep>
   <time name="dav">    9.51    9.56</time>
   <time name="total">    9.84    9.91</time>
   <energy>
    <i name="e_fr_energy">   -139.68805941 </i>
    <i name="e_wo_entrp">   -139.68365224 </i>
    <i name="e_0_energy">   -139.68585582 </i>
   </energy>
  </scstep>
  <scstep>
   <time name="dav">    7.16    7.20</time>
   <time name="total">    7.49    7.55</time>
   <energy>
    <i name="e_fr_energy">   -139.68807420 </i>
    <i name="e_wo_entrp">   -139.68367117 </i>
    <i name="e_0_energy">   -139.68587268 </i>
   </energy>
  </scstep>
  <scstep>
   <time name="dav">    6.98    7.03</time>
   <time name="total">    7.31    7.38</time>
   <energy>
    <i name="e_fr_energy">   -139.68808351 </i>
    <i name="e_wo_entrp">   -139.68368088 </i>
    <i name="e_0_energy">   -139.68588220 </i>
   </energy>
  </scstep>
  <scstep>
   <time name="dav">    8.19    8.24</time>
   <time name="total">    8.52    8.59</time>
   <energy>
    <i name="e_fr_energy">   -139.68808524 </i>
    <i name="e_wo_entrp">   -139.68368179 </i>
    <i name="e_0_energy">   -139.68588352 </i>
   </energy>
  </scstep>
  <scstep>
   <time name="dav">    6.48    6.52</time>
   <time name="total">    6.81    6.87</time>
   <energy>
    <i name="e_fr_energy">   -139.68808626 </i>
    <i name="e_wo_entrp">   -139.68368224 </i>
    <i name="e_0_energy">   -139.68588425 </i>
   </energy>
  </scstep>
  <scstep>
   <time name="dav">    7.53    7.58</time>
   <time name="total">    7.56    7.61</time>
   <energy>
    <i name="alphaZ">     64.67582166 </i>
    <i name="ewald">   5590.86156018 </i>
    <i name="hartreedc">  -7645.39091132 </i>
    <i name="XCdc">    208.25999140 </i>
    <i name="pawpsdc">   6760.22512269 </i>
    <i name="pawaedc">  -6768.42666190 </i>
    <i name="eentropy">     -0.00440378 </i>
    <i name="bandstr">   -552.24753294 </i>
    <i name="atom">   2202.35892741 </i>
    <i name="e_fr_energy">   -139.68808659 </i>
    <i name="e_wo_entrp">   -139.68368281 </i>
    <i name="e_0_energy">   -139.68588470 </i>
   </energy>
  </scstep>
  <structure>
   <crystal>
    <varray name="basis" >
     <v>       4.29548600       2.48000000       0.00000000 </v>
     <v>      -4.29548600       2.48000000       0.00000000 </v>
     <v>       0.00000000       0.00000000      15.00000000 </v>
    </varray>
    <i name="volume">    319.58415861 </i>
    <varray name="rec_basis" >
     <v>       0.11640126       0.20161290       0.00000000 </v>
     <v>      -0.11640126       0.20161290       0.00000000 </v>
     <v>       0.00000000       0.00000000       0.06666667 </v>
    </varray>
   </crystal>
   <varray name="positions" >
    <v>       0.33832976       0.66916385       0.10014016 </v>
    <v>       0.67168025       0.33581000       0.10014016 </v>
    <v>       0.16958329       0.33170292       0.09995781 </v>
    <v>       0.33419824       0.16710802       0.09995748 </v>
    <v>       0.16961639       0.83790033       0.09995782 </v>
    <v>       0.84037521       0.16708432       0.09995834 </v>
    <v>       0.67581833       0.83791040       0.09995856 </v>
    <v>       0.84040280       0.67332017       0.09995833 </v>
    <v>       0.16636910       0.33273519       0.32886133 </v>
    <v>       0.33273499       0.16636822       0.32886190 </v>
    <v>       0.16636914       0.83363154       0.32886132 </v>
    <v>       0.33332680       0.66666413       0.32860372 </v>
    <v>       0.66666152       0.33332961       0.32860372 </v>
    <v>       0.83363154       0.16636958       0.32886002 </v>
    <v>       0.66726312       0.83363039       0.32885930 </v>
    <v>       0.83363151       0.66726333       0.32886004 </v>
   </varray>
  </structure>
  <varray name="forces" >
   <v>       0.00219179       0.00200086       0.01189920 </v>
   <v>      -0.01405657       0.00258684       0.01189495 </v>
   <v>       1.61405843      -2.78892449      -0.00198320 </v>
   <v>      -1.60861684      -2.78783612      -0.00200637 </v>
   <v>      -3.22639927      -0.00018689      -0.00199952 </v>
   <v>       3.22622307       0.00567021      -0.00188598 </v>
   <v>       1.60840318       2.78235277      -0.00182248 </v>
   <v>      -1.60129192       2.78520682      -0.00185370 </v>
   <v>      -0.07432829       0.12662316      -0.00090392 </v>
   <v>       0.07373869       0.12672954      -0.00088590 </v>
   <v>       0.14596943      -0.00057461      -0.00088927 </v>
   <v>       0.00108718       0.00092119      -0.00335569 </v>
   <v>      -0.00000043       0.00090272      -0.00336006 </v>
   <v>      -0.14633326      -0.00065295      -0.00092818 </v>
   <v>      -0.07406794      -0.12732586      -0.00096709 </v>
   <v>       0.07342277      -0.12749320      -0.00095280 </v>
  </varray>
  <varray name="stress" >
   <v>      81.44217887      -0.01245243      -0.00723227 </v>
   <v>      -0.01245246      81.36852700      -0.01245674 </v>
   <v>      -0.00723224      -0.01245673      -2.63856594 </v>
  </varray>
  <energy>
   <i name="e_fr_energy">   -141.60074109 </i>
   <i name="e_wo_entrp">   -141.59633731 </i>
   <i name="e_0_energy">   -141.59853920 </i>
  </energy>
  <time name="totalsc">  130.12  131.12</time>
 </calculation>
 <calculation>
  <scstep>
   <time name="dav">    5.68    5.72</time>
   <time name="total">    6.02    6.07</time>
   <energy>
    <i name="alphaZ">     64.67582166 </i>
    <i name="ewald">   5600.87146174 </i>
    <i name="hartreedc">  -7652.32170911 </i>
    <i name="XCdc">    208.41754288 </i>
    <i name="pawpsdc">   6760.23204589 </i>
    <i name="pawaedc">  -6768.43358629 </i>
    <i name="eentropy">     -0.00164164 </i>
    <i name="bandstr">   -555.95661922 </i>
    <i name="atom">   2202.35892741 </i>
    <i name="e_fr_energy">   -140.15775669 </i>
    <i name="e_wo_entrp">   -140.15611506 </i>
    <i name="e_0_energy">   -140.15693588 </i>
   </energy>
  </scstep>
  <scstep>
   <time name="dav">    9.15    9.21</time>
   <time name="total">    9.48    9.55</time>
   <energy>
    <i name="e_fr_energy">   -140.07807324 </i>
    <i name="e_wo_entrp">   -140.07597941 </i>
    <i name="e_0_energy">   -140.07702633 </i>
   </energy>
  </scstep>
  <scstep>
   <time name="dav">   10.16   10.22</time>
   <time name="total">   10.49   10.57</time>
   <energy>
    <i name="e_fr_energy">   -140.06934627 </i>
    <i name="e_wo_entrp">   -140.06666698 </i>
    <i name="e_0_energy">   -140.06800662 </i>
   </energy>
  </scstep>
  <scstep>
   <time name="dav">    7.61    7.65</time>
   <time name="total">    7.94    8.00</time>
   <energy>
    <i name="e_fr_energy">   -140.06902738 </i>
    <i name="e_wo_entrp">   -140.06633017 </i>
    <i name="e_0_energy">   -140.06767878 </i>
   </energy>
  </scstep>
  <scstep>
   <time name="dav">    8.12    8.17</time>
   <time name="total">    8.46    8.52</time>
   <energy>
    <i name="e_fr_energy">   -140.06901075 </i>
    <i name="e_wo_entrp">   -140.06621323 </i>
    <i name="e_0_energy">   -140.06761199 </i>
   </energy>
  </scstep>
  <scstep>
   <time name="dav">    8.28    8.33</time>
   <time name="total">    8.61    8.68</time>
   <energy>
    <i name="e_fr_energy">   -140.06899944 </i>
    <i name="e_wo_entrp">   -140.06621940 </i>
    <i name="e_0_energy">   -140.06760942 </i>
   </energy>
  </scstep>
  <scstep>
   <time name="dav">    8.93    8.99</time>
   <time name="total">    9.26    9.33</time>
   <energy>
    <i name="e_fr_energy">   -140.06901049 </i>
    <i name="e_wo_entrp">   -140.06623638 </i>
    <i name="e_0_energy">   -140.06762344 </i>
   </energy>
  </scstep>
  <scstep>
   <time name="dav">    9.30    9.36</time>
   <time name="total">    9.63    9.71</time>
   <energy>
    <i name="e_fr_energy">   -140.06902272 </i>
    <i name="e_wo_entrp">   -140.06624573 </i>
    <i name="e_0_energy">   -140.06763423 </i>
   </energy>
  </scstep>
  <scstep>
   <time name="dav">    8.32    8.39</time>
   <time name="total">    8.66    8.73</time>
   <energy>
    <i name="e_fr_energy">   -140.06904319 </i>
    <i name="e_wo_entrp">   -140.06626094 </i>
    <i name="e_0_energy">   -140.06765207 </i>
   </energy>
  </scstep>
  <scstep>
   <time name="dav">    8.12    8.17</time>
   <time name="total">    8.46    8.52</time>
   <energy>
    <i name="e_fr_energy">   -140.06905647 </i>
    <i name="e_wo_entrp">   -140.06627329 </i>
    <i name="e_0_energy">   -140.06766488 </i>
   </energy>
  </scstep>
  <scstep>
   <time name="dav">    6.73    6.77</time>
   <time name="total">    7.06    7.12</time>
   <energy>
    <i name="e_fr_energy">   -140.06906567 </i>
    <i name="e_wo_entrp">   -140.06628237 </i>
    <i name="e_0_energy">   -140.06767402 </i>
   </energy>
  </scstep>
  <scstep>
   <time name="dav">    6.24    6.29</time>
   <time name="total">    6.57    6.63</time>
   <energy>
    <i name="e_fr_energy">   -140.06906993 </i>
    <i name="e_wo_entrp">   -140.06628637 </i>
    <i name="e_0_energy">   -140.06767815 </i>
   </energy>
  </scstep>
  <scstep>
   <time name="dav">    9.64    9.70</time>
   <time name="total">    9.68    9.73</time>
   <energy>
    <i name="alphaZ">     64.67582166 </i>
    <i name="ewald">   5600.87146174 </i>
    <i name="hartreedc">  -7656.24639615 </i>
    <i name="XCdc">    208.57292575 </i>
    <i name="pawpsdc">   6797.37915051 </i>
    <i name="pawaedc">  -6805.59157481 </i>
    <i name="eentropy">     -0.00278368 </i>
    <i name="bandstr">   -552.08660307 </i>
    <i name="atom">   2202.35892741 </i>
    <i name="e_fr_energy">   -140.06907065 </i>
    <i name="e_wo_entrp">   -140.06628696 </i>
    <i name="e_0_energy">   -140.06767880 </i>
   </energy>
  </scstep>
  <structure>
   <crystal>
    <varray name="basis" >
     <v>       4.29548600       2.48000000       0.00000000 </v>
     <v>      -4.29548600       2.48000000       0.00000000 </v>
     <v>       0.00000000       0.00000000      15.00000000 </v>
    </varray>
    <i name="volume">    319.58415861 </i>
    <varray name="rec_basis" >
     <v>       0.11640126       0.20161290       0.00000000 </v>
     <v>      -0.11640126       0.20161290       0.00000000 </v>
     <v>       0.00000000       0.00000000       0.06666667 </v>
    </varray>
   </crystal>
   <varray name="positions" >
    <v>       0.33833020       0.66916421       0.10003339 </v>
    <v>       0.67166118       0.33583397       0.10003339 </v>
    <v>       0.16513161       0.32278765       0.09998995 </v>
    <v>       0.32528849       0.16265617       0.09998987 </v>
    <v>       0.16515842       0.84236700       0.09998995 </v>
    <v>       0.84484182       0.16262986       0.09999008 </v>
    <v>       0.68471599       0.84234362       0.09999013 </v>
    <v>       0.84487027       0.68221447       0.09999007 </v>
    <v>       0.16659527       0.33319059       0.32881461 </v>
    <v>       0.33319054       0.16659506       0.32881475 </v>
    <v>       0.16659528       0.83340412       0.32881461 </v>
    <v>       0.33333152       0.66666555       0.32875324 </v>
    <v>       0.66666493       0.33333219       0.32875324 </v>
    <v>       0.83340412       0.16659538       0.32881430 </v>
    <v>       0.66680825       0.83340385       0.32881413 </v>
    <v>       0.83340411       0.66680830       0.32881430 </v>
   </varray>
  </structure>
  <varray name="forces" >
   <v>       0.00051100       0.00035606       0.03420057 </v>
   <v>       0.00093906       0.00016254       0.03419880 </v>
   <v>       0.00175895      -0.00306468      -0.00990193 </v>
   <v>      -0.00128010      -0.00345160      -0.00999446 </v>
   <v>      -0.00384383      -0.00070918      -0.00990083 </v>
   <v>       0.00375404       0.00100017      -0.00974399 </v>
   <v>       0.00048981       0.00337859      -0.00969511 </v>
   <v>      -0.00198396       0.00290097      -0.00974380 </v>
   <v>       0.00284256      -0.00507094       0.01447481 </v>
   <v>      -0.00291980      -0.00508716       0.01461510 </v>
   <v>      -0.00584572      -0.00005672       0.01447528 </v>
   <v>      -0.00002971      -0.00008215      -0.04764061 </v>
   <v>      -0.00006302      -0.00007927      -0.04764116 </v>
   <v>       0.00574577      -0.00005669       0.01415841 </v>
   <v>       0.00282341       0.00492319       0.01398121 </v>
   <v>      -0.00289847       0.00493688       0.01415771 </v>
  </varray>
  <varray name="stress" >
   <v>      88.92820087      -0.00094532      -0.00888026 </v>
   <v>      -0.00094533      88.92548498      -0.01536507 </v>
   <v>      -0.00888028      -0.01536506      -2.56642116 </v>
  </varray>
  <energy>
   <i name="e_fr_energy">   -141.97470229 </i>
   <i name="e_wo_entrp">   -141.97191861 </i>
   <i name="e_0_energy">   -141.97331045 </i>
  </energy>
  <time name="totalsc">  115.53  116.42</time>
 </calculation>
 <calculation>
  <scstep>
   <time name="dav">    6.92    6.97</time>
   <time name="total">    7.26    7.32</time>
   <energy>
    <i name="alphaZ">     64.67582166 </i>
    <i name="ewald">   5600.87693195 </i>
    <i name="hartreedc">  -7656.25233832 </i>
    <i name="XCdc">    208.57301862 </i>
    <i name="pawpsdc">   6797.38634223 </i>
    <i name="pawaedc">  -6805.59875738 </i>
    <i name="eentropy">     -0.00278258 </i>
    <i name="bandstr">   -552.08623986 </i>
    <i name="atom">   2202.35892741 </i>
    <i name="e_fr_energy">   -140.06907627 </i>
    <i name="e_wo_entrp">   -140.06629369 </i>
    <i name="e_0_energy">   -140.06768498 </i>
   </energy>
  </scstep>
  <scstep>
   <time name="dav">   10.78   10.85</time>
   <time name="total">   10.82   10.88</time>
   <energy>
    <i name="alphaZ">     64.67582166 </i>
    <i name="ewald">   5600.87693195 </i>
    <i name="hartreedc">  -7656.25423029 </i>
    <i name="XCdc">    208.57307960 </i>
    <i name="pawpsdc">   6797.40328819 </i>
    <i name="pawaedc">  -6805.61571160 </i>
    <i name="eentropy">     -0.00278296 </i>
    <i name="bandstr">   -552.08440031 </i>
    <i name="atom">   2202.35892741 </i>
    <i name="e_fr_energy">   -140.06907635 </i>
    <i name="e_wo_entrp">   -140.06629339 </i>
    <i name="e_0_energy">   -140.06768487 </i>
   </energy>
  </scstep>
  <structure>
   <crystal>
    <varray name="basis" >
     <v>       4.29548600       2.48000000       0.00000000 </v>
     <v>      -4.29548600       2.48000000       0.00000000 </v>
     <v>       0.00000000       0.00000000      15.00000000 </v>
    </varray>
    <i name="volume">    319.58415861 </i>
    <varray name="rec_basis" >
     <v>       0.11640126       0.20161290       0.00000000 </v>
     <v>      -0.11640126       0.20161290       0.00000000 </v>
     <v>       0.00000000       0.00000000       0.06666667 </v>
    </varray>
   </crystal>
   <varray name="positions" >
    <v>       0.33833020       0.66916421       0.10003334 </v>
    <v>       0.67166117       0.33583398       0.10003334 </v>
    <v>       0.16512964       0.32278369       0.09998996 </v>
    <v>       0.32528453       0.16265419       0.09998988 </v>
    <v>       0.16515644       0.84236898       0.09998997 </v>
    <v>       0.84484380       0.16262789       0.09999009 </v>
    <v>       0.68471993       0.84234559       0.09999014 </v>
    <v>       0.84487225       0.68221842       0.09999009 </v>
    <v>       0.16659537       0.33319079       0.32881459 </v>
    <v>       0.33319074       0.16659516       0.32881473 </v>
    <v>       0.16659538       0.83340402       0.32881459 </v>
    <v>       0.33333152       0.66666555       0.32875331 </v>
    <v>       0.66666494       0.33333219       0.32875331 </v>
    <v>       0.83340402       0.16659549       0.32881428 </v>
    <v>       0.66680805       0.83340375       0.32881411 </v>
    <v>       0.83340401       0.66680810       0.32881428 </v>
   </varray>
  </structure>
  <varray name="forces" >
   <v>       0.00051034       0.00035555       0.03421106 </v>
   <v>       0.00094468       0.00016190       0.03420928 </v>
   <v>       0.00110302      -0.00193072      -0.00990329 </v>
   <v>      -0.00062588      -0.00231761      -0.00999585 </v>
   <v>      -0.00253189      -0.00070920      -0.00990221 </v>
   <v>       0.00244307       0.00099787      -0.00974539 </v>
   <v>      -0.00016459       0.00224736      -0.00969643 </v>
   <v>      -0.00133360       0.00176788      -0.00974513 </v>
   <v>       0.00287646      -0.00512891       0.01447997 </v>
   <v>      -0.00295355      -0.00514523       0.01462033 </v>
   <v>      -0.00591260      -0.00005653       0.01448045 </v>
   <v>      -0.00003021      -0.00008265      -0.04766231 </v>
   <v>      -0.00006311      -0.00007972      -0.04766286 </v>
   <v>       0.00581267      -0.00005641       0.01416345 </v>
   <v>       0.00285717       0.00498131       0.01398618 </v>
   <v>      -0.00293198       0.00499512       0.01416275 </v>
  </varray>
  <varray name="stress" >
   <v>      88.93499541      -0.00094236      -0.00888122 </v>
   <v>      -0.00094237      88.93228198      -0.01536627 </v>
   <v>      -0.00888123      -0.01536630      -2.56335255 </v>
  </varray>
  <energy>
   <i name="e_fr_energy">   -141.97470301 </i>
   <i name="e_wo_entrp">   -141.97192005 </i>
   <i name="e_0_energy">   -141.97331153 </i>
  </energy>
  <time name="totalsc">   23.28   23.44</time>
 </calculation>
 <calculation>
  <scstep>
   <time name="dav">    5.67    5.70</time>
   <time name="total">    6.00    6.05</time>
   <energy>
    <i name="alphaZ">     64.67582166 </i>
    <i name="ewald">   5600.89252855 </i>
    <i name="hartreedc">  -7656.26837939 </i>
    <i name="XCdc">    208.57344539 </i>
    <i name="pawpsdc">   6797.40816762 </i>
    <i name="pawaedc">  -6805.62059656 </i>
    <i name="eentropy">     -0.00277577 </i>
    <i name="bandstr">   -552.08641138 </i>
    <i name="atom">   2202.35892741 </i>
    <i name="e_fr_energy">   -140.06927247 </i>
    <i name="e_wo_entrp">   -140.06649670 </i>
    <i name="e_0_energy">   -140.06788458 </i>
   </energy>
  </scstep>
  <scstep>
   <time name="dav">   10.44   10.51</time>
   <time name="total">   10.77   10.85</time>
   <energy>
    <i name="e_fr_energy">   -140.06927512 </i>
    <i name="e_wo_entrp">   -140.06650203 </i>
    <i name="e_0_energy">   -140.06788858 </i>
   </energy>
  </scstep>
  <scstep>
   <time name="dav">    5.78    5.82</time>
   <time name="total">    6.11    6.16</time>
   <energy>
    <i name="e_fr_energy">   -140.06927687 </i>
    <i name="e_wo_entrp">   -140.06650677 </i>
    <i name="e_0_energy">   -140.06789182 </i>
   </energy>
  </scstep>
  <scstep>
   <time name="dav">   10.46   10.52</time>
   <time name="total">   10.49   10.55</time>
   <energy>
    <i name="alphaZ">     64.67582166 </i>
    <i name="ewald">   5600.89252855 </i>
    <i name="hartreedc">  -7656.25010904 </i>
    <i name="XCdc">    208.57333481 </i>
    <i name="pawpsdc">   6797.33035582 </i>
    <i name="pawaedc">  -6805.54277401 </i>
    <i name="eentropy">     -0.00276981 </i>
    <i name="bandstr">   -552.10459237 </i>
    <i name="atom">   2202.35892741 </i>
    <i name="e_fr_energy">   -140.06927698 </i>
    <i name="e_wo_entrp">   -140.06650718 </i>
    <i name="e_0_energy">   -140.06789208 </i>
   </energy>
  </scstep>
  <structure>
   <crystal>
    <varray name="basis" >
     <v>       4.29548600       2.48000000       0.00000000 </v>
     <v>      -4.29548600       2.48000000       0.00000000 </v>
     <v>       0.00000000       0.00000000      15.00000000 </v>
    </varray>
    <i name="volume">    319.58415861 </i>
    <varray name="rec_basis" >
     <v>       0.11640126       0.20161290       0.00000000 </v>
     <v>      -0.11640126       0.20161290       0.00000000 </v>
     <v>       0.00000000       0.00000000       0.06666667 </v>
    </varray>
   </crystal>
   <varray name="positions" >
    <v>       0.33833556       0.66916471       0.10012678 </v>
    <v>       0.67166703       0.33583077       0.10012678 </v>
    <v>       0.16512656       0.32277773       0.09996291 </v>
    <v>       0.32527764       0.16264566       0.09996258 </v>
    <v>       0.16514614       0.84236757       0.09996292 </v>
    <v>       0.84485604       0.16263208       0.09996347 </v>
    <v>       0.68472251       0.84235734       0.09996366 </v>
    <v>       0.84487286       0.68222418       0.09996347 </v>
    <v>       0.16656639       0.33313404       0.32885414 </v>
    <v>       0.33313349       0.16656642       0.32885466 </v>
    <v>       0.16656639       0.83343208       0.32885414 </v>
    <v>       0.33333069       0.66666501       0.32862313 </v>
    <v>       0.66666397       0.33333183       0.32862313 </v>
    <v>       0.83343161       0.16656697       0.32885296 </v>
    <v>       0.66686349       0.83343160       0.32885231 </v>
    <v>       0.83343162       0.66686401       0.32885297 </v>
   </varray>
  </structure>
  <varray name="forces" >
   <v>      -0.00140510      -0.00067389       0.02025136 </v>
   <v>      -0.00114257      -0.00015496       0.02024959 </v>
   <v>       0.00214863       0.00165034      -0.00498488 </v>
   <v>      -0.00013818       0.00027832      -0.00508298 </v>
   <v>       0.00099018       0.00019757      -0.00498745 </v>
   <v>      -0.00031304      -0.00066577      -0.00481921 </v>
   <v>       0.00217481       0.00082572      -0.00475854 </v>
   <v>      -0.00199003      -0.00090172      -0.00482625 </v>
   <v>      -0.00623632       0.01069184       0.00295882 </v>
   <v>       0.00613545       0.01072441       0.00304428 </v>
   <v>       0.01246238      -0.00010104       0.00295912 </v>
   <v>      -0.00008290      -0.00004481      -0.01411898 </v>
   <v>       0.00001957      -0.00005232      -0.01411987 </v>
   <v>      -0.01251864      -0.00009999       0.00277730 </v>
   <v>      -0.00619687      -0.01082495       0.00268158 </v>
   <v>       0.00609261      -0.01084875       0.00277611 </v>
  </varray>
  <varray name="stress" >
   <v>      88.93717957       0.00471346      -0.00867275 </v>
   <v>       0.00471344      88.95608585      -0.01501680 </v>
   <v>      -0.00867273      -0.01501681      -2.60281683 </v>
  </varray>
  <energy>
   <i name="e_fr_energy">   -141.97494403 </i>
   <i name="e_wo_entrp">   -141.97217422 </i>
   <i name="e_0_energy">   -141.97355913 </i>
  </energy>
  <time name="totalsc">   38.57   38.85</time>
 </calculation>
 <calculation>
  <scstep>
   <time name="dav">    5.69    5.73</time>
   <time name="total">    6.02    6.07</time>
   <energy>
    <i name="alphaZ">     64.67582166 </i>
    <i name="ewald">   5600.89779025 </i>
    <i name="hartreedc">  -7656.25126774 </i>
    <i name="XCdc">    208.57343429 </i>
    <i name="pawpsdc">   6797.35697395 </i>
    <i name="pawaedc">  -6805.56939119 </i>
    <i name="eentropy">     -0.00276607 </i>
    <i name="bandstr">   -552.10880665 </i>
    <i name="atom">   2202.35892741 </i>
    <i name="e_fr_energy">   -140.06928410 </i>
    <i name="e_wo_entrp">   -140.06651802 </i>
    <i name="e_0_energy">   -140.06790106 </i>
   </energy>
  </scstep>
  <scstep>
   <time name="dav">   10.15   10.21</time>
   <time name="total">   10.48   10.56</time>
   <energy>
    <i name="e_fr_energy">   -140.06928463 </i>
    <i name="e_wo_entrp">   -140.06651993 </i>
    <i name="e_0_energy">   -140.06790228 </i>
   </energy>
  </scstep>
  <scstep>
   <time name="dav">    7.10    7.15</time>
   <time name="total">    7.14    7.19</time>
   <energy>
    <i name="alphaZ">     64.67582166 </i>
    <i name="ewald">   5600.89779025 </i>
    <i name="hartreedc">  -7656.23895648 </i>
    <i name="XCdc">    208.57335611 </i>
    <i name="pawpsdc">   6797.35563429 </i>
    <i name="pawaedc">  -6805.56805116 </i>
    <i name="eentropy">     -0.00276307 </i>
    <i name="bandstr">   -552.12104436 </i>
    <i name="atom">   2202.35892741 </i>
    <i name="e_fr_energy">   -140.06928536 </i>
    <i name="e_wo_entrp">   -140.06652229 </i>
    <i name="e_0_energy">   -140.06790382 </i>
   </energy>
  </scstep>
  <structure>
   <crystal>
    <varray name="basis" >
     <v>       4.29548600       2.48000000       0.00000000 </v>
     <v>      -4.29548600       2.48000000       0.00000000 </v>
     <v>       0.00000000       0.00000000      15.00000000 </v>
    </varray>
    <i name="volume">    319.58415861 </i>
    <varray name="rec_basis" >
     <v>       0.11640126       0.20161290       0.00000000 </v>
     <v>      -0.11640126       0.20161290       0.00000000 </v>
     <v>       0.00000000       0.00000000       0.06666667 </v>
    </varray>
   </crystal>
   <varray name="positions" >
    <v>       0.33833804       0.66916494       0.10017003 </v>
    <v>       0.67166975       0.33582929       0.10017002 </v>
    <v>       0.16512514       0.32277496       0.09995039 </v>
    <v>       0.32527444       0.16264170       0.09994994 </v>
    <v>       0.16514138       0.84236692       0.09995040 </v>
    <v>       0.84486170       0.16263402       0.09995115 </v>
    <v>       0.68472370       0.84236278       0.09995140 </v>
    <v>       0.84487314       0.68222684       0.09995115 </v>
    <v>       0.16655298       0.33310777       0.32887245 </v>
    <v>       0.33310699       0.16655311       0.32887314 </v>
    <v>       0.16655297       0.83344507       0.32887245 </v>
    <v>       0.33333031       0.66666476       0.32856287 </v>
    <v>       0.66666353       0.33333166       0.32856287 </v>
    <v>       0.83344438       0.16655377       0.32887087 </v>
    <v>       0.66688915       0.83344449       0.32886999 </v>
    <v>       0.83344440       0.66688988       0.32887087 </v>
   </varray>
  </structure>
  <varray name="forces" >
   <v>      -0.00226543      -0.00113287       0.01379893 </v>
   <v>      -0.00216201      -0.00030568       0.01379978 </v>
   <v>       0.00269148       0.00329406      -0.00273343 </v>
   <v>       0.00005966       0.00145833      -0.00283559 </v>
   <v>       0.00256032       0.00062985      -0.00273841 </v>
   <v>      -0.00154101      -0.00145094      -0.00256653 </v>
   <v>       0.00330700       0.00016591      -0.00251121 </v>
   <v>      -0.00231495      -0.00211546      -0.00258457 </v>
   <v>      -0.01071689       0.01846638      -0.00242195 </v>
   <v>       0.01060051       0.01852235      -0.00236181 </v>
   <v>       0.02148545      -0.00012159      -0.00242264 </v>
   <v>      -0.00011061      -0.00002772       0.00163073 </v>
   <v>       0.00005357      -0.00004036       0.00162946 </v>
   <v>      -0.02152443      -0.00011969      -0.00254117 </v>
   <v>      -0.01064968      -0.01859015      -0.00259898 </v>
   <v>       0.01052701      -0.01863242      -0.00254262 </v>
  </varray>
  <varray name="stress" >
   <v>      88.93783764       0.00715959      -0.00859643 </v>
   <v>       0.00715960      88.96584588      -0.01485983 </v>
   <v>      -0.00859644      -0.01485984      -2.61548503 </v>
  </varray>
  <energy>
   <i name="e_fr_energy">   -141.97497132 </i>
   <i name="e_wo_entrp">   -141.97220825 </i>
   <i name="e_0_energy">   -141.97358979 </i>
  </energy>
  <time name="totalsc">   28.84   29.05</time>
 </calculation>
 <calculation>
  <scstep>
   <time name="dav">    6.89    6.93</time>
   <time name="total">    7.22    7.27</time>
   <energy>
    <i name="alphaZ">     64.67582166 </i>
    <i name="ewald">   5601.08637934 </i>
    <i name="hartreedc">  -7656.42797181 </i>
    <i name="XCdc">    208.57334238 </i>
    <i name="pawpsdc">   6797.36324749 </i>
    <i name="pawaedc">  -6805.57566239 </i>
    <i name="eentropy">     -0.00276575 </i>
    <i name="bandstr">   -552.12047226 </i>
    <i name="atom">   2202.35892741 </i>
    <i name="e_fr_energy">   -140.06915394 </i>
    <i name="e_wo_entrp">   -140.06638818 </i>
    <i name="e_0_energy">   -140.06777106 </i>
   </energy>
  </scstep>
  <scstep>
   <time name="dav">    7.68    7.73</time>
   <time name="total">    8.02    8.08</time>
   <energy>
    <i name="e_fr_energy">   -140.06914214 </i>
    <i name="e_wo_entrp">   -140.06637831 </i>
    <i name="e_0_energy">   -140.06776022 </i>
   </energy>
  </scstep>
  <scstep>
   <time name="dav">    8.17    8.23</time>
   <time name="total">    8.51    8.57</time>
   <energy>
    <i name="e_fr_energy">   -140.06914157 </i>
    <i name="e_wo_entrp">   -140.06637998 </i>
    <i name="e_0_energy">   -140.06776078 </i>
   </energy>
  </scstep>
  <scstep>
   <time name="dav">    9.09    9.14</time>
   <time name="total">    9.42    9.49</time>
   <energy>
    <i name="e_fr_energy">   -140.06914164 </i>
    <i name="e_wo_entrp">   -140.06638072 </i>
    <i name="e_0_energy">   -140.06776118 </i>
   </energy>
  </scstep>
  <scstep>
   <time name="dav">    7.48    7.52</time>
   <time name="total">    7.51    7.56</time>
   <energy>
    <i name="alphaZ">     64.67582166 </i>
    <i name="ewald">   5601.08637934 </i>
    <i name="hartreedc">  -7656.39538181 </i>
    <i name="XCdc">    208.57299291 </i>
    <i name="pawpsdc">   6797.26748026 </i>
    <i name="pawaedc">  -6805.47985063 </i>
    <i name="eentropy">     -0.00276025 </i>
    <i name="bandstr">   -552.15275053 </i>
    <i name="atom">   2202.35892741 </i>
    <i name="e_fr_energy">   -140.06914164 </i>
    <i name="e_wo_entrp">   -140.06638139 </i>
    <i name="e_0_energy">   -140.06776151 </i>
   </energy>
  </scstep>
  <structure>
   <crystal>
    <varray name="basis" >
     <v>       4.29548600       2.48000000       0.00000000 </v>
     <v>      -4.29548600       2.48000000       0.00000000 </v>
     <v>       0.00000000       0.00000000      15.00000000 </v>
    </varray>
    <i name="volume">    319.58415861 </i>
    <varray name="rec_basis" >
     <v>       0.11640126       0.20161290       0.00000000 </v>
     <v>      -0.11640126       0.20161290       0.00000000 </v>
     <v>       0.00000000       0.00000000       0.06666667 </v>
    </varray>
   </crystal>
   <varray name="positions" >
    <v>       0.33831824       0.66916672       0.10024911 </v>
    <v>       0.67165814       0.33583648       0.10024910 </v>
    <v>       0.16516755       0.32278821       0.09993125 </v>
    <v>       0.32528509       0.16265106       0.09993040 </v>
    <v>       0.16515618       0.84235871       0.09993125 </v>
    <v>       0.84484560       0.16263067       0.09993268 </v>
    <v>       0.68474344       0.84235186       0.09993315 </v>
    <v>       0.84484230       0.68222217       0.09993263 </v>
    <v>       0.16665180       0.33330676       0.32888131 </v>
    <v>       0.33330567       0.16665313       0.32888234 </v>
    <v>       0.16665181       0.83334366       0.32888131 </v>
    <v>       0.33332914       0.66666487       0.32851481 </v>
    <v>       0.66666305       0.33333088       0.32851480 </v>
    <v>       0.83334258       0.16665303       0.32887903 </v>
    <v>       0.66668886       0.83334375       0.32887778 </v>
    <v>       0.83334255       0.66669005       0.32887902 </v>
   </varray>
  </structure>
  <varray name="forces" >
   <v>       0.00669466       0.00438973       0.00195494 </v>
   <v>       0.00201080       0.00017765       0.00196239 </v>
   <v>      -0.00942017      -0.00954201       0.00119078 </v>
   <v>       0.00508362      -0.00318146       0.00111293 </v>
   <v>      -0.00960699      -0.00384572       0.00118792 </v>
   <v>       0.00639804       0.00762254       0.00136254 </v>
   <v>      -0.01273753      -0.00255667       0.00147909 </v>
   <v>       0.01188900       0.00747525       0.00136446 </v>
   <v>       0.02258978      -0.03950410      -0.00607844 </v>
   <v>      -0.02259887      -0.03962159      -0.00606215 </v>
   <v>      -0.04592824       0.00005031      -0.00607884 </v>
   <v>       0.00018553      -0.00016364       0.01245560 </v>
   <v>      -0.00033004      -0.00012556       0.01245895 </v>
   <v>       0.04576699       0.00003678      -0.00610195 </v>
   <v>       0.02245175       0.03936015      -0.00610859 </v>
   <v>      -0.02244833       0.03942834      -0.00609962 </v>
  </varray>
  <varray name="stress" >
   <v>      88.99947483      -0.03160058      -0.00854440 </v>
   <v>      -0.03160056      88.87178070      -0.01491945 </v>
   <v>      -0.00854444      -0.01491945      -2.61517718 </v>
  </varray>
  <energy>
   <i name="e_fr_energy">   -141.97491192 </i>
   <i name="e_wo_entrp">   -141.97215167 </i>
   <i name="e_0_energy">   -141.97353179 </i>
  </energy>
  <time name="totalsc">   45.86   46.20</time>
 </calculation>
 <calculation>
  <scstep>
   <time name="dav">    6.04    6.08</time>
   <time name="total">    6.38    6.43</time>
   <energy>
    <i name="alphaZ">     64.67582166 </i>
    <i name="ewald">   5600.96481691 </i>
    <i name="hartreedc">  -7656.26849810 </i>
    <i name="XCdc">    208.57297410 </i>
    <i name="pawpsdc">   6797.26999313 </i>
    <i name="pawaedc">  -6805.48237156 </i>
    <i name="eentropy">     -0.00275843 </i>
    <i name="bandstr">   -552.15818993 </i>
    <i name="atom">   2202.35892741 </i>
    <i name="e_fr_energy">   -140.06928480 </i>
    <i name="e_wo_entrp">   -140.06652637 </i>
    <i name="e_0_energy">   -140.06790558 </i>
   </energy>
  </scstep>
  <scstep>
   <time name="dav">    6.33    6.37</time>
   <time name="total">    6.66    6.72</time>
   <energy>
    <i name="e_fr_energy">   -140.06928059 </i>
    <i name="e_wo_entrp">   -140.06652119 </i>
    <i name="e_0_energy">   -140.06790089 </i>
   </energy>
  </scstep>
  <scstep>
   <time name="dav">    6.47    6.51</time>
   <time name="total">    6.80    6.86</time>
   <energy>
    <i name="e_fr_energy">   -140.06928047 </i>
    <i name="e_wo_entrp">   -140.06651968 </i>
    <i name="e_0_energy">   -140.06790008 </i>
   </energy>
  </scstep>
  <scstep>
   <time name="dav">    7.54    7.59</time>
   <time name="total">    7.57    7.62</time>
   <energy>
    <i name="alphaZ">     64.67582166 </i>
    <i name="ewald">   5600.96481691 </i>
    <i name="hartreedc">  -7656.27266777 </i>
    <i name="XCdc">    208.57309704 </i>
    <i name="pawpsdc">   6797.43128321 </i>
    <i name="pawaedc">  -6805.64370917 </i>
    <i name="eentropy">     -0.00276105 </i>
    <i name="bandstr">   -552.15408883 </i>
    <i name="atom">   2202.35892741 </i>
    <i name="e_fr_energy">   -140.06928059 </i>
    <i name="e_wo_entrp">   -140.06651954 </i>
    <i name="e_0_energy">   -140.06790006 </i>
   </energy>
  </scstep>
  <structure>
   <crystal>
    <varray name="basis" >
     <v>       4.29548600       2.48000000       0.00000000 </v>
     <v>      -4.29548600       2.48000000       0.00000000 </v>
     <v>       0.00000000       0.00000000      15.00000000 </v>
    </varray>
    <i name="volume">    319.58415861 </i>
    <varray name="rec_basis" >
     <v>       0.11640126       0.20161290       0.00000000 </v>
     <v>      -0.11640126       0.20161290       0.00000000 </v>
     <v>       0.00000000       0.00000000       0.06666667 </v>
    </varray>
   </crystal>
   <varray name="positions" >
    <v>       0.33833099       0.66916558       0.10019819 </v>
    <v>       0.67166561       0.33583185       0.10019818 </v>
    <v>       0.16514024       0.32277968       0.09994358 </v>
    <v>       0.32527823       0.16264504       0.09994299 </v>
    <v>       0.16514665       0.84236400       0.09994358 </v>
    <v>       0.84485597       0.16263283       0.09994458 </v>
    <v>       0.68473073       0.84235889       0.09994490 </v>
    <v>       0.84486216       0.68222518       0.09994455 </v>
    <v>       0.16658816       0.33317862       0.32887560 </v>
    <v>       0.33317773       0.16658872       0.32887642 </v>
    <v>       0.16658816       0.83340897       0.32887560 </v>
    <v>       0.33332989       0.66666480       0.32854576 </v>
    <v>       0.66666336       0.33333138       0.32854576 </v>
    <v>       0.83340814       0.16658911       0.32887378 </v>
    <v>       0.66681784       0.83340862       0.32887277 </v>
    <v>       0.83340814       0.66681874       0.32887377 </v>
   </varray>
  </structure>
  <varray name="forces" >
   <v>       0.00089600       0.00082417       0.00955820 </v>
   <v>      -0.00058565      -0.00011629       0.00956803 </v>
   <v>      -0.00166079      -0.00143180      -0.00129597 </v>
   <v>       0.00183537      -0.00031913      -0.00139966 </v>
   <v>      -0.00186156      -0.00100122      -0.00131794 </v>
   <v>       0.00138319       0.00182806      -0.00114327 </v>
   <v>      -0.00245547      -0.00066832      -0.00104878 </v>
   <v>       0.00276775       0.00142533      -0.00113063 </v>
   <v>       0.00153982      -0.00286261      -0.00365688 </v>
   <v>      -0.00161606      -0.00286857      -0.00361203 </v>
   <v>      -0.00331429      -0.00006004      -0.00365586 </v>
   <v>      -0.00000054      -0.00007533       0.00520606 </v>
   <v>      -0.00008287      -0.00007025       0.00520525 </v>
   <v>       0.00323136      -0.00006302      -0.00374414 </v>
   <v>       0.00153264       0.00272955      -0.00378627 </v>
   <v>      -0.00160889       0.00272947      -0.00374611 </v>
  </varray>
  <varray name="stress" >
   <v>      88.95943244      -0.00715820      -0.00855686 </v>
   <v>      -0.00715821      88.93019390      -0.01485842 </v>
   <v>      -0.00855686      -0.01485843      -2.60609134 </v>
  </varray>
  <energy>
   <i name="e_fr_energy">   -141.97499687 </i>
   <i name="e_wo_entrp">   -141.97223581 </i>
   <i name="e_0_energy">   -141.97361634 </i>
  </energy>
  <time name="totalsc">   32.60   32.85</time>
 </calculation>
 <calculation>
  <scstep>
   <time name="dav">    6.70    6.74</time>
   <time name="total">    7.03    7.08</time>
   <energy>
    <i name="alphaZ">     64.67582166 </i>
    <i name="ewald">   5600.96310131 </i>
    <i name="hartreedc">  -7656.27261395 </i>
    <i name="XCdc">    208.57309837 </i>
    <i name="pawpsdc">   6797.38980997 </i>
    <i name="pawaedc">  -6805.60222795 </i>
    <i name="eentropy">     -0.00276141 </i>
    <i name="bandstr">   -552.15243690 </i>
    <i name="atom">   2202.35892741 </i>
    <i name="e_fr_energy">   -140.06928150 </i>
    <i name="e_wo_entrp">   -140.06652008 </i>
    <i name="e_0_energy">   -140.06790079 </i>
   </energy>
  </scstep>
  <scstep>
   <time name="dav">   10.75   10.82</time>
   <time name="total">   10.79   10.86</time>
   <energy>
[...]
       <r>     2.5380     1.6225    34.1652 </r>
       <r>     2.6426     1.4621    34.3182 </r>
       <r>     2.7473     1.3983    34.4646 </r>
       <r>     2.8519     1.5289    34.6246 </r>
       <r>     2.9566     1.8036    34.8134 </r>
       <r>     3.0613     1.4744    34.9677 </r>
       <r>     3.1659     0.9685    35.0690 </r>
       <r>     3.2706     1.4303    35.2187 </r>
       <r>     3.3752     1.8083    35.4080 </r>
       <r>     3.4799     1.2094    35.5346 </r>
       <r>     3.5846     1.5369    35.6954 </r>
       <r>     3.6892     1.7157    35.8750 </r>
       <r>     3.7939     1.3546    36.0168 </r>
       <r>     3.8985     1.1233    36.1343 </r>
       <r>     4.0032     1.8712    36.3302 </r>
       <r>     4.1079     2.3375    36.5748 </r>
       <r>     4.2125     1.6702    36.7496 </r>
       <r>     4.3172     1.1432    36.8693 </r>
       <r>     4.4218     1.7901    37.0566 </r>
       <r>     4.5265     2.5795    37.3266 </r>
       <r>     4.6312     2.6042    37.5991 </r>
       <r>     4.7358     1.5292    37.7592 </r>
       <r>     4.8405     1.6578    37.9327 </r>
       <r>     4.9452     2.3955    38.1834 </r>
       <r>     5.0498     2.3964    38.4342 </r>
       <r>     5.1545     2.1299    38.6571 </r>
       <r>     5.2591     1.9484    38.8611 </r>
       <r>     5.3638     1.9318    39.0632 </r>
       <r>     5.4685     2.1865    39.2921 </r>
       <r>     5.5731     2.7906    39.5841 </r>
       <r>     5.6778     2.4214    39.8376 </r>
       <r>     5.7824     1.9664    40.0434 </r>
       <r>     5.8871     1.4524    40.1954 </r>
       <r>     5.9918     1.7547    40.3790 </r>
       <r>     6.0964     2.0993    40.5987 </r>
       <r>     6.2011     2.2079    40.8298 </r>
       <r>     6.3057     2.3560    41.0764 </r>
       <r>     6.4104     2.5799    41.3464 </r>
       <r>     6.5151     2.9271    41.6528 </r>
       <r>     6.6197     2.2910    41.8926 </r>
       <r>     6.7244     2.3457    42.1381 </r>
       <r>     6.8290     3.3906    42.4929 </r>
       <r>     6.9337     3.2294    42.8309 </r>
       <r>     7.0384     2.7700    43.1208 </r>
       <r>     7.1430     3.0698    43.4421 </r>
       <r>     7.2477     4.1391    43.8753 </r>
       <r>     7.3523     4.7472    44.3722 </r>
       <r>     7.4570     4.5224    44.8455 </r>
       <r>     7.5617     4.8477    45.3528 </r>
       <r>     7.6663     4.2390    45.7965 </r>
       <r>     7.7710     3.6924    46.1830 </r>
       <r>     7.8756     4.6264    46.6672 </r>
       <r>     7.9803     4.8138    47.1710 </r>
       <r>     8.0850     3.8065    47.5694 </r>
       <r>     8.1896     2.1852    47.7981 </r>
       <r>     8.2943     0.9318    47.8956 </r>
       <r>     8.3989     0.5248    47.9505 </r>
       <r>     8.5036     0.3870    47.9910 </r>
       <r>     8.6083     0.0827    47.9997 </r>
       <r>     8.7129     0.0031    48.0000 </r>
       <r>     8.8176     0.0000    48.0000 </r>
       <r>     8.9223     0.0000    48.0000 </r>
       <r>     9.0269     0.0000    48.0000 </r>
       <r>     9.1316     0.0000    48.0000 </r>
       <r>     9.2362     0.0000    48.0000 </r>
       <r>     9.3409     0.0000    48.0000 </r>
       <r>     9.4456     0.0000    48.0000 </r>
       <r>     9.5502     0.0000    48.0000 </r>
       <r>     9.6549     0.0000    48.0000 </r>
       <r>     9.7595     0.0000    48.0000 </r>
       <r>     9.8642     0.0000    48.0000 </r>
      </set>
      <set comment="spin 2">
       <r>   -21.5340     0.0000     0.0000 </r>
       <r>   -21.4293     0.0000     0.0000 </r>
       <r>   -21.3246     0.0000     0.0000 </r>
       <r>   -21.2200     0.0000     0.0000 </r>
       <r>   -21.1153     0.0000     0.0000 </r>
       <r>   -21.0107     0.0000     0.0000 </r>
       <r>   -20.9060     0.0000     0.0000 </r>
       <r>   -20.8013     0.0000     0.0000 </r>
       <r>   -20.6967     0.0000     0.0000 </r>
       <r>   -20.5920     0.0000     0.0000 </r>
       <r>   -20.4873     0.0000     0.0000 </r>
       <r>   -20.3827     0.0000     0.0000 </r>
       <r>   -20.2780     0.0011     0.0001 </r>
       <r>   -20.1734     0.0379     0.0041 </r>
       <r>   -20.0687     0.2638     0.0317 </r>
       <r>   -19.9640     0.5495     0.0892 </r>
       <r>   -19.8594     0.6063     0.1527 </r>
       <r>   -19.7547     0.6491     0.2206 </r>
       <r>   -19.6501     0.5657     0.2798 </r>
       <r>   -19.5454     0.7130     0.3544 </r>
       <r>   -19.4407     0.5417     0.4111 </r>
       <r>   -19.3361     0.6138     0.4754 </r>
       <r>   -19.2314     0.7719     0.5562 </r>
       <r>   -19.1268     0.4686     0.6052 </r>
       <r>   -19.0221     0.5952     0.6675 </r>
       <r>   -18.9174     0.8109     0.7524 </r>
       <r>   -18.8128     0.6224     0.8175 </r>
       <r>   -18.7081     0.3781     0.8571 </r>
       <r>   -18.6035     0.7395     0.9345 </r>
       <r>   -18.4988     0.8448     1.0229 </r>
       <r>   -18.3941     0.5514     1.0806 </r>
       <r>   -18.2895     0.4513     1.1278 </r>
       <r>   -18.1848     0.6061     1.1913 </r>
       <r>   -18.0802     1.3619     1.3338 </r>
       <r>   -17.9755     1.4654     1.4872 </r>
       <r>   -17.8708     1.2976     1.6230 </r>
       <r>   -17.7662     1.4919     1.7791 </r>
       <r>   -17.6615     1.7525     1.9625 </r>
       <r>   -17.5569     2.2991     2.2032 </r>
       <r>   -17.4522     2.5707     2.4722 </r>
       <r>   -17.3475     2.0739     2.6893 </r>
       <r>   -17.2429     0.8277     2.7759 </r>
       <r>   -17.1382     0.7829     2.8578 </r>
       <r>   -17.0336     0.9161     2.9537 </r>
       <r>   -16.9289     0.7749     3.0348 </r>
       <r>   -16.8242     0.6255     3.1003 </r>
       <r>   -16.7196     0.5204     3.1548 </r>
       <r>   -16.6149     0.2735     3.1834 </r>
       <r>   -16.5103     0.7734     3.2643 </r>
       <r>   -16.4056     1.1423     3.3839 </r>
       <r>   -16.3009     0.6680     3.4538 </r>
       <r>   -16.1963     0.5721     3.5137 </r>
       <r>   -16.0916     0.5255     3.5687 </r>
       <r>   -15.9869     0.5050     3.6215 </r>
       <r>   -15.8823     0.5120     3.6751 </r>
       <r>   -15.7776     1.2975     3.8109 </r>
       <r>   -15.6730     1.8334     4.0028 </r>
       <r>   -15.5683     1.7943     4.1906 </r>
       <r>   -15.4636     1.9882     4.3987 </r>
       <r>   -15.3590     1.5878     4.5648 </r>
       <r>   -15.2543     1.4697     4.7186 </r>
       <r>   -15.1497     1.6555     4.8919 </r>
       <r>   -15.0450     2.2195     5.1242 </r>
       <r>   -14.9403     1.8362     5.3164 </r>
       <r>   -14.8357     1.7307     5.4975 </r>
       <r>   -14.7310     1.4459     5.6489 </r>
       <r>   -14.6264     1.1604     5.7703 </r>
       <r>   -14.5217     1.6567     5.9437 </r>
       <r>   -14.4170     2.5612     6.2118 </r>
       <r>   -14.3124     2.0770     6.4291 </r>
       <r>   -14.2077     1.2197     6.5568 </r>
       <r>   -14.1031     0.9507     6.6563 </r>
       <r>   -13.9984     0.8467     6.7449 </r>
       <r>   -13.8937     1.0654     6.8564 </r>
       <r>   -13.7891     1.1063     6.9722 </r>
       <r>   -13.6844     0.8637     7.0626 </r>
       <r>   -13.5798     0.5800     7.1233 </r>
       <r>   -13.4751     0.5570     7.1816 </r>
       <r>   -13.3704     0.6833     7.2531 </r>
       <r>   -13.2658     0.6231     7.3183 </r>
       <r>   -13.1611     0.8957     7.4121 </r>
       <r>   -13.0565     0.9021     7.5065 </r>
       <r>   -12.9518     0.7464     7.5846 </r>
       <r>   -12.8471     1.1263     7.7025 </r>
       <r>   -12.7425     0.8037     7.7866 </r>
       <r>   -12.6378     0.7485     7.8649 </r>
       <r>   -12.5332     0.7018     7.9384 </r>
       <r>   -12.4285     0.4063     7.9809 </r>
       <r>   -12.3238     1.0947     8.0955 </r>
       <r>   -12.2192     1.0936     8.2099 </r>
       <r>   -12.1145     0.8655     8.3005 </r>
       <r>   -12.0098     1.4608     8.4534 </r>
       <r>   -11.9052     1.9439     8.6568 </r>
       <r>   -11.8005     2.1468     8.8815 </r>
       <r>   -11.6959     1.8864     9.0790 </r>
       <r>   -11.5912     1.7334     9.2604 </r>
       <r>   -11.4865     1.9537     9.4648 </r>
       <r>   -11.3819     1.1539     9.5856 </r>
       <r>   -11.2772     1.0027     9.6906 </r>
       <r>   -11.1726     1.4784     9.8453 </r>
       <r>   -11.0679     1.7047    10.0237 </r>
       <r>   -10.9632     1.0181    10.1303 </r>
       <r>   -10.8586     0.8881    10.2232 </r>
       <r>   -10.7539     1.4156    10.3714 </r>
       <r>   -10.6493     2.1875    10.6003 </r>
       <r>   -10.5446     1.5959    10.7673 </r>
       <r>   -10.4399     0.6264    10.8329 </r>
       <r>   -10.3353     1.1585    10.9542 </r>
       <r>   -10.2306     2.3675    11.2019 </r>
       <r>   -10.1260     2.2548    11.4379 </r>
       <r>   -10.0213     1.3168    11.5758 </r>
       <r>    -9.9166     0.8089    11.6604 </r>
       <r>    -9.8120     0.7655    11.7405 </r>
       <r>    -9.7073     1.5692    11.9048 </r>
       <r>    -9.6027     1.9553    12.1094 </r>
       <r>    -9.4980     1.4595    12.2622 </r>
       <r>    -9.3933     0.7587    12.3416 </r>
       <r>    -9.2887     0.9038    12.4362 </r>
       <r>    -9.1840     1.3153    12.5738 </r>
       <r>    -9.0794     0.6708    12.6440 </r>
       <r>    -8.9747     0.7696    12.7246 </r>
       <r>    -8.8700     1.7367    12.9063 </r>
       <r>    -8.7654     2.0042    13.1161 </r>
       <r>    -8.6607     1.9262    13.3177 </r>
       <r>    -8.5561     1.2047    13.4438 </r>
       <r>    -8.4514     1.1570    13.5649 </r>
       <r>    -8.3467     1.5885    13.7311 </r>
       <r>    -8.2421     2.4249    13.9849 </r>
       <r>    -8.1374     3.1631    14.3160 </r>
       <r>    -8.0328     2.8515    14.6144 </r>
       <r>    -7.9281     1.9606    14.8196 </r>
       <r>    -7.8234     1.3896    14.9651 </r>
       <r>    -7.7188     2.0758    15.1823 </r>
       <r>    -7.6141     3.4544    15.5438 </r>
       <r>    -7.5094     3.1662    15.8752 </r>
       <r>    -7.4048     2.5804    16.1453 </r>
       <r>    -7.3001     2.6657    16.4243 </r>
       <r>    -7.1955     2.6643    16.7031 </r>
       <r>    -7.0908     3.0618    17.0236 </r>
       <r>    -6.9861     3.4522    17.3849 </r>
       <r>    -6.8815     3.2439    17.7244 </r>
       <r>    -6.7768     2.4380    17.9796 </r>
       <r>    -6.6722     2.9423    18.2875 </r>
       <r>    -6.5675     3.4584    18.6495 </r>
       <r>    -6.4628     3.2350    18.9880 </r>
       <r>    -6.3582     2.9206    19.2937 </r>
       <r>    -6.2535     2.8464    19.5916 </r>
       <r>    -6.1489     3.1091    19.9170 </r>
       <r>    -6.0442     2.8122    20.2113 </r>
       <r>    -5.9395     2.3435    20.4566 </r>
       <r>    -5.8349     2.3135    20.6987 </r>
       <r>    -5.7302     2.1732    20.9262 </r>
       <r>    -5.6256     3.1132    21.2520 </r>
       <r>    -5.5209     2.9812    21.5640 </r>
       <r>    -5.4162     2.3584    21.8109 </r>
       <r>    -5.3116     3.0528    22.1304 </r>
       <r>    -5.2069     3.5248    22.4993 </r>
       <r>    -5.1023     2.4581    22.7566 </r>
       <r>    -4.9976     1.1210    22.8739 </r>
       <r>    -4.8929     1.4416    23.0248 </r>
       <r>    -4.7883     2.4041    23.2764 </r>
       <r>    -4.6836     2.8657    23.5763 </r>
       <r>    -4.5790     2.2850    23.8154 </r>
       <r>    -4.4743     1.9045    24.0148 </r>
       <r>    -4.3696     2.5448    24.2811 </r>
       <r>    -4.2650     3.3101    24.6275 </r>
       <r>    -4.1603     3.3629    24.9795 </r>
       <r>    -4.0557     3.7459    25.3716 </r>
       <r>    -3.9510     4.2230    25.8135 </r>
       <r>    -3.8463     3.6308    26.1935 </r>
       <r>    -3.7417     2.8505    26.4919 </r>
       <r>    -3.6370     1.9214    26.6930 </r>
       <r>    -3.5323     1.9128    26.8932 </r>
       <r>    -3.4277     2.2889    27.1327 </r>
       <r>    -3.3230     2.5449    27.3991 </r>
       <r>    -3.2184     2.3646    27.6466 </r>
       <r>    -3.1137     2.3221    27.8896 </r>
       <r>    -3.0090     2.0541    28.1046 </r>
       <r>    -2.9044     2.4025    28.3560 </r>
       <r>    -2.7997     2.4520    28.6126 </r>
       <r>    -2.6951     2.2131    28.8443 </r>
       <r>    -2.5904     2.4023    29.0957 </r>
       <r>    -2.4857     1.9149    29.2961 </r>
       <r>    -2.3811     2.1521    29.5214 </r>
       <r>    -2.2764     2.2476    29.7566 </r>
       <r>    -2.1718     1.8040    29.9454 </r>
       <r>    -2.0671     1.8668    30.1408 </r>
       <r>    -1.9624     1.4763    30.2953 </r>
       <r>    -1.8578     0.9013    30.3896 </r>
       <r>    -1.7531     1.0423    30.4987 </r>
       <r>    -1.6485     0.7667    30.5789 </r>
       <r>    -1.5438     0.5427    30.6357 </r>
       <r>    -1.4391     1.0657    30.7473 </r>
       <r>    -1.3345     0.8755    30.8389 </r>
       <r>    -1.2298     0.4909    30.8903 </r>
       <r>    -1.1252     0.4501    30.9374 </r>
       <r>    -1.0205     0.2896    30.9677 </r>
       <r>    -0.9158     0.1508    30.9835 </r>
       <r>    -0.8112     0.1470    30.9989 </r>
       <r>    -0.7065     0.2788    31.0281 </r>
       <r>    -0.6019     0.3167    31.0612 </r>
       <r>    -0.4972     0.5189    31.1155 </r>
       <r>    -0.3925     0.8744    31.2070 </r>
       <r>    -0.2879     0.9658    31.3081 </r>
       <r>    -0.1832     0.8615    31.3983 </r>
       <r>    -0.0786     1.3691    31.5416 </r>
       <r>     0.0261     1.5676    31.7056 </r>
       <r>     0.1308     1.3491    31.8468 </r>
       <r>     0.2354     0.7681    31.9272 </r>
       <r>     0.3401     0.4467    31.9740 </r>
       <r>     0.4448     0.5691    32.0335 </r>
       <r>     0.5494     1.4482    32.1851 </r>
       <r>     0.6541     1.3380    32.3251 </r>
       <r>     0.7587     0.6024    32.3882 </r>
       <r>     0.8634     0.9290    32.4854 </r>
       <r>     0.9681     1.2516    32.6164 </r>
       <r>     1.0727     1.0223    32.7234 </r>
       <r>     1.1774     1.4015    32.8701 </r>
       <r>     1.2820     1.1072    32.9860 </r>
       <r>     1.3867     0.4737    33.0355 </r>
       <r>     1.4914     0.6734    33.1060 </r>
       <r>     1.5960     0.5771    33.1664 </r>
       <r>     1.7007     0.5365    33.2226 </r>
       <r>     1.8053     0.8466    33.3112 </r>
       <r>     1.9100     1.1371    33.4302 </r>
       <r>     2.0147     1.2877    33.5650 </r>
       <r>     2.1193     0.5672    33.6243 </r>
       <r>     2.2240     0.2815    33.6538 </r>
       <r>     2.3286     1.1898    33.7783 </r>
       <r>     2.4333     2.0743    33.9954 </r>
       <r>     2.5380     1.6225    34.1652 </r>
       <r>     2.6426     1.4621    34.3182 </r>
       <r>     2.7473     1.3983    34.4646 </r>
       <r>     2.8519     1.5289    34.6246 </r>
       <r>     2.9566     1.8036    34.8133 </r>
       <r>     3.0613     1.4744    34.9677 </r>
       <r>     3.1659     0.9685    35.0690 </r>
       <r>     3.2706     1.4303    35.2187 </r>
       <r>     3.3752     1.8083    35.4080 </r>
       <r>     3.4799     1.2094    35.5346 </r>
       <r>     3.5846     1.5369    35.6954 </r>
       <r>     3.6892     1.7157    35.8750 </r>
       <r>     3.7939     1.3546    36.0168 </r>
       <r>     3.8985     1.1233    36.1343 </r>
       <r>     4.0032     1.8712    36.3302 </r>
       <r>     4.1079     2.3375    36.5748 </r>
       <r>     4.2125     1.6702    36.7496 </r>
       <r>     4.3172     1.1432    36.8693 </r>
       <r>     4.4218     1.7901    37.0566 </r>
       <r>     4.5265     2.5795    37.3266 </r>
       <r>     4.6312     2.6043    37.5991 </r>
       <r>     4.7358     1.5293    37.7592 </r>
       <r>     4.8405     1.6578    37.9327 </r>
       <r>     4.9452     2.3954    38.1834 </r>
       <r>     5.0498     2.3964    38.4342 </r>
       <r>     5.1545     2.1300    38.6572 </r>
       <r>     5.2591     1.9483    38.8611 </r>
       <r>     5.3638     1.9318    39.0632 </r>
       <r>     5.4685     2.1865    39.2921 </r>
       <r>     5.5731     2.7906    39.5842 </r>
       <r>     5.6778     2.4214    39.8376 </r>
       <r>     5.7824     1.9664    40.0434 </r>
       <r>     5.8871     1.4524    40.1954 </r>
       <r>     5.9918     1.7547    40.3790 </r>
       <r>     6.0964     2.0992    40.5988 </r>
       <r>     6.2011     2.2080    40.8298 </r>
       <r>     6.3057     2.3560    41.0764 </r>
       <r>     6.4104     2.5799    41.3464 </r>
       <r>     6.5151     2.9271    41.6528 </r>
       <r>     6.6197     2.2910    41.8926 </r>
       <r>     6.7244     2.3457    42.1381 </r>
       <r>     6.8290     3.3906    42.4929 </r>
       <r>     6.9337     3.2293    42.8309 </r>
       <r>     7.0384     2.7700    43.1208 </r>
       <r>     7.1430     3.0698    43.4421 </r>
       <r>     7.2477     4.1391    43.8753 </r>
       <r>     7.3523     4.7474    44.3722 </r>
       <r>     7.4570     4.5225    44.8455 </r>
       <r>     7.5617     4.8476    45.3528 </r>
       <r>     7.6663     4.2392    45.7965 </r>
       <r>     7.7710     3.6925    46.1830 </r>
       <r>     7.8756     4.6262    46.6672 </r>
       <r>     7.9803     4.8138    47.1710 </r>
       <r>     8.0850     3.8065    47.5694 </r>
       <r>     8.1896     2.1852    47.7981 </r>
       <r>     8.2943     0.9318    47.8956 </r>
       <r>     8.3989     0.5248    47.9505 </r>
       <r>     8.5036     0.3870    47.9910 </r>
       <r>     8.6083     0.0827    47.9997 </r>
       <r>     8.7129     0.0031    48.0000 </r>
       <r>     8.8176     0.0000    48.0000 </r>
       <r>     8.9223     0.0000    48.0000 </r>
       <r>     9.0269     0.0000    48.0000 </r>
       <r>     9.1316     0.0000    48.0000 </r>
       <r>     9.2362     0.0000    48.0000 </r>
       <r>     9.3409     0.0000    48.0000 </r>
       <r>     9.4456     0.0000    48.0000 </r>
       <r>     9.5502     0.0000    48.0000 </r>
       <r>     9.6549     0.0000    48.0000 </r>
       <r>     9.7595     0.0000    48.0000 </r>
       <r>     9.8642     0.0000    48.0000 </r>
      </set>
     </set>
    </array>
   </total>
  </dos>
 </calculation>
 <structure name="finalpos" >
  <crystal>
   <varray name="basis" >
    <v>       4.29548600       2.48000000       0.00000000 </v>
    <v>      -4.29548600       2.48000000       0.00000000 </v>
    <v>       0.00000000       0.00000000      15.00000000 </v>
   </varray>
   <i name="volume">    319.58415861 </i>
   <varray name="rec_basis" >
    <v>       0.11640126       0.20161290       0.00000000 </v>
    <v>      -0.11640126       0.20161290       0.00000000 </v>
    <v>       0.00000000       0.00000000       0.06666667 </v>
   </varray>
  </crystal>
  <varray name="positions" >
   <v>       0.34003340       0.66980961       0.09986368 </v>
   <v>       0.67361774       0.33665731       0.09966152 </v>
   <v>       0.16686220       0.32374333       0.09482908 </v>
   <v>       0.32697955       0.16351338       0.08954173 </v>
   <v>       0.16700166       0.84334202       0.09474134 </v>
   <v>       0.84680717       0.16364545       0.10549607 </v>
   <v>       0.68670775       0.84335558       0.11057360 </v>
   <v>       0.84662590       0.68304735       0.10541898 </v>
   <v>       0.16477594       0.33235934       0.32865949 </v>
   <v>       0.33142375       0.16573614       0.32854722 </v>
   <v>       0.16477259       0.83246868       0.32865896 </v>
   <v>       0.33151619       0.66578352       0.32883960 </v>
   <v>       0.66484880       0.33244606       0.32882760 </v>
   <v>       0.83153704       0.16570748       0.32887753 </v>
   <v>       0.66494370       0.83249571       0.32898887 </v>
   <v>       0.83153862       0.66588104       0.32887472 </v>
  </varray>
 </structure>
</modeling>
