       N       E                     dE             d eps       ncg     rms          rms(c)
DAV:   1     0.246523757717E+03    0.24652E+03   -0.22900E+04  1824   0.858E+02
DAV:   2    -0.110368512900E+03   -0.35689E+03   -0.34491E+03  2280   0.202E+02
DAV:   3    -0.133653525953E+03   -0.23285E+02   -0.23082E+02  2712   0.567E+01
DAV:   4    -0.134003980631E+03   -0.35045E+00   -0.35008E+00  2376   0.794E+00
DAV:   5    -0.134016578841E+03   -0.12598E-01   -0.12591E-01  2640   0.138E+00    0.158E+01
DAV:   6    -0.126981633343E+03    0.70349E+01   -0.58388E+00  2424   0.772E+00    0.916E+00
DAV:   7    -0.124192079085E+03    0.27896E+01   -0.80378E+00  2736   0.888E+00    0.206E+00
DAV:   8    -0.124159622179E+03    0.32457E-01   -0.31218E-01  2448   0.192E+00    0.299E-01
DAV:   9    -0.124151939272E+03    0.76829E-02   -0.17080E-02  2448   0.439E-01    0.210E-01
DAV:  10    -0.124136471556E+03    0.15468E-01   -0.12759E-02  2424   0.341E-01    0.110E-01
DAV:  11    -0.124134444326E+03    0.20272E-02   -0.21807E-03  2352   0.140E-01    0.822E-02
DAV:  12    -0.124135288645E+03   -0.84432E-03   -0.29662E-03  2040   0.130E-01    0.365E-02
DAV:  13    -0.124137308309E+03   -0.20197E-02   -0.26508E-04  2208   0.488E-02    0.196E-02
DAV:  14    -0.124139559296E+03   -0.22510E-02   -0.26148E-04  2256   0.388E-02    0.902E-03
DAV:  15    -0.124140196593E+03   -0.63730E-03   -0.65133E-05  2232   0.169E-02    0.451E-03
DAV:  16    -0.124140330792E+03   -0.13420E-03   -0.83988E-06  2352   0.701E-03    0.108E-03
DAV:  17    -0.124140355948E+03   -0.25156E-04   -0.21492E-06  2136   0.300E-03    0.573E-04
DAV:  18    -0.124140360808E+03   -0.48596E-05   -0.25133E-07  1752   0.122E-03    0.254E-04
DAV:  19    -0.124140363404E+03   -0.25963E-05   -0.21842E-07  1560   0.881E-04    0.135E-04
DAV:  20    -0.124140364164E+03   -0.76016E-06   -0.44954E-08  1896   0.405E-04
   1 F= -.12584819E+03 E0= -.12584538E+03  d E =-.125848E+03
       N       E                     dE             d eps       ncg     rms          rms(c)
DAV:   1    -0.124143213212E+03   -0.28498E-02   -0.52252E-01  1872   0.230E+00    0.251E-01
DAV:   2    -0.124140729380E+03    0.24838E-02   -0.11836E-02  2424   0.364E-01    0.119E-01
DAV:   3    -0.124140255027E+03    0.47435E-03   -0.19592E-03  2544   0.133E-01    0.341E-02
DAV:   4    -0.124140238217E+03    0.16810E-04   -0.25787E-04  2184   0.456E-02    0.153E-02
DAV:   5    -0.124140236205E+03    0.20126E-05   -0.16766E-05  2448   0.130E-02    0.476E-03
DAV:   6    -0.124140236333E+03   -0.12864E-06   -0.44536E-06  2544   0.658E-03
   2 F= -.12584890E+03 E0= -.12584608E+03  d E =-.711939E-03
       N       E                     dE             d eps       ncg     rms          rms(c)
DAV:   1    -0.124142749392E+03   -0.25132E-02   -0.10728E-01  1848   0.104E+00    0.114E-01
DAV:   2    -0.124142245808E+03    0.50358E-03   -0.24149E-03  2496   0.165E-01    0.540E-02
DAV:   3    -0.124142150483E+03    0.95325E-04   -0.40914E-04  2304   0.607E-02    0.152E-02
DAV:   4    -0.124142148193E+03    0.22902E-05   -0.54044E-05  2040   0.209E-02    0.694E-03
DAV:   5    -0.124142148620E+03   -0.42674E-06   -0.34135E-06  1920   0.588E-03
   3 F= -.12585043E+03 E0= -.12584763E+03  d E =-.224417E-02
       N       E                     dE             d eps       ncg     rms          rms(c)
DAV:   1    -0.124142001982E+03    0.14621E-03   -0.42451E-02  1824   0.805E-01    0.365E-02
DAV:   2    -0.124142010743E+03   -0.87611E-05   -0.63935E-04  1872   0.104E-01    0.250E-02
DAV:   3    -0.124142003211E+03    0.75320E-05   -0.51392E-05  2160   0.316E-02    0.694E-03
DAV:   4    -0.124142004331E+03   -0.11194E-05   -0.12111E-05  2016   0.114E-02    0.293E-03
DAV:   5    -0.124142004673E+03   -0.34223E-06   -0.31706E-07  1488   0.245E-03
   4 F= -.12585093E+03 E0= -.12584813E+03  d E =-.492377E-03
       N       E                     dE             d eps       ncg     rms          rms(c)
DAV:   1    -0.124141513884E+03    0.49045E-03   -0.38283E-01  1824   0.242E+00    0.110E-01
DAV:   2    -0.124141614159E+03   -0.10027E-03   -0.57856E-03  1824   0.311E-01    0.751E-02
DAV:   3    -0.124141531262E+03    0.82896E-04   -0.46379E-04  2112   0.948E-02    0.209E-02
DAV:   4    -0.124141537223E+03   -0.59609E-05   -0.10944E-04  2496   0.342E-02    0.879E-03
DAV:   5    -0.124141537915E+03   -0.69184E-06   -0.32954E-06  2280   0.731E-03
   5 F= -.12585238E+03 E0= -.12584958E+03  d E =-.194146E-02
       N       E                     dE             d eps       ncg     rms          rms(c)
DAV:   1    -0.124140353147E+03    0.11841E-02   -0.15315E+00  1824   0.483E+00    0.220E-01
DAV:   2    -0.124140750290E+03   -0.39714E-03   -0.23176E-02  2064   0.623E-01    0.150E-01
DAV:   3    -0.124140437241E+03    0.31305E-03   -0.18059E-03  2040   0.189E-01    0.421E-02
DAV:   4    -0.124140455178E+03   -0.17937E-04   -0.43222E-04  2544   0.680E-02    0.173E-02
DAV:   5    -0.124140453531E+03    0.16474E-05   -0.13028E-05  2640   0.142E-02    0.345E-03
DAV:   6    -0.124140453503E+03    0.27851E-07   -0.24518E-06  2352   0.560E-03
   6 F= -.12585516E+03 E0= -.12585237E+03  d E =-.472285E-02
       N       E                     dE             d eps       ncg     rms          rms(c)
DAV:   1    -0.124137203868E+03    0.32497E-02   -0.61184E+00  1824   0.966E+00    0.441E-01
DAV:   2    -0.124138915317E+03   -0.17114E-02   -0.93308E-02  2136   0.125E+00    0.300E-01
DAV:   3    -0.124137593841E+03    0.13215E-02   -0.69834E-03  2328   0.371E-01    0.884E-02
DAV:   4    -0.124137676927E+03   -0.83085E-04   -0.16295E-03  2424   0.131E-01    0.341E-02
DAV:   5    -0.124137666764E+03    0.10163E-04   -0.48349E-05  2808   0.259E-02    0.653E-03
DAV:   6    -0.124137664950E+03    0.18138E-05   -0.61861E-06  2424   0.821E-03    0.329E-03
DAV:   7    -0.124137669066E+03   -0.41159E-05   -0.10114E-06  1656   0.326E-03    0.126E-03
DAV:   8    -0.124137677391E+03   -0.83247E-05   -0.15469E-06  2088   0.312E-03    0.149E-03
DAV:   9    -0.124137682709E+03   -0.53187E-05   -0.43883E-07  1944   0.172E-03    0.476E-04
DAV:  10    -0.124137686495E+03   -0.37856E-05   -0.35248E-07  1872   0.117E-03    0.360E-04
DAV:  11    -0.124137688083E+03   -0.15883E-05   -0.11025E-07  1896   0.709E-04    0.269E-04
DAV:  12    -0.124137688656E+03   -0.57252E-06   -0.26694E-08  1704   0.361E-04
   7 F= -.12586026E+03 E0= -.12585750E+03  d E =-.982270E-02
       N       E                     dE             d eps       ncg     rms          rms(c)
DAV:   1    -0.124126554239E+03    0.11134E-01   -0.24439E+01  1824   0.193E+01    0.900E-01
DAV:   2    -0.124134689921E+03   -0.81357E-02   -0.38536E-01  2040   0.254E+00    0.605E-01
DAV:   3    -0.124129386473E+03    0.53034E-02   -0.25831E-02  2376   0.703E-01    0.213E-01
DAV:   4    -0.124129618035E+03   -0.23156E-03   -0.55177E-03  2424   0.245E-01    0.688E-02
DAV:   5    -0.124129591914E+03    0.26122E-04   -0.18546E-04  2832   0.486E-02    0.172E-02
DAV:   6    -0.124129579808E+03    0.12106E-04   -0.16784E-05  2520   0.145E-02    0.668E-03
DAV:   7    -0.124129589394E+03   -0.95863E-05   -0.37111E-06  1968   0.627E-03    0.233E-03
DAV:   8    -0.124129605527E+03   -0.16133E-04   -0.36975E-06  2088   0.505E-03    0.229E-03
DAV:   9    -0.124129617683E+03   -0.12156E-04   -0.14563E-06  2232   0.277E-03    0.121E-03
DAV:  10    -0.124129625311E+03   -0.76278E-05   -0.94409E-07  2160   0.215E-03    0.778E-04
DAV:  11    -0.124129628608E+03   -0.32971E-05   -0.30802E-07  1920   0.122E-03    0.386E-04
DAV:  12    -0.124129629626E+03   -0.10174E-05   -0.65772E-08  1824   0.594E-04    0.120E-04
DAV:  13    -0.124129630160E+03   -0.53445E-06   -0.28446E-08  1704   0.361E-04
   8 F= -.12586846E+03 E0= -.12586577E+03  d E =-.180304E-01
       N       E                     dE             d eps       ncg     rms          rms(c)
DAV:   1    -0.124072260785E+03    0.57369E-01   -0.97220E+01  1824   0.386E+01    0.197E+00
DAV:   2    -0.124123210689E+03   -0.50950E-01   -0.17288E+00  2088   0.539E+00    0.125E+00
DAV:   3    -0.124104268300E+03    0.18942E-01   -0.87834E-02  2472   0.125E+00    0.634E-01
DAV:   4    -0.124102726152E+03    0.15421E-02   -0.17896E-02  2304   0.523E-01    0.145E-01
DAV:   5    -0.124102532717E+03    0.19343E-03   -0.16459E-03  2400   0.135E-01    0.250E-02
DAV:   6    -0.124102519775E+03    0.12942E-04   -0.84669E-05  2904   0.325E-02    0.144E-02
DAV:   7    -0.124102551459E+03   -0.31683E-04   -0.22336E-05  2184   0.146E-02    0.454E-03
DAV:   8    -0.124102590144E+03   -0.38686E-04   -0.72934E-06  2016   0.694E-03    0.344E-03
DAV:   9    -0.124102625587E+03   -0.35443E-04   -0.67012E-06  2184   0.588E-03    0.195E-03
DAV:  10    -0.124102640901E+03   -0.15313E-04   -0.26987E-06  2208   0.315E-03    0.149E-03
DAV:  11    -0.124102645222E+03   -0.43214E-05   -0.52561E-07  1968   0.178E-03    0.526E-04
DAV:  12    -0.124102648415E+03   -0.31925E-05   -0.37486E-07  1752   0.134E-03    0.455E-04
DAV:  13    -0.124102649011E+03   -0.59601E-06   -0.39061E-08  1992   0.526E-04
   9 F= -.12587617E+03 E0= -.12587362E+03  d E =-.257388E-01
       N       E                     dE             d eps       ncg     rms          rms(c)
DAV:   1    -0.124102629698E+03    0.18717E-04   -0.29227E-04  2160   0.669E-02    0.302E-03
DAV:   2    -0.124102629739E+03   -0.41140E-07   -0.43399E-06  2352   0.848E-03
  10 F= -.12587622E+03 E0= -.12587367E+03  d E =-.435071E-04
       N       E                     dE             d eps       ncg     rms          rms(c)
DAV:   1    -0.124102570492E+03    0.59206E-04   -0.26045E-03  1896   0.200E-01    0.949E-03
DAV:   2    -0.124102570770E+03   -0.27764E-06   -0.38216E-05  1920   0.254E-02    0.646E-03
DAV:   3    -0.124102570439E+03    0.33066E-06   -0.32343E-06  2112   0.791E-03
  11 F= -.12587635E+03 E0= -.12587380E+03  d E =-.172597E-03
       N       E                     dE             d eps       ncg     rms          rms(c)
DAV:   1    -0.124102451093E+03    0.11968E-03   -0.10590E-02  1824   0.403E-01    0.189E-02
DAV:   2    -0.124102452397E+03   -0.13037E-05   -0.15592E-04  1872   0.514E-02    0.128E-02
DAV:   3    -0.124102451035E+03    0.13613E-05   -0.13027E-05  2160   0.159E-02    0.346E-03
DAV:   4    -0.124102451304E+03   -0.26909E-06   -0.32117E-06  2040   0.590E-03
  12 F= -.12587660E+03 E0= -.12587406E+03  d E =-.430710E-03
       N       E                     dE             d eps       ncg     rms          rms(c)
DAV:   1    -0.124102207695E+03    0.24334E-03   -0.42101E-02  1824   0.803E-01    0.363E-02
DAV:   2    -0.124102216788E+03   -0.90937E-05   -0.62818E-04  1824   0.103E-01    0.248E-02
DAV:   3    -0.124102209128E+03    0.76604E-05   -0.50267E-05  1920   0.312E-02    0.692E-03
DAV:   4    -0.124102210180E+03   -0.10522E-05   -0.12010E-05  2160   0.113E-02    0.291E-03
DAV:   5    -0.124102210349E+03   -0.16914E-06   -0.30917E-07  1392   0.247E-03
  13 F= -.12587712E+03 E0= -.12587457E+03  d E =-.944730E-03
       N       E                     dE             d eps       ncg     rms          rms(c)
DAV:   1    -0.124101708049E+03    0.50213E-03   -0.16857E-01  1824   0.161E+00    0.729E-02
DAV:   2    -0.124101749425E+03   -0.41377E-04   -0.25383E-03  1944   0.207E-01    0.497E-02
DAV:   3    -0.124101714681E+03    0.34744E-04   -0.20233E-04  1848   0.629E-02    0.138E-02
DAV:   4    -0.124101717164E+03   -0.24824E-05   -0.48981E-05  2424   0.229E-02    0.579E-03
DAV:   5    -0.124101717768E+03   -0.60471E-06   -0.13553E-06  1920   0.495E-03
  14 F= -.12587814E+03 E0= -.12587560E+03  d E =-.196563E-02
       N       E                     dE             d eps       ncg     rms          rms(c)
DAV:   1    -0.124100650495E+03    0.10667E-02   -0.67425E-01  1824   0.321E+00    0.146E-01
DAV:   2    -0.124100822563E+03   -0.17207E-03   -0.10148E-02  2088   0.413E-01    0.993E-02
DAV:   3    -0.124100679694E+03    0.14287E-03   -0.80118E-04  1992   0.126E-01    0.276E-02
DAV:   4    -0.124100688570E+03   -0.88766E-05   -0.19490E-04  2424   0.457E-02    0.115E-02
DAV:   5    -0.124100688904E+03   -0.33344E-06   -0.55709E-06  2352   0.977E-03
  15 F= -.12588015E+03 E0= -.12587763E+03  d E =-.397931E-02
       N       E                     dE             d eps       ncg     rms          rms(c)
DAV:   1    -0.124098283800E+03    0.24048E-02   -0.26963E+00  1824   0.642E+00    0.291E-01
DAV:   2    -0.124098977557E+03   -0.69376E-03   -0.40717E-02  2088   0.828E-01    0.199E-01
DAV:   3    -0.124098424127E+03    0.55343E-03   -0.31766E-03  2064   0.250E-01    0.559E-02
DAV:   4    -0.124098455967E+03   -0.31841E-04   -0.76171E-04  2448   0.901E-02    0.226E-02
DAV:   5    -0.124098453335E+03    0.26326E-05   -0.21357E-05  2616   0.185E-02    0.440E-03
DAV:   6    -0.124098453194E+03    0.14081E-06   -0.42597E-06  2304   0.732E-03
  16 F= -.12588406E+03 E0= -.12588156E+03  d E =-.788883E-02
       N       E                     dE             d eps       ncg     rms          rms(c)
DAV:   1    -0.124092348488E+03    0.61048E-02   -0.10769E+01  1824   0.128E+01    0.587E-01
DAV:   2    -0.124095396257E+03   -0.30478E-02   -0.16493E-01  2184   0.167E+00    0.399E-01
DAV:   3    -0.124093090713E+03    0.23055E-02   -0.12085E-02  2208   0.487E-01    0.121E-01
DAV:   4    -0.124093236256E+03   -0.14554E-03   -0.27816E-03  2400   0.171E-01    0.441E-02
DAV:   5    -0.124093217102E+03    0.19154E-04   -0.76133E-05  2736   0.326E-02    0.926E-03
DAV:   6    -0.124093211046E+03    0.60562E-05   -0.10694E-05  2616   0.108E-02    0.450E-03
DAV:   7    -0.124093219785E+03   -0.87388E-05   -0.33698E-06  1968   0.587E-03    0.186E-03
DAV:   8    -0.124093230285E+03   -0.10500E-04   -0.17590E-06  2136   0.335E-03    0.190E-03
DAV:   9    -0.124093238260E+03   -0.79756E-05   -0.88729E-07  2040   0.205E-03    0.559E-04
DAV:  10    -0.124093241653E+03   -0.33924E-05   -0.28822E-07  1824   0.105E-03    0.644E-04
DAV:  11    -0.124093243582E+03   -0.19296E-05   -0.19805E-07  1704   0.904E-04    0.186E-04
DAV:  12    -0.124093243986E+03   -0.40346E-06   -0.22778E-08  1920   0.358E-04
  17 F= -.12589138E+03 E0= -.12588892E+03  d E =-.152089E-01
       N       E                     dE             d eps       ncg     rms          rms(c)
DAV:   1    -0.124072074232E+03    0.21169E-01   -0.42976E+01  1824   0.257E+01    0.121E+00
DAV:   2    -0.124087929958E+03   -0.15856E-01   -0.69701E-01  2064   0.343E+00    0.809E-01
DAV:   3    -0.124079059440E+03    0.88705E-02   -0.43344E-02  2352   0.899E-01    0.318E-01
DAV:   4    -0.124079211755E+03   -0.15232E-03   -0.88222E-03  2376   0.324E-01    0.903E-02
DAV:   5    -0.124079137811E+03    0.73944E-04   -0.37666E-04  2808   0.704E-02    0.229E-02
DAV:   6    -0.124079110968E+03    0.26843E-04   -0.33752E-05  2472   0.219E-02    0.977E-03
DAV:   7    -0.124079135074E+03   -0.24106E-04   -0.20600E-05  1920   0.144E-02    0.524E-03
DAV:   8    -0.124079150376E+03   -0.15302E-04   -0.40197E-06  2280   0.603E-03    0.379E-03
DAV:   9    -0.124079168825E+03   -0.18449E-04   -0.29085E-06  2016   0.415E-03    0.106E-03
DAV:  10    -0.124079176470E+03   -0.76445E-05   -0.77724E-07  2160   0.195E-03    0.804E-04
DAV:  11    -0.124079182179E+03   -0.57087E-05   -0.84288E-07  1968   0.175E-03    0.614E-04
DAV:  12    -0.124079183509E+03   -0.13305E-05   -0.13541E-07  1776   0.852E-04    0.191E-04
DAV:  13    -0.124079183975E+03   -0.46590E-06   -0.39982E-08  1560   0.435E-04
  18 F= -.12590332E+03 E0= -.12590085E+03  d E =-.271489E-01
       N       E                     dE             d eps       ncg     rms          rms(c)
DAV:   1    -0.123949725860E+03    0.12946E+00   -0.17031E+02  1824   0.512E+01    0.283E+00
DAV:   2    -0.124068875684E+03   -0.11915E+00   -0.33482E+00  1968   0.753E+00    0.172E+00
DAV:   3    -0.124038748632E+03    0.30127E-01   -0.15302E-01  2424   0.160E+00    0.992E-01
DAV:   4    -0.124032060274E+03    0.66884E-02   -0.30852E-02  2736   0.738E-01    0.199E-01
DAV:   5    -0.124031794299E+03    0.26597E-03   -0.41415E-03  2448   0.225E-01    0.384E-02
DAV:   6    -0.124031669939E+03    0.12436E-03   -0.29770E-04  2736   0.639E-02    0.233E-02
DAV:   7    -0.124031695454E+03   -0.25515E-04   -0.10233E-04  2280   0.351E-02    0.750E-03
DAV:   8    -0.124031757219E+03   -0.61765E-04   -0.32238E-05  1968   0.162E-02    0.750E-03
DAV:   9    -0.124031809838E+03   -0.52619E-04   -0.13893E-05  2184   0.103E-02    0.410E-03
DAV:  10    -0.124031825937E+03   -0.16100E-04   -0.32961E-06  2136   0.439E-03    0.180E-03
DAV:  11    -0.124031834777E+03   -0.88400E-05   -0.17702E-06  2112   0.274E-03    0.120E-03
DAV:  12    -0.124031838107E+03   -0.33298E-05   -0.55439E-07  1728   0.165E-03    0.571E-04
DAV:  13    -0.124031838715E+03   -0.60829E-06   -0.91380E-08  1896   0.751E-04
  19 F= -.12591154E+03 E0= -.12590878E+03  d E =-.353663E-01
       N       E                     dE             d eps       ncg     rms          rms(c)
DAV:   1    -0.124044596500E+03   -0.12758E-01   -0.87251E+00  1824   0.116E+01    0.540E-01
DAV:   2    -0.124046831271E+03   -0.22348E-02   -0.13164E-01  1944   0.150E+00    0.359E-01
DAV:   3    -0.124045063986E+03    0.17673E-02   -0.99889E-03  2592   0.433E-01    0.121E-01
DAV:   4    -0.124045182905E+03   -0.11892E-03   -0.21191E-03  1968   0.150E-01    0.458E-02
DAV:   5    -0.124045194802E+03   -0.11897E-04   -0.61981E-05  2640   0.308E-02    0.835E-03
DAV:   6    -0.124045192353E+03    0.24489E-05   -0.85042E-06  2448   0.988E-03    0.402E-03
DAV:   7    -0.124045194285E+03   -0.19321E-05   -0.24496E-06  2184   0.569E-03    0.165E-03
DAV:   8    -0.124045199283E+03   -0.49978E-05   -0.10365E-06  2136   0.285E-03    0.158E-03
DAV:   9    -0.124045205212E+03   -0.59290E-05   -0.32708E-07  1824   0.160E-03    0.399E-04
DAV:  10    -0.124045210080E+03   -0.48676E-05   -0.17925E-07  1776   0.916E-04    0.531E-04
DAV:  11    -0.124045213375E+03   -0.32951E-05   -0.85591E-08  1632   0.701E-04    0.137E-04
DAV:  12    -0.124045214314E+03   -0.93933E-06   -0.19556E-08  1776   0.325E-04
  20 F= -.12591202E+03 E0= -.12590935E+03  d E =-.358507E-01
       N       E                     dE             d eps       ncg     rms          rms(c)
DAV:   1    -0.124053474000E+03   -0.82606E-02   -0.11994E+00  1824   0.431E+00    0.198E-01
DAV:   2    -0.124053771744E+03   -0.29774E-03   -0.18431E-02  1944   0.561E-01    0.135E-01
DAV:   3    -0.124053529936E+03    0.24181E-03   -0.15560E-03  2544   0.173E-01    0.422E-02
DAV:   4    -0.124053550260E+03   -0.20324E-04   -0.35620E-04  1896   0.638E-02    0.194E-02
DAV:   5    -0.124053553456E+03   -0.31964E-05   -0.11965E-05  2448   0.146E-02    0.383E-03
DAV:   6    -0.124053553003E+03    0.45300E-06   -0.31442E-06  2592   0.660E-03
  21 F= -.12591575E+03 E0= -.12591311E+03  d E =-.372493E-02
       N       E                     dE             d eps       ncg     rms          rms(c)
DAV:   1    -0.124066653184E+03   -0.13100E-01   -0.59396E+00  1824   0.959E+00    0.446E-01
DAV:   2    -0.124068315975E+03   -0.16628E-02   -0.91979E-02  2016   0.125E+00    0.300E-01
DAV:   3    -0.124067041387E+03    0.12746E-02   -0.74024E-03  2592   0.376E-01    0.101E-01
DAV:   4    -0.124067125768E+03   -0.84381E-04   -0.16269E-03  1920   0.135E-01    0.435E-02
DAV:   5    -0.124067135931E+03   -0.10163E-04   -0.54822E-05  2544   0.299E-02    0.901E-03
DAV:   6    -0.124067134136E+03    0.17949E-05   -0.11278E-05  2448   0.120E-02    0.385E-03
DAV:   7    -0.124067135401E+03   -0.12653E-05   -0.12784E-06  1968   0.450E-03    0.202E-03
DAV:   8    -0.124067140061E+03   -0.46603E-05   -0.13050E-06  1968   0.422E-03    0.103E-03
DAV:   9    -0.124067145977E+03   -0.59154E-05   -0.70623E-07  2040   0.256E-03    0.999E-04
DAV:  10    -0.124067151417E+03   -0.54404E-05   -0.23818E-07  1728   0.144E-03    0.288E-04
DAV:  11    -0.124067155127E+03   -0.37098E-05   -0.99476E-08  1608   0.820E-04    0.289E-04
DAV:  12    -0.124067156746E+03   -0.16191E-05   -0.37033E-08  1608   0.468E-04    0.123E-04
DAV:  13    -0.124067157175E+03   -0.42912E-06   -0.93114E-09  1680   0.242E-04
  22 F= -.12591916E+03 E0= -.12591657E+03  d E =-.713695E-02
       N       E                     dE             d eps       ncg     rms          rms(c)
DAV:   1    -0.124067241092E+03   -0.84346E-04   -0.40456E-04  2376   0.791E-02    0.362E-03
DAV:   2    -0.124067241083E+03    0.92732E-08   -0.61678E-06  2232   0.102E-02
  23 F= -.12591916E+03 E0= -.12591657E+03  d E =-.713722E-02
       N       E                     dE             d eps       ncg     rms          rms(c)
DAV:   1    -0.124067301187E+03   -0.60095E-04   -0.20130E-04  2064   0.564E-02    0.310E-03
DAV:   2    -0.124067301156E+03    0.31919E-07   -0.28278E-06  2280   0.700E-03
  24 F= -.12591916E+03 E0= -.12591657E+03  d E =-.713706E-02
       N       E                     dE             d eps       ncg     rms          rms(c)
DAV:   1    -0.124067272124E+03    0.29063E-04   -0.52713E-05  2016   0.284E-02    0.107E-03
DAV:   2    -0.124067272151E+03   -0.26708E-07   -0.97218E-07  1584   0.401E-03
  25 F= -.12591916E+03 E0= -.12591657E+03  d E =-.713722E-02
       N       E                     dE             d eps       ncg     rms          rms(c)
DAV:   1    -0.124067252754E+03    0.19370E-04   -0.20422E-05  2376   0.182E-02    0.951E-04
DAV:   2    -0.124067252749E+03    0.48458E-08   -0.27748E-07  1608   0.222E-03
  26 F= -.12591916E+03 E0= -.12591657E+03  d E =-.713724E-02
       N       E                     dE             d eps       ncg     rms          rms(c)
DAV:   1    -0.124067247350E+03    0.54041E-05   -0.14829E-06  1944   0.505E-03    0.327E-04
DAV:   2    -0.124067247351E+03   -0.16180E-08   -0.31669E-08  2112   0.756E-04
  27 F= -.12591916E+03 E0= -.12591657E+03  d E =-.713725E-02
