 vasp.6.3.2 27Jun22 (build Dec 22 2022 13:13:19) complex                        
  
 executed on             LinuxIFC date 2023.08.26  03:25:00
 running   24 mpi-ranks, with    1 threads/rank
 distrk:  each k-point on   24 cores,    1 groups
 distr:  one band on NCORE=   1 cores,   24 groups


--------------------------------------------------------------------------------------------------------


 INCAR:
   SYSTEM = Lattice
   ISTART = 0
   ICHARG = 2
   PREC = Accurate
   ENCUT = 450
   LCHARG = .FALSE.
   LWAVE = .FALSE.
   ALGO = Normal
   NELM = 64
   EDIFF = 1E-6
   EDIFFG = -1E-3
   SIGMA = 0.1
   ISMEAR = 0
   NSW = 256
   IBRION = 2
   POTIM = .5
   ISIF = 2
   GGA = PE
   IVDW = 12

 POTCAR:    PAW_PBE B 06Sep2000                   
 POTCAR:    PAW_PBE C 08Apr2002                   
 POTCAR:    PAW_PBE B 06Sep2000                   
   SHA256 =  a32ced30f5ae56fd4d10b4325ff17eb3e4e38ee0f4288bc219fb012fddfa6e97 B/POTCAR              
   COPYR  = (c) Copyright 06Sep2000 Georg Kresse                                                    
   COPYR  = This file is part of the software VASP. Any use, copying, and all other rights are regul
   COPYR  = If you do not have a valid VASP license, you may not use, copy or distribute this file. 
   VRHFIN =B: s2p1                                                                                  
   LEXCH  = PE                                                                                      
   EATOM  =    71.1703 eV,    5.2309 Ry                                                             
                                                                                                    
   TITEL  = PAW_PBE B 06Sep2000                                                                     
   LULTRA =        F    use ultrasoft PP ?                                                          
   IUNSCR =        1    unscreen: 0-lin 1-nonlin 2-no                                               
   RPACOR =    1.200    partial core radius                                                         
   POMASS =   10.811; ZVAL   =    3.000    mass and valenz                                          
   RCORE  =    1.700    outmost cutoff radius                                                       
   RWIGS  =    1.710; RWIGS  =    0.905    wigner-seitz radius (au A)                               
   ENMAX  =  318.614; ENMIN  =  238.960 eV                                                          
   ICORE  =        2    local potential                                                             
   LCOR   =        T    correct aug charges                                                         
   LPAW   =        T    paw PP                                                                      
   EAUG   =  535.514                                                                                
   DEXC   =    0.000                                                                                
   RMAX   =    1.732    core radius for proj-oper                                                   
   RAUG   =    1.300    factor for augmentation sphere                                              
   RDEP   =    1.757    radius for radial grids                                                     
   RDEPT  =    1.436    core radius for aug-charge                                                  
                                                                                                    
   Atomic configuration                                                                             
    4 entries                                                                                       
     n  l   j            E        occ.                                                              
     1  0  0.50      -180.5896   2.0000                                                             
     2  0  0.50        -9.4431   2.0000                                                             
     2  1  0.50        -3.6068   1.0000                                                             
     3  2  1.50        -4.0817   0.0000                                                             
   Description                                                                                      
     l       E           TYP  RCUT    TYP  RCUT                                                     
     0     -9.4430752     23  1.500                                                                 
     0      0.8675899     23  1.500                                                                 
     1     -3.6067955     23  1.700                                                                 
     1      6.1086146     23  1.700                                                                 
     2     -4.0817478      7  1.700                                                                 
  local pseudopotential read in
  partial core-charges read in
  partial kinetic energy density read in
  atomic valenz-charges read in
  non local Contribution for L=           0  read in
    real space projection operators read in
  non local Contribution for L=           0  read in
    real space projection operators read in
  non local Contribution for L=           1  read in
    real space projection operators read in
  non local Contribution for L=           1  read in
    real space projection operators read in
    PAW grid and wavefunctions read in
 
   number of l-projection  operators is LMAX  =           4
   number of lm-projection operators is LMMAX =           8
 
 POTCAR:    PAW_PBE C 08Apr2002                   
   SHA256 =  253f7b50bb8d59471dbedb8285d89021f4a42ed1a2c5d38a03a736e69125dd95 C/POTCAR              
   COPYR  = (c) Copyright 08Apr2002 Georg Kresse                                                    
   COPYR  = This file is part of the software VASP. Any use, copying, and all other rights are regul
   COPYR  = If you do not have a valid VASP license, you may not use, copy or distribute this file. 
   VRHFIN =C: s2p2                                                                                  
   LEXCH  = PE                                                                                      
   EATOM  =   147.1560 eV,   10.8157 Ry                                                             
                                                                                                    
   TITEL  = PAW_PBE C 08Apr2002                                                                     
   LULTRA =        F    use ultrasoft PP ?                                                          
   IUNSCR =        1    unscreen: 0-lin 1-nonlin 2-no                                               
   RPACOR =    1.200    partial core radius                                                         
   POMASS =   12.011; ZVAL   =    4.000    mass and valenz                                          
   RCORE  =    1.500    outmost cutoff radius                                                       
   RWIGS  =    1.630; RWIGS  =    0.863    wigner-seitz radius (au A)                               
   ENMAX  =  400.000; ENMIN  =  300.000 eV                                                          
   ICORE  =        2    local potential                                                             
   LCOR   =        T    correct aug charges                                                         
   LPAW   =        T    paw PP                                                                      
   EAUG   =  644.873                                                                                
   DEXC   =    0.000                                                                                
   RMAX   =    1.529    core radius for proj-oper                                                   
   RAUG   =    1.300    factor for augmentation sphere                                              
   RDEP   =    1.501    radius for radial grids                                                     
   RDEPT  =    1.300    core radius for aug-charge                                                  
                                                                                                    
   Atomic configuration                                                                             
    4 entries                                                                                       
     n  l   j            E        occ.                                                              
     1  0  0.50      -273.3789   2.0000                                                             
     2  0  0.50       -13.7508   2.0000                                                             
     2  1  0.50        -5.2854   2.0000                                                             
     3  2  1.50        -5.4423   0.0000                                                             
   Description                                                                                      
     l       E           TYP  RCUT    TYP  RCUT                                                     
     0    -13.7508458     23  1.200                                                                 
     0     -8.2022199     23  1.200                                                                 
     1     -5.2854383     23  1.500                                                                 
     1     34.0145650     23  1.500                                                                 
     2     -5.4423304      7  1.500                                                                 
  local pseudopotential read in
  partial core-charges read in
  partial kinetic energy density read in
  atomic valenz-charges read in
  non local Contribution for L=           0  read in
    real space projection operators read in
  non local Contribution for L=           0  read in
    real space projection operators read in
  non local Contribution for L=           1  read in
    real space projection operators read in
  non local Contribution for L=           1  read in
    real space projection operators read in
    PAW grid and wavefunctions read in
 
   number of l-projection  operators is LMAX  =           4
   number of lm-projection operators is LMMAX =           8
 
  PAW_PBE B 06Sep2000                   :
 energy of atom  1       EATOM=  -71.1703
 kinetic energy error for atom=    0.0015 (will be added to EATOM!!)
  PAW_PBE C 08Apr2002                   :
 energy of atom  2       EATOM= -147.1560
 kinetic energy error for atom=    0.0116 (will be added to EATOM!!)
 
 
 POSCAR: Graphene-Borophene Top with lattice para
  positions in direct lattice
  No initial velocities read in
 exchange correlation table for  LEXCH =        8
   RHO(1)=    0.500       N(1)  =     2000
   RHO(2)=  100.500       N(2)  =     4000

 VTST: version 4.2, (08/11/21)

 CHAIN: initializing optimizer
 
 OPT: Using VASP Conjugate-Gradient optimizer
 CHAIN: Read ICHAIN            0
 
 POSCAR: Graphene-Borophene Top with lattice para
  positions in direct lattice
  No initial velocities read in
 


--------------------------------------------------------------------------------------------------------


 ion  position               nearest neighbor table
   1  0.669  0.000  0.100-   3 1.65   6 1.65   7 1.67   8 1.67   2 1.68
   2  0.331  0.000  0.100-   5 1.65   4 1.65   7 1.67   8 1.67   1 1.68
   3  0.000  0.331  0.100-   5 1.65   1 1.65   8 1.67   7 1.67   4 1.68
   4  0.000  0.669  0.100-   2 1.65   6 1.65   8 1.67   7 1.67   3 1.68
   5  0.331  0.331  0.100-   2 1.65   3 1.65   7 1.67   8 1.67   6 1.68
   6  0.669  0.669  0.100-   1 1.65   4 1.65   7 1.67   8 1.67   5 1.68
   7  0.667  0.333  0.099-   5 1.67   6 1.67   2 1.67   1 1.67   4 1.67   3 1.67
   8  0.333  0.667  0.101-   5 1.67   6 1.67   3 1.67   4 1.67   1 1.67   2 1.67
   9  0.167  0.333  0.367-  12 1.44  14 1.44  10 1.44
  10  0.333  0.167  0.367-  11 1.44  13 1.44   9 1.44
  11  0.167  0.833  0.367-  10 1.44  16 1.44  12 1.44
  12  0.333  0.667  0.367-   9 1.44  15 1.44  11 1.44
  13  0.667  0.333  0.367-  10 1.44  16 1.44  14 1.44
  14  0.833  0.167  0.367-   9 1.44  15 1.44  13 1.44
  15  0.667  0.833  0.367-  12 1.44  14 1.44  16 1.44
  16  0.833  0.667  0.367-  11 1.44  13 1.44  15 1.44
 
  LATTYP: Found a hexagonal cell.
 ALAT       =     4.9790000000
 C/A-ratio  =     3.0126531432
  
  Lattice vectors:
  
 A1 = (   4.3119404854,   2.4895000000,   0.0000000000)
 A2 = (  -4.3119404854,   2.4895000000,   0.0000000000)
 A3 = (   0.0000000000,   0.0000000000,  15.0000000000)


Analysis of symmetry for initial positions (statically):
=====================================================================
 Subroutine PRICEL returns:
 Original cell was already a primitive cell.
 

 Routine SETGRP: Setting up the symmetry group for a 
 hexagonal supercell.


 Subroutine GETGRP returns: Found  6 space group operations
 (whereof  6 operations were pure point group operations)
 out of a pool of 24 trial point group operations.


The static configuration has the point symmetry C_3v.


Analysis of symmetry for dynamics (positions and initial velocities):
=====================================================================
 Subroutine PRICEL returns:
 Original cell was already a primitive cell.
 

 Routine SETGRP: Setting up the symmetry group for a 
 hexagonal supercell.


 Subroutine GETGRP returns: Found  6 space group operations
 (whereof  6 operations were pure point group operations)
 out of a pool of 24 trial point group operations.


The dynamic configuration has the point symmetry C_3v.


 Subroutine INISYM returns: Found  6 space group operations
 (whereof  6 operations are pure point group operations),
 and found     1 'primitive' translations


----------------------------------------------------------------------------------------

                                     Primitive cell                                     

  volume of cell :     322.0373

  direct lattice vectors                    reciprocal lattice vectors
     4.311940485  2.489500000  0.000000000     0.115957074  0.200843543  0.000000000
    -4.311940485  2.489500000  0.000000000    -0.115957074  0.200843543  0.000000000
     0.000000000  0.000000000 15.000000000     0.000000000  0.000000000  0.066666667

  length of vectors
     4.979000000  4.979000000 15.000000000     0.231914147  0.231914147  0.066666667

  position of ions in fractional coordinates (direct lattice)
     0.668886888  1.000000000  0.100000000
     0.331112112  1.000000000  0.100000000
     1.000000000  0.331112112  0.100000000
     1.000000000  0.668886888  0.100000000
     0.331112112  0.331112112  0.100000000
     0.668886888  0.668886888  0.100000000
     0.666666000  0.333333000  0.099221887
     0.333333000  0.666666000  0.100778113
     0.166666000  0.333333000  0.366666667
     0.333333000  0.166666000  0.366666667
     0.166666000  0.833333000  0.366666667
     0.333333000  0.666666000  0.366666667
     0.666666000  0.333333000  0.366666667
     0.833333000  0.166666000  0.366666667
     0.666666000  0.833333000  0.366666667
     0.833333000  0.666666000  0.366666667

  ion indices of the primitive-cell ions
   primitive index   ion index
                 1           1
                 2           2
                 3           3
                 4           4
                 5           5
                 6           6
                 7           7
                 8           8
                 9           9
                10          10
                11          11
                12          12
                13          13
                14          14
                15          15
                16          16

----------------------------------------------------------------------------------------

 
 
 KPOINTS: k-points                                

Automatic generation of k-mesh.
 Grid dimensions read from file:
 generate k-points for:   12   12    1

 Generating k-lattice:

  Cartesian coordinates                     Fractional coordinates (reciprocal lattice)
     0.009663089  0.016736962  0.000000000     0.083333333 -0.000000000  0.000000000
    -0.009663089  0.016736962  0.000000000    -0.000000000  0.083333333  0.000000000
     0.000000000  0.000000000  0.066666667     0.000000000  0.000000000  1.000000000

  Length of vectors
     0.019326179  0.019326179  0.066666667

  Shift w.r.t. Gamma in fractional coordinates (k-lattice)
     0.000000000  0.000000000  0.000000000

 
 Subroutine IBZKPT returns following result:
 ===========================================
 
 Found     19 irreducible k-points:
 
 Following reciprocal coordinates:
            Coordinates               Weight
  0.000000  0.000000  0.000000      1.000000
  0.083333 -0.000000  0.000000      6.000000
  0.166667  0.000000  0.000000      6.000000
  0.250000  0.000000  0.000000      6.000000
  0.333333  0.000000  0.000000      6.000000
  0.416667  0.000000  0.000000      6.000000
  0.500000  0.000000  0.000000      3.000000
  0.083333  0.083333  0.000000      6.000000
  0.166667  0.083333  0.000000     12.000000
  0.250000  0.083333  0.000000     12.000000
  0.333333  0.083333  0.000000     12.000000
  0.416667  0.083333  0.000000     12.000000
  0.166667  0.166667  0.000000      6.000000
  0.250000  0.166667  0.000000     12.000000
  0.333333  0.166667  0.000000     12.000000
  0.416667  0.166667  0.000000      6.000000
  0.250000  0.250000  0.000000      6.000000
  0.333333  0.250000  0.000000     12.000000
  0.333333  0.333333  0.000000      2.000000
 
 Following cartesian coordinates:
            Coordinates               Weight
  0.000000  0.000000  0.000000      1.000000
  0.009663  0.016737  0.000000      6.000000
  0.019326  0.033474  0.000000      6.000000
  0.028989  0.050211  0.000000      6.000000
  0.038652  0.066948  0.000000      6.000000
  0.048315  0.083685  0.000000      6.000000
  0.057979  0.100422  0.000000      3.000000
 -0.000000  0.033474  0.000000      6.000000
  0.009663  0.050211  0.000000     12.000000
  0.019326  0.066948  0.000000     12.000000
  0.028989  0.083685  0.000000     12.000000
  0.038652  0.100422  0.000000     12.000000
  0.000000  0.066948  0.000000      6.000000
  0.009663  0.083685  0.000000     12.000000
  0.019326  0.100422  0.000000     12.000000
  0.028989  0.117159  0.000000      6.000000
  0.000000  0.100422  0.000000      6.000000
  0.009663  0.117159  0.000000     12.000000
 -0.000000  0.133896  0.000000      2.000000
 


--------------------------------------------------------------------------------------------------------




 Dimension of arrays:
   k-points           NKPTS =     19   k-points in BZ     NKDIM =     19   number of bands    NBANDS=     48
   number of dos      NEDOS =    301   number of ions     NIONS =     16
   non local maximal  LDIM  =      4   non local SUM 2l+1 LMDIM =      8
   total plane-waves  NPLWV = 139968
   max r-space proj   IRMAX =      1   max aug-charges    IRDMAX=   6977
   dimension x,y,z NGX =    36 NGY =   36 NGZ =  108
   dimension x,y,z NGXF=    72 NGYF=   72 NGZF=  216
   support grid    NGXF=    72 NGYF=   72 NGZF=  216
   ions per type =               8   8
   NGX,Y,Z   is equivalent  to a cutoff of  12.02, 12.02, 11.97 a.u.
   NGXF,Y,Z  is equivalent  to a cutoff of  24.04, 24.04, 23.94 a.u.

 SYSTEM =  Lattice                                 
 POSCAR =  Graphene-Borophene Top with lattice para

 Startparameter for this run:
   NWRITE =      2    write-flag & timer
   PREC   = accura    normal or accurate (medium, high low for compatibility)
   ISTART =      0    job   : 0-new  1-cont  2-samecut
   ICHARG =      2    charge: 1-file 2-atom 10-const
   ISPIN  =      1    spin polarized calculation?
   LNONCOLLINEAR =      F non collinear calculations
   LSORBIT =      F    spin-orbit coupling
   INIWAV =      1    electr: 0-lowe 1-rand  2-diag
   LASPH  =      F    aspherical Exc in radial PAW
 Electronic Relaxation 1
   ENCUT  =  450.0 eV  33.07 Ry    5.75 a.u.   8.61  8.61 25.95*2*pi/ulx,y,z
   ENINI  =  450.0     initial cutoff
   ENAUG  =  644.9 eV  augmentation charge cutoff
   NELM   =     64;   NELMIN=  2; NELMDL= -5     # of ELM steps 
   EDIFF  = 0.1E-05   stopping-criterion for ELM
   LREAL  =      F    real-space projection
   NLSPLINE    = F    spline interpolate recip. space projectors
   LCOMPAT=      F    compatible to vasp.4.4
   GGA_COMPAT  = T    GGA compatible to vasp.4.4-vasp.4.6
   LMAXPAW     = -100 max onsite density
   LMAXMIX     =    2 max onsite mixed and CHGCAR
   VOSKOWN=      0    Vosko Wilk Nusair interpolation
   ROPT   =    0.00000   0.00000
 Ionic relaxation
   EDIFFG = -.1E-02   stopping-criterion for IOM
   NSW    =    256    number of steps for IOM
   NBLOCK =      1;   KBLOCK =    256    inner block; outer block 
   IBRION =      2    ionic relax: 0-MD 1-quasi-New 2-CG
   NFREE  =      1    steps in history (QN), initial steepest desc. (CG)
   ISIF   =      2    stress and relaxation
   IWAVPR =     11    prediction:  0-non 1-charg 2-wave 3-comb
   ISYM   =      2    0-nonsym 1-usesym 2-fastsym
   LCORR  =      T    Harris-Foulkes like correction to forces

   POTIM  = 0.5000    time-step for ionic-motion
   TEIN   =    0.0    initial temperature
   TEBEG  =    0.0;   TEEND  =   0.0 temperature during run
   SMASS  =  -3.00    Nose mass-parameter (am)
   estimated Nose-frequenzy (Omega)   =  0.10E-29 period in steps = 0.13E+47 mass=  -0.567E-27a.u.
   SCALEE = 1.0000    scale energy and forces
   NPACO  =    256;   APACO  = 10.0  distance and # of slots for P.C.
   PSTRESS=    0.0 pullay stress

  Mass of Ions in am
   POMASS =  10.81 12.01
  Ionic Valenz
   ZVAL   =   3.00  4.00
  Atomic Wigner-Seitz radii
   RWIGS  =  -1.00 -1.00
  virtual crystal weights 
   VCA    =   1.00  1.00
   NELECT =      56.0000    total number of electrons
   NUPDOWN=      -1.0000    fix difference up-down

 DOS related values:
   EMIN   =  10.00;   EMAX   =-10.00  energy-range for DOS
   EFERMI =   0.00
   ISMEAR =     0;   SIGMA  =   0.10  broadening in eV -4-tet -1-fermi 0-gaus

 Electronic relaxation 2 (details)
   IALGO  =     38    algorithm
   LDIAG  =      T    sub-space diagonalisation (order eigenvalues)
   LSUBROT=      F    optimize rotation matrix (better conditioning)
   TURBO    =      0    0=normal 1=particle mesh
   IRESTART =      0    0=no restart 2=restart with 2 vectors
   NREBOOT  =      0    no. of reboots
   NMIN     =      0    reboot dimension
   EREF     =   0.00    reference energy to select bands
   IMIX   =      4    mixing-type and parameters
     AMIX     =   0.40;   BMIX     =  1.00
     AMIX_MAG =   1.60;   BMIX_MAG =  1.00
     AMIN     =   0.10
     WC   =   100.;   INIMIX=   1;  MIXPRE=   1;  MAXMIX= -45

 Intra band minimization:
   WEIMIN = 0.0010     energy-eigenvalue tresh-hold
   EBREAK =  0.52E-08  absolut break condition
   DEPER  =   0.30     relativ break condition  

   TIME   =   0.40     timestep for ELM

  volume/ion in A,a.u.               =      20.13       135.83
  Fermi-wavevector in a.u.,A,eV,Ry     =   0.913767  1.726769 11.360458  0.834970
  Thomas-Fermi vector in A             =   2.038317
 
 Write flags
   LWAVE        =      F    write WAVECAR
   LDOWNSAMPLE  =      F    k-point downsampling of WAVECAR
   LCHARG       =      F    write CHGCAR
   LVTOT        =      F    write LOCPOT, total local potential
   LVHAR        =      F    write LOCPOT, Hartree potential only
   LELF         =      F    write electronic localiz. function (ELF)
   LORBIT       =      0    0 simple, 1 ext, 2 COOP (PROOUT), +10 PAW based schemes


 Dipole corrections
   LMONO  =      F    monopole corrections only (constant potential shift)
   LDIPOL =      F    correct potential (dipole corrections)
   IDIPOL =      0    1-x, 2-y, 3-z, 4-all directions 
   EPSILON=  1.0000000 bulk dielectric constant

 Exchange correlation treatment:
   GGA     =    PE    GGA type
   LEXCH   =     8    internal setting for exchange type
   LIBXC   =     F    Libxc                    
   VOSKOWN =     0    Vosko Wilk Nusair interpolation
   LHFCALC =     F    Hartree Fock is set to
   LHFONE  =     F    Hartree Fock one center treatment
   AEXX    =    0.0000 exact exchange contribution

 Linear response parameters
   LEPSILON=     F    determine dielectric tensor
   LRPA    =     F    only Hartree local field effects (RPA)
   LNABLA  =     F    use nabla operator in PAW spheres
   LVEL    =     F    velocity operator in full k-point grid
   CSHIFT  =0.1000    complex shift for real part using Kramers Kronig
   OMEGAMAX=  -1.0    maximum frequency
   DEG_THRESHOLD= 0.2000000E-02 threshold for treating states as degnerate
   RTIME   =   -0.100 relaxation time in fs
  (WPLASMAI=    0.000 imaginary part of plasma frequency in eV, 0.658/RTIME)
   DFIELD  = 0.0000000 0.0000000 0.0000000 field for delta impulse in time
 
  Optional k-point grid parameters
   LKPOINTS_OPT  =     F    use optional k-point grid
   KPOINTS_OPT_MODE=     1    mode for optional k-point grid
 
 Orbital magnetization related:
   ORBITALMAG=     F  switch on orbital magnetization
   LCHIMAG   =     F  perturbation theory with respect to B field
   DQ        =  0.001000  dq finite difference perturbation B field
   LLRAUG    =     F  two centre corrections for induced B field



--------------------------------------------------------------------------------------------------------


 conjugate gradient relaxation of ions
 charge density and potential will be updated during run
 non-spin polarized calculation
 Variant of blocked Davidson
 Davidson routine will perform the subspace rotation
 perform sub-space diagonalisation
    after iterative eigenvector-optimisation
 modified Broyden-mixing scheme, WC =      100.0
 initial mixing is a Kerker type mixing with AMIX =  0.4000 and BMIX =      1.0000
 Hartree-type preconditioning will be used
 using additional bands           20
 reciprocal scheme for non local part
 use partial core corrections
 calculate Harris-corrections to forces 
   (improved forces if not selfconsistent)
 use gradient corrections 
 use of overlap-Matrix (Vanderbilt PP)
 Gauss-broadening in eV      SIGMA  =   0.10


--------------------------------------------------------------------------------------------------------


  energy-cutoff  :      450.00
  volume of cell :      322.04
      direct lattice vectors                 reciprocal lattice vectors
     4.311940485  2.489500000  0.000000000     0.115957074  0.200843543  0.000000000
    -4.311940485  2.489500000  0.000000000    -0.115957074  0.200843543  0.000000000
     0.000000000  0.000000000 15.000000000     0.000000000  0.000000000  0.066666667

  length of vectors
     4.979000000  4.979000000 15.000000000     0.231914147  0.231914147  0.066666667


 
 k-points in units of 2pi/SCALE and weight: k-points                                
   0.00000000  0.00000000  0.00000000       0.007
   0.00966309  0.01673696  0.00000000       0.042
   0.01932618  0.03347392  0.00000000       0.042
   0.02898927  0.05021089  0.00000000       0.042
   0.03865236  0.06694785  0.00000000       0.042
   0.04831545  0.08368481  0.00000000       0.042
   0.05797854  0.10042177  0.00000000       0.021
  -0.00000000  0.03347392  0.00000000       0.042
   0.00966309  0.05021089  0.00000000       0.083
   0.01932618  0.06694785  0.00000000       0.083
   0.02898927  0.08368481  0.00000000       0.083
   0.03865236  0.10042177  0.00000000       0.083
   0.00000000  0.06694785  0.00000000       0.042
   0.00966309  0.08368481  0.00000000       0.083
   0.01932618  0.10042177  0.00000000       0.083
   0.02898927  0.11715873  0.00000000       0.042
   0.00000000  0.10042177  0.00000000       0.042
   0.00966309  0.11715873  0.00000000       0.083
  -0.00000000  0.13389570  0.00000000       0.014
 
 k-points in reciprocal lattice and weights: k-points                                
   0.00000000  0.00000000  0.00000000       0.007
   0.08333333 -0.00000000  0.00000000       0.042
   0.16666667  0.00000000  0.00000000       0.042
   0.25000000  0.00000000  0.00000000       0.042
   0.33333333  0.00000000  0.00000000       0.042
   0.41666667  0.00000000  0.00000000       0.042
   0.50000000  0.00000000  0.00000000       0.021
   0.08333333  0.08333333  0.00000000       0.042
   0.16666667  0.08333333  0.00000000       0.083
   0.25000000  0.08333333  0.00000000       0.083
   0.33333333  0.08333333  0.00000000       0.083
   0.41666667  0.08333333  0.00000000       0.083
   0.16666667  0.16666667  0.00000000       0.042
   0.25000000  0.16666667  0.00000000       0.083
   0.33333333  0.16666667  0.00000000       0.083
   0.41666667  0.16666667  0.00000000       0.042
   0.25000000  0.25000000  0.00000000       0.042
   0.33333333  0.25000000  0.00000000       0.083
   0.33333333  0.33333333  0.00000000       0.014
 
 position of ions in fractional coordinates (direct lattice) 
   0.66888689  0.00000000  0.10000000
   0.33111211  0.00000000  0.10000000
   0.00000000  0.33111211  0.10000000
   0.00000000  0.66888689  0.10000000
   0.33111211  0.33111211  0.10000000
   0.66888689  0.66888689  0.10000000
   0.66666600  0.33333300  0.09922189
   0.33333300  0.66666600  0.10077811
   0.16666600  0.33333300  0.36666667
   0.33333300  0.16666600  0.36666667
   0.16666600  0.83333300  0.36666667
   0.33333300  0.66666600  0.36666667
   0.66666600  0.33333300  0.36666667
   0.83333300  0.16666600  0.36666667
   0.66666600  0.83333300  0.36666667
   0.83333300  0.66666600  0.36666667
 
 position of ions in cartesian coordinates  (Angst):
   2.88420045  1.66519391  1.50000000
   1.42773572  0.82430360  1.50000000
  -1.42773572  0.82430360  1.50000000
  -2.88420045  1.66519391  1.50000000
  -0.00000000  1.64860721  1.50000000
   0.00000000  3.33038781  1.50000000
   1.43731206  2.48949751  1.48832830
  -1.43731206  2.48949751  1.51167170
  -0.71865818  1.24474751  5.50000000
   0.71865818  1.24474751  5.50000000
  -2.87462843  2.48949751  5.50000000
  -1.43731206  2.48949751  5.50000000
   1.43731206  2.48949751  5.50000000
   2.87462843  2.48949751  5.50000000
  -0.71865818  3.73424751  5.50000000
   0.71865818  3.73424751  5.50000000
 


--------------------------------------------------------------------------------------------------------


 k-point   1 :   0.0000 0.0000 0.0000  plane waves:    7005
 k-point   2 :   0.0833-0.0000 0.0000  plane waves:    6997
 k-point   3 :   0.1667 0.0000 0.0000  plane waves:    6997
 k-point   4 :   0.2500 0.0000 0.0000  plane waves:    6991
 k-point   5 :   0.3333 0.0000 0.0000  plane waves:    6995
 k-point   6 :   0.4167 0.0000 0.0000  plane waves:    6975
 k-point   7 :   0.5000 0.0000 0.0000  plane waves:    6962
 k-point   8 :   0.0833 0.0833 0.0000  plane waves:    7001
 k-point   9 :   0.1667 0.0833 0.0000  plane waves:    7001
 k-point  10 :   0.2500 0.0833 0.0000  plane waves:    6993
 k-point  11 :   0.3333 0.0833 0.0000  plane waves:    6974
 k-point  12 :   0.4167 0.0833 0.0000  plane waves:    6963
 k-point  13 :   0.1667 0.1667 0.0000  plane waves:    6993
 k-point  14 :   0.2500 0.1667 0.0000  plane waves:    6986
 k-point  15 :   0.3333 0.1667 0.0000  plane waves:    6966
 k-point  16 :   0.4167 0.1667 0.0000  plane waves:    6956
 k-point  17 :   0.2500 0.2500 0.0000  plane waves:    6959
 k-point  18 :   0.3333 0.2500 0.0000  plane waves:    6960
 k-point  19 :   0.3333 0.3333 0.0000  plane waves:    6936

 maximum and minimum number of plane-waves per node :      7005     6936

 maximum number of plane-waves:      7005
 maximum index in each direction: 
   IXMAX=    8   IYMAX=    8   IZMAX=   25
   IXMIN=   -9   IYMIN=   -8   IZMIN=  -25


 serial   3D FFT for wavefunctions
 parallel 3D FFT for charge:
    minimum data exchange during FFTs selected (reduces bandwidth)


 total amount of memory used by VASP MPI-rank0    63637. kBytes
=======================================================================

   base      :      30000. kBytes
   nonl-proj :      18837. kBytes
   fftplans  :       2154. kBytes
   grid      :       8249. kBytes
   one-center:         49. kBytes
   wavefun   :       4348. kBytes
 
     INWAV:  cpu time      0.0000: real time      0.0000
 Broyden mixing: mesh for mixing (old mesh)
   NGX = 17   NGY = 17   NGZ = 51
  (NGX  = 72   NGY  = 72   NGZ  =216)
  gives a total of  14739 points

 initial charge density was supplied:
 charge density of overlapping atoms calculated
 number of electron      56.0000000 magnetization 
 keeping initial charge density in first step


--------------------------------------------------------------------------------------------------------


 Maximum index for augmentation-charges          388 (set IRDMAX)


--------------------------------------------------------------------------------------------------------


 First call to EWALD:  gamma=   0.259
 Maximum number of real-space cells 4x 4x 2
 Maximum number of reciprocal cells 2x 2x 5

    FEWALD:  cpu time      0.0014: real time      0.0014


--------------------------------------- Iteration      1(   1)  ---------------------------------------


    POTLOK:  cpu time      0.0260: real time      0.0264
    SETDIJ:  cpu time      0.0015: real time      0.0015
     EDDAV:  cpu time      1.1465: real time      1.1469
       DOS:  cpu time      0.0007: real time      0.0007
    --------------------------------------------
      LOOP:  cpu time      1.1747: real time      1.1756

 eigenvalue-minimisations  :  1824
 total energy-change (2. order) : 0.2465238E+03  (-0.2290022E+04)
 number of electron      56.0000000 magnetization 
 augmentation part       56.0000000 magnetization 

 Free energy of the ion-electron system (eV)
  ---------------------------------------------------
  alpha Z        PSCENC =        60.47074313
  Ewald energy   TEWEN  =      3686.60826135
  -Hartree energ DENC   =     -5100.11368739
  -exchange      EXHF   =         0.00000000
  -V(xc)+E(xc)   XCENC  =       161.05428510
  PAW double counting   =      1216.17529508    -1213.88798198
  entropy T*S    EENTRO =        -0.01794367
  eigenvalues    EBANDS =      -310.27075628
  atomic energy  EATOM  =      1746.50554237
  Solvation  Ediel_sol  =         0.00000000
  ---------------------------------------------------
  free energy    TOTEN  =       246.52375772 eV

  energy without entropy =      246.54170138  energy(sigma->0) =      246.53272955


--------------------------------------------------------------------------------------------------------




--------------------------------------- Iteration      1(   2)  ---------------------------------------


     EDDAV:  cpu time      1.3351: real time      1.3358
       DOS:  cpu time      0.0004: real time      0.0004
    --------------------------------------------
      LOOP:  cpu time      1.3354: real time      1.3361

 eigenvalue-minimisations  :  2280
 total energy-change (2. order) :-0.3568923E+03  (-0.3449056E+03)
 number of electron      56.0000000 magnetization 
 augmentation part       56.0000000 magnetization 

 Free energy of the ion-electron system (eV)
  ---------------------------------------------------
  alpha Z        PSCENC =        60.47074313
  Ewald energy   TEWEN  =      3686.60826135
  -Hartree energ DENC   =     -5100.11368739
  -exchange      EXHF   =         0.00000000
  -V(xc)+E(xc)   XCENC  =       161.05428510
  PAW double counting   =      1216.17529508    -1213.88798198
  entropy T*S    EENTRO =        -0.00819108
  eigenvalues    EBANDS =      -667.17277949
  atomic energy  EATOM  =      1746.50554237
  Solvation  Ediel_sol  =         0.00000000
  ---------------------------------------------------
  free energy    TOTEN  =      -110.36851290 eV

  energy without entropy =     -110.36032182  energy(sigma->0) =     -110.36441736


--------------------------------------------------------------------------------------------------------




--------------------------------------- Iteration      1(   3)  ---------------------------------------


     EDDAV:  cpu time      1.5578: real time      1.5579
       DOS:  cpu time      0.0004: real time      0.0004
    --------------------------------------------
      LOOP:  cpu time      1.5582: real time      1.5583

 eigenvalue-minimisations  :  2712
 total energy-change (2. order) :-0.2328501E+02  (-0.2308166E+02)
 number of electron      56.0000000 magnetization 
 augmentation part       56.0000000 magnetization 

 Free energy of the ion-electron system (eV)
  ---------------------------------------------------
  alpha Z        PSCENC =        60.47074313
  Ewald energy   TEWEN  =      3686.60826135
  -Hartree energ DENC   =     -5100.11368739
  -exchange      EXHF   =         0.00000000
  -V(xc)+E(xc)   XCENC  =       161.05428510
  PAW double counting   =      1216.17529508    -1213.88798198
  entropy T*S    EENTRO =        -0.00490989
  eigenvalues    EBANDS =      -690.46107373
  atomic energy  EATOM  =      1746.50554237
  Solvation  Ediel_sol  =         0.00000000
  ---------------------------------------------------
  free energy    TOTEN  =      -133.65352595 eV

  energy without entropy =     -133.64861606  energy(sigma->0) =     -133.65107101


--------------------------------------------------------------------------------------------------------




--------------------------------------- Iteration      1(   4)  ---------------------------------------


     EDDAV:  cpu time      1.3934: real time      1.3935
       DOS:  cpu time      0.0004: real time      0.0004
    --------------------------------------------
      LOOP:  cpu time      1.3938: real time      1.3939

 eigenvalue-minimisations  :  2376
 total energy-change (2. order) :-0.3504547E+00  (-0.3500832E+00)
 number of electron      56.0000000 magnetization 
 augmentation part       56.0000000 magnetization 

 Free energy of the ion-electron system (eV)
  ---------------------------------------------------
  alpha Z        PSCENC =        60.47074313
  Ewald energy   TEWEN  =      3686.60826135
  -Hartree energ DENC   =     -5100.11368739
  -exchange      EXHF   =         0.00000000
  -V(xc)+E(xc)   XCENC  =       161.05428510
  PAW double counting   =      1216.17529508    -1213.88798198
  entropy T*S    EENTRO =        -0.00490875
  eigenvalues    EBANDS =      -690.81152954
  atomic energy  EATOM  =      1746.50554237
  Solvation  Ediel_sol  =         0.00000000
  ---------------------------------------------------
  free energy    TOTEN  =      -134.00398063 eV

  energy without entropy =     -133.99907188  energy(sigma->0) =     -134.00152625


--------------------------------------------------------------------------------------------------------




--------------------------------------- Iteration      1(   5)  ---------------------------------------


     EDDAV:  cpu time      1.5045: real time      1.5046
       DOS:  cpu time      0.0004: real time      0.0004
    CHARGE:  cpu time      0.0704: real time      0.0708
    MIXING:  cpu time      0.0015: real time      0.0015
    --------------------------------------------
      LOOP:  cpu time      1.5768: real time      1.5772

 eigenvalue-minimisations  :  2640
 total energy-change (2. order) :-0.1259821E-01  (-0.1259056E-01)
 number of electron      55.9999992 magnetization 
 augmentation part        0.8570661 magnetization 

 Broyden mixing:
  rms(total) = 0.15774E+01    rms(broyden)= 0.15772E+01
  rms(prec ) = 0.18040E+01
  weight for this iteration     100.00

 Free energy of the ion-electron system (eV)
  ---------------------------------------------------
  alpha Z        PSCENC =        60.47074313
  Ewald energy   TEWEN  =      3686.60826135
  -Hartree energ DENC   =     -5100.11368739
  -exchange      EXHF   =         0.00000000
  -V(xc)+E(xc)   XCENC  =       161.05428510
  PAW double counting   =      1216.17529508    -1213.88798198
  entropy T*S    EENTRO =        -0.00490878
  eigenvalues    EBANDS =      -690.82412773
  atomic energy  EATOM  =      1746.50554237
  Solvation  Ediel_sol  =         0.00000000
  ---------------------------------------------------
  free energy    TOTEN  =      -134.01657884 eV

  energy without entropy =     -134.01167006  energy(sigma->0) =     -134.01412445


--------------------------------------------------------------------------------------------------------




--------------------------------------- Iteration      1(   6)  ---------------------------------------


    POTLOK:  cpu time      0.0226: real time      0.0227
    SETDIJ:  cpu time      0.0013: real time      0.0013
     EDDAV:  cpu time      1.4121: real time      1.4121
       DOS:  cpu time      0.0004: real time      0.0004
    CHARGE:  cpu time      0.0671: real time      0.0671
    MIXING:  cpu time      0.0014: real time      0.0014
    --------------------------------------------
      LOOP:  cpu time      1.5049: real time      1.5050

 eigenvalue-minimisations  :  2424
 total energy-change (2. order) : 0.7034945E+01  (-0.5838794E+00)
 number of electron      55.9999992 magnetization 
 augmentation part        0.7988666 magnetization 

 Broyden mixing:
  rms(total) = 0.91606E+00    rms(broyden)= 0.91604E+00
  rms(prec ) = 0.10331E+01
  weight for this iteration     100.00

 eigenvalues of (default mixing * dielectric matrix)
  average eigenvalue GAMMA=   2.2291
  2.2291

 Free energy of the ion-electron system (eV)
  ---------------------------------------------------
  alpha Z        PSCENC =        60.47074313
  Ewald energy   TEWEN  =      3686.60826135
  -Hartree energ DENC   =     -5167.18612342
  -exchange      EXHF   =         0.00000000
  -V(xc)+E(xc)   XCENC  =       163.97090227
  PAW double counting   =      2540.33164305    -2539.03618957
  entropy T*S    EENTRO =        -0.00716564
  eigenvalues    EBANDS =      -618.63924688
  atomic energy  EATOM  =      1746.50554237
  Solvation  Ediel_sol  =         0.00000000
  ---------------------------------------------------
  free energy    TOTEN  =      -126.98163334 eV

  energy without entropy =     -126.97446770  energy(sigma->0) =     -126.97805052


--------------------------------------------------------------------------------------------------------




--------------------------------------- Iteration      1(   7)  ---------------------------------------


    POTLOK:  cpu time      0.0248: real time      0.0248
    SETDIJ:  cpu time      0.0014: real time      0.0014
     EDDAV:  cpu time      1.5733: real time      1.5734
       DOS:  cpu time      0.0004: real time      0.0004
    CHARGE:  cpu time      0.0684: real time      0.0684
    MIXING:  cpu time      0.0012: real time      0.0012
    --------------------------------------------
      LOOP:  cpu time      1.6694: real time      1.6695

 eigenvalue-minimisations  :  2736
 total energy-change (2. order) : 0.2789554E+01  (-0.8037758E+00)
 number of electron      55.9999992 magnetization 
 augmentation part        0.7294671 magnetization 

 Broyden mixing:
  rms(total) = 0.20648E+00    rms(broyden)= 0.20634E+00
  rms(prec ) = 0.23191E+00
  weight for this iteration     100.00

 eigenvalues of (default mixing * dielectric matrix)
  average eigenvalue GAMMA=   2.2093
  2.0223  2.3963

 Free energy of the ion-electron system (eV)
  ---------------------------------------------------
  alpha Z        PSCENC =        60.47074313
  Ewald energy   TEWEN  =      3686.60826135
  -Hartree energ DENC   =     -5256.96836969
  -exchange      EXHF   =         0.00000000
  -V(xc)+E(xc)   XCENC  =       167.93023304
  PAW double counting   =      5251.46994691    -5251.12253043
  entropy T*S    EENTRO =        -0.00510486
  eigenvalues    EBANDS =      -529.08080091
  atomic energy  EATOM  =      1746.50554237
  Solvation  Ediel_sol  =         0.00000000
  ---------------------------------------------------
  free energy    TOTEN  =      -124.19207909 eV

  energy without entropy =     -124.18697423  energy(sigma->0) =     -124.18952666


--------------------------------------------------------------------------------------------------------




--------------------------------------- Iteration      1(   8)  ---------------------------------------


    POTLOK:  cpu time      0.0204: real time      0.0204
    SETDIJ:  cpu time      0.0013: real time      0.0013
     EDDAV:  cpu time      1.4145: real time      1.4146
       DOS:  cpu time      0.0004: real time      0.0004
    CHARGE:  cpu time      0.0668: real time      0.0668
    MIXING:  cpu time      0.0012: real time      0.0012
    --------------------------------------------
      LOOP:  cpu time      1.5046: real time      1.5046

 eigenvalue-minimisations  :  2448
 total energy-change (2. order) : 0.3245691E-01  (-0.3121756E-01)
 number of electron      55.9999992 magnetization 
 augmentation part        0.7233505 magnetization 

 Broyden mixing:
  rms(total) = 0.29931E-01    rms(broyden)= 0.29922E-01
  rms(prec ) = 0.62165E-01
  weight for this iteration     100.00

 eigenvalues of (default mixing * dielectric matrix)
  average eigenvalue GAMMA=   1.8141
  1.0298  2.0698  2.3428

 Free energy of the ion-electron system (eV)
  ---------------------------------------------------
  alpha Z        PSCENC =        60.47074313
  Ewald energy   TEWEN  =      3686.60826135
  -Hartree energ DENC   =     -5267.69094725
  -exchange      EXHF   =         0.00000000
  -V(xc)+E(xc)   XCENC  =       168.05742147
  PAW double counting   =      5825.28490514    -5824.69520416
  entropy T*S    EENTRO =        -0.00475434
  eigenvalues    EBANDS =      -518.69558988
  atomic energy  EATOM  =      1746.50554237
  Solvation  Ediel_sol  =         0.00000000
  ---------------------------------------------------
  free energy    TOTEN  =      -124.15962218 eV

  energy without entropy =     -124.15486784  energy(sigma->0) =     -124.15724501


--------------------------------------------------------------------------------------------------------




--------------------------------------- Iteration      1(   9)  ---------------------------------------


    POTLOK:  cpu time      0.0190: real time      0.0190
    SETDIJ:  cpu time      0.0013: real time      0.0013
     EDDAV:  cpu time      1.4170: real time      1.4171
       DOS:  cpu time      0.0004: real time      0.0004
    CHARGE:  cpu time      0.0680: real time      0.0680
    MIXING:  cpu time      0.0013: real time      0.0013
    --------------------------------------------
      LOOP:  cpu time      1.5070: real time      1.5070

 eigenvalue-minimisations  :  2448
 total energy-change (2. order) : 0.7682907E-02  (-0.1708040E-02)
 number of electron      55.9999992 magnetization 
 augmentation part        0.7227284 magnetization 

 Broyden mixing:
  rms(total) = 0.21042E-01    rms(broyden)= 0.21041E-01
  rms(prec ) = 0.50068E-01
  weight for this iteration     100.00

 eigenvalues of (default mixing * dielectric matrix)
  average eigenvalue GAMMA=   1.9364
  1.0293  2.4406  2.4406  1.8349

 Free energy of the ion-electron system (eV)
  ---------------------------------------------------
  alpha Z        PSCENC =        60.47074313
  Ewald energy   TEWEN  =      3686.60826135
  -Hartree energ DENC   =     -5272.33562303
  -exchange      EXHF   =         0.00000000
  -V(xc)+E(xc)   XCENC  =       168.13489517
  PAW double counting   =      5834.43930497    -5833.83666839
  entropy T*S    EENTRO =        -0.00495158
  eigenvalues    EBANDS =      -514.13344325
  atomic energy  EATOM  =      1746.50554237
  Solvation  Ediel_sol  =         0.00000000
  ---------------------------------------------------
  free energy    TOTEN  =      -124.15193927 eV

  energy without entropy =     -124.14698769  energy(sigma->0) =     -124.14946348


--------------------------------------------------------------------------------------------------------




--------------------------------------- Iteration      1(  10)  ---------------------------------------


    POTLOK:  cpu time      0.0199: real time      0.0199
    SETDIJ:  cpu time      0.0013: real time      0.0013
     EDDAV:  cpu time      1.4072: real time      1.4072
       DOS:  cpu time      0.0004: real time      0.0004
    CHARGE:  cpu time      0.0655: real time      0.0655
    MIXING:  cpu time      0.0011: real time      0.0011
    --------------------------------------------
      LOOP:  cpu time      1.4953: real time      1.4954

 eigenvalue-minimisations  :  2424
 total energy-change (2. order) : 0.1546772E-01  (-0.1275915E-02)
 number of electron      55.9999992 magnetization 
 augmentation part        0.7214459 magnetization 

 Broyden mixing:
  rms(total) = 0.11040E-01    rms(broyden)= 0.11036E-01
  rms(prec ) = 0.27059E-01
  weight for this iteration     100.00

 eigenvalues of (default mixing * dielectric matrix)
  average eigenvalue GAMMA=   1.7871
  2.5850  2.5850  1.7731  1.0774  0.9147

 Free energy of the ion-electron system (eV)
  ---------------------------------------------------
  alpha Z        PSCENC =        60.47074313
  Ewald energy   TEWEN  =      3686.60826135
  -Hartree energ DENC   =     -5284.44713690
  -exchange      EXHF   =         0.00000000
  -V(xc)+E(xc)   XCENC  =       168.31047119
  PAW double counting   =      5806.32137458    -5805.69899216
  entropy T*S    EENTRO =        -0.00601759
  eigenvalues    EBANDS =      -502.20071751
  atomic energy  EATOM  =      1746.50554237
  Solvation  Ediel_sol  =         0.00000000
  ---------------------------------------------------
  free energy    TOTEN  =      -124.13647156 eV

  energy without entropy =     -124.13045397  energy(sigma->0) =     -124.13346276


--------------------------------------------------------------------------------------------------------




--------------------------------------- Iteration      1(  11)  ---------------------------------------


    POTLOK:  cpu time      0.0192: real time      0.0192
    SETDIJ:  cpu time      0.0013: real time      0.0013
     EDDAV:  cpu time      1.3733: real time      1.3734
       DOS:  cpu time      0.0004: real time      0.0004
    CHARGE:  cpu time      0.0661: real time      0.0661
    MIXING:  cpu time      0.0011: real time      0.0011
    --------------------------------------------
      LOOP:  cpu time      1.4612: real time      1.4613

 eigenvalue-minimisations  :  2352
 total energy-change (2. order) : 0.2027230E-02  (-0.2180677E-03)
 number of electron      55.9999992 magnetization 
 augmentation part        0.7210702 magnetization 

 Broyden mixing:
  rms(total) = 0.82234E-02    rms(broyden)= 0.82230E-02
  rms(prec ) = 0.18613E-01
  weight for this iteration     100.00

 eigenvalues of (default mixing * dielectric matrix)
  average eigenvalue GAMMA=   2.1437
  4.2959  2.3681  2.3681  1.7384  0.9572  1.1344

 Free energy of the ion-electron system (eV)
  ---------------------------------------------------
  alpha Z        PSCENC =        60.47074313
  Ewald energy   TEWEN  =      3686.60826135
  -Hartree energ DENC   =     -5288.45412837
  -exchange      EXHF   =         0.00000000
  -V(xc)+E(xc)   XCENC  =       168.34807860
  PAW double counting   =      5822.22429801    -5821.59477246
  entropy T*S    EENTRO =        -0.00571322
  eigenvalues    EBANDS =      -498.23675372
  atomic energy  EATOM  =      1746.50554237
  Solvation  Ediel_sol  =         0.00000000
  ---------------------------------------------------
  free energy    TOTEN  =      -124.13444433 eV

  energy without entropy =     -124.12873110  energy(sigma->0) =     -124.13158771


--------------------------------------------------------------------------------------------------------




--------------------------------------- Iteration      1(  12)  ---------------------------------------


    POTLOK:  cpu time      0.0192: real time      0.0192
    SETDIJ:  cpu time      0.0012: real time      0.0012
     EDDAV:  cpu time      1.2406: real time      1.2406
       DOS:  cpu time      0.0004: real time      0.0004
    CHARGE:  cpu time      0.0655: real time      0.0655
    MIXING:  cpu time      0.0012: real time      0.0012
    --------------------------------------------
      LOOP:  cpu time      1.3280: real time      1.3281

 eigenvalue-minimisations  :  2040
 total energy-change (2. order) :-0.8443190E-03  (-0.2966247E-03)
 number of electron      55.9999992 magnetization 
 augmentation part        0.7205943 magnetization 

 Broyden mixing:
  rms(total) = 0.36459E-02    rms(broyden)= 0.36454E-02
  rms(prec ) = 0.70965E-02
  weight for this iteration     100.00

 eigenvalues of (default mixing * dielectric matrix)
  average eigenvalue GAMMA=   2.1934
  5.0652  2.4404  2.4404  1.8037  1.5036  0.9965  1.1044

 Free energy of the ion-electron system (eV)
  ---------------------------------------------------
  alpha Z        PSCENC =        60.47074313
  Ewald energy   TEWEN  =      3686.60826135
  -Hartree energ DENC   =     -5294.72969061
  -exchange      EXHF   =         0.00000000
  -V(xc)+E(xc)   XCENC  =       168.38689216
  PAW double counting   =      5803.92840063    -5803.30459388
  entropy T*S    EENTRO =        -0.00555699
  eigenvalues    EBANDS =      -491.99528680
  atomic energy  EATOM  =      1746.50554237
  Solvation  Ediel_sol  =         0.00000000
  ---------------------------------------------------
  free energy    TOTEN  =      -124.13528865 eV

  energy without entropy =     -124.12973165  energy(sigma->0) =     -124.13251015


--------------------------------------------------------------------------------------------------------




--------------------------------------- Iteration      1(  13)  ---------------------------------------


    POTLOK:  cpu time      0.0198: real time      0.0198
    SETDIJ:  cpu time      0.0013: real time      0.0013
     EDDAV:  cpu time      1.3030: real time      1.3030
       DOS:  cpu time      0.0004: real time      0.0004
    CHARGE:  cpu time      0.0644: real time      0.0644
    MIXING:  cpu time      0.0012: real time      0.0012
    --------------------------------------------
      LOOP:  cpu time      1.3901: real time      1.3901

 eigenvalue-minimisations  :  2208
 total energy-change (2. order) :-0.2019664E-02  (-0.2650768E-04)
 number of electron      55.9999992 magnetization 
 augmentation part        0.7204897 magnetization 

 Broyden mixing:
  rms(total) = 0.19627E-02    rms(broyden)= 0.19627E-02
  rms(prec ) = 0.34437E-02
  weight for this iteration     100.00

 eigenvalues of (default mixing * dielectric matrix)
  average eigenvalue GAMMA=   2.3972
  6.6734  3.1293  2.3735  2.1580  1.6660  1.2156  0.9810  0.9810

 Free energy of the ion-electron system (eV)
  ---------------------------------------------------
  alpha Z        PSCENC =        60.47074313
  Ewald energy   TEWEN  =      3686.60826135
  -Hartree energ DENC   =     -5296.07327710
  -exchange      EXHF   =         0.00000000
  -V(xc)+E(xc)   XCENC  =       168.38142650
  PAW double counting   =      5804.91202242    -5804.28871724
  entropy T*S    EENTRO =        -0.00558230
  eigenvalues    EBANDS =      -490.64772743
  atomic energy  EATOM  =      1746.50554237
  Solvation  Ediel_sol  =         0.00000000
  ---------------------------------------------------
  free energy    TOTEN  =      -124.13730831 eV

  energy without entropy =     -124.13172601  energy(sigma->0) =     -124.13451716


--------------------------------------------------------------------------------------------------------




--------------------------------------- Iteration      1(  14)  ---------------------------------------


    POTLOK:  cpu time      0.0192: real time      0.0192
    SETDIJ:  cpu time      0.0013: real time      0.0013
     EDDAV:  cpu time      1.3262: real time      1.3262
       DOS:  cpu time      0.0004: real time      0.0004
    CHARGE:  cpu time      0.0651: real time      0.0652
    MIXING:  cpu time      0.0012: real time      0.0012
    --------------------------------------------
      LOOP:  cpu time      1.4134: real time      1.4134

 eigenvalue-minimisations  :  2256
 total energy-change (2. order) :-0.2250988E-02  (-0.2614757E-04)
 number of electron      55.9999992 magnetization 
 augmentation part        0.7205013 magnetization 

 Broyden mixing:
  rms(total) = 0.90195E-03    rms(broyden)= 0.90193E-03
  rms(prec ) = 0.13215E-02
  weight for this iteration     100.00

 eigenvalues of (default mixing * dielectric matrix)
  average eigenvalue GAMMA=   2.4621
  7.3101  3.5904  2.3872  2.3872  1.8611  1.4721  1.1870  0.9818  0.9818

 Free energy of the ion-electron system (eV)
  ---------------------------------------------------
  alpha Z        PSCENC =        60.47074313
  Ewald energy   TEWEN  =      3686.60826135
  -Hartree energ DENC   =     -5296.18940547
  -exchange      EXHF   =         0.00000000
  -V(xc)+E(xc)   XCENC  =       168.37072599
  PAW double counting   =      5806.59889877    -5805.97555351
  entropy T*S    EENTRO =        -0.00561399
  eigenvalues    EBANDS =      -490.52315793
  atomic energy  EATOM  =      1746.50554237
  Solvation  Ediel_sol  =         0.00000000
  ---------------------------------------------------
  free energy    TOTEN  =      -124.13955930 eV

  energy without entropy =     -124.13394531  energy(sigma->0) =     -124.13675230


--------------------------------------------------------------------------------------------------------




--------------------------------------- Iteration      1(  15)  ---------------------------------------


    POTLOK:  cpu time      0.0190: real time      0.0190
    SETDIJ:  cpu time      0.0013: real time      0.0013
     EDDAV:  cpu time      1.3202: real time      1.3203
       DOS:  cpu time      0.0004: real time      0.0004
    CHARGE:  cpu time      0.0643: real time      0.0643
    MIXING:  cpu time      0.0013: real time      0.0013
    --------------------------------------------
      LOOP:  cpu time      1.4066: real time      1.4067

 eigenvalue-minimisations  :  2232
 total energy-change (2. order) :-0.6372965E-03  (-0.6513311E-05)
 number of electron      55.9999992 magnetization 
 augmentation part        0.7204943 magnetization 

 Broyden mixing:
  rms(total) = 0.45083E-03    rms(broyden)= 0.45075E-03
  rms(prec ) = 0.63390E-03
  weight for this iteration     100.00

 eigenvalues of (default mixing * dielectric matrix)
  average eigenvalue GAMMA=   2.5116
  7.8708  4.0137  2.5153  2.5153  2.0591  1.7157  0.9838  1.0313  1.0313  1.3792

 Free energy of the ion-electron system (eV)
  ---------------------------------------------------
  alpha Z        PSCENC =        60.47074313
  Ewald energy   TEWEN  =      3686.60826135
  -Hartree energ DENC   =     -5296.21642457
  -exchange      EXHF   =         0.00000000
  -V(xc)+E(xc)   XCENC  =       168.37091263
  PAW double counting   =      5806.53227216    -5805.90871955
  entropy T*S    EENTRO =        -0.00563189
  eigenvalues    EBANDS =      -490.49715222
  atomic energy  EATOM  =      1746.50554237
  Solvation  Ediel_sol  =         0.00000000
  ---------------------------------------------------
  free energy    TOTEN  =      -124.14019659 eV

  energy without entropy =     -124.13456470  energy(sigma->0) =     -124.13738065


--------------------------------------------------------------------------------------------------------




--------------------------------------- Iteration      1(  16)  ---------------------------------------


    POTLOK:  cpu time      0.0192: real time      0.0192
    SETDIJ:  cpu time      0.0013: real time      0.0013
     EDDAV:  cpu time      1.3686: real time      1.3686
       DOS:  cpu time      0.0004: real time      0.0004
    CHARGE:  cpu time      0.0655: real time      0.0655
    MIXING:  cpu time      0.0013: real time      0.0013
    --------------------------------------------
      LOOP:  cpu time      1.4561: real time      1.4561

 eigenvalue-minimisations  :  2352
 total energy-change (2. order) :-0.1341987E-03  (-0.8398822E-06)
 number of electron      55.9999992 magnetization 
 augmentation part        0.7204929 magnetization 

 Broyden mixing:
  rms(total) = 0.10797E-03    rms(broyden)= 0.10796E-03
  rms(prec ) = 0.18587E-03
  weight for this iteration     100.00

 eigenvalues of (default mixing * dielectric matrix)
  average eigenvalue GAMMA=   2.4664
  8.0173  4.2988  2.8092  2.3919  2.1675  1.7049  1.4446  0.9868  1.0398  1.0398
  1.2294

 Free energy of the ion-electron system (eV)
  ---------------------------------------------------
  alpha Z        PSCENC =        60.47074313
  Ewald energy   TEWEN  =      3686.60826135
  -Hartree energ DENC   =     -5296.26179575
  -exchange      EXHF   =         0.00000000
  -V(xc)+E(xc)   XCENC  =       168.37158047
  PAW double counting   =      5806.43847184    -5805.81470402
  entropy T*S    EENTRO =        -0.00561061
  eigenvalues    EBANDS =      -490.45281956
  atomic energy  EATOM  =      1746.50554237
  Solvation  Ediel_sol  =         0.00000000
  ---------------------------------------------------
  free energy    TOTEN  =      -124.14033079 eV

  energy without entropy =     -124.13472019  energy(sigma->0) =     -124.13752549


--------------------------------------------------------------------------------------------------------




--------------------------------------- Iteration      1(  17)  ---------------------------------------


    POTLOK:  cpu time      0.0195: real time      0.0195
    SETDIJ:  cpu time      0.0012: real time      0.0012
     EDDAV:  cpu time      1.2697: real time      1.2698
       DOS:  cpu time      0.0004: real time      0.0004
    CHARGE:  cpu time      0.0650: real time      0.0650
    MIXING:  cpu time      0.0013: real time      0.0013
    --------------------------------------------
      LOOP:  cpu time      1.3570: real time      1.3571

 eigenvalue-minimisations  :  2136
 total energy-change (2. order) :-0.2515639E-04  (-0.2149236E-06)
 number of electron      55.9999992 magnetization 
 augmentation part        0.7204903 magnetization 

 Broyden mixing:
  rms(total) = 0.57284E-04    rms(broyden)= 0.57281E-04
  rms(prec ) = 0.93454E-04
  weight for this iteration     100.00

 eigenvalues of (default mixing * dielectric matrix)
  average eigenvalue GAMMA=   2.4361
  8.0466  4.4260  2.9913  2.4111  2.1907  1.9796  1.6822  1.4440  1.0804  0.9691
  1.0063  1.0063

 Free energy of the ion-electron system (eV)
  ---------------------------------------------------
  alpha Z        PSCENC =        60.47074313
  Ewald energy   TEWEN  =      3686.60826135
  -Hartree energ DENC   =     -5296.23712562
  -exchange      EXHF   =         0.00000000
  -V(xc)+E(xc)   XCENC  =       168.37159997
  PAW double counting   =      5806.44874356    -5805.82498638
  entropy T*S    EENTRO =        -0.00561127
  eigenvalues    EBANDS =      -490.47752305
  atomic energy  EATOM  =      1746.50554237
  Solvation  Ediel_sol  =         0.00000000
  ---------------------------------------------------
  free energy    TOTEN  =      -124.14035595 eV

  energy without entropy =     -124.13474468  energy(sigma->0) =     -124.13755031


--------------------------------------------------------------------------------------------------------




--------------------------------------- Iteration      1(  18)  ---------------------------------------


    POTLOK:  cpu time      0.0189: real time      0.0189
    SETDIJ:  cpu time      0.0012: real time      0.0012
     EDDAV:  cpu time      1.1352: real time      1.1353
       DOS:  cpu time      0.0004: real time      0.0004
    CHARGE:  cpu time      0.0637: real time      0.0637
    MIXING:  cpu time      0.0014: real time      0.0014
    --------------------------------------------
      LOOP:  cpu time      1.2209: real time      1.2211

 eigenvalue-minimisations  :  1752
 total energy-change (2. order) :-0.4859586E-05  (-0.2513303E-07)
 number of electron      55.9999992 magnetization 
 augmentation part        0.7204889 magnetization 

 Broyden mixing:
  rms(total) = 0.25438E-04    rms(broyden)= 0.25435E-04
  rms(prec ) = 0.53663E-04
  weight for this iteration     100.00

 eigenvalues of (default mixing * dielectric matrix)
  average eigenvalue GAMMA=   2.4393
  8.0330  4.5976  3.2529  2.7329  2.3403  2.1507  1.6517  1.4444  1.4444  0.9762
  1.0359  1.0359  1.0147

 Free energy of the ion-electron system (eV)
  ---------------------------------------------------
  alpha Z        PSCENC =        60.47074313
  Ewald energy   TEWEN  =      3686.60826135
  -Hartree energ DENC   =     -5296.24704714
  -exchange      EXHF   =         0.00000000
  -V(xc)+E(xc)   XCENC  =       168.37183067
  PAW double counting   =      5806.35911956    -5805.73536410
  entropy T*S    EENTRO =        -0.00561224
  eigenvalues    EBANDS =      -490.46783440
  atomic energy  EATOM  =      1746.50554237
  Solvation  Ediel_sol  =         0.00000000
  ---------------------------------------------------
  free energy    TOTEN  =      -124.14036081 eV

  energy without entropy =     -124.13474857  energy(sigma->0) =     -124.13755469


--------------------------------------------------------------------------------------------------------




--------------------------------------- Iteration      1(  19)  ---------------------------------------


    POTLOK:  cpu time      0.0241: real time      0.0241
    SETDIJ:  cpu time      0.0013: real time      0.0013
     EDDAV:  cpu time      1.0330: real time      1.0331
       DOS:  cpu time      0.0004: real time      0.0003
    CHARGE:  cpu time      0.0649: real time      0.0649
    MIXING:  cpu time      0.0013: real time      0.0013
    --------------------------------------------
      LOOP:  cpu time      1.1249: real time      1.1249

 eigenvalue-minimisations  :  1560
 total energy-change (2. order) :-0.2596267E-05  (-0.2184242E-07)
 number of electron      55.9999992 magnetization 
 augmentation part        0.7204886 magnetization 

 Broyden mixing:
  rms(total) = 0.13477E-04    rms(broyden)= 0.13476E-04
  rms(prec ) = 0.24818E-04
  weight for this iteration     100.00

 eigenvalues of (default mixing * dielectric matrix)
  average eigenvalue GAMMA=   2.3998
  8.0197  4.6915  3.3814  2.6746  2.3613  2.2785  1.7878  1.6641  1.4129  1.2433
  0.9791  0.9791  1.0616  1.0616

 Free energy of the ion-electron system (eV)
  ---------------------------------------------------
  alpha Z        PSCENC =        60.47074313
  Ewald energy   TEWEN  =      3686.60826135
  -Hartree energ DENC   =     -5296.24618191
  -exchange      EXHF   =         0.00000000
  -V(xc)+E(xc)   XCENC  =       168.37183103
  PAW double counting   =      5806.34138844    -5805.71764326
  entropy T*S    EENTRO =        -0.00561162
  eigenvalues    EBANDS =      -490.46869293
  atomic energy  EATOM  =      1746.50554237
  Solvation  Ediel_sol  =         0.00000000
  ---------------------------------------------------
  free energy    TOTEN  =      -124.14036340 eV

  energy without entropy =     -124.13475179  energy(sigma->0) =     -124.13755759


--------------------------------------------------------------------------------------------------------




--------------------------------------- Iteration      1(  20)  ---------------------------------------


    POTLOK:  cpu time      0.0192: real time      0.0201
    SETDIJ:  cpu time      0.0012: real time      0.0012
     EDDAV:  cpu time      1.1900: real time      1.1900
       DOS:  cpu time      0.0004: real time      0.0004
    --------------------------------------------
      LOOP:  cpu time      1.2108: real time      1.2117

 eigenvalue-minimisations  :  1896
 total energy-change (2. order) :-0.7601607E-06  (-0.4495377E-08)
 number of electron      55.9999992 magnetization 
 augmentation part        0.7204886 magnetization 

 Free energy of the ion-electron system (eV)
  ---------------------------------------------------
  alpha Z        PSCENC =        60.47074313
  Ewald energy   TEWEN  =      3686.60826135
  -Hartree energ DENC   =     -5296.24566576
  -exchange      EXHF   =         0.00000000
  -V(xc)+E(xc)   XCENC  =       168.37181877
  PAW double counting   =      5806.36777353    -5805.74401846
  entropy T*S    EENTRO =        -0.00561152
  eigenvalues    EBANDS =      -490.46920756
  atomic energy  EATOM  =      1746.50554237
  Solvation  Ediel_sol  =         0.00000000
  ---------------------------------------------------
  free energy    TOTEN  =      -124.14036416 eV

  energy without entropy =     -124.13475265  energy(sigma->0) =     -124.13755841


--------------------------------------------------------------------------------------------------------




 average (electrostatic) potential at core
  the test charge radii are     0.7672  0.6991
  (the norm of the test charge is              1.0000)
       1 -33.4112       2 -33.4113       3 -33.4113       4 -33.4112       5 -33.4114
       6 -33.4112       7 -34.6475       8 -34.6476       9 -55.7967      10 -55.7966
      11 -55.7967      12 -55.7972      13 -55.7972      14 -55.7966      15 -55.7967
      16 -55.7966
 
 
 
 E-fermi :  -0.2518     XC(G=0):  -5.3045     alpha+bet : -5.2469

 Fermi energy:        -0.2517625082

 k-point     1 :       0.0000    0.0000    0.0000
  band No.  band energies     occupation 
      1     -19.6009      2.00000
      2     -16.1262      2.00000
      3     -14.4881      2.00000
      4     -14.4859      2.00000
      5     -14.4859      2.00000
      6     -13.3618      2.00000
      7     -13.3618      2.00000
      8     -13.3604      2.00000
      9     -11.9088      2.00000
     10     -11.8351      2.00000
     11     -11.8351      2.00000
     12      -9.5899      2.00000
     13      -9.5898      2.00000
     14      -7.8145      2.00000
     15      -7.5583      2.00000
     16      -6.8901      2.00000
     17      -6.6405      2.00000
     18      -6.6404      2.00000
     19      -6.6400      2.00000
     20      -3.3513      2.00000
     21      -3.3512      2.00000
     22      -2.6399      2.00000
     23      -2.6317      2.00000
     24      -2.6316      2.00000
     25      -1.7963      2.00000
     26      -1.7963      2.00000
     27      -0.2944      1.45333
     28       0.2240      0.00000
     29       0.2240      0.00000
     30       0.6147      0.00000
     31       0.6147      0.00000
     32       0.7782      0.00000
     33       0.7782      0.00000
     34       1.3280      0.00000
     35       1.3780      0.00000
     36       1.3780      0.00000
     37       2.7954      0.00000
     38       3.5695      0.00000
     39       4.2314      0.00000
     40       4.7252      0.00000
     41       6.6438      0.00000
     42       6.7836      0.00000
     43       6.7836      0.00000
     44       6.7839      0.00000
     45       7.8273      0.00000
     46       7.8274      0.00000
     47       7.9166      0.00000
     48       8.0130      0.00000

 k-point     2 :       0.0833   -0.0000    0.0000
  band No.  band energies     occupation 
      1     -19.5606      2.00000
      2     -16.0940      2.00000
      3     -14.9587      2.00000
      4     -14.6125      2.00000
      5     -14.6113      2.00000
      6     -13.1702      2.00000
      7     -13.1695      2.00000
      8     -12.8292      2.00000
      9     -12.4135      2.00000
     10     -11.8659      2.00000
     11     -11.3547      2.00000
     12      -9.6463      2.00000
     13      -9.5076      2.00000
     14      -7.7636      2.00000
     15      -7.4075      2.00000
     16      -6.8407      2.00000
     17      -6.7662      2.00000
     18      -6.7659      2.00000
     19      -6.6005      2.00000
     20      -3.5191      2.00000
     21      -3.4378      2.00000
     22      -2.8813      2.00000
     23      -2.6660      2.00000
     24      -2.6613      2.00000
     25      -2.1738      2.00000
     26      -2.1168      2.00000
     27      -0.9682      2.00000
     28      -0.1058      0.03900
     29       0.3514      0.00000
     30       0.9587      0.00000
     31       1.0155      0.00000
     32       1.1778      0.00000
     33       1.2311      0.00000
     34       1.4578      0.00000
     35       1.4885      0.00000
     36       1.6883      0.00000
     37       2.8490      0.00000
     38       3.6371      0.00000
     39       4.3325      0.00000
     40       4.8490      0.00000
     41       6.6959      0.00000
     42       6.8054      0.00000
     43       6.9731      0.00000
     44       6.9733      0.00000
     45       7.7265      0.00000
     46       7.8397      0.00000
     47       7.9750      0.00000
     48       8.0011      0.00000

 k-point     3 :       0.1667    0.0000    0.0000
  band No.  band energies     occupation 
      1     -19.4396      2.00000
      2     -15.9984      2.00000
      3     -15.6927      2.00000
      4     -14.8514      2.00000
      5     -14.8505      2.00000
      6     -12.9473      2.00000
      7     -12.7350      2.00000
      8     -12.7345      2.00000
      9     -11.9430      2.00000
     10     -11.9163      2.00000
     11     -10.9443      2.00000
     12      -9.6880      2.00000
     13      -9.2800      2.00000
     14      -7.6167      2.00000
     15      -7.1196      2.00000
     16      -7.1193      2.00000
     17      -7.0513      2.00000
     18      -6.6932      2.00000
     19      -6.4820      2.00000
     20      -3.9961      2.00000
     21      -3.6796      2.00000
     22      -3.4619      2.00000
     23      -2.9317      2.00000
     24      -2.7619      2.00000
     25      -2.7342      2.00000
     26      -2.7333      2.00000
     27      -1.8742      2.00000
     28      -0.5318      1.99993
     29       0.2111      0.00000
     30       1.5609      0.00000
     31       1.5753      0.00000
     32       1.7148      0.00000
     33       1.8654      0.00000
     34       2.0208      0.00000
     35       2.2408      0.00000
     36       2.4641      0.00000
     37       3.0099      0.00000
     38       3.8232      0.00000
     39       4.5687      0.00000
     40       5.2459      0.00000
     41       6.8488      0.00000
     42       6.8689      0.00000
     43       6.9118      0.00000
     44       7.5158      0.00000
     45       7.5160      0.00000
     46       7.7252      0.00000
     47       7.8700      0.00000
     48       8.1456      0.00000

 k-point     4 :       0.2500    0.0000    0.0000
  band No.  band energies     occupation 
      1     -19.2383      2.00000
      2     -16.4056      2.00000
      3     -15.8428      2.00000
      4     -15.0773      2.00000
      5     -15.0765      2.00000
      6     -13.4577      2.00000
      7     -12.1922      2.00000
      8     -12.1917      2.00000
      9     -12.0350      2.00000
     10     -10.9101      2.00000
     11     -10.7795      2.00000
     12      -9.4814      2.00000
     13      -8.9510      2.00000
     14      -7.6389      2.00000
     15      -7.6386      2.00000
     16      -7.3764      2.00000
     17      -6.6855      2.00000
     18      -6.4510      2.00000
     19      -6.2872      2.00000
     20      -4.7195      2.00000
     21      -4.1566      2.00000
     22      -4.0337      2.00000
     23      -3.7275      2.00000
     24      -3.3605      2.00000
     25      -2.8640      2.00000
     26      -2.8322      2.00000
     27      -2.7154      2.00000
     28      -0.8785      2.00000
     29       0.0195      0.00012
     30       1.8522      0.00000
     31       1.8552      0.00000
     32       2.5632      0.00000
     33       2.7890      0.00000
     34       2.8585      0.00000
     35       3.2272      0.00000
     36       3.2822      0.00000
     37       3.4267      0.00000
     38       4.1140      0.00000
     39       4.8770      0.00000
     40       5.8444      0.00000
     41       5.8894      0.00000
     42       6.9026      0.00000
     43       7.0350      0.00000
     44       7.1017      0.00000
     45       7.6353      0.00000
     46       7.8411      0.00000
     47       7.8646      0.00000
     48       8.0075      0.00000

 k-point     5 :       0.3333    0.0000    0.0000
  band No.  band energies     occupation 
      1     -18.9572      2.00000
      2     -17.0603      2.00000
      3     -15.6365      2.00000
      4     -15.2502      2.00000
      5     -15.2495      2.00000
      6     -13.9250      2.00000
      7     -12.1164      2.00000
      8     -11.6039      2.00000
      9     -11.6038      2.00000
     10     -10.8100      2.00000
     11      -9.8550      2.00000
     12      -9.0457      2.00000
     13      -8.5785      2.00000
     14      -8.2441      2.00000
     15      -8.2438      2.00000
     16      -7.0440      2.00000
     17      -6.5193      2.00000
     18      -6.1245      2.00000
     19      -6.0210      2.00000
     20      -5.6160      2.00000
     21      -4.8536      2.00000
     22      -4.4501      2.00000
     23      -4.4462      2.00000
     24      -3.7360      2.00000
     25      -3.5414      2.00000
     26      -2.9219      2.00000
     27      -2.9134      2.00000
     28      -1.1295      2.00000
     29      -0.1469      0.13796
     30       2.1327      0.00000
     31       2.1332      0.00000
     32       3.3790      0.00000
     33       3.6513      0.00000
     34       3.7078      0.00000
     35       3.7796      0.00000
     36       4.2012      0.00000
     37       4.4592      0.00000
     38       4.5277      0.00000
     39       4.9671      0.00000
     40       5.2666      0.00000
     41       6.1510      0.00000
     42       6.4121      0.00000
     43       6.9742      0.00000
     44       7.0683      0.00000
     45       7.1936      0.00000
     46       7.3587      0.00000
     47       7.4291      0.00000
     48       7.8123      0.00000

 k-point     6 :       0.4167    0.0000    0.0000
  band No.  band energies     occupation 
      1     -18.5974      2.00000
      2     -17.6466      2.00000
      3     -15.4093      2.00000
      4     -15.3570      2.00000
      5     -15.3564      2.00000
      6     -14.3120      2.00000
      7     -12.1703      2.00000
      8     -11.0508      2.00000
      9     -11.0506      2.00000
     10     -10.8718      2.00000
     11      -8.8227      2.00000
     12      -8.8224      2.00000
     13      -8.7730      2.00000
     14      -8.5909      2.00000
     15      -8.2511      2.00000
     16      -6.6583      2.00000
     17      -6.6212      2.00000
     18      -6.5973      2.00000
     19      -5.7642      2.00000
     20      -5.6905      2.00000
     21      -5.4867      2.00000
     22      -4.9837      2.00000
     23      -4.8851      2.00000
     24      -4.1995      2.00000
     25      -3.8257      2.00000
     26      -2.9835      2.00000
     27      -2.9764      2.00000
     28      -1.2810      2.00000
     29      -0.2560      1.04831
     30       2.3415      0.00000
     31       2.3421      0.00000
     32       3.9872      0.00000
     33       4.1559      0.00000
     34       4.3560      0.00000
     35       4.5443      0.00000
     36       4.7209      0.00000
     37       4.9390      0.00000
     38       5.1199      0.00000
     39       5.3936      0.00000
     40       5.5848      0.00000
     41       5.7584      0.00000
     42       6.2887      0.00000
     43       6.4702      0.00000
     44       6.6009      0.00000
     45       6.8239      0.00000
     46       6.8763      0.00000
     47       7.0129      0.00000
     48       7.3279      0.00000

 k-point     7 :       0.5000    0.0000    0.0000
  band No.  band energies     occupation 
      1     -18.1606      2.00000
      2     -18.1592      2.00000
      3     -15.3932      2.00000
      4     -15.3925      2.00000
      5     -15.2803      2.00000
[...]
      7     -12.7346      2.00000
      8     -12.3485      2.00000
      9     -10.3546      2.00000
     10     -10.1191      2.00000
     11      -9.8989      2.00000
     12      -9.3553      2.00000
     13      -9.2510      2.00000
     14      -8.2054      2.00000
     15      -7.3126      2.00000
     16      -7.1000      2.00000
     17      -6.6274      2.00000
     18      -6.6160      2.00000
     19      -5.8927      2.00000
     20      -5.7995      2.00000
     21      -4.9144      2.00000
     22      -4.8811      2.00000
     23      -4.3841      2.00000
     24      -4.2350      2.00000
     25      -3.8470      2.00000
     26      -3.4283      2.00000
     27      -1.9618      2.00000
     28      -1.9039      2.00000
     29       0.8371      0.00000
     30       1.2480      0.00000
     31       2.7731      0.00000
     32       3.0690      0.00000
     33       3.5904      0.00000
     34       3.9272      0.00000
     35       4.2289      0.00000
     36       4.6624      0.00000
     37       4.8138      0.00000
     38       5.0323      0.00000
     39       5.4352      0.00000
     40       5.5716      0.00000
     41       5.7015      0.00000
     42       6.3018      0.00000
     43       6.4747      0.00000
     44       7.0724      0.00000
     45       7.2642      0.00000
     46       7.6798      0.00000
     47       7.7400      0.00000
     48       7.8833      0.00000

 k-point    15 :       0.3333    0.1667    0.0000
  band No.  band energies     occupation 
      1     -18.5733      2.00000
      2     -17.6243      2.00000
      3     -16.6929      2.00000
      4     -15.2289      2.00000
      5     -14.2981      2.00000
      6     -14.1001      2.00000
      7     -12.4648      2.00000
      8     -12.2503      2.00000
      9     -10.1242      2.00000
     10      -9.9042      2.00000
     11      -9.8271      2.00000
     12      -8.8994      2.00000
     13      -8.8452      2.00000
     14      -7.9087      2.00000
     15      -7.7676      2.00000
     16      -7.0004      2.00000
     17      -6.8046      2.00000
     18      -6.6644      2.00000
     19      -6.2704      2.00000
     20      -5.6139      2.00000
     21      -5.4039      2.00000
     22      -5.3379      2.00000
     23      -4.5472      2.00000
     24      -4.4585      2.00000
     25      -3.9939      2.00000
     26      -3.8929      2.00000
     27      -2.1656      2.00000
     28      -1.7669      2.00000
     29       0.8127      0.00000
     30       1.2119      0.00000
     31       3.4861      0.00000
     32       3.5994      0.00000
     33       3.8909      0.00000
     34       4.2758      0.00000
     35       4.4025      0.00000
     36       5.1033      0.00000
     37       5.1517      0.00000
     38       5.3456      0.00000
     39       5.6023      0.00000
     40       5.7446      0.00000
     41       5.9383      0.00000
     42       6.1597      0.00000
     43       6.4005      0.00000
     44       6.4656      0.00000
     45       6.9290      0.00000
     46       7.4052      0.00000
     47       7.4426      0.00000
     48       7.5370      0.00000

 k-point    16 :       0.4167    0.1667    0.0000
  band No.  band energies     occupation 
      1     -18.1401      2.00000
      2     -18.1330      2.00000
      3     -16.7314      2.00000
      4     -15.0878      2.00000
      5     -14.4797      2.00000
      6     -14.1172      2.00000
      7     -12.5039      2.00000
      8     -11.9854      2.00000
      9     -10.2194      2.00000
     10     -10.1350      2.00000
     11      -9.5689      2.00000
     12      -8.6387      2.00000
     13      -8.0058      2.00000
     14      -7.8130      2.00000
     15      -7.8011      2.00000
     16      -7.7852      2.00000
     17      -7.2392      2.00000
     18      -6.2174      2.00000
     19      -6.1001      2.00000
     20      -5.8644      2.00000
     21      -5.8606      2.00000
     22      -5.1142      2.00000
     23      -4.6509      2.00000
     24      -4.5897      2.00000
     25      -4.2527      2.00000
     26      -3.8524      2.00000
     27      -2.2344      2.00000
     28      -1.7180      2.00000
     29       0.8136      0.00000
     30       1.1855      0.00000
     31       3.7128      0.00000
     32       3.9806      0.00000
     33       4.0310      0.00000
     34       4.2230      0.00000
     35       4.8733      0.00000
     36       4.9016      0.00000
     37       5.0894      0.00000
     38       5.1290      0.00000
     39       5.7004      0.00000
     40       5.7843      0.00000
     41       6.4137      0.00000
     42       6.4236      0.00000
     43       6.4337      0.00000
     44       6.6790      0.00000
     45       6.7073      0.00000
     46       6.9697      0.00000
     47       7.0968      0.00000
     48       7.1417      0.00000

 k-point    17 :       0.2500    0.2500    0.0000
  band No.  band energies     occupation 
      1     -18.6132      2.00000
      2     -17.1985      2.00000
      3     -17.1915      2.00000
      4     -15.2395      2.00000
      5     -14.2582      2.00000
      6     -13.6407      2.00000
      7     -12.7246      2.00000
      8     -12.5607      2.00000
      9      -9.9803      2.00000
     10      -9.7170      2.00000
     11      -9.3503      2.00000
     12      -9.3456      2.00000
     13      -9.2816      2.00000
     14      -7.8885      2.00000
     15      -7.0654      2.00000
     16      -6.9801      2.00000
     17      -6.9764      2.00000
     18      -6.7107      2.00000
     19      -6.6006      2.00000
     20      -5.4927      2.00000
     21      -5.4692      2.00000
     22      -5.1083      2.00000
     23      -4.9701      2.00000
     24      -4.1614      2.00000
     25      -4.0961      2.00000
     26      -3.8759      2.00000
     27      -2.4010      2.00000
     28      -1.4448      2.00000
     29       0.4737      0.00000
     30       1.8786      0.00000
     31       2.8648      0.00000
     32       3.2964      0.00000
     33       4.3446      0.00000
     34       4.3848      0.00000
     35       4.6145      0.00000
     36       4.6787      0.00000
     37       4.8553      0.00000
     38       5.0984      0.00000
     39       5.6921      0.00000
     40       5.9237      0.00000
     41       6.0785      0.00000
     42       6.2685      0.00000
     43       6.4085      0.00000
     44       6.4487      0.00000
     45       7.0029      0.00000
     46       7.0849      0.00000
     47       7.5741      0.00000
     48       7.6835      0.00000

 k-point    18 :       0.3333    0.2500    0.0000
  band No.  band energies     occupation 
      1     -18.2159      2.00000
      2     -17.7423      2.00000
      3     -17.2730      2.00000
      4     -15.0103      2.00000
      5     -14.5333      2.00000
      6     -13.4661      2.00000
      7     -12.6765      2.00000
      8     -12.5224      2.00000
      9     -10.5035      2.00000
     10      -9.5990      2.00000
     11      -8.9696      2.00000
     12      -8.9312      2.00000
     13      -8.3583      2.00000
     14      -7.7051      2.00000
     15      -7.5200      2.00000
     16      -7.4282      2.00000
     17      -7.3125      2.00000
     18      -6.5608      2.00000
     19      -6.2541      2.00000
     20      -6.0606      2.00000
     21      -5.7036      2.00000
     22      -5.1893      2.00000
     23      -4.9877      2.00000
     24      -4.3251      2.00000
     25      -4.2508      2.00000
     26      -3.9949      2.00000
     27      -2.6248      2.00000
     28      -1.1061      2.00000
     29       0.1983      0.00000
     30       2.1053      0.00000
     31       3.3862      0.00000
     32       3.5244      0.00000
     33       3.9572      0.00000
     34       4.4987      0.00000
     35       4.8379      0.00000
     36       4.8743      0.00000
     37       4.8911      0.00000
     38       5.4915      0.00000
     39       5.6365      0.00000
     40       5.6730      0.00000
     41       6.1281      0.00000
     42       6.3147      0.00000
     43       6.6310      0.00000
     44       6.6659      0.00000
     45       6.9207      0.00000
     46       7.0583      0.00000
     47       7.2100      0.00000
     48       7.2955      0.00000

 k-point    19 :       0.3333    0.3333    0.0000
  band No.  band energies     occupation 
      1     -17.7855      2.00000
      2     -17.7850      2.00000
      3     -17.7747      2.00000
      4     -14.7735      2.00000
      5     -14.7731      2.00000
      6     -12.9135      2.00000
      7     -12.9134      2.00000
      8     -12.7538      2.00000
      9     -10.7458      2.00000
     10      -9.1659      2.00000
     11      -9.1647      2.00000
     12      -8.1337      2.00000
     13      -8.1241      2.00000
     14      -8.1240      2.00000
     15      -7.7913      2.00000
     16      -7.6338      2.00000
     17      -6.7323      2.00000
     18      -6.7320      2.00000
     19      -6.7272      2.00000
     20      -5.7980      2.00000
     21      -5.7884      2.00000
     22      -5.6505      2.00000
     23      -4.6580      2.00000
     24      -4.6451      2.00000
     25      -4.0979      2.00000
     26      -4.0941      2.00000
     27      -2.7953      2.00000
     28      -0.4458      1.99986
     29      -0.4444      1.99985
     30       2.9262      0.00000
     31       2.9271      0.00000
     32       3.6659      0.00000
     33       3.6675      0.00000
     34       4.3369      0.00000
     35       4.4402      0.00000
     36       5.3597      0.00000
     37       5.3635      0.00000
     38       5.6460      0.00000
     39       5.7788      0.00000
     40       5.7837      0.00000
     41       5.7853      0.00000
     42       6.1888      0.00000
     43       6.1935      0.00000
     44       6.3387      0.00000
     45       7.1392      0.00000
     46       7.1546      0.00000
     47       7.3772      0.00000
     48       7.6080      0.00000


--------------------------------------------------------------------------------------------------------


 soft charge-density along one line, spin component           1
         0         1         2         3         4         5         6         7         8         9
 total charge-density along one line
 
 pseudopotential strength for first ion, spin component:           1
  6.662  10.159  -0.005   0.000  -0.008  -0.007   0.000  -0.012
 10.159  15.488  -0.007   0.000  -0.012  -0.011   0.000  -0.018
 -0.005  -0.007  -2.280   0.000   0.003  -3.905   0.000   0.005
  0.000   0.000   0.000  -2.274  -0.000   0.000  -3.891  -0.000
 -0.008  -0.012   0.003  -0.000  -2.277   0.005  -0.000  -3.899
 -0.007  -0.011  -3.905   0.000   0.005  -6.491   0.001   0.011
  0.000   0.000   0.000  -3.891  -0.000   0.001  -6.460  -0.000
 -0.012  -0.018   0.005  -0.000  -3.899   0.011  -0.000  -6.479
 total augmentation occupancy for first ion, spin component:           1
  3.801  -1.053  -0.194   0.008  -0.337   0.092  -0.003   0.159
 -1.053   0.310   0.110  -0.004   0.190  -0.041   0.001  -0.071
 -0.194   0.110   4.335  -0.014  -0.282  -1.232   0.007   0.126
  0.008  -0.004  -0.014   1.836   0.004   0.007  -0.392  -0.002
 -0.337   0.190  -0.282   0.004   4.011   0.126  -0.002  -1.087
  0.092  -0.041  -1.232   0.007   0.126   0.360  -0.003  -0.048
 -0.003   0.001   0.007  -0.392  -0.002  -0.003   0.088   0.001
  0.159  -0.071   0.126  -0.002  -1.087  -0.048   0.001   0.305


------------------------ aborting loop because EDIFF is reached ----------------------------------------


    CHARGE:  cpu time      0.0643: real time      0.0643
    FORLOC:  cpu time      0.0028: real time      0.0028
    FORNL :  cpu time      0.2069: real time      0.2069
    STRESS:  cpu time      0.9373: real time      0.9373
    FORCOR:  cpu time      0.0203: real time      0.0203
    FORHAR:  cpu time      0.0059: real time      0.0059
    MIXING:  cpu time      0.0008: real time      0.0008
    OFIELD:  cpu time      0.0000: real time      0.0000

 ---------------------------------------------------------------------------------------------

         DFTD3 V3.0 Rev 1        
 Edisp (eV)   -1.85191

 E6    (eV) :    -1.2597
 E8    (eV) :    -0.5922
 % E8        : 31.98
    FORVDW:  cpu time      0.0419: real time      0.0419

  FORCE on cell =-STRESS in cart. coord.  units (eV):
  Direction    XX          YY          ZZ          XY          YZ          ZX
  --------------------------------------------------------------------------------------
  Alpha Z    60.47074    60.47074    60.47074
  Ewald    6090.95327  6090.95808 -7760.81307    -0.00000     0.00001    -0.00001
  Hartree  5969.90991  5969.90996 -5910.26343    -0.00000    -0.00000     0.00000
  E(xc)    -195.88722  -195.88722  -202.41853     0.00000    -0.00000     0.00000
  Local  -12608.93373-12608.93609 12998.18685     0.00000    -0.00000     0.00000
  n-local   -36.62167   -39.82328   -40.09477    -1.46130     0.00889    -0.00119
  augment    -2.78761    -2.78755    -2.51157     0.00000    -0.00000    -0.00000
  Kinetic   731.83527   720.01304   858.36728    -6.06446    -0.05288    -0.03078
  Fock        0.00000     0.00000     0.00000     0.00000     0.00000     0.00000
  vdW        -1.33122    -1.33122    -1.32757    -0.00000     0.00000    -0.00000
  -------------------------------------------------------------------------------------
  Total       0.09710     0.09710    -0.40406     0.00000     0.00000     0.00000
  in kB       0.48309     0.48309    -2.01027     0.00000     0.00000     0.00000
  external pressure =       -0.35 kB  Pullay stress =        0.00 kB


 VOLUME and BASIS-vectors are now :
 -----------------------------------------------------------------------------
  energy-cutoff  :      450.00
  volume of cell :      322.04
      direct lattice vectors                 reciprocal lattice vectors
     4.311940485  2.489500000  0.000000000     0.115957074  0.200843543  0.000000000
    -4.311940485  2.489500000  0.000000000    -0.115957074  0.200843543  0.000000000
     0.000000000  0.000000000 15.000000000     0.000000000  0.000000000  0.066666667

  length of vectors
     4.979000000  4.979000000 15.000000000     0.231914147  0.231914147  0.066666667


 FORCES acting on ions
    electron-ion (+dipol)            ewald-force                    non-local-force                 convergence-correction
 -----------------------------------------------------------------------------------------------
   -.255E+02 -.147E+02 0.214E+03   0.285E+02 0.164E+02 -.214E+03   -.293E+01 -.169E+01 0.275E-01   -.151E-05 -.965E-06 -.928E-05
   0.255E+02 0.147E+02 0.214E+03   -.284E+02 -.164E+02 -.214E+03   0.293E+01 0.169E+01 0.275E-01   0.159E-05 0.824E-06 -.928E-05
   -.255E+02 0.147E+02 0.214E+03   0.285E+02 -.164E+02 -.214E+03   -.293E+01 0.169E+01 0.275E-01   -.151E-05 0.965E-06 -.928E-05
   0.255E+02 -.147E+02 0.214E+03   -.284E+02 0.164E+02 -.214E+03   0.293E+01 -.169E+01 0.275E-01   0.159E-05 -.824E-06 -.928E-05
   0.645E-02 0.295E+02 0.214E+03   -.790E-02 -.329E+02 -.214E+03   0.145E-02 0.338E+01 0.275E-01   -.812E-07 0.179E-05 -.927E-05
   0.645E-02 -.295E+02 0.214E+03   -.790E-02 0.329E+02 -.214E+03   0.145E-02 -.338E+01 0.275E-01   -.812E-07 -.179E-05 -.928E-05
   0.443E-04 0.766E-04 0.216E+03   0.215E-03 0.316E-03 -.216E+03   0.106E-16 0.236E-17 0.505E-01   0.318E-11 -.145E-10 -.138E-04
   -.444E-04 0.767E-04 0.207E+03   -.215E-03 0.316E-03 -.207E+03   0.740E-17 -.103E-16 -.297E+00   -.222E-10 -.888E-12 -.149E-04
   -.572E+00 0.991E+00 -.213E+03   0.587E+00 -.102E+01 0.213E+03   0.670E-04 -.116E-03 0.168E-01   0.176E-04 -.305E-04 0.403E-04
   0.538E+00 0.932E+00 -.213E+03   -.553E+00 -.956E+00 0.213E+03   -.186E-03 -.322E-03 0.274E-01   -.174E-04 -.301E-04 0.410E-04
   0.114E+01 0.472E-03 -.213E+03   -.117E+01 -.306E-05 0.213E+03   -.134E-03 0.513E-17 0.168E-01   -.352E-04 0.122E-08 0.403E-04
   -.262E-03 0.475E-03 -.215E+03   -.499E-03 0.328E-05 0.215E+03   0.924E-17 -.147E-16 -.208E-01   0.711E-09 -.118E-08 0.403E-04
   0.261E-03 0.474E-03 -.214E+03   0.499E-03 0.329E-05 0.214E+03   -.714E-17 -.984E-18 -.663E-02   -.690E-09 -.112E-08 0.417E-04
   -.108E+01 0.471E-03 -.213E+03   0.110E+01 -.306E-05 0.213E+03   0.371E-03 0.922E-18 0.274E-01   0.348E-04 0.129E-08 0.410E-04
   -.572E+00 -.990E+00 -.213E+03   0.587E+00 0.102E+01 0.213E+03   0.670E-04 0.116E-03 0.168E-01   0.176E-04 0.305E-04 0.403E-04
   0.538E+00 -.931E+00 -.213E+03   -.553E+00 0.956E+00 0.213E+03   -.186E-03 0.322E-03 0.274E-01   -.174E-04 0.301E-04 0.410E-04
 -----------------------------------------------------------------------------------------------
   -.111E-06 0.469E-02 -.228E-01   -.666E-14 -.288E-13 0.341E-12   0.125E-14 0.426E-15 0.232E-01   -.800E-11 -.291E-10 0.241E-03
 
 
 POSITION                                       TOTAL-FORCE (eV/Angst)
 -----------------------------------------------------------------------------------
      2.88730      1.66693      1.72580        -0.004962     -0.002868      0.008771
      1.42469      0.82249      1.72580         0.004965      0.002863      0.008771
     -1.42464      0.82257      1.72580        -0.004962      0.002868      0.008771
     -2.88725      1.66701      1.72580         0.004965     -0.002863      0.008771
     -0.00005      1.64506      1.72580        -0.000002      0.005731      0.008771
     -0.00005      3.33394      1.72580        -0.000002     -0.005731      0.008771
      1.43731      2.48950      1.71312        -0.000000     -0.000000     -0.018281
     -1.43731      2.48950      1.76007        -0.000000     -0.000000     -0.010554
     -0.71883      1.24505      5.27171         0.014557     -0.025214     -0.005093
      0.71883      1.24504      5.27089        -0.014039     -0.024317      0.003016
     -2.87428      2.48950      5.27171        -0.029115     -0.000000     -0.005093
     -1.43731      2.48950      5.27311        -0.000000     -0.000000     -0.016432
      1.43731      2.48950      5.27112        -0.000000     -0.000000     -0.001128
      2.87429      2.48950      5.27089         0.028079     -0.000000      0.003016
     -0.71883      3.73395      5.27171         0.014557      0.025214     -0.005093
      0.71883      3.73395      5.27089        -0.014039      0.024317      0.003016
 -----------------------------------------------------------------------------------
    total drift:                               -0.000000      0.004690      0.000639


--------------------------------------------------------------------------------------------------------



  FREE ENERGIE OF THE ION-ELECTRON SYSTEM (eV)
  ---------------------------------------------------
  free  energy   TOTEN  =      -125.91916042 eV

  energy  without entropy=     -125.91398580  energy(sigma->0) =     -125.91657311
 
 d Force = 0.6091975E-08[ 0.146E-08, 0.107E-07]  d Energy = 0.1135750E-07-0.527E-08
 d Force =-0.2535596E-01[-0.254E-01,-0.254E-01]  d Ewald  =-0.2535596E-01 0.673E-10


--------------------------------------------------------------------------------------------------------


    POTLOK:  cpu time      0.0221: real time      0.0221


--------------------------------------------------------------------------------------------------------


 stress matrix after NEB project (eV)
      0.09710      0.00000      0.00000
      0.00000      0.09710      0.00000
      0.00000      0.00000     -0.40406
  FORCES: max atom, RMS     0.029557    0.019983
  FORCE total and by dimension    0.079931    0.029115
  Stress total and by dimension    0.426761    0.404064


--------------------------------------------------------------------------------------------------------


    WAVPRE:  cpu time      0.0073: real time      0.0113
    FEWALD:  cpu time      0.0004: real time      0.0004
    ORTHCH:  cpu time      0.0872: real time      0.0872
     LOOP+:  cpu time      3.9866: real time      3.9941
