<?xml version="1.0" encoding="ISO-8859-1"?>
<modeling>
 <generator>
  <i name="program" type="string">vasp </i>
  <i name="version" type="string">6.3.2  </i>
  <i name="subversion" type="string">27Jun22 (build Dec 22 2022 13:13:19) complex                          parallel </i>
  <i name="platform" type="string">LinuxIFC </i>
  <i name="date" type="string">2023 08 26 </i>
  <i name="time" type="string">03:25:00 </i>
 </generator>
 <incar>
  <i type="string" name="SYSTEM">Lattice</i>
  <i type="int" name="ISTART">     0</i>
  <i type="string" name="PREC">Accurate</i>
  <i type="string" name="ALGO">Normal</i>
  <i type="int" name="ICHARG">     2</i>
  <i type="int" name="NELM">    64</i>
  <i type="int" name="IBRION">     2</i>
  <i name="EDIFF">      0.00000100</i>
  <i name="EDIFFG">     -0.00100000</i>
  <i type="int" name="NSW">   256</i>
  <i type="int" name="ISIF">     2</i>
  <i name="ENCUT">    450.00000000</i>
  <i name="POTIM">      0.50000000</i>
  <i type="int" name="ISMEAR">     0</i>
  <i name="SIGMA">      0.10000000</i>
  <i type="logical" name="LWAVE"> F  </i>
  <i type="logical" name="LCHARG"> F  </i>
  <i type="string" name="GGA">PE</i>
  <i type="int" name="IVDW">    12</i>
 </incar>
 <primitive_cell>
  <structure name="primitive_cell" >
   <crystal>
    <varray name="basis" >
     <v>       4.31194049       2.48950000       0.00000000 </v>
     <v>      -4.31194049       2.48950000       0.00000000 </v>
     <v>       0.00000000       0.00000000      15.00000000 </v>
    </varray>
    <i name="volume">    322.03727516 </i>
    <varray name="rec_basis" >
     <v>       0.11595707       0.20084354       0.00000000 </v>
     <v>      -0.11595707       0.20084354       0.00000000 </v>
     <v>       0.00000000       0.00000000       0.06666667 </v>
    </varray>
   </crystal>
   <varray name="positions" >
    <v>       0.66888689       1.00000000       0.10000000 </v>
    <v>       0.33111211       1.00000000       0.10000000 </v>
    <v>       1.00000000       0.33111211       0.10000000 </v>
    <v>       1.00000000       0.66888689       0.10000000 </v>
    <v>       0.33111211       0.33111211       0.10000000 </v>
    <v>       0.66888689       0.66888689       0.10000000 </v>
    <v>       0.66666600       0.33333300       0.09922189 </v>
    <v>       0.33333300       0.66666600       0.10077811 </v>
    <v>       0.16666600       0.33333300       0.36666667 </v>
    <v>       0.33333300       0.16666600       0.36666667 </v>
    <v>       0.16666600       0.83333300       0.36666667 </v>
    <v>       0.33333300       0.66666600       0.36666667 </v>
    <v>       0.66666600       0.33333300       0.36666667 </v>
    <v>       0.83333300       0.16666600       0.36666667 </v>
    <v>       0.66666600       0.83333300       0.36666667 </v>
    <v>       0.83333300       0.66666600       0.36666667 </v>
   </varray>
  </structure>
  <varray name="primitive_index" >
   <v type="int" >        1 </v>
   <v type="int" >        2 </v>
   <v type="int" >        3 </v>
   <v type="int" >        4 </v>
   <v type="int" >        5 </v>
   <v type="int" >        6 </v>
   <v type="int" >        7 </v>
   <v type="int" >        8 </v>
   <v type="int" >        9 </v>
   <v type="int" >       10 </v>
   <v type="int" >       11 </v>
   <v type="int" >       12 </v>
   <v type="int" >       13 </v>
   <v type="int" >       14 </v>
   <v type="int" >       15 </v>
   <v type="int" >       16 </v>
  </varray>
 </primitive_cell>
 <kpoints>
  <generation param="Gamma">
   <v type="int" name="divisions">      12       12        1 </v>
   <v name="usershift">      0.00000000       0.00000000       0.00000000 </v>
   <v name="genvec1">      0.08333333      -0.00000000       0.00000000 </v>
   <v name="genvec2">     -0.00000000       0.08333333       0.00000000 </v>
   <v name="genvec3">      0.00000000       0.00000000       1.00000000 </v>
   <v name="shift">      0.00000000       0.00000000       0.00000000 </v>
  </generation>
  <varray name="kpointlist" >
   <v>       0.00000000       0.00000000       0.00000000 </v>
   <v>       0.08333333      -0.00000000       0.00000000 </v>
   <v>       0.16666667       0.00000000       0.00000000 </v>
   <v>       0.25000000       0.00000000       0.00000000 </v>
   <v>       0.33333333       0.00000000       0.00000000 </v>
   <v>       0.41666667       0.00000000       0.00000000 </v>
   <v>       0.50000000       0.00000000       0.00000000 </v>
   <v>       0.08333333       0.08333333       0.00000000 </v>
   <v>       0.16666667       0.08333333       0.00000000 </v>
   <v>       0.25000000       0.08333333       0.00000000 </v>
   <v>       0.33333333       0.08333333       0.00000000 </v>
   <v>       0.41666667       0.08333333       0.00000000 </v>
   <v>       0.16666667       0.16666667       0.00000000 </v>
   <v>       0.25000000       0.16666667       0.00000000 </v>
   <v>       0.33333333       0.16666667       0.00000000 </v>
   <v>       0.41666667       0.16666667       0.00000000 </v>
   <v>       0.25000000       0.25000000       0.00000000 </v>
   <v>       0.33333333       0.25000000       0.00000000 </v>
   <v>       0.33333333       0.33333333       0.00000000 </v>
  </varray>
  <varray name="weights" >
   <v>       0.00694444 </v>
   <v>       0.04166667 </v>
   <v>       0.04166667 </v>
   <v>       0.04166667 </v>
   <v>       0.04166667 </v>
   <v>       0.04166667 </v>
   <v>       0.02083333 </v>
   <v>       0.04166667 </v>
   <v>       0.08333333 </v>
   <v>       0.08333333 </v>
   <v>       0.08333333 </v>
   <v>       0.08333333 </v>
   <v>       0.04166667 </v>
   <v>       0.08333333 </v>
   <v>       0.08333333 </v>
   <v>       0.04166667 </v>
   <v>       0.04166667 </v>
   <v>       0.08333333 </v>
   <v>       0.01388889 </v>
  </varray>
 </kpoints>
 <parameters>
  <separator name="general" >
   <i type="string" name="SYSTEM">Lattice</i>
   <i type="logical" name="LCOMPAT"> F  </i>
  </separator>
  <separator name="electronic" >
   <i type="string" name="PREC">accura</i>
   <i name="ENMAX">    450.00000000</i>
   <i name="ENAUG">    644.87300000</i>
   <i name="EDIFF">      0.00000100</i>
   <i type="int" name="IALGO">    38</i>
   <i type="int" name="IWAVPR">    11</i>
   <i type="int" name="NBANDS">    48</i>
   <i type="int" name="NBANDSLOW">    -1</i>
   <i type="int" name="NBANDSHIGH">    -1</i>
   <i name="NELECT">     56.00000000</i>
   <i type="int" name="TURBO">     0</i>
   <i type="int" name="IRESTART">     0</i>
   <i type="int" name="NREBOOT">     0</i>
   <i type="int" name="NMIN">     0</i>
   <i name="EREF">      0.00000000</i>
   <separator name="electronic smearing" >
    <i type="int" name="ISMEAR">     0</i>
    <i name="SIGMA">      0.10000000</i>
    <i name="KSPACING">      0.50000000</i>
    <i type="logical" name="KGAMMA"> T  </i>
    <i type="logical" name="KBLOWUP"> T  </i>
   </separator>
   <separator name="electronic projectors" >
    <i type="logical" name="LREAL"> F  </i>
    <v name="ROPT">      0.00000000      0.00000000</v>
    <i type="int" name="LMAXPAW">  -100</i>
    <i type="int" name="LMAXMIX">     2</i>
    <i type="logical" name="NLSPLINE"> F  </i>
   </separator>
   <separator name="electronic startup" >
    <i type="int" name="ISTART">     0</i>
    <i type="int" name="ICHARG">     2</i>
    <i type="int" name="INIWAV">     1</i>
   </separator>
   <separator name="electronic spin" >
    <i type="int" name="ISPIN">     1</i>
    <i type="logical" name="LNONCOLLINEAR"> F  </i>
    <v name="MAGMOM">      1.00000000      1.00000000      1.00000000      1.00000000      1.00000000      1.00000000      1.00000000      1.00000000      1.00000000      1.00000000      1.00000000      1.00000000      1.00000000      1.00000000      1.00000000      1.00000000</v>
    <i name="NUPDOWN">     -1.00000000</i>
    <i type="logical" name="LSORBIT"> F  </i>
    <v name="SAXIS">      0.00000000      0.00000000      1.00000000</v>
    <i type="logical" name="LSPIRAL"> F  </i>
    <v name="QSPIRAL">      0.00000000      0.00000000      0.00000000</v>
    <i type="logical" name="LZEROZ"> F  </i>
   </separator>
   <separator name="electronic exchange-correlation" >
    <i type="logical" name="LASPH"> F  </i>
    <i type="logical" name="LMETAGGA"> F  </i>
   </separator>
   <separator name="electronic convergence" >
    <i type="int" name="NELM">    64</i>
    <i type="int" name="NELMDL">    -5</i>
    <i type="int" name="NELMIN">     2</i>
    <i name="ENINI">    450.00000000</i>
    <separator name="electronic convergence detail" >
     <i type="logical" name="LDIAG"> T  </i>
     <i type="logical" name="LSUBROT"> F  </i>
     <i name="WEIMIN">      0.00100000</i>
     <i name="EBREAK">      0.00000001</i>
     <i name="DEPER">      0.30000000</i>
     <i type="int" name="NRMM">     4</i>
     <i name="TIME">      0.40000000</i>
    </separator>
   </separator>
   <separator name="electronic mixer" >
    <i name="AMIX">      0.40000000</i>
    <i name="BMIX">      1.00000000</i>
    <i name="AMIN">      0.10000000</i>
    <i name="AMIX_MAG">      1.60000000</i>
    <i name="BMIX_MAG">      1.00000000</i>
    <separator name="electronic mixer details" >
     <i type="int" name="IMIX">     4</i>
     <i type="logical" name="MIXFIRST"> F  </i>
     <i type="int" name="MAXMIX">   -45</i>
     <i name="WC">    100.00000000</i>
     <i type="int" name="INIMIX">     1</i>
     <i type="int" name="MIXPRE">     1</i>
     <i type="int" name="MREMOVE">     5</i>
    </separator>
   </separator>
   <separator name="electronic dipolcorrection" >
    <i type="logical" name="LDIPOL"> F  </i>
    <i type="logical" name="LMONO"> F  </i>
    <i type="int" name="IDIPOL">     0</i>
    <i name="EPSILON">      1.00000000</i>
    <v name="DIPOL">   -100.00000000   -100.00000000   -100.00000000</v>
    <i name="EFIELD">      0.00000000</i>
   </separator>
  </separator>
  <separator name="grids" >
   <i type="int" name="NGX">    36</i>
   <i type="int" name="NGY">    36</i>
   <i type="int" name="NGZ">   108</i>
   <i type="int" name="NGXF">    72</i>
   <i type="int" name="NGYF">    72</i>
   <i type="int" name="NGZF">   216</i>
   <i type="logical" name="ADDGRID"> F  </i>
  </separator>
  <separator name="ionic" >
   <i type="int" name="NSW">   256</i>
   <i type="int" name="IBRION">     2</i>
   <i type="int" name="MDALGO">     0</i>
   <i type="int" name="ISIF">     2</i>
   <i name="PSTRESS">      0.00000000</i>
   <i name="EDIFFG">     -0.00100000</i>
   <i type="int" name="NFREE">     1</i>
   <i name="POTIM">      0.50000000</i>
   <i name="SMASS">     -3.00000000</i>
   <i name="SCALEE">      1.00000000</i>
  </separator>
  <separator name="ionic md" >
   <i name="TEBEG">      0.00010000</i>
   <i name="TEEND">      0.00010000</i>
   <i type="int" name="NBLOCK">     1</i>
   <i type="int" name="KBLOCK">   256</i>
   <i type="int" name="NPACO">   256</i>
   <i name="APACO">     10.00000000</i>
  </separator>
  <separator name="symmetry" >
   <i type="int" name="ISYM">     2</i>
   <i name="SYMPREC">      0.00001000</i>
  </separator>
  <separator name="dos" >
   <i type="int" name="LORBIT">     0</i>
   <v name="RWIGS">     -1.00000000     -1.00000000</v>
   <i type="int" name="NEDOS">   301</i>
   <i name="EMIN">     10.00000000</i>
   <i name="EMAX">    -10.00000000</i>
   <i name="EFERMI">      0.00000000</i>
  </separator>
  <separator name="writing" >
   <i type="int" name="NWRITE">     2</i>
   <i type="logical" name="LWAVE"> F  </i>
   <i type="logical" name="LDOWNSAMPLE"> F  </i>
   <i type="logical" name="LCHARG"> F  </i>
   <i type="logical" name="LPARD"> F  </i>
   <i type="logical" name="LVTOT"> F  </i>
   <i type="logical" name="LVHAR"> F  </i>
   <i type="logical" name="LELF"> F  </i>
   <i type="logical" name="LOPTICS"> F  </i>
   <v name="STM">      0.00000000      0.00000000      0.00000000      0.00000000      0.00000000      0.00000000      0.00000000</v>
  </separator>
  <separator name="performance" >
   <i type="int" name="NPAR">    24</i>
   <i type="int" name="NSIM">     4</i>
   <i type="int" name="NBLK">    -1</i>
   <i type="logical" name="LPLANE"> T  </i>
   <i type="logical" name="LSCALAPACK"> T  </i>
   <i type="logical" name="LSCAAWARE"> F  </i>
   <i type="logical" name="LSCALU"> F  </i>
   <i type="logical" name="LASYNC"> F  </i>
   <i type="logical" name="LORBITALREAL"> F  </i>
  </separator>
  <separator name="miscellaneous" >
   <i type="int" name="IDIOT">     3</i>
   <i type="int" name="PHON_NSTRUCT">    -1</i>
   <i type="logical" name="LMUSIC"> F  </i>
   <v name="POMASS">     10.81100000     12.01100000</v>
   <v name="DARWINR">      0.00000000      0.00000000</v>
   <v name="DARWINV">      1.00000000      1.00000000</v>
   <i type="logical" name="LCORR"> T  </i>
  </separator>
  <i type="logical" name="GGA_COMPAT"> T  </i>
  <i type="logical" name="LBERRY"> F  </i>
  <i type="int" name="ICORELEVEL">     0</i>
  <i type="logical" name="LDAU"> F  </i>
  <i type="int" name="I_CONSTRAINED_M">     0</i>
  <separator name="electronic exchange-correlation" >
   <i type="string" name="GGA">PE</i>
   <i type="int" name="VOSKOWN">     0</i>
   <i type="logical" name="LHFCALC"> F  </i>
   <i type="string" name="PRECFOCK"></i>
   <i type="logical" name="LSYMGRAD"> F  </i>
   <i type="logical" name="LHFONE"> F  </i>
   <i type="logical" name="LRHFCALC"> F  </i>
   <i type="logical" name="LTHOMAS"> F  </i>
   <i type="logical" name="LMODELHF"> F  </i>
   <i type="logical" name="LFOCKACE"> F  </i>
   <i name="ENCUT4O">     -1.00000000</i>
   <i type="int" name="EXXOEP">     0</i>
   <i type="int" name="FOURORBIT">     0</i>
   <i name="AEXX">      0.00000000</i>
   <i name="HFALPHA">      0.00000000</i>
   <i name="MCALPHA">      0.00000000</i>
   <i name="ALDAX">      1.00000000</i>
   <i name="AGGAX">      1.00000000</i>
   <i name="ALDAC">      1.00000000</i>
   <i name="AGGAC">      1.00000000</i>
   <i type="int" name="NKREDX">     1</i>
   <i type="int" name="NKREDY">     1</i>
   <i type="int" name="NKREDZ">     1</i>
   <i type="logical" name="SHIFTRED"> F  </i>
   <i type="logical" name="ODDONLY"> F  </i>
   <i type="logical" name="EVENONLY"> F  </i>
   <i type="int" name="LMAXFOCK">     0</i>
   <i type="int" name="NMAXFOCKAE">     0</i>
   <i type="logical" name="LFOCKAEDFT"> F  </i>
   <i name="HFSCREEN">      0.00000000</i>
   <i name="HFSCREENC">      0.00000000</i>
   <i type="int" name="NBANDSGWLOW">     0</i>
  </separator>
  <separator name="vdW DFT" >
   <i type="logical" name="LUSE_VDW"> F  </i>
   <i name="Zab_VDW">     -0.84910000</i>
   <i name="PARAM1">      0.12340000</i>
   <i name="PARAM2">      1.00000000</i>
   <i name="PARAM3">      0.00000000</i>
  </separator>
  <separator name="model GW" >
   <i type="int" name="MODEL_GW">     0</i>
   <i name="MODEL_EPS0">     12.07639782</i>
   <i name="MODEL_ALPHA">      1.00000000</i>
  </separator>
  <separator name="linear response parameters" >
   <i type="logical" name="LEPSILON"> F  </i>
   <i type="logical" name="LRPA"> F  </i>
   <i type="logical" name="LNABLA"> F  </i>
   <i type="logical" name="LVEL"> F  </i>
   <i name="CSHIFT">      0.10000000</i>
   <i name="OMEGAMAX">     -1.00000000</i>
   <i name="DEG_THRESHOLD">      0.00200000</i>
   <i name="RTIME">     -0.10000000</i>
   <i name="WPLASMAI">      0.00000000</i>
   <v name="DFIELD">      0.00000000      0.00000000      0.00000000</v>
   <v name="WPLASMA">      0.00000000      0.00000000      0.00000000      0.00000000      0.00000000      0.00000000      0.00000000      0.00000000      0.00000000</v>
  </separator>
  <separator name="orbital magnetization" >
   <i type="logical" name="NUCIND"> F  </i>
   <v name="MAGPOS">      0.00000000      0.00000000      0.00000000</v>
   <i type="logical" name="LNICSALL"> T  </i>
   <i type="logical" name="ORBITALMAG"> F  </i>
   <i type="logical" name="LMAGBLOCH"> F  </i>
   <i type="logical" name="LCHIMAG"> F  </i>
   <i type="logical" name="LGAUGE"> T  </i>
   <i type="int" name="MAGATOM">     0</i>
   <v name="MAGDIPOL">      0.00000000      0.00000000      0.00000000</v>
   <v name="AVECCONST">      0.00000000      0.00000000      0.00000000</v>
  </separator>
  <separator name="response functions" >
   <i type="logical" name="LFINITE_TEMPERATURE"> F  </i>
   <i type="logical" name="LADDER"> F  </i>
   <i type="logical" name="LRPAFORCE"> F  </i>
   <i type="logical" name="LFXC"> F  </i>
   <i type="logical" name="LHARTREE"> T  </i>
   <i type="int" name="IBSE">     0</i>
   <v type="int" name="KPOINT">    -1     0     0     0</v>
   <i type="logical" name="LTCTC"> F  </i>
   <i type="logical" name="LTCTE"> F  </i>
   <i type="logical" name="LTETE"> F  </i>
   <i type="logical" name="LTRIPLET"> F  </i>
   <i type="logical" name="LFXCEPS"> F  </i>
   <i type="logical" name="LFXHEG"> F  </i>
   <i type="int" name="NATURALO">     2</i>
   <i type="logical" name="LHOLEGF"> F  </i>
   <i type="logical" name="L2ORDER"> F  </i>
   <i type="logical" name="LDMP1"> F  </i>
   <i type="logical" name="LMP2LT"> F  </i>
   <i type="logical" name="LSMP2LT"> F  </i>
   <i type="logical" name="LGWLF"> F  </i>
   <i name="ENCUTGW">     -2.00000000</i>
   <i name="ENCUTGWSOFT">     -2.00000000</i>
   <i name="ENCUTLF">     -1.00000000</i>
   <i type="logical" name="LESF_SPLINES"> F  </i>
   <i type="int" name="LMAXMP2">    -1</i>
   <i name="SCISSOR">      0.00000000</i>
   <i type="int" name="NOMEGA">     0</i>
   <i type="int" name="NOMEGAR">     0</i>
   <i type="int" name="NBANDSGW">    -1</i>
   <i type="int" name="NBANDSO">    -1</i>
   <i type="int" name="NBANDSV">    -1</i>
   <i type="int" name="NELMGW">     1</i>
   <i type="int" name="NELMHF">     1</i>
   <i type="int" name="DIM">     3</i>
   <i type="int" name="IESPILON">     4</i>
   <i type="int" name="ANTIRES">     0</i>
   <i name="OMEGAMAX">    -30.00000000</i>
   <i name="OMEGAMIN">    -30.00000000</i>
   <i name="OMEGATL">   -200.00000000</i>
   <i type="int" name="OMEGAGRID">     0</i>
   <i name="CSHIFT">     -0.10000000</i>
   <i type="logical" name="LSELFENERGY"> F  </i>
   <i type="logical" name="LSPECTRAL"> F  </i>
   <i type="logical" name="LSPECTRALGW"> F  </i>
   <i type="logical" name="LSINGLES"> F  </i>
   <i type="logical" name="LFERMIGW"> F  </i>
   <i type="logical" name="ODDONLYGW"> F  </i>
   <i type="logical" name="EVENONLYGW"> F  </i>
   <i type="int" name="NKREDLFX">     1</i>
   <i type="int" name="NKREDLFY">     1</i>
   <i type="int" name="NKREDLFZ">     1</i>
   <i type="int" name="MAXMEM">  2800</i>
   <i type="int" name="TELESCOPE">     0</i>
   <i type="int" name="NTAUPAR">    -1</i>
   <i type="int" name="NOMEGAPAR">    -1</i>
   <i name="DAMP_NEWTON">      0.80000001</i>
   <i name="LAMBDA">      1.00000000</i>
  </separator>
  <separator name="External order field" >
   <i name="OFIELD_KAPPA">      0.00000000</i>
   <v name="OFIELD_K">      0.00000000      0.00000000      0.00000000</v>
   <i name="OFIELD_Q6_NEAR">      0.00000000</i>
   <i name="OFIELD_Q6_FAR">      0.00000000</i>
   <i name="OFIELD_A">      0.00000000</i>
  </separator>
  <separator name="optional k-points parameters" >
   <i type="int" name="KPOINTS_OPT_MODE">     1</i>
   <i type="logical" name="LKPOINTS_OPT"> F  </i>
  </separator>
  <separator name="solvation model" >
   <i type="logical" name="LSOL"> F  </i>
  </separator>
 </parameters>
 <atominfo>
  <atoms>      16 </atoms>
  <types>       2 </types>
  <array name="atoms" >
   <dimension dim="1">ion</dimension>
   <field type="string">element</field>
   <field type="int">atomtype</field>
   <set>
    <rc><c>B </c><c>   1</c></rc>
    <rc><c>B </c><c>   1</c></rc>
    <rc><c>B </c><c>   1</c></rc>
    <rc><c>B </c><c>   1</c></rc>
    <rc><c>B </c><c>   1</c></rc>
    <rc><c>B </c><c>   1</c></rc>
    <rc><c>B </c><c>   1</c></rc>
    <rc><c>B </c><c>   1</c></rc>
    <rc><c>C </c><c>   2</c></rc>
    <rc><c>C </c><c>   2</c></rc>
    <rc><c>C </c><c>   2</c></rc>
    <rc><c>C </c><c>   2</c></rc>
    <rc><c>C </c><c>   2</c></rc>
    <rc><c>C </c><c>   2</c></rc>
    <rc><c>C </c><c>   2</c></rc>
    <rc><c>C </c><c>   2</c></rc>
   </set>
  </array>
  <array name="atomtypes" >
   <dimension dim="1">type</dimension>
   <field type="int">atomspertype</field>
   <field type="string">element</field>
   <field>mass</field>
   <field>valence</field>
   <field type="string">pseudopotential</field>
   <set>
    <rc><c>   8</c><c>B </c><c>     10.81100000</c><c>      3.00000000</c><c>  PAW_PBE B 06Sep2000                   </c></rc>
    <rc><c>   8</c><c>C </c><c>     12.01100000</c><c>      4.00000000</c><c>  PAW_PBE C 08Apr2002                   </c></rc>
   </set>
  </array>
 </atominfo>
 <structure name="initialpos" >
  <crystal>
   <varray name="basis" >
    <v>       4.31194049       2.48950000       0.00000000 </v>
    <v>      -4.31194049       2.48950000       0.00000000 </v>
    <v>       0.00000000       0.00000000      15.00000000 </v>
   </varray>
   <i name="volume">    322.03727516 </i>
   <varray name="rec_basis" >
    <v>       0.11595707       0.20084354       0.00000000 </v>
    <v>      -0.11595707       0.20084354       0.00000000 </v>
    <v>       0.00000000       0.00000000       0.06666667 </v>
   </varray>
  </crystal>
  <varray name="positions" >
   <v>       0.66888689       0.00000000       0.10000000 </v>
   <v>       0.33111211       0.00000000       0.10000000 </v>
   <v>       0.00000000       0.33111211       0.10000000 </v>
   <v>       0.00000000       0.66888689       0.10000000 </v>
   <v>       0.33111211       0.33111211       0.10000000 </v>
   <v>       0.66888689       0.66888689       0.10000000 </v>
   <v>       0.66666600       0.33333300       0.09922189 </v>
   <v>       0.33333300       0.66666600       0.10077811 </v>
   <v>       0.16666600       0.33333300       0.36666667 </v>
   <v>       0.33333300       0.16666600       0.36666667 </v>
   <v>       0.16666600       0.83333300       0.36666667 </v>
   <v>       0.33333300       0.66666600       0.36666667 </v>
   <v>       0.66666600       0.33333300       0.36666667 </v>
   <v>       0.83333300       0.16666600       0.36666667 </v>
   <v>       0.66666600       0.83333300       0.36666667 </v>
   <v>       0.83333300       0.66666600       0.36666667 </v>
  </varray>
 </structure>
 <calculation>
  <scstep>
   <time name="dav">    1.15    1.15</time>
   <time name="total">    1.17    1.18</time>
   <energy>
    <i name="alphaZ">     60.47074313 </i>
    <i name="ewald">   3686.60826135 </i>
    <i name="hartreedc">  -5100.11368739 </i>
    <i name="XCdc">    161.05428510 </i>
    <i name="pawpsdc">   1216.17529508 </i>
    <i name="pawaedc">  -1213.88798198 </i>
    <i name="eentropy">     -0.01794367 </i>
    <i name="bandstr">   -310.27075628 </i>
    <i name="atom">   1746.50554237 </i>
    <i name="e_fr_energy">    246.52375772 </i>
    <i name="e_wo_entrp">    246.54170138 </i>
    <i name="e_0_energy">    246.53272955 </i>
   </energy>
  </scstep>
  <scstep>
   <time name="dav">    1.34    1.34</time>
   <time name="total">    1.34    1.34</time>
   <energy>
    <i name="e_fr_energy">   -110.36851290 </i>
    <i name="e_wo_entrp">   -110.36032182 </i>
    <i name="e_0_energy">   -110.36441736 </i>
   </energy>
  </scstep>
  <scstep>
   <time name="dav">    1.56    1.56</time>
   <time name="total">    1.56    1.56</time>
   <energy>
    <i name="e_fr_energy">   -133.65352595 </i>
    <i name="e_wo_entrp">   -133.64861606 </i>
    <i name="e_0_energy">   -133.65107101 </i>
   </energy>
  </scstep>
  <scstep>
   <time name="dav">    1.39    1.39</time>
   <time name="total">    1.39    1.39</time>
   <energy>
    <i name="e_fr_energy">   -134.00398063 </i>
    <i name="e_wo_entrp">   -133.99907188 </i>
    <i name="e_0_energy">   -134.00152625 </i>
   </energy>
  </scstep>
  <scstep>
   <time name="dav">    1.50    1.50</time>
   <time name="total">    1.58    1.58</time>
   <energy>
    <i name="e_fr_energy">   -134.01657884 </i>
    <i name="e_wo_entrp">   -134.01167006 </i>
    <i name="e_0_energy">   -134.01412445 </i>
   </energy>
  </scstep>
  <scstep>
   <time name="dav">    1.41    1.41</time>
   <time name="total">    1.50    1.51</time>
   <energy>
    <i name="e_fr_energy">   -126.98163334 </i>
    <i name="e_wo_entrp">   -126.97446770 </i>
    <i name="e_0_energy">   -126.97805052 </i>
   </energy>
  </scstep>
  <scstep>
   <time name="dav">    1.57    1.57</time>
   <time name="total">    1.67    1.67</time>
   <energy>
    <i name="e_fr_energy">   -124.19207909 </i>
    <i name="e_wo_entrp">   -124.18697423 </i>
    <i name="e_0_energy">   -124.18952666 </i>
   </energy>
  </scstep>
  <scstep>
   <time name="dav">    1.41    1.41</time>
   <time name="total">    1.50    1.50</time>
   <energy>
    <i name="e_fr_energy">   -124.15962218 </i>
    <i name="e_wo_entrp">   -124.15486784 </i>
    <i name="e_0_energy">   -124.15724501 </i>
   </energy>
  </scstep>
  <scstep>
   <time name="dav">    1.42    1.42</time>
   <time name="total">    1.51    1.51</time>
   <energy>
    <i name="e_fr_energy">   -124.15193927 </i>
    <i name="e_wo_entrp">   -124.14698769 </i>
    <i name="e_0_energy">   -124.14946348 </i>
   </energy>
  </scstep>
  <scstep>
   <time name="dav">    1.41    1.41</time>
   <time name="total">    1.50    1.50</time>
   <energy>
    <i name="e_fr_energy">   -124.13647156 </i>
    <i name="e_wo_entrp">   -124.13045397 </i>
    <i name="e_0_energy">   -124.13346276 </i>
   </energy>
  </scstep>
  <scstep>
   <time name="dav">    1.37    1.37</time>
   <time name="total">    1.46    1.46</time>
   <energy>
    <i name="e_fr_energy">   -124.13444433 </i>
    <i name="e_wo_entrp">   -124.12873110 </i>
    <i name="e_0_energy">   -124.13158771 </i>
   </energy>
  </scstep>
  <scstep>
   <time name="dav">    1.24    1.24</time>
   <time name="total">    1.33    1.33</time>
   <energy>
    <i name="e_fr_energy">   -124.13528865 </i>
    <i name="e_wo_entrp">   -124.12973165 </i>
    <i name="e_0_energy">   -124.13251015 </i>
   </energy>
  </scstep>
  <scstep>
   <time name="dav">    1.30    1.30</time>
   <time name="total">    1.39    1.39</time>
   <energy>
    <i name="e_fr_energy">   -124.13730831 </i>
    <i name="e_wo_entrp">   -124.13172601 </i>
    <i name="e_0_energy">   -124.13451716 </i>
   </energy>
  </scstep>
  <scstep>
   <time name="dav">    1.33    1.33</time>
   <time name="total">    1.41    1.41</time>
   <energy>
    <i name="e_fr_energy">   -124.13955930 </i>
    <i name="e_wo_entrp">   -124.13394531 </i>
    <i name="e_0_energy">   -124.13675230 </i>
   </energy>
  </scstep>
  <scstep>
   <time name="dav">    1.32    1.32</time>
   <time name="total">    1.41    1.41</time>
   <energy>
    <i name="e_fr_energy">   -124.14019659 </i>
    <i name="e_wo_entrp">   -124.13456470 </i>
    <i name="e_0_energy">   -124.13738065 </i>
   </energy>
  </scstep>
  <scstep>
   <time name="dav">    1.37    1.37</time>
   <time name="total">    1.46    1.46</time>
   <energy>
    <i name="e_fr_energy">   -124.14033079 </i>
    <i name="e_wo_entrp">   -124.13472019 </i>
    <i name="e_0_energy">   -124.13752549 </i>
   </energy>
  </scstep>
  <scstep>
   <time name="dav">    1.27    1.27</time>
   <time name="total">    1.36    1.36</time>
   <energy>
    <i name="e_fr_energy">   -124.14035595 </i>
    <i name="e_wo_entrp">   -124.13474468 </i>
    <i name="e_0_energy">   -124.13755031 </i>
   </energy>
  </scstep>
  <scstep>
   <time name="dav">    1.14    1.14</time>
   <time name="total">    1.22    1.22</time>
   <energy>
    <i name="e_fr_energy">   -124.14036081 </i>
    <i name="e_wo_entrp">   -124.13474857 </i>
    <i name="e_0_energy">   -124.13755469 </i>
   </energy>
  </scstep>
  <scstep>
   <time name="dav">    1.03    1.03</time>
   <time name="total">    1.12    1.12</time>
   <energy>
    <i name="e_fr_energy">   -124.14036340 </i>
    <i name="e_wo_entrp">   -124.13475179 </i>
    <i name="e_0_energy">   -124.13755759 </i>
   </energy>
  </scstep>
  <scstep>
   <time name="dav">    1.19    1.19</time>
   <time name="total">    1.21    1.21</time>
   <energy>
    <i name="alphaZ">     60.47074313 </i>
    <i name="ewald">   3686.60826135 </i>
    <i name="hartreedc">  -5296.24566576 </i>
    <i name="XCdc">    168.37181877 </i>
    <i name="pawpsdc">   5806.36777353 </i>
    <i name="pawaedc">  -5805.74401846 </i>
    <i name="eentropy">     -0.00561152 </i>
    <i name="bandstr">   -490.46920756 </i>
    <i name="atom">   1746.50554237 </i>
    <i name="e_fr_energy">   -124.14036416 </i>
    <i name="e_wo_entrp">   -124.13475265 </i>
    <i name="e_0_energy">   -124.13755841 </i>
   </energy>
  </scstep>
  <structure>
   <crystal>
    <varray name="basis" >
     <v>       4.31194049       2.48950000       0.00000000 </v>
     <v>      -4.31194049       2.48950000       0.00000000 </v>
     <v>       0.00000000       0.00000000      15.00000000 </v>
    </varray>
    <i name="volume">    322.03727516 </i>
    <varray name="rec_basis" >
     <v>       0.11595707       0.20084354       0.00000000 </v>
     <v>      -0.11595707       0.20084354       0.00000000 </v>
     <v>       0.00000000       0.00000000       0.06666667 </v>
    </varray>
   </crystal>
   <varray name="positions" >
    <v>       0.66888689       0.00000000       0.10000000 </v>
    <v>       0.33111211       0.00000000       0.10000000 </v>
    <v>       0.00000000       0.33111211       0.10000000 </v>
    <v>       0.00000000       0.66888689       0.10000000 </v>
    <v>       0.33111211       0.33111211       0.10000000 </v>
    <v>       0.66888689       0.66888689       0.10000000 </v>
    <v>       0.66666600       0.33333300       0.09922189 </v>
    <v>       0.33333300       0.66666600       0.10077811 </v>
    <v>       0.16666600       0.33333300       0.36666667 </v>
    <v>       0.33333300       0.16666600       0.36666667 </v>
    <v>       0.16666600       0.83333300       0.36666667 </v>
    <v>       0.33333300       0.66666600       0.36666667 </v>
    <v>       0.66666600       0.33333300       0.36666667 </v>
    <v>       0.83333300       0.16666600       0.36666667 </v>
    <v>       0.66666600       0.83333300       0.36666667 </v>
    <v>       0.83333300       0.66666600       0.36666667 </v>
   </varray>
  </structure>
  <varray name="forces" >
   <v>       0.14124842       0.08155364       0.02544546 </v>
   <v>      -0.14125173      -0.08154790       0.02544546 </v>
   <v>       0.14124842      -0.08155364       0.02544546 </v>
   <v>      -0.14125173       0.08154790       0.02544546 </v>
   <v>       0.00000331      -0.16310153       0.02544546 </v>
   <v>       0.00000331       0.16310153       0.02544546 </v>
   <v>       0.00000000       0.00000000       0.02458197 </v>
   <v>       0.00000000       0.00000000       0.02932577 </v>
   <v>       0.00130267      -0.00225628      -0.02576832 </v>
   <v>      -0.00125065      -0.00216619      -0.02605111 </v>
   <v>      -0.00260533      -0.00000000      -0.02576832 </v>
   <v>      -0.00000000      -0.00000000      -0.02544646 </v>
   <v>      -0.00000000      -0.00000000      -0.02567577 </v>
   <v>       0.00250130      -0.00000000      -0.02605111 </v>
   <v>       0.00130267       0.00225628      -0.02576832 </v>
   <v>      -0.00125065       0.00216619      -0.02605111 </v>
  </varray>
  <varray name="stress" >
   <v>       2.22576511       0.00000000      -0.00000000 </v>
   <v>       0.00000000       2.22576511       0.00000000 </v>
   <v>       0.00000000       0.00000000      -5.71162179 </v>
  </varray>
  <energy>
   <i name="e_fr_energy">   -125.84818949 </i>
   <i name="e_wo_entrp">   -125.84257798 </i>
   <i name="e_0_energy">   -125.84538373 </i>
  </energy>
  <time name="totalsc">   29.51   29.52</time>
 </calculation>
 <calculation>
  <scstep>
   <time name="dav">    1.15    1.15</time>
   <time name="total">    1.24    1.24</time>
   <energy>
    <i name="alphaZ">     60.47074313 </i>
    <i name="ewald">   3688.82376610 </i>
    <i name="hartreedc">  -5299.12013916 </i>
    <i name="XCdc">    168.33969301 </i>
    <i name="pawpsdc">   5806.35646325 </i>
    <i name="pawaedc">  -5805.73271379 </i>
    <i name="eentropy">     -0.00570586 </i>
    <i name="bandstr">   -489.78086226 </i>
    <i name="atom">   1746.50554237 </i>
    <i name="e_fr_energy">   -124.14321321 </i>
    <i name="e_wo_entrp">   -124.13750736 </i>
    <i name="e_0_energy">   -124.14036028 </i>
   </energy>
  </scstep>
  <scstep>
   <time name="dav">    1.41    1.41</time>
   <time name="total">    1.49    1.49</time>
   <energy>
    <i name="e_fr_energy">   -124.14072938 </i>
    <i name="e_wo_entrp">   -124.13500021 </i>
    <i name="e_0_energy">   -124.13786480 </i>
   </energy>
  </scstep>
  <scstep>
   <time name="dav">    1.46    1.46</time>
   <time name="total">    1.54    1.54</time>
   <energy>
    <i name="e_fr_energy">   -124.14025503 </i>
    <i name="e_wo_entrp">   -124.13458250 </i>
    <i name="e_0_energy">   -124.13741876 </i>
   </energy>
  </scstep>
  <scstep>
   <time name="dav">    1.36    1.36</time>
   <time name="total">    1.46    1.46</time>
   <energy>
    <i name="e_fr_energy">   -124.14023822 </i>
    <i name="e_wo_entrp">   -124.13459853 </i>
    <i name="e_0_energy">   -124.13741837 </i>
   </energy>
  </scstep>
  <scstep>
   <time name="dav">    1.42    1.42</time>
   <time name="total">    1.50    1.50</time>
   <energy>
    <i name="e_fr_energy">   -124.14023620 </i>
    <i name="e_wo_entrp">   -124.13459949 </i>
    <i name="e_0_energy">   -124.13741785 </i>
   </energy>
  </scstep>
  <scstep>
   <time name="dav">    1.46    1.46</time>
   <time name="total">    1.49    1.49</time>
   <energy>
    <i name="alphaZ">     60.47074313 </i>
    <i name="ewald">   3688.82376610 </i>
    <i name="hartreedc">  -5298.60317015 </i>
    <i name="XCdc">    168.32834954 </i>
    <i name="pawpsdc">   5790.66336104 </i>
    <i name="pawaedc">  -5790.03478933 </i>
    <i name="eentropy">     -0.00563912 </i>
    <i name="bandstr">   -490.28839991 </i>
    <i name="atom">   1746.50554237 </i>
    <i name="e_fr_energy">   -124.14023633 </i>
    <i name="e_wo_entrp">   -124.13459721 </i>
    <i name="e_0_energy">   -124.13741677 </i>
   </energy>
  </scstep>
  <structure>
   <crystal>
    <varray name="basis" >
     <v>       4.31194049       2.48950000       0.00000000 </v>
     <v>      -4.31194049       2.48950000       0.00000000 </v>
     <v>       0.00000000       0.00000000      15.00000000 </v>
    </varray>
    <i name="volume">    322.03727516 </i>
    <varray name="rec_basis" >
     <v>       0.11595707       0.20084354       0.00000000 </v>
     <v>      -0.11595707       0.20084354       0.00000000 </v>
     <v>       0.00000000       0.00000000       0.06666667 </v>
    </varray>
   </crystal>
   <varray name="positions" >
    <v>       0.67046723       0.00000004       0.10008184 </v>
    <v>       0.32953180       0.00000004       0.10008184 </v>
    <v>      -0.00000004       0.32953177       0.10008184 </v>
    <v>      -0.00000004       0.67046720       0.10008184 </v>
    <v>       0.32953180       0.32953177       0.10008184 </v>
    <v>       0.67046723       0.67046720       0.10008184 </v>
    <v>       0.66666600       0.33333300       0.09930095 </v>
    <v>       0.33333300       0.66666600       0.10087243 </v>
    <v>       0.16665143       0.33330385       0.36658379 </v>
    <v>       0.33330502       0.16665201       0.36658288 </v>
    <v>       0.16665143       0.83334757       0.36658379 </v>
    <v>       0.33333300       0.66666600       0.36658483 </v>
    <v>       0.66666600       0.33333300       0.36658409 </v>
    <v>       0.83334699       0.16665201       0.36658288 </v>
    <v>       0.66669515       0.83334757       0.36658379 </v>
    <v>       0.83334699       0.66669398       0.36658288 </v>
   </varray>
  </structure>
  <varray name="forces" >
   <v>      -0.13268505      -0.07661795       0.02539511 </v>
   <v>       0.13269561       0.07659965       0.02539511 </v>
   <v>      -0.13268505       0.07661795       0.02539511 </v>
   <v>       0.13269561      -0.07659965       0.02539511 </v>
   <v>      -0.00001057       0.15321760       0.02539511 </v>
   <v>      -0.00001057      -0.15321760       0.02539511 </v>
   <v>       0.00000000      -0.00000000       0.02616166 </v>
   <v>       0.00000000       0.00000000       0.02689495 </v>
   <v>      -0.00325369       0.00563556      -0.02566103 </v>
   <v>       0.00311602       0.00539710      -0.02563881 </v>
   <v>       0.00650738       0.00000000      -0.02566103 </v>
   <v>       0.00000000       0.00000000      -0.02561326 </v>
   <v>       0.00000000      -0.00000000      -0.02591448 </v>
   <v>      -0.00623203       0.00000000      -0.02563881 </v>
   <v>      -0.00325369      -0.00563556      -0.02566103 </v>
   <v>       0.00311602      -0.00539710      -0.02563881 </v>
  </varray>
  <varray name="stress" >
   <v>       0.84717244       0.00000000       0.00000000 </v>
   <v>       0.00000000       0.84717244       0.00000000 </v>
   <v>      -0.00000000       0.00000000      -5.70734751 </v>
  </varray>
  <energy>
   <i name="e_fr_energy">   -125.84890143 </i>
   <i name="e_wo_entrp">   -125.84326231 </i>
   <i name="e_0_energy">   -125.84608187 </i>
  </energy>
  <time name="totalsc">   10.13   10.14</time>
 </calculation>
 <calculation>
  <scstep>
   <time name="dav">    1.14    1.14</time>
   <time name="total">    1.22    1.22</time>
   <energy>
    <i name="alphaZ">     60.47074313 </i>
    <i name="ewald">   3687.80825491 </i>
    <i name="hartreedc">  -5297.27826172 </i>
    <i name="XCdc">    168.34252434 </i>
    <i name="pawpsdc">   5790.53516010 </i>
    <i name="pawaedc">  -5789.90655676 </i>
    <i name="eentropy">     -0.00552649 </i>
    <i name="bandstr">   -490.61462926 </i>
    <i name="atom">   1746.50554237 </i>
    <i name="e_fr_energy">   -124.14274939 </i>
    <i name="e_wo_entrp">   -124.13722290 </i>
    <i name="e_0_energy">   -124.13998614 </i>
   </energy>
  </scstep>
  <scstep>
   <time name="dav">    1.44    1.44</time>
   <time name="total">    1.53    1.53</time>
   <energy>
    <i name="e_fr_energy">   -124.14224581 </i>
    <i name="e_wo_entrp">   -124.13668946 </i>
    <i name="e_0_energy">   -124.13946763 </i>
   </energy>
  </scstep>
  <scstep>
   <time name="dav">    1.35    1.35</time>
   <time name="total">    1.44    1.44</time>
   <energy>
    <i name="e_fr_energy">   -124.14215048 </i>
    <i name="e_wo_entrp">   -124.13656234 </i>
    <i name="e_0_energy">   -124.13935641 </i>
   </energy>
  </scstep>
  <scstep>
   <time name="dav">    1.22    1.22</time>
   <time name="total">    1.31    1.31</time>
   <energy>
    <i name="e_fr_energy">   -124.14214819 </i>
    <i name="e_wo_entrp">   -124.13654764 </i>
    <i name="e_0_energy">   -124.13934792 </i>
   </energy>
  </scstep>
  <scstep>
   <time name="dav">    1.17    1.17</time>
   <time name="total">    1.19    1.19</time>
   <energy>
    <i name="alphaZ">     60.47074313 </i>
    <i name="ewald">   3687.80825491 </i>
    <i name="hartreedc">  -5297.48788833 </i>
    <i name="XCdc">    168.34752870 </i>
    <i name="pawpsdc">   5797.58292018 </i>
    <i name="pawaedc">  -5796.95644868 </i>
    <i name="eentropy">     -0.00560350 </i>
    <i name="bandstr">   -490.40719740 </i>
    <i name="atom">   1746.50554237 </i>
    <i name="e_fr_energy">   -124.14214862 </i>
    <i name="e_wo_entrp">   -124.13654512 </i>
    <i name="e_0_energy">   -124.13934687 </i>
   </energy>
  </scstep>
  <structure>
   <crystal>
    <varray name="basis" >
     <v>       4.31194049       2.48950000       0.00000000 </v>
     <v>      -4.31194049       2.48950000       0.00000000 </v>
     <v>       0.00000000       0.00000000      15.00000000 </v>
    </varray>
    <i name="volume">    322.03727516 </i>
    <varray name="rec_basis" >
     <v>       0.11595707       0.20084354       0.00000000 </v>
     <v>      -0.11595707       0.20084354       0.00000000 </v>
     <v>       0.00000000       0.00000000       0.06666667 </v>
    </varray>
   </crystal>
   <varray name="positions" >
    <v>       0.66975062       0.00000002       0.10004473 </v>
    <v>       0.33024840       0.00000002       0.10004473 </v>
    <v>      -0.00000002       0.33024838       0.10004473 </v>
    <v>      -0.00000002       0.66975060       0.10004473 </v>
    <v>       0.33024840       0.33024838       0.10004473 </v>
    <v>       0.66975062       0.66975060       0.10004473 </v>
    <v>       0.66666600       0.33333300       0.09926510 </v>
    <v>       0.33333300       0.66666600       0.10082966 </v>
    <v>       0.16665803       0.33331707       0.36662137 </v>
    <v>       0.33331771       0.16665835       0.36662087 </v>
    <v>       0.16665803       0.83334097       0.36662137 </v>
    <v>       0.33333300       0.66666600       0.36662194 </v>
    <v>       0.66666600       0.33333300       0.36662153 </v>
    <v>       0.83334065       0.16665835       0.36662087 </v>
    <v>       0.66668193       0.83334097       0.36662137 </v>
    <v>       0.83334065       0.66668129       0.36662087 </v>
   </varray>
  </structure>
  <varray name="forces" >
   <v>      -0.00827942      -0.00478319       0.02548133 </v>
   <v>       0.00828207       0.00477860       0.02548133 </v>
   <v>      -0.00827942       0.00478319       0.02548133 </v>
   <v>       0.00828207      -0.00477860       0.02548133 </v>
   <v>      -0.00000265       0.00956178       0.02548133 </v>
   <v>      -0.00000265      -0.00956178       0.02548133 </v>
   <v>      -0.00000000       0.00000000       0.02549224 </v>
   <v>      -0.00000000       0.00000000       0.02801222 </v>
   <v>      -0.00118163       0.00204665      -0.02576643 </v>
   <v>       0.00113017       0.00195752      -0.02588342 </v>
   <v>       0.00236327      -0.00000000      -0.02576643 </v>
   <v>      -0.00000000       0.00000000      -0.02558643 </v>
   <v>       0.00000000       0.00000000      -0.02585651 </v>
   <v>      -0.00226035      -0.00000000      -0.02588342 </v>
   <v>      -0.00118163      -0.00204665      -0.02576643 </v>
   <v>       0.00113017      -0.00195752      -0.02588342 </v>
  </varray>
  <varray name="stress" >
   <v>       1.43213507       0.00000000      -0.00000000 </v>
   <v>       0.00000000       1.43213507       0.00000000 </v>
   <v>      -0.00000000       0.00000000      -5.69740169 </v>
  </varray>
  <energy>
   <i name="e_fr_energy">   -125.85043366 </i>
   <i name="e_wo_entrp">   -125.84483016 </i>
   <i name="e_0_energy">   -125.84763191 </i>
  </energy>
  <time name="totalsc">    8.09    8.10</time>
 </calculation>
 <calculation>
  <scstep>
   <time name="dav">    1.13    1.13</time>
   <time name="total">    1.22    1.22</time>
   <energy>
    <i name="alphaZ">     60.47074313 </i>
    <i name="ewald">   3691.42993460 </i>
    <i name="hartreedc">  -5301.10834917 </i>
    <i name="XCdc">    168.34824796 </i>
    <i name="pawpsdc">   5797.62514446 </i>
    <i name="pawaedc">  -5796.99864745 </i>
    <i name="eentropy">     -0.00560084 </i>
    <i name="bandstr">   -490.40901703 </i>
    <i name="atom">   1746.50554237 </i>
    <i name="e_fr_energy">   -124.14200198 </i>
    <i name="e_wo_entrp">   -124.13640114 </i>
    <i name="e_0_energy">   -124.13920156 </i>
   </energy>
  </scstep>
  <scstep>
   <time name="dav">    1.15    1.15</time>
   <time name="total">    1.24    1.24</time>
   <energy>
    <i name="e_fr_energy">   -124.14201074 </i>
    <i name="e_wo_entrp">   -124.13640797 </i>
    <i name="e_0_energy">   -124.13920936 </i>
   </energy>
  </scstep>
  <scstep>
   <time name="dav">    1.27    1.27</time>
   <time name="total">    1.36    1.36</time>
   <energy>
    <i name="e_fr_energy">   -124.14200321 </i>
    <i name="e_wo_entrp">   -124.13640123 </i>
    <i name="e_0_energy">   -124.13920222 </i>
   </energy>
  </scstep>
  <scstep>
   <time name="dav">    1.23    1.23</time>
   <time name="total">    1.32    1.32</time>
   <energy>
    <i name="e_fr_energy">   -124.14200433 </i>
    <i name="e_wo_entrp">   -124.13640324 </i>
    <i name="e_0_energy">   -124.13920378 </i>
   </energy>
  </scstep>
  <scstep>
   <time name="dav">    1.01    1.01</time>
   <time name="total">    1.03    1.03</time>
   <energy>
    <i name="alphaZ">     60.47074313 </i>
    <i name="ewald">   3691.42993460 </i>
    <i name="hartreedc">  -5301.13506807 </i>
    <i name="XCdc">    168.34798330 </i>
    <i name="pawpsdc">   5797.60358954 </i>
    <i name="pawaedc">  -5796.97710503 </i>
    <i name="eentropy">     -0.00560044 </i>
    <i name="bandstr">   -490.38202406 </i>
    <i name="atom">   1746.50554237 </i>
    <i name="e_fr_energy">   -124.14200467 </i>
    <i name="e_wo_entrp">   -124.13640423 </i>
    <i name="e_0_energy">   -124.13920445 </i>
   </energy>
  </scstep>
  <structure>
   <crystal>
    <varray name="basis" >
     <v>       4.31194049       2.48950000       0.00000000 </v>
     <v>      -4.31194049       2.48950000       0.00000000 </v>
     <v>       0.00000000       0.00000000      15.00000000 </v>
    </varray>
    <i name="volume">    322.03727516 </i>
    <varray name="rec_basis" >
     <v>       0.11595707       0.20084354       0.00000000 </v>
     <v>      -0.11595707       0.20084354       0.00000000 </v>
     <v>       0.00000000       0.00000000       0.06666667 </v>
    </varray>
   </crystal>
   <varray name="positions" >
    <v>       0.66975039      -0.00000000       0.10012360 </v>
    <v>       0.33024861      -0.00000000       0.10012360 </v>
    <v>       0.00000000       0.33024861       0.10012360 </v>
    <v>       0.00000000       0.66975039       0.10012360 </v>
    <v>       0.33024861       0.33024861       0.10012360 </v>
    <v>       0.66975039       0.66975039       0.10012360 </v>
    <v>       0.66666600       0.33333300       0.09934385 </v>
    <v>       0.33333300       0.66666600       0.10091660 </v>
    <v>       0.16666928       0.33333956       0.36654161 </v>
    <v>       0.33333921       0.16666911       0.36654072 </v>
    <v>       0.16666928       0.83332972       0.36654161 </v>
    <v>       0.33333300       0.66666600       0.36654276 </v>
    <v>       0.66666600       0.33333300       0.36654153 </v>
    <v>       0.83332989       0.16666911       0.36654072 </v>
    <v>       0.66665944       0.83332972       0.36654161 </v>
    <v>       0.83332989       0.66665979       0.36654072 </v>
   </varray>
  </structure>
  <varray name="forces" >
   <v>      -0.00910821      -0.00526898       0.02523195 </v>
   <v>       0.00911717       0.00525345       0.02523195 </v>
   <v>      -0.00910821       0.00526898       0.02523195 </v>
   <v>       0.00911717      -0.00525345       0.02523195 </v>
   <v>      -0.00000896       0.01052243       0.02523195 </v>
   <v>      -0.00000896      -0.01052243       0.02523195 </v>
   <v>       0.00000000      -0.00000000       0.02517571 </v>
   <v>       0.00000000      -0.00000000       0.02768381 </v>
   <v>       0.00242655      -0.00420291      -0.02552047 </v>
   <v>      -0.00231803      -0.00401494      -0.02555179 </v>
   <v>      -0.00485310      -0.00000000      -0.02552047 </v>
   <v>      -0.00000000      -0.00000000      -0.02542809 </v>
   <v>      -0.00000000      -0.00000000      -0.02560637 </v>
   <v>       0.00463606      -0.00000000      -0.02555179 </v>
   <v>       0.00242655       0.00420291      -0.02552047 </v>
   <v>      -0.00231803       0.00401494      -0.02555179 </v>
  </varray>
  <varray name="stress" >
   <v>       1.43594788       0.00000000       0.00000000 </v>
   <v>       0.00000000       1.43594788       0.00000000 </v>
   <v>       0.00000000       0.00000000      -5.69890176 </v>
  </varray>
  <energy>
   <i name="e_fr_energy">   -125.85092604 </i>
   <i name="e_wo_entrp">   -125.84532560 </i>
   <i name="e_0_energy">   -125.84812582 </i>
  </energy>
  <time name="totalsc">    7.57    7.58</time>
 </calculation>
 <calculation>
  <scstep>
   <time name="dav">    1.12    1.12</time>
   <time name="total">    1.21    1.21</time>
   <energy>
    <i name="alphaZ">     60.47074313 </i>
    <i name="ewald">   3702.31001021 </i>
    <i name="hartreedc">  -5312.00346375 </i>
    <i name="XCdc">    168.35061933 </i>
    <i name="pawpsdc">   5797.61277141 </i>
    <i name="pawaedc">  -5796.98628512 </i>
    <i name="eentropy">     -0.00559489 </i>
    <i name="bandstr">   -490.39585656 </i>
    <i name="atom">   1746.50554237 </i>
    <i name="e_fr_energy">   -124.14151388 </i>
    <i name="e_wo_entrp">   -124.13591899 </i>
    <i name="e_0_energy">   -124.13871644 </i>
   </energy>
  </scstep>
  <scstep>
   <time name="dav">    1.13    1.13</time>
   <time name="total">    1.22    1.22</time>
   <energy>
    <i name="e_fr_energy">   -124.14161416 </i>
    <i name="e_wo_entrp">   -124.13601523 </i>
    <i name="e_0_energy">   -124.13881469 </i>
   </energy>
  </scstep>
  <scstep>
   <time name="dav">    1.26    1.26</time>
   <time name="total">    1.35    1.35</time>
   <energy>
    <i name="e_fr_energy">   -124.14153126 </i>
    <i name="e_wo_entrp">   -124.13593584 </i>
    <i name="e_0_energy">   -124.13873355 </i>
   </energy>
  </scstep>
  <scstep>
   <time name="dav">    1.43    1.43</time>
   <time name="total">    1.52    1.52</time>
   <energy>
    <i name="e_fr_energy">   -124.14153722 </i>
    <i name="e_wo_entrp">   -124.13594498 </i>
    <i name="e_0_energy">   -124.13874110 </i>
   </energy>
  </scstep>
  <scstep>
   <time name="dav">    1.32    1.32</time>
   <time name="total">    1.34    1.34</time>
   <energy>
    <i name="alphaZ">     60.47074313 </i>
    <i name="ewald">   3702.31001021 </i>
    <i name="hartreedc">  -5312.05888550 </i>
    <i name="XCdc">    168.34955659 </i>
    <i name="pawpsdc">   5797.56220552 </i>
    <i name="pawaedc">  -5796.93572187 </i>
    <i name="eentropy">     -0.00558968 </i>
    <i name="bandstr">   -490.33939868 </i>
    <i name="atom">   1746.50554237 </i>
    <i name="e_fr_energy">   -124.14153792 </i>
    <i name="e_wo_entrp">   -124.13594824 </i>
    <i name="e_0_energy">   -124.13874308 </i>
   </energy>
  </scstep>
  <structure>
   <crystal>
    <varray name="basis" >
     <v>       4.31194049       2.48950000       0.00000000 </v>
     <v>      -4.31194049       2.48950000       0.00000000 </v>
     <v>       0.00000000       0.00000000      15.00000000 </v>
    </varray>
    <i name="volume">    322.03727516 </i>
    <varray name="rec_basis" >
     <v>       0.11595707       0.20084354       0.00000000 </v>
     <v>      -0.11595707       0.20084354       0.00000000 </v>
     <v>       0.00000000       0.00000000       0.06666667 </v>
    </varray>
   </crystal>
   <varray name="positions" >
    <v>       0.66974970      -0.00000008       0.10036021 </v>
    <v>       0.33024922      -0.00000008       0.10036021 </v>
    <v>       0.00000008       0.33024930       0.10036021 </v>
    <v>       0.00000008       0.66974978       0.10036021 </v>
    <v>       0.33024922       0.33024930       0.10036021 </v>
    <v>       0.66974970       0.66974978       0.10036021 </v>
    <v>       0.66666600       0.33333300       0.09958012 </v>
    <v>       0.33333300       0.66666600       0.10117741 </v>
    <v>       0.16670302       0.33340704       0.36630233 </v>
    <v>       0.33340374       0.16670137       0.36630027 </v>
    <v>       0.16670302       0.83329598       0.36630233 </v>
    <v>       0.33333300       0.66666600       0.36630522 </v>
    <v>       0.66666600       0.33333300       0.36630150 </v>
    <v>       0.83329763       0.16670137       0.36630027 </v>
    <v>       0.66659196       0.83329598       0.36630233 </v>
    <v>       0.83329763       0.66659526       0.36630027 </v>
   </varray>
  </structure>
  <varray name="forces" >
   <v>      -0.00916612      -0.00531536       0.02498559 </v>
   <v>       0.00918629       0.00528041       0.02498559 </v>
   <v>      -0.00916612       0.00531536       0.02498559 </v>
   <v>       0.00918629      -0.00528041       0.02498559 </v>
   <v>      -0.00002018       0.01059577       0.02498559 </v>
   <v>      -0.00002018      -0.01059577       0.02498559 </v>
   <v>       0.00000000      -0.00000000       0.02461005 </v>
   <v>       0.00000000      -0.00000000       0.02714567 </v>
   <v>       0.01325906      -0.02296537      -0.02526417 </v>
   <v>      -0.01267026      -0.02194554      -0.02504020 </v>
   <v>      -0.02651813      -0.00000000      -0.02526417 </v>
   <v>       0.00000000       0.00000000      -0.02542616 </v>
   <v>       0.00000000       0.00000000      -0.02532998 </v>
   <v>       0.02534053      -0.00000000      -0.02504020 </v>
   <v>       0.01325906       0.02296537      -0.02526417 </v>
   <v>      -0.01267026       0.02194554      -0.02504020 </v>
  </varray>
  <varray name="stress" >
   <v>       1.42967063       0.00000000      -0.00000000 </v>
   <v>       0.00000000       1.42967063       0.00000000 </v>
   <v>       0.00000000       0.00000000      -5.71147931 </v>
  </varray>
  <energy>
   <i name="e_fr_energy">   -125.85237513 </i>
   <i name="e_wo_entrp">   -125.84678545 </i>
   <i name="e_0_energy">   -125.84958029 </i>
  </energy>
  <time name="totalsc">    8.04    8.05</time>
 </calculation>
 <calculation>
  <scstep>
   <time name="dav">    1.13    1.13</time>
   <time name="total">    1.22    1.22</time>
   <energy>
    <i name="alphaZ">     60.47074313 </i>
    <i name="ewald">   3724.13782492 </i>
    <i name="hartreedc">  -5333.85026708 </i>
    <i name="XCdc">    168.35488218 </i>
    <i name="pawpsdc">   5797.59409781 </i>
    <i name="pawaedc">  -5796.96760603 </i>
    <i name="eentropy">     -0.00557807 </i>
    <i name="bandstr">   -490.37999237 </i>
    <i name="atom">   1746.50554237 </i>
    <i name="e_fr_energy">   -124.14035315 </i>
    <i name="e_wo_entrp">   -124.13477508 </i>
    <i name="e_0_energy">   -124.13756411 </i>
   </energy>
  </scstep>
  <scstep>
   <time name="dav">    1.24    1.24</time>
   <time name="total">    1.33    1.33</time>
   <energy>
    <i name="e_fr_energy">   -124.14075029 </i>
    <i name="e_wo_entrp">   -124.13516568 </i>
    <i name="e_0_energy">   -124.13795798 </i>
   </energy>
  </scstep>
  <scstep>
   <time name="dav">    1.22    1.22</time>
   <time name="total">    1.31    1.31</time>
   <energy>
    <i name="e_fr_energy">   -124.14043724 </i>
    <i name="e_wo_entrp">   -124.13485800 </i>
    <i name="e_0_energy">   -124.13764762 </i>
   </energy>
  </scstep>
  <scstep>
   <time name="dav">    1.46    1.46</time>
   <time name="total">    1.55    1.55</time>
   <energy>
    <i name="e_fr_energy">   -124.14045518 </i>
    <i name="e_wo_entrp">   -124.13488292 </i>
    <i name="e_0_energy">   -124.13766905 </i>
   </energy>
  </scstep>
  <scstep>
   <time name="dav">    1.49    1.49</time>
   <time name="total">    1.58    1.58</time>
   <energy>
    <i name="e_fr_energy">   -124.14045353 </i>
    <i name="e_wo_entrp">   -124.13488650 </i>
    <i name="e_0_energy">   -124.13767001 </i>
   </energy>
  </scstep>
  <scstep>
   <time name="dav">    1.37    1.37</time>
   <time name="total">    1.40    1.40</time>
   <energy>
    <i name="alphaZ">     60.47074313 </i>
    <i name="ewald">   3724.13782492 </i>
    <i name="hartreedc">  -5333.91744144 </i>
    <i name="XCdc">    168.35245281 </i>
    <i name="pawpsdc">   5797.58482179 </i>
    <i name="pawaedc">  -5796.95833223 </i>
    <i name="eentropy">     -0.00556639 </i>
    <i name="bandstr">   -490.31049846 </i>
    <i name="atom">   1746.50554237 </i>
    <i name="e_fr_energy">   -124.14045350 </i>
    <i name="e_wo_entrp">   -124.13488711 </i>
    <i name="e_0_energy">   -124.13767031 </i>
   </energy>
  </scstep>
  <structure>
   <crystal>
    <varray name="basis" >
     <v>       4.31194049       2.48950000       0.00000000 </v>
     <v>      -4.31194049       2.48950000       0.00000000 </v>
     <v>       0.00000000       0.00000000      15.00000000 </v>
    </varray>
    <i name="volume">    322.03727516 </i>
    <varray name="rec_basis" >
     <v>       0.11595707       0.20084354       0.00000000 </v>
     <v>      -0.11595707       0.20084354       0.00000000 </v>
     <v>       0.00000000       0.00000000       0.06666667 </v>
    </varray>
   </crystal>
   <varray name="positions" >
    <v>       0.66974833      -0.00000023       0.10083344 </v>
    <v>       0.33025044      -0.00000023       0.10083344 </v>
    <v>       0.00000023       0.33025067       0.10083344 </v>
    <v>       0.00000023       0.66974856       0.10083344 </v>
    <v>       0.33025044       0.33025067       0.10083344 </v>
    <v>       0.66974833       0.66974856       0.10083344 </v>
    <v>       0.66666600       0.33333300       0.10005265 </v>
    <v>       0.33333300       0.66666600       0.10169903 </v>
    <v>       0.16677050       0.33354200       0.36582377 </v>
    <v>       0.33353278       0.16676589       0.36581936 </v>
    <v>       0.16677050       0.83322850       0.36582377 </v>
    <v>       0.33333300       0.66666600       0.36583015 </v>
    <v>       0.66666600       0.33333300       0.36582145 </v>
    <v>       0.83323311       0.16676589       0.36581936 </v>
    <v>       0.66645700       0.83322850       0.36582377 </v>
    <v>       0.83323311       0.66646622       0.36581936 </v>
   </varray>
  </structure>
  <varray name="forces" >
   <v>      -0.00934134      -0.00542462       0.02544251 </v>
   <v>       0.00936853       0.00537753       0.02544251 </v>
   <v>      -0.00934134       0.00542462       0.02544251 </v>
   <v>       0.00936853      -0.00537753       0.02544251 </v>
   <v>      -0.00002719       0.01080215       0.02544251 </v>
   <v>      -0.00002719      -0.01080215       0.02544251 </v>
   <v>      -0.00000000      -0.00000000       0.02427623 </v>
   <v>      -0.00000000       0.00000000       0.02689226 </v>
   <v>       0.03496410      -0.06055960      -0.02565904 </v>
   <v>      -0.03341100      -0.05786954      -0.02492722 </v>
   <v>      -0.06992820      -0.00000000      -0.02565904 </v>
   <v>      -0.00000000      -0.00000000      -0.02634931 </v>
   <v>      -0.00000000       0.00000000      -0.02571551 </v>
   <v>       0.06682199      -0.00000000      -0.02492722 </v>
   <v>       0.03496410       0.06055960      -0.02565904 </v>
   <v>      -0.03341100       0.05786954      -0.02492722 </v>
  </varray>
  <varray name="stress" >
   <v>       1.41586214       0.00000000      -0.00000000 </v>
   <v>       0.00000000       1.41586214       0.00000000 </v>
   <v>       0.00000000       0.00000000      -5.70474000 </v>
  </varray>
  <energy>
   <i name="e_fr_energy">   -125.85515652 </i>
   <i name="e_wo_entrp">   -125.84959012 </i>
   <i name="e_0_energy">   -125.85237332 </i>
  </energy>
  <time name="totalsc">    9.79    9.80</time>
 </calculation>
 <calculation>
  <scstep>
   <time name="dav">    1.13    1.13</time>
   <time name="total">    1.22    1.22</time>
   <energy>
    <i name="alphaZ">     60.47074313 </i>
    <i name="ewald">   3768.06412723 </i>
    <i name="hartreedc">  -5377.74929160 </i>
    <i name="XCdc">    168.36336527 </i>
    <i name="pawpsdc">   5797.60957035 </i>
    <i name="pawaedc">  -5796.98307334 </i>
    <i name="eentropy">     -0.00554232 </i>
    <i name="bandstr">   -490.41264494 </i>
    <i name="atom">   1746.50554237 </i>
    <i name="e_fr_energy">   -124.13720387 </i>
    <i name="e_wo_entrp">   -124.13166154 </i>
    <i name="e_0_energy">   -124.13443271 </i>
   </energy>
  </scstep>
  <scstep>
   <time name="dav">    1.26    1.26</time>
   <time name="total">    1.35    1.35</time>
   <energy>
    <i name="e_fr_energy">   -124.13891532 </i>
    <i name="e_wo_entrp">   -124.13336605 </i>
    <i name="e_0_energy">   -124.13614068 </i>
   </energy>
  </scstep>
  <scstep>
   <time name="dav">    1.35    1.35</time>
   <time name="total">    1.43    1.43</time>
   <energy>
    <i name="e_fr_energy">   -124.13759384 </i>
    <i name="e_wo_entrp">   -124.13204967 </i>
    <i name="e_0_energy">   -124.13482176 </i>
   </energy>
  </scstep>
  <scstep>
   <time name="dav">    1.40    1.40</time>
   <time name="total">    1.48    1.48</time>
   <energy>
    <i name="e_fr_energy">   -124.13767693 </i>
    <i name="e_wo_entrp">   -124.13214739 </i>
    <i name="e_0_energy">   -124.13491216 </i>
   </energy>
  </scstep>
  <scstep>
   <time name="dav">    1.57    1.57</time>
   <time name="total">    1.67    1.67</time>
   <energy>
    <i name="e_fr_energy">   -124.13766676 </i>
    <i name="e_wo_entrp">   -124.13214771 </i>
    <i name="e_0_energy">   -124.13490724 </i>
   </energy>
  </scstep>
  <scstep>
   <time name="dav">    1.40    1.40</time>
   <time name="total">    1.49    1.49</time>
   <energy>
    <i name="e_fr_energy">   -124.13766495 </i>
    <i name="e_wo_entrp">   -124.13214872 </i>
    <i name="e_0_energy">   -124.13490683 </i>
   </energy>
  </scstep>
  <scstep>
   <time name="dav">    1.07    1.07</time>
   <time name="total">    1.15    1.15</time>
   <energy>
    <i name="e_fr_energy">   -124.13766907 </i>
    <i name="e_wo_entrp">   -124.13215338 </i>
    <i name="e_0_energy">   -124.13491122 </i>
   </energy>
  </scstep>
  <scstep>
   <time name="dav">    1.25    1.25</time>
   <time name="total">    1.33    1.33</time>
   <energy>
    <i name="e_fr_energy">   -124.13767739 </i>
    <i name="e_wo_entrp">   -124.13216241 </i>
    <i name="e_0_energy">   -124.13491990 </i>
   </energy>
  </scstep>
  <scstep>
   <time name="dav">    1.21    1.21</time>
   <time name="total">    1.29    1.29</time>
   <energy>
    <i name="e_fr_energy">   -124.13768271 </i>
    <i name="e_wo_entrp">   -124.13216781 </i>
    <i name="e_0_energy">   -124.13492526 </i>
   </energy>
  </scstep>
  <scstep>
   <time name="dav">    1.17    1.17</time>
   <time name="total">    1.25    1.25</time>
   <energy>
    <i name="e_fr_energy">   -124.13768650 </i>
    <i name="e_wo_entrp">   -124.13217158 </i>
    <i name="e_0_energy">   -124.13492904 </i>
   </energy>
  </scstep>
  <scstep>
   <time name="dav">    1.18    1.19</time>
   <time name="total">    1.27    1.27</time>
   <energy>
    <i name="e_fr_energy">   -124.13768808 </i>
    <i name="e_wo_entrp">   -124.13217308 </i>
    <i name="e_0_energy">   -124.13493058 </i>
   </energy>
  </scstep>
  <scstep>
   <time name="dav">    1.10    1.10</time>
   <time name="total">    1.12    1.12</time>
   <energy>
    <i name="alphaZ">     60.47074313 </i>
    <i name="ewald">   3768.06412723 </i>
    <i name="hartreedc">  -5377.69923036 </i>
    <i name="XCdc">    168.35681386 </i>
    <i name="pawpsdc">   5797.70138243 </i>
    <i name="pawaedc">  -5797.07496808 </i>
    <i name="eentropy">     -0.00551505 </i>
    <i name="bandstr">   -490.45658417 </i>
    <i name="atom">   1746.50554237 </i>
    <i name="e_fr_energy">   -124.13768866 </i>
    <i name="e_wo_entrp">   -124.13217360 </i>
    <i name="e_0_energy">   -124.13493113 </i>
   </energy>
  </scstep>
  <structure>
   <crystal>
    <varray name="basis" >
     <v>       4.31194049       2.48950000       0.00000000 </v>
     <v>      -4.31194049       2.48950000       0.00000000 </v>
     <v>       0.00000000       0.00000000      15.00000000 </v>
    </varray>
    <i name="volume">    322.03727516 </i>
    <varray name="rec_basis" >
     <v>       0.11595707       0.20084354       0.00000000 </v>
     <v>      -0.11595707       0.20084354       0.00000000 </v>
     <v>       0.00000000       0.00000000       0.06666667 </v>
    </varray>
   </crystal>
   <varray name="positions" >
    <v>       0.66974560      -0.00000053       0.10177990 </v>
    <v>       0.33025288      -0.00000053       0.10177990 </v>
    <v>       0.00000053       0.33025340       0.10177990 </v>
    <v>       0.00000053       0.66974612       0.10177990 </v>
    <v>       0.33025288       0.33025340       0.10177990 </v>
    <v>       0.66974560       0.66974612       0.10177990 </v>
    <v>       0.66666600       0.33333300       0.10099772 </v>
    <v>       0.33333300       0.66666600       0.10274227 </v>
    <v>       0.16690546       0.33381191       0.36486664 </v>
    <v>       0.33379087       0.16689494       0.36485755 </v>
    <v>       0.16690546       0.83309354       0.36486664 </v>
    <v>       0.33333300       0.66666600       0.36488000 </v>
    <v>       0.66666600       0.33333300       0.36486136 </v>
    <v>       0.83310406       0.16689494       0.36485755 </v>
    <v>       0.66618709       0.83309354       0.36486664 </v>
    <v>       0.83310406       0.66620813       0.36485755 </v>
   </varray>
  </structure>
  <varray name="forces" >
   <v>      -0.00981049      -0.00575209       0.02556760 </v>
   <v>       0.00988670       0.00562009       0.02556760 </v>
   <v>      -0.00981049       0.00575209       0.02556760 </v>
   <v>       0.00988670      -0.00562009       0.02556760 </v>
   <v>      -0.00007621       0.01137218       0.02556760 </v>
   <v>      -0.00007621      -0.01137218       0.02556760 </v>
   <v>      -0.00000000       0.00000000       0.02292646 </v>
   <v>      -0.00000000      -0.00000000       0.02572871 </v>
   <v>       0.07836187      -0.13572674      -0.02570700 </v>
   <v>      -0.07487105      -0.12968046      -0.02396492 </v>
   <v>      -0.15672374       0.00000000      -0.02570700 </v>
   <v>      -0.00000000      -0.00000000      -0.02737095 </v>
   <v>      -0.00000000      -0.00000000      -0.02567404 </v>
   <v>       0.14974210      -0.00000000      -0.02396492 </v>
   <v>       0.07836187       0.13572674      -0.02570700 </v>
   <v>      -0.07487105       0.12968046      -0.02396492 </v>
  </varray>
  <varray name="stress" >
   <v>       1.38394918       0.00000000       0.00000000 </v>
   <v>       0.00000000       1.38394918       0.00000000 </v>
   <v>      -0.00000000       0.00000000      -5.57762444 </v>
  </varray>
  <energy>
   <i name="e_fr_energy">   -125.86025637 </i>
   <i name="e_wo_entrp">   -125.85474131 </i>
   <i name="e_0_energy">   -125.85749884 </i>
  </energy>
  <time name="totalsc">   17.46   17.47</time>
 </calculation>
 <calculation>
  <scstep>
   <time name="dav">    1.13    1.13</time>
   <time name="total">    1.21    1.22</time>
   <energy>
    <i name="alphaZ">     60.47074313 </i>
    <i name="ewald">   3856.99949118 </i>
    <i name="hartreedc">  -5466.42509555 </i>
    <i name="XCdc">    168.38105815 </i>
    <i name="pawpsdc">   5797.70195933 </i>
    <i name="pawaedc">  -5797.07554816 </i>
    <i name="eentropy">     -0.00546398 </i>
    <i name="bandstr">   -490.67924069 </i>
    <i name="atom">   1746.50554237 </i>
    <i name="e_fr_energy">   -124.12655424 </i>
    <i name="e_wo_entrp">   -124.12109025 </i>
    <i name="e_0_energy">   -124.12382225 </i>
   </energy>
  </scstep>
  <scstep>
   <time name="dav">    1.22    1.22</time>
   <time name="total">    1.30    1.30</time>
   <energy>
    <i name="e_fr_energy">   -124.13468992 </i>
    <i name="e_wo_entrp">   -124.12923702 </i>
    <i name="e_0_energy">   -124.13196347 </i>
   </energy>
  </scstep>
  <scstep>
   <time name="dav">    1.38    1.38</time>
   <time name="total">    1.46    1.46</time>
   <energy>
    <i name="e_fr_energy">   -124.12938647 </i>
    <i name="e_wo_entrp">   -124.12392375 </i>
    <i name="e_0_energy">   -124.12665511 </i>
   </energy>
  </scstep>
  <scstep>
   <time name="dav">    1.40    1.40</time>
   <time name="total">    1.49    1.49</time>
   <energy>
    <i name="e_fr_energy">   -124.12961804 </i>
    <i name="e_wo_entrp">   -124.12418368 </i>
    <i name="e_0_energy">   -124.12690086 </i>
   </energy>
  </scstep>
  <scstep>
   <time name="dav">    1.58    1.58</time>
   <time name="total">    1.66    1.66</time>
   <energy>
    <i name="e_fr_energy">   -124.12959191 </i>
    <i name="e_wo_entrp">   -124.12418160 </i>
    <i name="e_0_energy">   -124.12688676 </i>
   </energy>
  </scstep>
  <scstep>
   <time name="dav">    1.44    1.44</time>
   <time name="total">    1.52    1.52</time>
   <energy>
    <i name="e_fr_energy">   -124.12957981 </i>
    <i name="e_wo_entrp">   -124.12418015 </i>
    <i name="e_0_energy">   -124.12687998 </i>
   </energy>
  </scstep>
  <scstep>
   <time name="dav">    1.20    1.20</time>
   <time name="total">    1.28    1.28</time>
   <energy>
    <i name="e_fr_energy">   -124.12958939 </i>
    <i name="e_wo_entrp">   -124.12419203 </i>
    <i name="e_0_energy">   -124.12689071 </i>
   </energy>
  </scstep>
  <scstep>
   <time name="dav">    1.25    1.25</time>
   <time name="total">    1.34    1.34</time>
   <energy>
    <i name="e_fr_energy">   -124.12960553 </i>
    <i name="e_wo_entrp">   -124.12420963 </i>
    <i name="e_0_energy">   -124.12690758 </i>
   </energy>
  </scstep>
  <scstep>
   <time name="dav">    1.31    1.31</time>
   <time name="total">    1.40    1.40</time>
   <energy>
    <i name="e_fr_energy">   -124.12961768 </i>
    <i name="e_wo_entrp">   -124.12422161 </i>
    <i name="e_0_energy">   -124.12691965 </i>
   </energy>
  </scstep>
  <scstep>
   <time name="dav">    1.28    1.28</time>
   <time name="total">    1.36    1.36</time>
   <energy>
    <i name="e_fr_energy">   -124.12962531 </i>
    <i name="e_wo_entrp">   -124.12422932 </i>
    <i name="e_0_energy">   -124.12692732 </i>
   </energy>
  </scstep>
  <scstep>
   <time name="dav">    1.20    1.20</time>
   <time name="total">    1.29    1.29</time>
   <energy>
    <i name="e_fr_energy">   -124.12962861 </i>
    <i name="e_wo_entrp">   -124.12423274 </i>
    <i name="e_0_energy">   -124.12693068 </i>
   </energy>
  </scstep>
  <scstep>
   <time name="dav">    1.15    1.15</time>
   <time name="total">    1.24    1.24</time>
   <energy>
    <i name="e_fr_energy">   -124.12962963 </i>
    <i name="e_wo_entrp">   -124.12423370 </i>
    <i name="e_0_energy">   -124.12693166 </i>
   </energy>
  </scstep>
  <scstep>
   <time name="dav">    1.10    1.10</time>
   <time name="total">    1.13    1.13</time>
   <energy>
    <i name="alphaZ">     60.47074313 </i>
    <i name="ewald">   3856.99949118 </i>
    <i name="hartreedc">  -5466.55939335 </i>
    <i name="XCdc">    168.36892314 </i>
    <i name="pawpsdc">   5797.94792253 </i>
    <i name="pawaedc">  -5797.32166484 </i>
    <i name="eentropy">     -0.00539615 </i>
    <i name="bandstr">   -490.53579816 </i>
    <i name="atom">   1746.50554237 </i>
    <i name="e_fr_energy">   -124.12963016 </i>
    <i name="e_wo_entrp">   -124.12423401 </i>
    <i name="e_0_energy">   -124.12693208 </i>
   </energy>
  </scstep>
  <structure>
   <crystal>
    <varray name="basis" >
     <v>       4.31194049       2.48950000       0.00000000 </v>
     <v>      -4.31194049       2.48950000       0.00000000 </v>
     <v>       0.00000000       0.00000000      15.00000000 </v>
    </varray>
    <i name="volume">    322.03727516 </i>
    <varray name="rec_basis" >
     <v>       0.11595707       0.20084354       0.00000000 </v>
     <v>      -0.11595707       0.20084354       0.00000000 </v>
     <v>       0.00000000       0.00000000       0.06666667 </v>
    </varray>
   </crystal>
   <varray name="positions" >
    <v>       0.66974012      -0.00000113       0.10367282 </v>
    <v>       0.33025775      -0.00000113       0.10367282 </v>
    <v>       0.00000113       0.33025888       0.10367282 </v>
    <v>       0.00000113       0.66974125       0.10367282 </v>
    <v>       0.33025775       0.33025888       0.10367282 </v>
    <v>       0.66974012       0.66974125       0.10367282 </v>
    <v>       0.66666600       0.33333300       0.10288786 </v>
    <v>       0.33333300       0.66666600       0.10482875 </v>
    <v>       0.16717537       0.33435174       0.36295239 </v>
    <v>       0.33430705       0.16715303       0.36293393 </v>
    <v>       0.16717537       0.83282363       0.36295239 </v>
    <v>       0.33333300       0.66666600       0.36297970 </v>
    <v>       0.66666600       0.33333300       0.36294116 </v>
    <v>       0.83284597       0.16715303       0.36293393 </v>
    <v>       0.66564726       0.83282363       0.36295239 </v>
    <v>       0.83284597       0.66569195       0.36293393 </v>
   </varray>
  </structure>
  <varray name="forces" >
   <v>      -0.01083222      -0.00648690       0.02552710 </v>
   <v>       0.01103393       0.00613753       0.02552710 </v>
   <v>      -0.01083222       0.00648690       0.02552710 </v>
   <v>       0.01103393      -0.00613753       0.02552710 </v>
   <v>      -0.00020171       0.01262442       0.02552710 </v>
   <v>      -0.00020171      -0.01262442       0.02552710 </v>
   <v>       0.00000000       0.00000000       0.01986740 </v>
   <v>       0.00000000       0.00000000       0.02301809 </v>
   <v>       0.16520968      -0.28615155      -0.02551274 </v>
   <v>      -0.15780306      -0.27332292      -0.02174896 </v>
   <v>      -0.33041935       0.00000000      -0.02551274 </v>
   <v>       0.00000000       0.00000000      -0.02902992 </v>
   <v>       0.00000000       0.00000000      -0.02523305 </v>
   <v>       0.31560612       0.00000000      -0.02174896 </v>
   <v>       0.16520968       0.28615155      -0.02551274 </v>
   <v>      -0.15780306       0.27332292      -0.02174896 </v>
  </varray>
  <varray name="stress" >
   <v>       1.34961753       0.00000000       0.00000000 </v>
   <v>       0.00000000       1.34961753       0.00000000 </v>
   <v>       0.00000000       0.00000000      -5.39392035 </v>
  </varray>
  <energy>
   <i name="e_fr_energy">   -125.86846402 </i>
   <i name="e_wo_entrp">   -125.86306787 </i>
   <i name="e_0_energy">   -125.86576594 </i>
  </energy>
  <time name="totalsc">   19.08   19.09</time>
 </calculation>
 <calculation>
  <scstep>
   <time name="dav">    1.13    1.13</time>
   <time name="total">    1.22    1.22</time>
   <energy>
    <i name="alphaZ">     60.47074313 </i>
    <i name="ewald">   4039.20192209 </i>
    <i name="hartreedc">  -5647.99090670 </i>
    <i name="XCdc">    168.42515125 </i>
    <i name="pawpsdc">   5797.94618681 </i>
    <i name="pawaedc">  -5797.31993245 </i>
    <i name="eentropy">     -0.00529889 </i>
    <i name="bandstr">   -491.30566839 </i>
    <i name="atom">   1746.50554237 </i>
    <i name="e_fr_energy">   -124.07226079 </i>
    <i name="e_wo_entrp">   -124.06696189 </i>
    <i name="e_0_energy">   -124.06961134 </i>
   </energy>
  </scstep>
  <scstep>
   <time name="dav">    1.24    1.24</time>
   <time name="total">    1.33    1.33</time>
   <energy>
    <i name="e_fr_energy">   -124.12321069 </i>
    <i name="e_wo_entrp">   -124.11803098 </i>
    <i name="e_0_energy">   -124.12062084 </i>
   </energy>
  </scstep>
  <scstep>
   <time name="dav">    1.41    1.41</time>
   <time name="total">    1.50    1.50</time>
   <energy>
    <i name="e_fr_energy">   -124.10426830 </i>
    <i name="e_wo_entrp">   -124.09903824 </i>
    <i name="e_0_energy">   -124.10165327 </i>
   </energy>
  </scstep>
  <scstep>
   <time name="dav">    1.35    1.35</time>
   <time name="total">    1.44    1.44</time>
   <energy>
    <i name="e_fr_energy">   -124.10272615 </i>
    <i name="e_wo_entrp">   -124.09752378 </i>
    <i name="e_0_energy">   -124.10012497 </i>
   </energy>
  </scstep>
  <scstep>
   <time name="dav">    1.39    1.39</time>
   <time name="total">    1.47    1.47</time>
   <energy>
    <i name="e_fr_energy">   -124.10253272 </i>
    <i name="e_wo_entrp">   -124.09739550 </i>
    <i name="e_0_energy">   -124.09996411 </i>
   </energy>
  </scstep>
  <scstep>
   <time name="dav">    1.61    1.61</time>
   <time name="total">    1.70    1.70</time>
   <energy>
    <i name="e_fr_energy">   -124.10251978 </i>
    <i name="e_wo_entrp">   -124.09740424 </i>
    <i name="e_0_energy">   -124.09996201 </i>
   </energy>
  </scstep>
  <scstep>
   <time name="dav">    1.29    1.29</time>
   <time name="total">    1.37    1.37</time>
   <energy>
    <i name="e_fr_energy">   -124.10255146 </i>
    <i name="e_wo_entrp">   -124.09745192 </i>
    <i name="e_0_energy">   -124.10000169 </i>
   </energy>
  </scstep>
  <scstep>
   <time name="dav">    1.22    1.22</time>
   <time name="total">    1.30    1.30</time>
   <energy>
    <i name="e_fr_energy">   -124.10259014 </i>
    <i name="e_wo_entrp">   -124.09749396 </i>
    <i name="e_0_energy">   -124.10004205 </i>
   </energy>
  </scstep>
  <scstep>
   <time name="dav">    1.29    1.29</time>
   <time name="total">    1.38    1.38</time>
   <energy>
    <i name="e_fr_energy">   -124.10262559 </i>
    <i name="e_wo_entrp">   -124.09753034 </i>
    <i name="e_0_energy">   -124.10007796 </i>
   </energy>
  </scstep>
  <scstep>
   <time name="dav">    1.30    1.30</time>
   <time name="total">    1.38    1.38</time>
   <energy>
    <i name="e_fr_energy">   -124.10264090 </i>
    <i name="e_wo_entrp">   -124.09754544 </i>
    <i name="e_0_energy">   -124.10009317 </i>
   </energy>
  </scstep>
  <scstep>
   <time name="dav">    1.21    1.21</time>
   <time name="total">    1.30    1.30</time>
   <energy>
    <i name="e_fr_energy">   -124.10264522 </i>
    <i name="e_wo_entrp">   -124.09755008 </i>
    <i name="e_0_energy">   -124.10009765 </i>
   </energy>
  </scstep>
  <scstep>
   <time name="dav">    1.11    1.11</time>
   <time name="total">    1.19    1.19</time>
   <energy>
    <i name="e_fr_energy">   -124.10264841 </i>
    <i name="e_wo_entrp">   -124.09755264 </i>
    <i name="e_0_energy">   -124.10010053 </i>
   </energy>
  </scstep>
  <scstep>
   <time name="dav">    1.23    1.23</time>
   <time name="total">    1.24    1.24</time>
   <energy>
    <i name="alphaZ">     60.47074313 </i>
    <i name="ewald">   4039.20192209 </i>
    <i name="hartreedc">  -5648.53978340 </i>
    <i name="XCdc">    168.39975146 </i>
    <i name="pawpsdc">   5799.00163408 </i>
    <i name="pawaedc">  -5798.37592322 </i>
    <i name="eentropy">     -0.00509622 </i>
    <i name="bandstr">   -490.76143930 </i>
    <i name="atom">   1746.50554237 </i>
    <i name="e_fr_energy">   -124.10264901 </i>
    <i name="e_wo_entrp">   -124.09755279 </i>
    <i name="e_0_energy">   -124.10010090 </i>
   </energy>
  </scstep>
  <structure>
   <crystal>
    <varray name="basis" >
     <v>       4.31194049       2.48950000       0.00000000 </v>
     <v>      -4.31194049       2.48950000       0.00000000 </v>
     <v>       0.00000000       0.00000000      15.00000000 </v>
    </varray>
    <i name="volume">    322.03727516 </i>
    <varray name="rec_basis" >
     <v>       0.11595707       0.20084354       0.00000000 </v>
     <v>      -0.11595707       0.20084354       0.00000000 </v>
     <v>       0.00000000       0.00000000       0.06666667 </v>
    </varray>
   </crystal>
   <varray name="positions" >
    <v>       0.66972916      -0.00000233       0.10745865 </v>
    <v>       0.33026751      -0.00000233       0.10745865 </v>
    <v>       0.00000233       0.33026984       0.10745865 </v>
    <v>       0.00000233       0.66973149       0.10745865 </v>
    <v>       0.33026751       0.33026984       0.10745865 </v>
    <v>       0.66972916       0.66973149       0.10745865 </v>
    <v>       0.66666600       0.33333300       0.10666814 </v>
    <v>       0.33333300       0.66666600       0.10900171 </v>
    <v>       0.16771520       0.33543139       0.35912389 </v>
    <v>       0.33533942       0.16766921       0.35908668 </v>
    <v>       0.16771520       0.83228380       0.35912389 </v>
    <v>       0.33333300       0.66666600       0.35917911 </v>
    <v>       0.66666600       0.33333300       0.35910077 </v>
    <v>       0.83232979       0.16766921       0.35908668 </v>
[...]
    <v>       0.33341248       0.16670574       0.35139221 </v>
    <v>       0.16670620       0.83329280       0.35144680 </v>
    <v>       0.33333300       0.66666600       0.35154011 </v>
    <v>       0.66666600       0.33333300       0.35140716 </v>
    <v>       0.83329326       0.16670574       0.35139221 </v>
    <v>       0.66658559       0.83329280       0.35144680 </v>
    <v>       0.83329326       0.66658652       0.35139221 </v>
   </varray>
  </structure>
  <varray name="forces" >
   <v>      -0.00496772      -0.00288040       0.00864328 </v>
   <v>       0.00497836       0.00286197       0.00864328 </v>
   <v>      -0.00496772       0.00288040       0.00864328 </v>
   <v>       0.00497836      -0.00286197       0.00864328 </v>
   <v>      -0.00001065       0.00574237       0.00864328 </v>
   <v>      -0.00001065      -0.00574237       0.00864328 </v>
   <v>      -0.00000000       0.00000000      -0.01830391 </v>
   <v>      -0.00000000      -0.00000000      -0.01057885 </v>
   <v>       0.01463756      -0.02535299      -0.00498847 </v>
   <v>      -0.01411759      -0.02445238       0.00312192 </v>
   <v>      -0.02927511      -0.00000000      -0.00498847 </v>
   <v>      -0.00000000       0.00000000      -0.01634084 </v>
   <v>      -0.00000000       0.00000000      -0.00103643 </v>
   <v>       0.02823518       0.00000000       0.00312192 </v>
   <v>       0.01463756       0.02535299      -0.00498847 </v>
   <v>      -0.01411759       0.02445238       0.00312192 </v>
  </varray>
  <varray name="stress" >
   <v>       0.48326178       0.00000000      -0.00000000 </v>
   <v>       0.00000000       0.48326178       0.00000000 </v>
   <v>      -0.00000000       0.00000000      -2.00978734 </v>
  </varray>
  <energy>
   <i name="e_fr_energy">   -125.91916039 </i>
   <i name="e_wo_entrp">   -125.91398565 </i>
   <i name="e_0_energy">   -125.91657302 </i>
  </energy>
  <time name="totalsc">    4.27    4.32</time>
 </calculation>
 <calculation>
  <scstep>
   <time name="dav">    1.23    1.23</time>
   <time name="total">    1.32    1.32</time>
   <energy>
    <i name="alphaZ">     60.47074313 </i>
    <i name="ewald">   4420.84884379 </i>
    <i name="hartreedc">  -6029.29833573 </i>
    <i name="XCdc">    168.48400977 </i>
    <i name="pawpsdc">   5799.32706329 </i>
    <i name="pawaedc">  -5798.70141223 </i>
    <i name="eentropy">     -0.00517415 </i>
    <i name="bandstr">   -491.69858142 </i>
    <i name="atom">   1746.50554237 </i>
    <i name="e_fr_energy">   -124.06730119 </i>
    <i name="e_wo_entrp">   -124.06212704 </i>
    <i name="e_0_energy">   -124.06471411 </i>
   </energy>
  </scstep>
  <scstep>
   <time name="dav">    1.34    1.34</time>
   <time name="total">    1.36    1.36</time>
   <energy>
    <i name="alphaZ">     60.47074313 </i>
    <i name="ewald">   4420.84884379 </i>
    <i name="hartreedc">  -6029.29706077 </i>
    <i name="XCdc">    168.48405860 </i>
    <i name="pawpsdc">   5799.33681373 </i>
    <i name="pawaedc">  -5798.71116406 </i>
    <i name="eentropy">     -0.00517416 </i>
    <i name="bandstr">   -491.69990378 </i>
    <i name="atom">   1746.50554237 </i>
    <i name="e_fr_energy">   -124.06730116 </i>
    <i name="e_wo_entrp">   -124.06212700 </i>
    <i name="e_0_energy">   -124.06471408 </i>
   </energy>
  </scstep>
  <structure>
   <crystal>
    <varray name="basis" >
     <v>       4.31194049       2.48950000       0.00000000 </v>
     <v>      -4.31194049       2.48950000       0.00000000 </v>
     <v>       0.00000000       0.00000000      15.00000000 </v>
    </varray>
    <i name="volume">    322.03727516 </i>
    <varray name="rec_basis" >
     <v>       0.11595707       0.20084354       0.00000000 </v>
     <v>      -0.11595707       0.20084354       0.00000000 </v>
     <v>       0.00000000       0.00000000       0.06666667 </v>
    </varray>
   </crystal>
   <varray name="positions" >
    <v>       0.66959423      -0.00001141       0.11504824 </v>
    <v>       0.33039336      -0.00001141       0.11504824 </v>
    <v>       0.00001141       0.33040477       0.11504824 </v>
    <v>       0.00001141       0.66960564       0.11504824 </v>
    <v>       0.33039336       0.33040477       0.11504824 </v>
    <v>       0.66959423       0.66960564       0.11504824 </v>
    <v>       0.66666600       0.33333300       0.11420280 </v>
    <v>       0.33333300       0.66666600       0.11733268 </v>
    <v>       0.16670365       0.33340831       0.35145229 </v>
    <v>       0.33340759       0.16670330       0.35139777 </v>
    <v>       0.16670365       0.83329535       0.35145229 </v>
    <v>       0.33333300       0.66666600       0.35154553 </v>
    <v>       0.66666600       0.33333300       0.35141269 </v>
    <v>       0.83329570       0.16670330       0.35139777 </v>
    <v>       0.66659069       0.83329535       0.35145229 </v>
    <v>       0.83329570       0.66659141       0.35139777 </v>
   </varray>
  </structure>
  <varray name="forces" >
   <v>      -0.00492682      -0.00284722       0.00869390 </v>
   <v>       0.00492917       0.00284314       0.00869390 </v>
   <v>      -0.00492682       0.00284722       0.00869390 </v>
   <v>       0.00492917      -0.00284314       0.00869390 </v>
   <v>      -0.00000235       0.00569036       0.00869390 </v>
   <v>      -0.00000235      -0.00569036       0.00869390 </v>
   <v>       0.00000000       0.00000000      -0.01827780 </v>
   <v>       0.00000000       0.00000000      -0.01055641 </v>
   <v>       0.01381292      -0.02392469      -0.00502617 </v>
   <v>      -0.01332734      -0.02308363       0.00306909 </v>
   <v>      -0.02762585       0.00000000      -0.00502617 </v>
   <v>       0.00000000      -0.00000000      -0.01637782 </v>
   <v>       0.00000000      -0.00000000      -0.00108008 </v>
   <v>       0.02665468      -0.00000000       0.00306909 </v>
   <v>       0.01381292       0.02392469      -0.00502617 </v>
   <v>      -0.01332734       0.02308363       0.00306909 </v>
  </varray>
  <varray name="stress" >
   <v>       0.48390239       0.00000000       0.00000000 </v>
   <v>       0.00000000       0.48390239       0.00000000 </v>
   <v>      -0.00000000       0.00000000      -2.01199033 </v>
  </varray>
  <energy>
   <i name="e_fr_energy">   -125.91916022 </i>
   <i name="e_wo_entrp">   -125.91398606 </i>
   <i name="e_0_energy">   -125.91657314 </i>
  </energy>
  <time name="totalsc">    4.09    4.10</time>
 </calculation>
 <calculation>
  <scstep>
   <time name="dav">    1.21    1.21</time>
   <time name="total">    1.29    1.29</time>
   <energy>
    <i name="alphaZ">     60.47074313 </i>
    <i name="ewald">   4420.98557555 </i>
    <i name="hartreedc">  -6029.43429149 </i>
    <i name="XCdc">    168.48412552 </i>
    <i name="pawpsdc">   5799.32493846 </i>
    <i name="pawaedc">  -5798.69928768 </i>
    <i name="eentropy">     -0.00517441 </i>
    <i name="bandstr">   -491.69944357 </i>
    <i name="atom">   1746.50554237 </i>
    <i name="e_fr_energy">   -124.06727212 </i>
    <i name="e_wo_entrp">   -124.06209771 </i>
    <i name="e_0_energy">   -124.06468492 </i>
   </energy>
  </scstep>
  <scstep>
   <time name="dav">    1.04    1.04</time>
   <time name="total">    1.06    1.06</time>
   <energy>
    <i name="alphaZ">     60.47074313 </i>
    <i name="ewald">   4420.98557555 </i>
    <i name="hartreedc">  -6029.43674996 </i>
    <i name="XCdc">    168.48408635 </i>
    <i name="pawpsdc">   5799.30913690 </i>
    <i name="pawaedc">  -5798.68348497 </i>
    <i name="eentropy">     -0.00517439 </i>
    <i name="bandstr">   -491.69694712 </i>
    <i name="atom">   1746.50554237 </i>
    <i name="e_fr_energy">   -124.06727215 </i>
    <i name="e_wo_entrp">   -124.06209776 </i>
    <i name="e_0_energy">   -124.06468495 </i>
   </energy>
  </scstep>
  <structure>
   <crystal>
    <varray name="basis" >
     <v>       4.31194049       2.48950000       0.00000000 </v>
     <v>      -4.31194049       2.48950000       0.00000000 </v>
     <v>       0.00000000       0.00000000      15.00000000 </v>
    </varray>
    <i name="volume">    322.03727516 </i>
    <varray name="rec_basis" >
     <v>       0.11595707       0.20084354       0.00000000 </v>
     <v>      -0.11595707       0.20084354       0.00000000 </v>
     <v>       0.00000000       0.00000000       0.06666667 </v>
    </varray>
   </crystal>
   <varray name="positions" >
    <v>       0.66959431      -0.00001141       0.11505086 </v>
    <v>       0.33039329      -0.00001141       0.11505086 </v>
    <v>       0.00001141       0.33040469       0.11505086 </v>
    <v>       0.00001141       0.66960571       0.11505086 </v>
    <v>       0.33039329       0.33040469       0.11505086 </v>
    <v>       0.66959431       0.66960571       0.11505086 </v>
    <v>       0.66666600       0.33333300       0.11420548 </v>
    <v>       0.33333300       0.66666600       0.11733561 </v>
    <v>       0.16670489       0.33341078       0.35144963 </v>
    <v>       0.33340996       0.16670448       0.35139508 </v>
    <v>       0.16670489       0.83329411       0.35144963 </v>
    <v>       0.33333300       0.66666600       0.35154291 </v>
    <v>       0.66666600       0.33333300       0.35141001 </v>
    <v>       0.83329452       0.16670448       0.35139508 </v>
    <v>       0.66658822       0.83329411       0.35144963 </v>
    <v>       0.83329452       0.66658904       0.35139508 </v>
   </varray>
  </structure>
  <varray name="forces" >
   <v>      -0.00494573      -0.00285136       0.00887888 </v>
   <v>       0.00494222       0.00285745       0.00887888 </v>
   <v>      -0.00494573       0.00285136       0.00887888 </v>
   <v>       0.00494222      -0.00285745       0.00887888 </v>
   <v>       0.00000351       0.00570881       0.00887888 </v>
   <v>       0.00000351      -0.00570881       0.00887888 </v>
   <v>      -0.00000000       0.00000000      -0.01821792 </v>
   <v>      -0.00000000       0.00000000      -0.01049392 </v>
   <v>       0.01421806      -0.02462640      -0.00518666 </v>
   <v>      -0.01371364      -0.02375271       0.00291616 </v>
   <v>      -0.02843612       0.00000000      -0.00518666 </v>
   <v>      -0.00000000       0.00000000      -0.01652535 </v>
   <v>      -0.00000000       0.00000000      -0.00122455 </v>
   <v>       0.02742727       0.00000000       0.00291616 </v>
   <v>       0.01421806       0.02462640      -0.00518666 </v>
   <v>      -0.01371364       0.02375271       0.00291616 </v>
  </varray>
  <varray name="stress" >
   <v>       0.48333099       0.00000000       0.00000000 </v>
   <v>       0.00000000       0.48333099       0.00000000 </v>
   <v>      -0.00000000      -0.00000000      -2.01039355 </v>
  </varray>
  <energy>
   <i name="e_fr_energy">   -125.91916038 </i>
   <i name="e_wo_entrp">   -125.91398599 </i>
   <i name="e_0_energy">   -125.91657319 </i>
  </energy>
  <time name="totalsc">    3.77    3.78</time>
 </calculation>
 <calculation>
  <scstep>
   <time name="dav">    1.38    1.38</time>
   <time name="total">    1.46    1.46</time>
   <energy>
    <i name="alphaZ">     60.47074313 </i>
    <i name="ewald">   4421.07661615 </i>
    <i name="hartreedc">  -6029.52946475 </i>
    <i name="XCdc">    168.48411960 </i>
    <i name="pawpsdc">   5799.29709433 </i>
    <i name="pawaedc">  -5798.67144190 </i>
    <i name="eentropy">     -0.00517457 </i>
    <i name="bandstr">   -491.69528712 </i>
    <i name="atom">   1746.50554237 </i>
    <i name="e_fr_energy">   -124.06725275 </i>
    <i name="e_wo_entrp">   -124.06207819 </i>
    <i name="e_0_energy">   -124.06466547 </i>
   </energy>
  </scstep>
  <scstep>
   <time name="dav">    1.06    1.06</time>
   <time name="total">    1.08    1.08</time>
   <energy>
    <i name="alphaZ">     60.47074313 </i>
    <i name="ewald">   4421.07661615 </i>
    <i name="hartreedc">  -6029.53048317 </i>
    <i name="XCdc">    168.48410736 </i>
    <i name="pawpsdc">   5799.29147522 </i>
    <i name="pawaedc">  -5798.66582228 </i>
    <i name="eentropy">     -0.00517456 </i>
    <i name="bandstr">   -491.69425696 </i>
    <i name="atom">   1746.50554237 </i>
    <i name="e_fr_energy">   -124.06725275 </i>
    <i name="e_wo_entrp">   -124.06207819 </i>
    <i name="e_0_energy">   -124.06466547 </i>
   </energy>
  </scstep>
  <structure>
   <crystal>
    <varray name="basis" >
     <v>       4.31194049       2.48950000       0.00000000 </v>
     <v>      -4.31194049       2.48950000       0.00000000 </v>
     <v>       0.00000000       0.00000000      15.00000000 </v>
    </varray>
    <i name="volume">    322.03727516 </i>
    <varray name="rec_basis" >
     <v>       0.11595707       0.20084354       0.00000000 </v>
     <v>      -0.11595707       0.20084354       0.00000000 </v>
     <v>       0.00000000       0.00000000       0.06666667 </v>
    </varray>
   </crystal>
   <varray name="positions" >
    <v>       0.66959436      -0.00001140       0.11505261 </v>
    <v>       0.33039324      -0.00001140       0.11505261 </v>
    <v>       0.00001140       0.33040464       0.11505261 </v>
    <v>       0.00001140       0.66960576       0.11505261 </v>
    <v>       0.33039324       0.33040464       0.11505261 </v>
    <v>       0.66959436       0.66960576       0.11505261 </v>
    <v>       0.66666600       0.33333300       0.11420726 </v>
    <v>       0.33333300       0.66666600       0.11733757 </v>
    <v>       0.16670571       0.33341242       0.35144786 </v>
    <v>       0.33341154       0.16670527       0.35139329 </v>
    <v>       0.16670571       0.83329329       0.35144786 </v>
    <v>       0.33333300       0.66666600       0.35154116 </v>
    <v>       0.66666600       0.33333300       0.35140823 </v>
    <v>       0.83329373       0.16670527       0.35139329 </v>
    <v>       0.66658658       0.83329329       0.35144786 </v>
    <v>       0.83329373       0.66658746       0.35139329 </v>
   </varray>
  </structure>
  <varray name="forces" >
   <v>      -0.00495965      -0.00286354       0.00883750 </v>
   <v>       0.00495972       0.00286341       0.00883750 </v>
   <v>      -0.00495965       0.00286354       0.00883750 </v>
   <v>       0.00495972      -0.00286341       0.00883750 </v>
   <v>      -0.00000007       0.00572695       0.00883750 </v>
   <v>      -0.00000007      -0.00572695       0.00883750 </v>
   <v>       0.00000000       0.00000000      -0.01822444 </v>
   <v>       0.00000000      -0.00000000      -0.01049791 </v>
   <v>       0.01448520      -0.02508910      -0.00515707 </v>
   <v>      -0.01396997      -0.02419670       0.00295039 </v>
   <v>      -0.02897040       0.00000000      -0.00515707 </v>
   <v>       0.00000000       0.00000000      -0.01649264 </v>
   <v>       0.00000000      -0.00000000      -0.00118995 </v>
   <v>       0.02793994       0.00000000       0.00295039 </v>
   <v>       0.01448520       0.02508910      -0.00515707 </v>
   <v>      -0.01396997       0.02419670       0.00295039 </v>
  </varray>
  <varray name="stress" >
   <v>       0.48299487       0.00000000      -0.00000000 </v>
   <v>       0.00000000       0.48299487       0.00000000 </v>
   <v>      -0.00000000      -0.00000000      -2.00924688 </v>
  </varray>
  <energy>
   <i name="e_fr_energy">   -125.91916040 </i>
   <i name="e_wo_entrp">   -125.91398585 </i>
   <i name="e_0_energy">   -125.91657313 </i>
  </energy>
  <time name="totalsc">    3.95    3.96</time>
 </calculation>
 <calculation>
  <scstep>
   <time name="dav">    1.19    1.19</time>
   <time name="total">    1.28    1.28</time>
   <energy>
    <i name="alphaZ">     60.47074313 </i>
    <i name="ewald">   4421.10197211 </i>
    <i name="hartreedc">  -6029.55650862 </i>
    <i name="XCdc">    168.48412641 </i>
    <i name="pawpsdc">   5799.29045117 </i>
    <i name="pawaedc">  -5798.66479838 </i>
    <i name="eentropy">     -0.00517461 </i>
    <i name="bandstr">   -491.69360092 </i>
    <i name="atom">   1746.50554237 </i>
    <i name="e_fr_energy">   -124.06724735 </i>
    <i name="e_wo_entrp">   -124.06207274 </i>
    <i name="e_0_energy">   -124.06466005 </i>
   </energy>
  </scstep>
  <scstep>
   <time name="dav">    1.29    1.29</time>
   <time name="total">    1.31    1.31</time>
   <energy>
    <i name="alphaZ">     60.47074313 </i>
    <i name="ewald">   4421.10197211 </i>
    <i name="hartreedc">  -6029.55659048 </i>
    <i name="XCdc">    168.48412696 </i>
    <i name="pawpsdc">   5799.29312645 </i>
    <i name="pawaedc">  -5798.66747336 </i>
    <i name="eentropy">     -0.00517461 </i>
    <i name="bandstr">   -491.69351991 </i>
    <i name="atom">   1746.50554237 </i>
    <i name="e_fr_energy">   -124.06724735 </i>
    <i name="e_wo_entrp">   -124.06207274 </i>
    <i name="e_0_energy">   -124.06466005 </i>
   </energy>
  </scstep>
  <structure>
   <crystal>
    <varray name="basis" >
     <v>       4.31194049       2.48950000       0.00000000 </v>
     <v>      -4.31194049       2.48950000       0.00000000 </v>
     <v>       0.00000000       0.00000000      15.00000000 </v>
    </varray>
    <i name="volume">    322.03727516 </i>
    <varray name="rec_basis" >
     <v>       0.11595707       0.20084354       0.00000000 </v>
     <v>      -0.11595707       0.20084354       0.00000000 </v>
     <v>       0.00000000       0.00000000       0.06666667 </v>
    </varray>
   </crystal>
   <varray name="positions" >
    <v>       0.66959437      -0.00001140       0.11505310 </v>
    <v>       0.33039323      -0.00001140       0.11505310 </v>
    <v>       0.00001140       0.33040463       0.11505310 </v>
    <v>       0.00001140       0.66960577       0.11505310 </v>
    <v>       0.33039323       0.33040463       0.11505310 </v>
    <v>       0.66959437       0.66960577       0.11505310 </v>
    <v>       0.66666600       0.33333300       0.11420775 </v>
    <v>       0.33333300       0.66666600       0.11733811 </v>
    <v>       0.16670594       0.33341288       0.35144737 </v>
    <v>       0.33341198       0.16670549       0.35139279 </v>
    <v>       0.16670594       0.83329306       0.35144737 </v>
    <v>       0.33333300       0.66666600       0.35154068 </v>
    <v>       0.66666600       0.33333300       0.35140773 </v>
    <v>       0.83329351       0.16670549       0.35139279 </v>
    <v>       0.66658612       0.83329306       0.35144737 </v>
    <v>       0.83329351       0.66658702       0.35139279 </v>
   </varray>
  </structure>
  <varray name="forces" >
   <v>      -0.00496212      -0.00286770       0.00877069 </v>
   <v>       0.00496456       0.00286347       0.00877069 </v>
   <v>      -0.00496212       0.00286770       0.00877069 </v>
   <v>       0.00496456      -0.00286347       0.00877069 </v>
   <v>      -0.00000245       0.00573117       0.00877069 </v>
   <v>      -0.00000245      -0.00573117       0.00877069 </v>
   <v>      -0.00000000      -0.00000000      -0.01828066 </v>
   <v>      -0.00000000      -0.00000000      -0.01055438 </v>
   <v>       0.01455744      -0.02521422      -0.00509282 </v>
   <v>      -0.01403946      -0.02431706       0.00301631 </v>
   <v>      -0.02911488      -0.00000000      -0.00509282 </v>
   <v>      -0.00000000      -0.00000000      -0.01643188 </v>
   <v>      -0.00000000      -0.00000000      -0.00112771 </v>
   <v>       0.02807892      -0.00000000       0.00301631 </v>
   <v>       0.01455744       0.02521422      -0.00509282 </v>
   <v>      -0.01403946       0.02431706       0.00301631 </v>
  </varray>
  <varray name="stress" >
   <v>       0.48309266       0.00000000       0.00000000 </v>
   <v>       0.00000000       0.48309266       0.00000000 </v>
   <v>       0.00000000       0.00000000      -2.01027037 </v>
  </varray>
  <energy>
   <i name="e_fr_energy">   -125.91916042 </i>
   <i name="e_wo_entrp">   -125.91398580 </i>
   <i name="e_0_energy">   -125.91657311 </i>
  </energy>
  <time name="totalsc">    3.99    3.99</time>
 </calculation>
