Lattice                                 
           1
     4.311940    2.489500    0.000000
    -4.311940    2.489500    0.000000
     0.000000    0.000000   15.000000
   B    C 
     8     8
Direct configuration=     1
   0.66888689  0.00000000  0.10000000
   0.33111211  0.00000000  0.10000000
   0.00000000  0.33111211  0.10000000
   0.00000000  0.66888689  0.10000000
   0.33111211  0.33111211  0.10000000
   0.66888689  0.66888689  0.10000000
   0.66666600  0.33333300  0.09922189
   0.33333300  0.66666600  0.10077811
   0.16666600  0.33333300  0.36666667
   0.33333300  0.16666600  0.36666667
   0.16666600  0.83333300  0.36666667
   0.33333300  0.66666600  0.36666667
   0.66666600  0.33333300  0.36666667
   0.83333300  0.16666600  0.36666667
   0.66666600  0.83333300  0.36666667
   0.83333300  0.66666600  0.36666667
Direct configuration=     2
   0.67046723  0.00000004  0.10008184
   0.32953180  0.00000004  0.10008184
  -0.00000004  0.32953177  0.10008184
  -0.00000004  0.67046720  0.10008184
   0.32953180  0.32953177  0.10008184
   0.67046723  0.67046720  0.10008184
   0.66666600  0.33333300  0.09930095
   0.33333300  0.66666600  0.10087243
   0.16665143  0.33330385  0.36658379
   0.33330502  0.16665201  0.36658288
   0.16665143  0.83334757  0.36658379
   0.33333300  0.66666600  0.36658483
   0.66666600  0.33333300  0.36658409
   0.83334699  0.16665201  0.36658288
   0.66669515  0.83334757  0.36658379
   0.83334699  0.66669398  0.36658288
Direct configuration=     3
   0.66975062  0.00000002  0.10004473
   0.33024840  0.00000002  0.10004473
  -0.00000002  0.33024838  0.10004473
  -0.00000002  0.66975060  0.10004473
   0.33024840  0.33024838  0.10004473
   0.66975062  0.66975060  0.10004473
   0.66666600  0.33333300  0.09926510
   0.33333300  0.66666600  0.10082966
   0.16665803  0.33331707  0.36662137
   0.33331771  0.16665835  0.36662087
   0.16665803  0.83334097  0.36662137
   0.33333300  0.66666600  0.36662194
   0.66666600  0.33333300  0.36662153
   0.83334065  0.16665835  0.36662087
   0.66668193  0.83334097  0.36662137
   0.83334065  0.66668129  0.36662087
Direct configuration=     4
   0.66975039 -0.00000000  0.10012360
   0.33024861 -0.00000000  0.10012360
   0.00000000  0.33024861  0.10012360
   0.00000000  0.66975039  0.10012360
   0.33024861  0.33024861  0.10012360
   0.66975039  0.66975039  0.10012360
   0.66666600  0.33333300  0.09934385
   0.33333300  0.66666600  0.10091660
   0.16666928  0.33333956  0.36654161
   0.33333921  0.16666911  0.36654072
   0.16666928  0.83332972  0.36654161
   0.33333300  0.66666600  0.36654276
   0.66666600  0.33333300  0.36654153
   0.83332989  0.16666911  0.36654072
   0.66665944  0.83332972  0.36654161
   0.83332989  0.66665979  0.36654072
Direct configuration=     5
   0.66974970 -0.00000008  0.10036021
   0.33024922 -0.00000008  0.10036021
   0.00000008  0.33024930  0.10036021
   0.00000008  0.66974978  0.10036021
   0.33024922  0.33024930  0.10036021
   0.66974970  0.66974978  0.10036021
   0.66666600  0.33333300  0.09958012
   0.33333300  0.66666600  0.10117741
   0.16670302  0.33340704  0.36630233
   0.33340374  0.16670137  0.36630027
   0.16670302  0.83329598  0.36630233
   0.33333300  0.66666600  0.36630522
   0.66666600  0.33333300  0.36630150
   0.83329763  0.16670137  0.36630027
   0.66659196  0.83329598  0.36630233
   0.83329763  0.66659526  0.36630027
Direct configuration=     6
   0.66974833 -0.00000023  0.10083344
   0.33025044 -0.00000023  0.10083344
   0.00000023  0.33025067  0.10083344
   0.00000023  0.66974856  0.10083344
   0.33025044  0.33025067  0.10083344
   0.66974833  0.66974856  0.10083344
   0.66666600  0.33333300  0.10005265
   0.33333300  0.66666600  0.10169903
   0.16677050  0.33354200  0.36582377
   0.33353278  0.16676589  0.36581936
   0.16677050  0.83322850  0.36582377
   0.33333300  0.66666600  0.36583015
   0.66666600  0.33333300  0.36582145
   0.83323311  0.16676589  0.36581936
   0.66645700  0.83322850  0.36582377
   0.83323311  0.66646622  0.36581936
Direct configuration=     7
   0.66974560 -0.00000053  0.10177990
   0.33025288 -0.00000053  0.10177990
   0.00000053  0.33025340  0.10177990
   0.00000053  0.66974612  0.10177990
   0.33025288  0.33025340  0.10177990
   0.66974560  0.66974612  0.10177990
   0.66666600  0.33333300  0.10099772
   0.33333300  0.66666600  0.10274227
   0.16690546  0.33381191  0.36486664
   0.33379087  0.16689494  0.36485755
   0.16690546  0.83309354  0.36486664
   0.33333300  0.66666600  0.36488000
   0.66666600  0.33333300  0.36486136
   0.83310406  0.16689494  0.36485755
   0.66618709  0.83309354  0.36486664
   0.83310406  0.66620813  0.36485755
Direct configuration=     8
   0.66974012 -0.00000113  0.10367282
   0.33025775 -0.00000113  0.10367282
   0.00000113  0.33025888  0.10367282
   0.00000113  0.66974125  0.10367282
   0.33025775  0.33025888  0.10367282
   0.66974012  0.66974125  0.10367282
   0.66666600  0.33333300  0.10288786
   0.33333300  0.66666600  0.10482875
   0.16717537  0.33435174  0.36295239
   0.33430705  0.16715303  0.36293393
   0.16717537  0.83282363  0.36295239
   0.33333300  0.66666600  0.36297970
   0.66666600  0.33333300  0.36294116
   0.83284597  0.16715303  0.36293393
   0.66564726  0.83282363  0.36295239
   0.83284597  0.66569195  0.36293393
Direct configuration=     9
   0.66972916 -0.00000233  0.10745865
   0.33026751 -0.00000233  0.10745865
   0.00000233  0.33026984  0.10745865
   0.00000233  0.66973149  0.10745865
   0.33026751  0.33026984  0.10745865
   0.66972916  0.66973149  0.10745865
   0.66666600  0.33333300  0.10666814
   0.33333300  0.66666600  0.10900171
   0.16771520  0.33543139  0.35912389
   0.33533942  0.16766921  0.35908668
   0.16771520  0.83228380  0.35912389
   0.33333300  0.66666600  0.35917911
   0.66666600  0.33333300  0.35910077
   0.83232979  0.16766921  0.35908668
   0.66456761  0.83228380  0.35912389
   0.83232979  0.66465958  0.35908668
Direct configuration=    10
   0.66972909 -0.00000233  0.10746521
   0.33026757 -0.00000233  0.10746521
   0.00000233  0.33026991  0.10746521
   0.00000233  0.66973143  0.10746521
   0.33026757  0.33026991  0.10746521
   0.66972909  0.66973143  0.10746521
   0.66666600  0.33333300  0.10667467
   0.33333300  0.66666600  0.10900892
   0.16771491  0.33543083  0.35911726
   0.33533888  0.16766894  0.35908003
   0.16771491  0.83228409  0.35911726
   0.33333300  0.66666600  0.35917252
   0.66666600  0.33333300  0.35909413
   0.83233006  0.16766894  0.35908003
   0.66456817  0.83228409  0.35911726
   0.83233006  0.66466012  0.35908003
Direct configuration=    11
   0.66972888 -0.00000235  0.10748487
   0.33026777 -0.00000235  0.10748487
   0.00000235  0.33027012  0.10748487
   0.00000235  0.66973123  0.10748487
   0.33026777  0.33027012  0.10748487
   0.66972888  0.66973123  0.10748487
   0.66666600  0.33333300  0.10669427
   0.33333300  0.66666600  0.10903057
   0.16771407  0.33542914  0.35909737
   0.33533728  0.16766814  0.35906007
   0.16771407  0.83228493  0.35909737
   0.33333300  0.66666600  0.35915276
   0.66666600  0.33333300  0.35907418
   0.83233086  0.16766814  0.35906007
   0.66456986  0.83228493  0.35909737
   0.83233086  0.66466172  0.35906007
Direct configuration=    12
   0.66972846 -0.00000237  0.10752421
   0.33026817 -0.00000237  0.10752421
   0.00000237  0.33027054  0.10752421
   0.00000237  0.66973083  0.10752421
   0.33026817  0.33027054  0.10752421
   0.66972846  0.66973083  0.10752421
   0.66666600  0.33333300  0.10673348
   0.33333300  0.66666600  0.10907386
   0.16771238  0.33542576  0.35905759
   0.33533407  0.16766654  0.35902014
   0.16771238  0.83228662  0.35905759
   0.33333300  0.66666600  0.35911323
   0.66666600  0.33333300  0.35903429
   0.83233246  0.16766654  0.35902014
   0.66457324  0.83228662  0.35905759
   0.83233246  0.66466493  0.35902014
Direct configuration=    13
   0.66972762 -0.00000242  0.10760289
   0.33026895 -0.00000242  0.10760289
   0.00000242  0.33027138  0.10760289
   0.00000242  0.66973005  0.10760289
   0.33026895  0.33027138  0.10760289
   0.66972762  0.66973005  0.10760289
   0.66666600  0.33333300  0.10681189
   0.33333300  0.66666600  0.10916045
   0.16770900  0.33541900  0.35897803
   0.33532766  0.16766333  0.35894029
   0.16770900  0.83229000  0.35897803
   0.33333300  0.66666600  0.35903417
   0.66666600  0.33333300  0.35895450
   0.83233567  0.16766333  0.35894029
   0.66458000  0.83229000  0.35897803
   0.83233567  0.66467134  0.35894029
Direct configuration=    14
   0.66972594 -0.00000252  0.10776024
   0.33027053 -0.00000252  0.10776024
   0.00000252  0.33027306  0.10776024
   0.00000252  0.66972847  0.10776024
   0.33027053  0.33027306  0.10776024
   0.66972594  0.66972847  0.10776024
   0.66666600  0.33333300  0.10696872
   0.33333300  0.66666600  0.10933364
   0.16770224  0.33540549  0.35881892
   0.33531483  0.16765692  0.35878059
   0.16770224  0.83229676  0.35881892
   0.33333300  0.66666600  0.35887605
   0.66666600  0.33333300  0.35879493
   0.83234208  0.16765692  0.35878059
   0.66459351  0.83229676  0.35881892
   0.83234208  0.66468417  0.35878059
Direct configuration=    15
   0.66972259 -0.00000272  0.10807495
   0.33027369 -0.00000272  0.10807495
   0.00000272  0.33027641  0.10807495
   0.00000272  0.66972531  0.10807495
   0.33027369  0.33027641  0.10807495
   0.66972259  0.66972531  0.10807495
   0.66666600  0.33333300  0.10728236
   0.33333300  0.66666600  0.10968000
   0.16768873  0.33537846  0.35850069
   0.33528918  0.16764409  0.35846120
   0.16768873  0.83231027  0.35850069
   0.33333300  0.66666600  0.35855981
   0.66666600  0.33333300  0.35847578
   0.83235491  0.16764409  0.35846120
   0.66462054  0.83231027  0.35850069
   0.83235491  0.66470982  0.35846120
Direct configuration=    16
   0.66971587 -0.00000313  0.10870437
   0.33028001 -0.00000313  0.10870437
   0.00000313  0.33028313  0.10870437
   0.00000313  0.66971899  0.10870437
   0.33028001  0.33028313  0.10870437
   0.66971587  0.66971899  0.10870437
   0.66666600  0.33333300  0.10790966
   0.33333300  0.66666600  0.11037272
   0.16766170  0.33532441  0.35786424
   0.33523787  0.16761844  0.35782240
   0.16766170  0.83233730  0.35786424
   0.33333300  0.66666600  0.35792734
   0.66666600  0.33333300  0.35783749
   0.83238056  0.16761844  0.35782240
   0.66467459  0.83233730  0.35786424
   0.83238056  0.66476113  0.35782240
Direct configuration=    17
   0.66970243 -0.00000393  0.10996320
   0.33029264 -0.00000393  0.10996320
   0.00000393  0.33029657  0.10996320
   0.00000393  0.66970636  0.10996320
   0.33029264  0.33029657  0.10996320
   0.66970243  0.66970636  0.10996320
   0.66666600  0.33333300  0.10916425
   0.33333300  0.66666600  0.11175816
   0.16760765  0.33521630  0.35659133
   0.33513526  0.16756713  0.35654482
   0.16760765  0.83239135  0.35659133
   0.33333300  0.66666600  0.35666239
   0.66666600  0.33333300  0.35656090
   0.83243187  0.16756713  0.35654482
   0.66478270  0.83239135  0.35659133
   0.83243187  0.66486374  0.35654482
Direct configuration=    18
   0.66967556 -0.00000554  0.11248086
   0.33031790 -0.00000554  0.11248086
   0.00000554  0.33032344  0.11248086
   0.00000554  0.66968110  0.11248086
   0.33031790  0.33032344  0.11248086
   0.66967556  0.66968110  0.11248086
   0.66666600  0.33333300  0.11167344
   0.33333300  0.66666600  0.11452905
   0.16749954  0.33500008  0.35404551
   0.33493002  0.16746451  0.35398964
   0.16749954  0.83249946  0.35404551
   0.33333300  0.66666600  0.35413250
   0.66666600  0.33333300  0.35400772
   0.83253449  0.16746451  0.35398964
   0.66499892  0.83249946  0.35404551
   0.83253449  0.66506898  0.35398964
Direct configuration=    19
   0.66962181 -0.00000876  0.11751619
   0.33036843 -0.00000876  0.11751619
   0.00000876  0.33037719  0.11751619
   0.00000876  0.66963057  0.11751619
   0.33036843  0.33037719  0.11751619
   0.66962181  0.66963057  0.11751619
   0.66666600  0.33333300  0.11669181
   0.33333300  0.66666600  0.12007084
   0.16728332  0.33456765  0.34895387
   0.33451956  0.16725928  0.34887929
   0.16728332  0.83271568  0.34895387
   0.33333300  0.66666600  0.34907271
   0.66666600  0.33333300  0.34890137
   0.83273972  0.16725928  0.34887929
   0.66543135  0.83271568  0.34895387
   0.83273972  0.66547944  0.34887929
Direct configuration=    20
   0.66963390 -0.00000804  0.11638351
   0.33035706 -0.00000804  0.11638351
   0.00000804  0.33036510  0.11638351
   0.00000804  0.66964194  0.11638351
   0.33035706  0.33036510  0.11638351
   0.66963390  0.66964194  0.11638351
   0.66666600  0.33333300  0.11556294
   0.33333300  0.66666600  0.11882423
   0.16733196  0.33466492  0.35009922
   0.33461189  0.16730545  0.35002884
   0.16733196  0.83266704  0.35009922
   0.33333300  0.66666600  0.35021089
   0.66666600  0.33333300  0.35005003
   0.83269355  0.16730545  0.35002884
   0.66533408  0.83266704  0.35009922
   0.83269355  0.66538711  0.35002884
Direct configuration=    21
   0.66962172 -0.00000907  0.11597357
   0.33036821 -0.00000907  0.11597357
   0.00000907  0.33037728  0.11597357
   0.00000907  0.66963079  0.11597357
   0.33036821  0.33037728  0.11597357
   0.66962172  0.66963079  0.11597357
   0.66666600  0.33333300  0.11514537
   0.33333300  0.66666600  0.11836631
   0.16713906  0.33427913  0.35051463
   0.33424216  0.16712058  0.35044912
   0.16713906  0.83285994  0.35051463
   0.33333300  0.66666600  0.35062064
   0.66666600  0.33333300  0.35046838
   0.83287842  0.16712058  0.35044912
   0.66571987  0.83285994  0.35051463
   0.83287842  0.66575684  0.35044912
Direct configuration=    22
   0.66959461 -0.00001138  0.11506119
   0.33039301 -0.00001138  0.11506119
   0.00001138  0.33040439  0.11506119
   0.00001138  0.66960599  0.11506119
   0.33039301  0.33040439  0.11506119
   0.66959461  0.66960599  0.11506119
   0.66666600  0.33333300  0.11421599
   0.33333300  0.66666600  0.11734714
   0.16670975  0.33342049  0.35143917
   0.33341927  0.16670914  0.35138450
   0.16670975  0.83328925  0.35143917
   0.33333300  0.66666600  0.35153259
   0.66666600  0.33333300  0.35139948
   0.83328986  0.16670914  0.35138450
   0.66657851  0.83328925  0.35143917
   0.83328986  0.66657973  0.35138450
Direct configuration=    23
   0.66959439 -0.00001140  0.11505366
   0.33039321 -0.00001140  0.11505366
   0.00001140  0.33040461  0.11505366
   0.00001140  0.66960579  0.11505366
   0.33039321  0.33040461  0.11505366
   0.66959439  0.66960579  0.11505366
   0.66666600  0.33333300  0.11420833
   0.33333300  0.66666600  0.11733874
   0.16670620  0.33341341  0.35144680
   0.33341248  0.16670574  0.35139221
   0.16670620  0.83329280  0.35144680
   0.33333300  0.66666600  0.35154011
   0.66666600  0.33333300  0.35140716
   0.83329326  0.16670574  0.35139221
   0.66658559  0.83329280  0.35144680
   0.83329326  0.66658652  0.35139221
Direct configuration=    24
   0.66959423 -0.00001141  0.11504824
   0.33039336 -0.00001141  0.11504824
   0.00001141  0.33040477  0.11504824
   0.00001141  0.66960564  0.11504824
   0.33039336  0.33040477  0.11504824
   0.66959423  0.66960564  0.11504824
   0.66666600  0.33333300  0.11420280
   0.33333300  0.66666600  0.11733268
   0.16670365  0.33340831  0.35145229
   0.33340759  0.16670330  0.35139777
   0.16670365  0.83329535  0.35145229
   0.33333300  0.66666600  0.35154553
   0.66666600  0.33333300  0.35141269
   0.83329570  0.16670330  0.35139777
   0.66659069  0.83329535  0.35145229
   0.83329570  0.66659141  0.35139777
Direct configuration=    25
   0.66959431 -0.00001141  0.11505086
   0.33039329 -0.00001141  0.11505086
   0.00001141  0.33040469  0.11505086
   0.00001141  0.66960571  0.11505086
   0.33039329  0.33040469  0.11505086
   0.66959431  0.66960571  0.11505086
   0.66666600  0.33333300  0.11420548
   0.33333300  0.66666600  0.11733561
   0.16670489  0.33341078  0.35144963
   0.33340996  0.16670448  0.35139508
   0.16670489  0.83329411  0.35144963
   0.33333300  0.66666600  0.35154291
   0.66666600  0.33333300  0.35141001
   0.83329452  0.16670448  0.35139508
   0.66658822  0.83329411  0.35144963
   0.83329452  0.66658904  0.35139508
Direct configuration=    26
   0.66959436 -0.00001140  0.11505261
   0.33039324 -0.00001140  0.11505261
   0.00001140  0.33040464  0.11505261
   0.00001140  0.66960576  0.11505261
   0.33039324  0.33040464  0.11505261
   0.66959436  0.66960576  0.11505261
   0.66666600  0.33333300  0.11420726
   0.33333300  0.66666600  0.11733757
   0.16670571  0.33341242  0.35144786
   0.33341154  0.16670527  0.35139329
   0.16670571  0.83329329  0.35144786
   0.33333300  0.66666600  0.35154116
   0.66666600  0.33333300  0.35140823
   0.83329373  0.16670527  0.35139329
   0.66658658  0.83329329  0.35144786
   0.83329373  0.66658746  0.35139329
Direct configuration=    27
   0.66959437 -0.00001140  0.11505310
   0.33039323 -0.00001140  0.11505310
   0.00001140  0.33040463  0.11505310
   0.00001140  0.66960577  0.11505310
   0.33039323  0.33040463  0.11505310
   0.66959437  0.66960577  0.11505310
   0.66666600  0.33333300  0.11420775
   0.33333300  0.66666600  0.11733811
   0.16670594  0.33341288  0.35144737
   0.33341198  0.16670549  0.35139279
   0.16670594  0.83329306  0.35144737
   0.33333300  0.66666600  0.35154068
   0.66666600  0.33333300  0.35140773
   0.83329351  0.16670549  0.35139279
   0.66658612  0.83329306  0.35144737
   0.83329351  0.66658702  0.35139279
