   16   16  128    2
  0.2033809E+02  0.5005000E-09  0.5005000E-09  0.1500000E-08  0.5000000E-15
  1.000000000000000E-004
  CAR 
 Lattice                                 
     56     19     48
 
  0.0000000E+00  0.0000000E+00  0.0000000E+00  0.6944444E-02
      1        -19.652256      -19.652256   1.000000   1.000000
      2        -15.918544      -15.918544   1.000000   1.000000
      3        -14.608778      -14.608777   1.000000   1.000000
      4        -14.604388      -14.604389   1.000000   1.000000
      5        -14.604358      -14.604358   1.000000   1.000000
      6        -13.438756      -13.438756   1.000000   1.000000
      7        -13.438703      -13.438703   1.000000   1.000000
      8        -13.436276      -13.436276   1.000000   1.000000
      9        -11.750251      -11.750251   1.000000   1.000000
     10        -11.575596      -11.575595   1.000000   1.000000
     11        -11.575577      -11.575576   1.000000   1.000000
     12         -9.387926       -9.387926   1.000000   1.000000
     13         -9.387905       -9.387905   1.000000   1.000000
     14         -7.994015       -7.994015   1.000000   1.000000
     15         -7.356580       -7.356581   1.000000   1.000000
     16         -6.769684       -6.769684   1.000000   1.000000
     17         -6.769655       -6.769655   1.000000   1.000000
     18         -6.769154       -6.769155   1.000000   1.000000
     19         -6.569678       -6.569677   1.000000   1.000000
     20         -3.528907       -3.528907   1.000000   1.000000
     21         -3.528791       -3.528791   1.000000   1.000000
     22         -2.831736       -2.831735   1.000000   1.000000
     23         -2.799762       -2.799762   1.000000   1.000000
     24         -2.799736       -2.799737   1.000000   1.000000
     25         -1.650014       -1.650014   1.000000   1.000000
     26         -1.650009       -1.650009   1.000000   1.000000
     27         -0.422574       -0.422573   0.854093   0.854092
     28         -0.422557       -0.422557   0.854039   0.854038
     29         -0.313463       -0.313463   0.312453   0.312455
     30          0.858997        0.858997   0.000000   0.000000
     31          0.859016        0.859016   0.000000   0.000000
     32          1.065925        1.065925   0.000000   0.000000
     33          1.065950        1.065950   0.000000   0.000000
     34          1.113435        1.113436   0.000000   0.000000
     35          1.596862        1.596862   0.000000   0.000000
     36          1.596865        1.596866   0.000000   0.000000
     37          2.965879        2.965959   0.000000   0.000000
     38          3.577155        3.577136   0.000000   0.000000
     39          4.412537        4.412538   0.000000   0.000000
     40          4.792871        4.793296   0.000000   0.000000
     41          6.457050        6.457051   0.000000   0.000000
     42          6.459518        6.459518   0.000000   0.000000
     43          6.459540        6.459540   0.000000   0.000000
     44          7.014113        7.014333   0.000000   0.000000
     45          7.554775        7.554775   0.000000   0.000000
     46          7.554905        7.554905   0.000000   0.000000
     47          7.694374        7.694439   0.000000   0.000000
     48          8.210957        8.210964   0.000000   0.000000
 
  0.8333333E-01 -0.8331351E-17  0.0000000E+00  0.4166667E-01
      1        -19.612240      -19.612240   1.000000   1.000000
      2        -15.886467      -15.886466   1.000000   1.000000
      3        -15.061738      -15.061738   1.000000   1.000000
      4        -14.725627      -14.725627   1.000000   1.000000
      5        -14.723158      -14.723159   1.000000   1.000000
      6        -13.254565      -13.254565   1.000000   1.000000
      7        -13.253374      -13.253374   1.000000   1.000000
      8        -12.922461      -12.922460   1.000000   1.000000
      9        -12.210239      -12.210238   1.000000   1.000000
     10        -11.608000      -11.607999   1.000000   1.000000
     11        -11.141446      -11.141446   1.000000   1.000000
     12         -9.443247       -9.443247   1.000000   1.000000
     13         -9.304001       -9.304001   1.000000   1.000000
     14         -7.942937       -7.942938   1.000000   1.000000
     15         -7.204978       -7.204979   1.000000   1.000000
     16         -6.894683       -6.894683   1.000000   1.000000
     17         -6.894336       -6.894336   1.000000   1.000000
     18         -6.730197       -6.730197   1.000000   1.000000
     19         -6.520993       -6.520993   1.000000   1.000000
     20         -3.695771       -3.695771   1.000000   1.000000
     21         -3.613720       -3.613720   1.000000   1.000000
     22         -3.063095       -3.063095   1.000000   1.000000
     23         -2.849546       -2.849546   1.000000   1.000000
     24         -2.832904       -2.832905   1.000000   1.000000
     25         -2.052601       -2.052601   1.000000   1.000000
     26         -2.005302       -2.005302   1.000000   1.000000
     27         -0.980249       -0.980249   1.000000   1.000000
     28         -0.377026       -0.377026   0.659102   0.659100
     29          0.197504        0.197504   0.000000   0.000000
     30          0.797987        0.797988   0.000000   0.000000
     31          0.936588        0.936589   0.000000   0.000000
     32          1.189803        1.189803   0.000000   0.000000
     33          1.215593        1.215593   0.000000   0.000000
     34          1.398579        1.398579   0.000000   0.000000
     35          1.927758        1.927758   0.000000   0.000000
     36          2.002289        2.002289   0.000000   0.000000
     37          3.030249        3.030328   0.000000   0.000000
     38          3.642833        3.642814   0.000000   0.000000
     39          4.557688        4.557697   0.000000   0.000000
     40          4.853322        4.853738   0.000000   0.000000
     41          6.481057        6.481058   0.000000   0.000000
     42          6.646070        6.646071   0.000000   0.000000
     43          6.647653        6.647653   0.000000   0.000000
     44          7.056225        7.056444   0.000000   0.000000
     45          7.571110        7.571112   0.000000   0.000000
     46          7.707485        7.707527   0.000000   0.000000
     47          7.725732        7.725732   0.000000   0.000000
     48          7.903463        7.903489   0.000000   0.000000
 
  0.1666667E+00 -0.1920808E-16  0.0000000E+00  0.4166667E-01
      1        -19.492325      -19.492325   1.000000   1.000000
      2        -15.796149      -15.796149   1.000000   1.000000
      3        -15.778339      -15.778339   1.000000   1.000000
      4        -14.955858      -14.955858   1.000000   1.000000
      5        -14.953930      -14.953930   1.000000   1.000000
      6        -12.830305      -12.830305   1.000000   1.000000
      7        -12.829791      -12.829791   1.000000   1.000000
      8        -12.741463      -12.741463   1.000000   1.000000
      9        -12.023336      -12.023336   1.000000   1.000000
     10        -11.688580      -11.688579   1.000000   1.000000
     11        -10.739265      -10.739265   1.000000   1.000000
     12         -9.479925       -9.479925   1.000000   1.000000
     13         -9.072428       -9.072428   1.000000   1.000000
     14         -7.795214       -7.795214   1.000000   1.000000
     15         -7.245491       -7.245491   1.000000   1.000000
     16         -7.245075       -7.245076   1.000000   1.000000
     17         -6.847933       -6.847934   1.000000   1.000000
     18         -6.613372       -6.613372   1.000000   1.000000
     19         -6.375935       -6.375935   1.000000   1.000000
     20         -4.170102       -4.170102   1.000000   1.000000
     21         -3.851636       -3.851636   1.000000   1.000000
     22         -3.647584       -3.647584   1.000000   1.000000
     23         -2.947371       -2.947372   1.000000   1.000000
     24         -2.933026       -2.933026   1.000000   1.000000
     25         -2.772535       -2.772535   1.000000   1.000000
     26         -2.658832       -2.658832   1.000000   1.000000
     27         -1.724697       -1.724697   1.000000   1.000000
     28         -0.566725       -0.566725   0.999008   0.999008
     29          0.260072        0.260073   0.000000   0.000000
     30          1.236183        1.236184   0.000000   0.000000
     31          1.291445        1.291445   0.000000   0.000000
     32          1.517976        1.517976   0.000000   0.000000
     33          1.664594        1.664595   0.000000   0.000000
     34          2.142592        2.142592   0.000000   0.000000
     35          2.639554        2.639555   0.000000   0.000000
     36          2.703132        2.703140   0.000000   0.000000
     37          3.249435        3.249504   0.000000   0.000000
     38          3.830942        3.830928   0.000000   0.000000
     39          4.911103        4.911252   0.000000   0.000000
     40          5.070057        5.070325   0.000000   0.000000
     41          6.546346        6.546346   0.000000   0.000000
     42          6.897183        6.897206   0.000000   0.000000
     43          7.183883        7.183890   0.000000   0.000000
     44          7.185499        7.185499   0.000000   0.000000
     45          7.235073        7.235269   0.000000   0.000000
     46          7.601481        7.601483   0.000000   0.000000
     47          7.874750        7.874795   0.000000   0.000000
     48          8.012092        8.012139   0.000000   0.000000
 
  0.2500000E+00 -0.2118073E-16  0.0000000E+00  0.4166667E-01
      1        -19.292842      -19.292842   1.000000   1.000000
      2        -16.487803      -16.487803   1.000000   1.000000
      3        -15.635845      -15.635845   1.000000   1.000000
      4        -15.175996      -15.175995   1.000000   1.000000
      5        -15.174437      -15.174437   1.000000   1.000000
      6        -13.251351      -13.251351   1.000000   1.000000
      7        -12.297554      -12.297554   1.000000   1.000000
      8        -12.296830      -12.296829   1.000000   1.000000
      9        -11.784213      -11.784213   1.000000   1.000000
     10        -11.028216      -11.028216   1.000000   1.000000
     11        -10.582405      -10.582405   1.000000   1.000000
     12         -9.266811       -9.266811   1.000000   1.000000
     13         -8.738961       -8.738961   1.000000   1.000000
     14         -7.760113       -7.760113   1.000000   1.000000
     15         -7.759661       -7.759661   1.000000   1.000000
     16         -7.554768       -7.554768   1.000000   1.000000
     17         -6.480902       -6.480903   1.000000   1.000000
     18         -6.421299       -6.421299   1.000000   1.000000
     19         -6.139030       -6.139029   1.000000   1.000000
     20         -4.888988       -4.888988   1.000000   1.000000
     21         -4.339700       -4.339700   1.000000   1.000000
     22         -4.200106       -4.200106   1.000000   1.000000
     23         -3.606422       -3.606422   1.000000   1.000000
     24         -3.272262       -3.272262   1.000000   1.000000
     25         -3.035541       -3.035541   1.000000   1.000000
     26         -2.999471       -2.999471   1.000000   1.000000
     27         -2.499826       -2.499826   1.000000   1.000000
     28         -0.838861       -0.838861   1.000000   1.000000
     29          0.095107        0.095109   0.000000   0.000000
     30          1.600254        1.600255   0.000000   0.000000
     31          1.606485        1.606485   0.000000   0.000000
     32          2.271282        2.271284   0.000000   0.000000
     33          2.446752        2.446752   0.000000   0.000000
     34          3.084098        3.084101   0.000000   0.000000
     35          3.292618        3.292655   0.000000   0.000000
     36          3.481453        3.481453   0.000000   0.000000
     37          3.722853        3.722877   0.000000   0.000000
     38          4.141878        4.141882   0.000000   0.000000
     39          5.236667        5.236995   0.000000   0.000000
     40          5.502935        5.503008   0.000000   0.000000
     41          5.895525        5.895527   0.000000   0.000000
     42          6.647433        6.647434   0.000000   0.000000
     43          7.210641        7.210737   0.000000   0.000000
     44          7.458061        7.458216   0.000000   0.000000
     45          7.572164        7.572175   0.000000   0.000000
     46          7.665330        7.665345   0.000000   0.000000
     47          7.878627        7.878633   0.000000   0.000000
     48          7.962480        7.962429   0.000000   0.000000
 
  0.3333333E+00 -0.6954830E-17  0.0000000E+00  0.4166667E-01
      1        -19.014388      -19.014388   1.000000   1.000000
      2        -17.135593      -17.135593   1.000000   1.000000
      3        -15.430934      -15.430934   1.000000   1.000000
      4        -15.344581      -15.344581   1.000000   1.000000
      5        -15.344001      -15.344001   1.000000   1.000000
      6        -13.718140      -13.718140   1.000000   1.000000
      7        -11.869941      -11.869940   1.000000   1.000000
      8        -11.719246      -11.719246   1.000000   1.000000
      9        -11.718034      -11.718035   1.000000   1.000000
     10        -10.615939      -10.615939   1.000000   1.000000
     11         -9.983176       -9.983176   1.000000   1.000000
     12         -8.829336       -8.829336   1.000000   1.000000
     13         -8.362986       -8.362986   1.000000   1.000000
     14         -8.358044       -8.358044   1.000000   1.000000
     15         -8.356490       -8.356490   1.000000   1.000000
     16         -7.223987       -7.223987   1.000000   1.000000
     17         -6.318160       -6.318160   1.000000   1.000000
     18         -6.158614       -6.158614   1.000000   1.000000
     19         -5.824709       -5.824708   1.000000   1.000000
     20         -5.778916       -5.778916   1.000000   1.000000
     21         -5.021369       -5.021369   1.000000   1.000000
     22         -4.610018       -4.610018   1.000000   1.000000
     23         -4.309329       -4.309329   1.000000   1.000000
     24         -3.634706       -3.634706   1.000000   1.000000
     25         -3.347158       -3.347158   1.000000   1.000000
     26         -3.098124       -3.098124   1.000000   1.000000
     27         -3.026517       -3.026517   1.000000   1.000000
     28         -1.060521       -1.060520   1.000000   1.000000
     29         -0.055564       -0.055562   0.000018   0.000018
     30          1.890294        1.890294   0.000000   0.000000
     31          1.894770        1.894769   0.000000   0.000000
     32          3.069780        3.069786   0.000000   0.000000
     33          3.340901        3.340902   0.000000   0.000000
     34          3.722676        3.722723   0.000000   0.000000
     35          4.151170        4.151176   0.000000   0.000000
     36          4.319230        4.319208   0.000000   0.000000
     37          4.338281        4.338281   0.000000   0.000000
     38          4.597899        4.597942   0.000000   0.000000
     39          4.955390        4.955391   0.000000   0.000000
     40          5.542856        5.543071   0.000000   0.000000
     41          5.821979        5.822164   0.000000   0.000000
     42          6.599369        6.599391   0.000000   0.000000
     43          6.820072        6.820092   0.000000   0.000000
     44          7.005838        7.005843   0.000000   0.000000
     45          7.126657        7.126651   0.000000   0.000000
     46          7.292677        7.292680   0.000000   0.000000
     47          7.493846        7.493867   0.000000   0.000000
     48          7.807511        7.807707   0.000000   0.000000
 
  0.4166667E+00 -0.2651103E-16  0.0000000E+00  0.4166667E-01
      1        -18.657837      -18.657837   1.000000   1.000000
      2        -17.716115      -17.716114   1.000000   1.000000
      3        -15.450945      -15.450944   1.000000   1.000000
      4        -15.449052      -15.449053   1.000000   1.000000
      5        -15.203083      -15.203083   1.000000   1.000000
      6        -14.104377      -14.104376   1.000000   1.000000
      7        -11.924523      -11.924522   1.000000   1.000000
      8        -11.178611      -11.178610   1.000000   1.000000
      9        -11.178539      -11.178539   1.000000   1.000000
     10        -10.678465      -10.678466   1.000000   1.000000
     11         -8.925702       -8.925701   1.000000   1.000000
     12         -8.925074       -8.925075   1.000000   1.000000
     13         -8.911030       -8.911030   1.000000   1.000000
     14         -8.373670       -8.373670   1.000000   1.000000
     15         -8.030098       -8.030098   1.000000   1.000000
     16         -6.813961       -6.813962   1.000000   1.000000
     17         -6.776575       -6.776575   1.000000   1.000000
     18         -6.436059       -6.436059   1.000000   1.000000
     19         -5.832581       -5.832581   1.000000   1.000000
     20         -5.731629       -5.731629   1.000000   1.000000
     21         -5.375872       -5.375872   1.000000   1.000000
     22         -5.038671       -5.038671   1.000000   1.000000
     23         -4.840152       -4.840152   1.000000   1.000000
     24         -3.974371       -3.974370   1.000000   1.000000
     25         -3.682458       -3.682458   1.000000   1.000000
     26         -3.163939       -3.163939   1.000000   1.000000
     27         -3.130426       -3.130426   1.000000   1.000000
     28         -1.199235       -1.199234   1.000000   1.000000
     29         -0.154594       -0.154591   0.003113   0.003112
     30          2.101645        2.101646   0.000000   0.000000
     31          2.106921        2.106921   0.000000   0.000000
     32          3.734716        3.734731   0.000000   0.000000
     33          4.175806        4.175830   0.000000   0.000000
     34          4.262344        4.262345   0.000000   0.000000
     35          4.335096        4.335110   0.000000   0.000000
     36          4.802402        4.802387   0.000000   0.000000
     37          5.029584        5.029608   0.000000   0.000000
     38          5.100937        5.100937   0.000000   0.000000
     39          5.278582        5.278598   0.000000   0.000000
     40          5.436019        5.436050   0.000000   0.000000
     41          6.031831        6.032132   0.000000   0.000000
     42          6.218566        6.218574   0.000000   0.000000
     43          6.512347        6.512386   0.000000   0.000000
     44          6.513961        6.513963   0.000000   0.000000
     45          6.575672        6.575781   0.000000   0.000000
     46          6.975186        6.975190   0.000000   0.000000
     47          7.247009        7.247012   0.000000   0.000000
     48          7.357289        7.357302   0.000000   0.000000
 
  0.5000000E+00 -0.4236146E-16  0.0000000E+00  0.2083333E-01
      1        -18.226107      -18.226106   1.000000   1.000000
      2        -18.222818      -18.222818   1.000000   1.000000
      3        -15.486268      -15.486267   1.000000   1.000000
      4        -15.484531      -15.484531   1.000000   1.000000
      5        -15.075041      -15.075041   1.000000   1.000000
      6        -14.286362      -14.286362   1.000000   1.000000
      7        -11.943819      -11.943819   1.000000   1.000000
      8        -10.908994      -10.908994   1.000000   1.000000
      9        -10.908840      -10.908839   1.000000   1.000000
     10        -10.704166      -10.704167   1.000000   1.000000
     11         -9.207008       -9.207007   1.000000   1.000000
     12         -9.206296       -9.206296   1.000000   1.000000
     13         -8.153340       -8.153339   1.000000   1.000000
     14         -7.887218       -7.887218   1.000000   1.000000
     15         -7.832866       -7.832866   1.000000   1.000000
     16         -7.831630       -7.831630   1.000000   1.000000
     17         -6.616760       -6.616760   1.000000   1.000000
     18         -6.324607       -6.324607   1.000000   1.000000
     19         -6.220107       -6.220107   1.000000   1.000000
     20         -5.454457       -5.454456   1.000000   1.000000
     21         -5.453218       -5.453219   1.000000   1.000000
     22         -5.156681       -5.156681   1.000000   1.000000
     23         -5.049709       -5.049709   1.000000   1.000000
     24         -4.303090       -4.303089   1.000000   1.000000
     25         -3.667152       -3.667152   1.000000   1.000000
     26         -3.187251       -3.187252   1.000000   1.000000
     27         -3.156949       -3.156949   1.000000   1.000000
     28         -1.246159       -1.246159   1.000000   1.000000
     29         -0.188806       -0.188803   0.012167   0.012165
     30          2.179536        2.179536   0.000000   0.000000
     31          2.185238        2.185238   0.000000   0.000000
     32          3.920808        3.920809   0.000000   0.000000
     33          4.213088        4.213111   0.000000   0.000000
     34          4.615481        4.615485   0.000000   0.000000
     35          4.774372        4.774444   0.000000   0.000000
     36          4.887159        4.887160   0.000000   0.000000
     37          5.265971        5.265896   0.000000   0.000000
     38          5.452572        5.452614   0.000000   0.000000
     39          5.479979        5.479979   0.000000   0.000000
     40          5.641583        5.641554   0.000000   0.000000
     41          5.925696        5.925697   0.000000   0.000000
     42          6.108510        6.108791   0.000000   0.000000
     43          6.218646        6.218694   0.000000   0.000000
     44          6.451301        6.451312   0.000000   0.000000
     45          6.492547        6.492604   0.000000   0.000000
     46          6.791354        6.791481   0.000000   0.000000
     47          6.893159        6.893162   0.000000   0.000000
     48          6.972966        6.973247   0.000000   0.000000
 
  0.8333333E-01  0.8333333E-01  0.0000000E+00  0.4166667E-01
      1        -19.532274      -19.532274   1.000000   1.000000
      2        -15.822840      -15.822840   1.000000   1.000000
      3        -15.393346      -15.393345   1.000000   1.000000
      4        -15.390371      -15.390371   1.000000   1.000000
      5        -14.501636      -14.501636   1.000000   1.000000
      6        -13.340743      -13.340743   1.000000   1.000000
      7        -12.596781      -12.596781   1.000000   1.000000
      8        -12.468979      -12.468979   1.000000   1.000000
      9        -12.467646      -12.467645   1.000000   1.000000
     10        -11.683425      -11.683424   1.000000   1.000000
     11        -10.801521      -10.801520   1.000000   1.000000
     12         -9.514812       -9.514812   1.000000   1.000000
     13         -9.130279       -9.130279   1.000000   1.000000
     14         -7.843918       -7.843918   1.000000   1.000000
     15         -7.285438       -7.285438   1.000000   1.000000
     16         -6.953353       -6.953353   1.000000   1.000000
     17         -6.816098       -6.816098   1.000000   1.000000
     18         -6.815565       -6.815566   1.000000   1.000000
     19         -6.424071       -6.424071   1.000000   1.000000
     20         -4.007624       -4.007624   1.000000   1.000000
     21         -3.784051       -3.784051   1.000000   1.000000
     22         -3.317688       -3.317688   1.000000   1.000000
     23         -3.275692       -3.275693   1.000000   1.000000
     24         -2.674983       -2.674983   1.000000   1.000000
     25         -2.620189       -2.620189   1.000000   1.000000
     26         -2.436058       -2.436058   1.000000   1.000000
     27         -1.507437       -1.507437   1.000000   1.000000
     28         -0.597640       -0.597639   0.999792   0.999792
     29          0.500983        0.500983   0.000000   0.000000
     30          0.880807        0.880807   0.000000   0.000000
     31          1.278715        1.278715   0.000000   0.000000
     32          1.292058        1.292059   0.000000   0.000000
     33          1.721351        1.721351   0.000000   0.000000
     34          1.764594        1.764594   0.000000   0.000000
     35          2.368746        2.368747   0.000000   0.000000
     36          2.594190        2.594195   0.000000   0.000000
     37          3.177570        3.177643   0.000000   0.000000
     38          3.769157        3.769141   0.000000   0.000000
     39          4.811015        4.811081   0.000000   0.000000
     40          4.986728        4.987080   0.000000   0.000000
     41          6.690068        6.690069   0.000000   0.000000
     42          6.691907        6.691907   0.000000   0.000000
     43          7.095430        7.095591   0.000000   0.000000
     44          7.164170        7.164173   0.000000   0.000000
     45          7.326192        7.326254   0.000000   0.000000
     46          7.622843        7.622846   0.000000   0.000000
     47          7.879628        7.879680   0.000000   0.000000
     48          7.933738        7.933752   0.000000   0.000000
 
  0.1666667E+00  0.8333333E-01  0.0000000E+00  0.8333333E-01
      1        -19.372581      -19.372581   1.000000   1.000000
      2        -16.113660      -16.113660   1.000000   1.000000
      3        -15.699189      -15.699188   1.000000   1.000000
      4        -15.670879      -15.670879   1.000000   1.000000
      5        -14.514484      -14.514484   1.000000   1.000000
      6        -13.067580      -13.067580   1.000000   1.000000
      7        -13.062462      -13.062462   1.000000   1.000000
      8        -11.940935      -11.940934   1.000000   1.000000
      9        -11.809998      -11.809997   1.000000   1.000000
     10        -11.514200      -11.514200   1.000000   1.000000
     11        -10.488070      -10.488070   1.000000   1.000000
     12         -9.495289       -9.495290   1.000000   1.000000
     13         -8.818943       -8.818943   1.000000   1.000000
     14         -7.843313       -7.843313   1.000000   1.000000
     15         -7.650395       -7.650395   1.000000   1.000000
     16         -7.125455       -7.125455   1.000000   1.000000
     17         -6.660062       -6.660062   1.000000   1.000000
     18         -6.601346       -6.601347   1.000000   1.000000
     19         -6.232709       -6.232708   1.000000   1.000000
     20         -4.584389       -4.584389   1.000000   1.000000
     21         -4.097536       -4.097536   1.000000   1.000000
     22         -3.958670       -3.958670   1.000000   1.000000
     23         -3.529708       -3.529708   1.000000   1.000000
     24         -3.320476       -3.320476   1.000000   1.000000
     25         -3.030590       -3.030590   1.000000   1.000000
     26         -2.552715       -2.552715   1.000000   1.000000
     27         -2.200417       -2.200417   1.000000   1.000000
     28         -0.982758       -0.982757   1.000000   1.000000
     29          0.550050        0.550051   0.000000   0.000000
     30          1.029696        1.029696   0.000000   0.000000
     31          1.775853        1.775855   0.000000   0.000000
     32          1.920732        1.920733   0.000000   0.000000
     33          2.157064        2.157064   0.000000   0.000000
     34          2.603601        2.603601   0.000000   0.000000
     35          3.129726        3.129739   0.000000   0.000000
     36          3.187910        3.187941   0.000000   0.000000
     37          3.616614        3.616638   0.000000   0.000000
     38          4.023104        4.023106   0.000000   0.000000
     39          5.133132        5.133441   0.000000   0.000000
     40          5.332524        5.332620   0.000000   0.000000
     41          6.362921        6.362925   0.000000   0.000000
     42          6.775135        6.775136   0.000000   0.000000
     43          7.197023        7.197042   0.000000   0.000000
     44          7.250277        7.250281   0.000000   0.000000
     45          7.354541        7.354746   0.000000   0.000000
     46          7.673941        7.673974   0.000000   0.000000
     47          7.709472        7.709494   0.000000   0.000000
     48          7.961331        7.961332   0.000000   0.000000
 
  0.2500000E+00  0.8333333E-01  0.0000000E+00  0.8333333E-01
      1        -19.133616      -19.133616   1.000000   1.000000
      2        -16.791148      -16.791148   1.000000   1.000000
      3        -15.890872      -15.890872   1.000000   1.000000
      4        -15.514894      -15.514893   1.000000   1.000000
      5        -14.636529      -14.636529   1.000000   1.000000
      6        -13.526251      -13.526250   1.000000   1.000000
      7        -12.572009      -12.572009   1.000000   1.000000
      8        -11.936733      -11.936733   1.000000   1.000000
      9        -11.368528      -11.368528   1.000000   1.000000
     10        -10.495118      -10.495118   1.000000   1.000000
     11        -10.401073      -10.401073   1.000000   1.000000
     12         -9.195180       -9.195180   1.000000   1.000000
     13         -8.494404       -8.494403   1.000000   1.000000
     14         -8.441220       -8.441220   1.000000   1.000000
     15         -7.593413       -7.593413   1.000000   1.000000
     16         -7.364855       -7.364855   1.000000   1.000000
     17         -6.430276       -6.430276   1.000000   1.000000
     18         -6.366774       -6.366775   1.000000   1.000000
     19         -5.955512       -5.955512   1.000000   1.000000
     20         -5.368192       -5.368192   1.000000   1.000000
     21         -4.654733       -4.654733   1.000000   1.000000
     22         -4.497655       -4.497655   1.000000   1.000000
     23         -4.006682       -4.006683   1.000000   1.000000