Lattice                                 
           1
     4.188099    2.418000    0.000000
    -4.188099    2.418000    0.000000
     0.000000    0.000000   15.000000
   B    C 
     4    11
Direct configuration=     1
   0.00415361  0.00267210  0.12034134
   0.35695335  0.00285503  0.09748893
   0.00423858  0.35550699  0.09749256
   0.65142295  0.65006557  0.09747688
   0.32808646  0.32671938  0.10030508
   0.68027775  0.00278085  0.10027562
   0.00416530  0.67883808  0.10026559
   0.99999933  0.49999967  0.33373333
   0.16666633  0.33333267  0.33373333
   0.99999933  0.99999967  0.33373333
   0.16666633  0.83333267  0.33373333
   0.49999933  0.49999967  0.33373333
   0.66666633  0.33333267  0.33373333
   0.49999933  0.99999967  0.33373333
   0.66666633  0.83333267  0.33373333
Direct configuration=     2
   0.00418115  0.00275442  0.11929411
   0.35591264  0.00303057  0.09781423
   0.00395918  0.35424382  0.09781636
   0.65267923  0.65106192  0.09780561
   0.32490447  0.32319408  0.10029474
   0.68376396  0.00310455  0.10027307
   0.00388768  0.68204254  0.10026570
   0.00012708  0.49997718  0.33374185
   0.16687500  0.33394648  0.33380058
   0.99999912  0.99999357  0.33363185
   0.16706394  0.83312259  0.33380346
   0.50003804  0.50016232  0.33374472
   0.66666620  0.33333786  0.33368474
   0.49985184  0.99987106  0.33374139
   0.66605114  0.83292435  0.33380028
Direct configuration=     3
   0.00416618  0.00270969  0.11986321
   0.35647820  0.00293518  0.09763745
   0.00411101  0.35493027  0.09764040
   0.65199652  0.65052047  0.09762696
   0.32663367  0.32510985  0.10030036
   0.68186943  0.00292864  0.10027446
   0.00403855  0.68030113  0.10026564
   0.00005766  0.49998940  0.33373722
   0.16676160  0.33361291  0.33376404
   0.99999923  0.99999689  0.33368700
   0.16684787  0.83323675  0.33376535
   0.50001700  0.50007393  0.33373853
   0.66666627  0.33333504  0.33371115
   0.49993199  0.99994095  0.33373701
   0.66638546  0.83314624  0.33376390
Direct configuration=     4
   0.00418053  0.00276684  0.11899959
   0.35690527  0.00304787  0.09792772
   0.00391443  0.35521811  0.09792914
   0.65172392  0.65006262  0.09792056
   0.32671867  0.32497824  0.10026223
   0.68197928  0.00311973  0.10024394
   0.00386081  0.68023498  0.10023717
  -0.00008279  0.50000848  0.33375627
   0.16662329  0.33315673  0.33380826
   0.99999999  0.00000280  0.33362683
   0.16654260  0.83338250  0.33381176
   0.49998709  0.49990678  0.33375975
   0.66666940  0.33333222  0.33366601
   0.50008903  0.00008310  0.33375564
   0.66684917  0.83346635  0.33380780
Direct configuration=     5
   0.00419835  0.00283788  0.11792619
   0.35743607  0.00318794  0.09828849
   0.00367010  0.35557586  0.09828803
   0.65138509  0.64949355  0.09828546
   0.32682431  0.32481466  0.10021483
   0.68211580  0.00335723  0.10020600
   0.00363990  0.68015277  0.10020180
  -0.00025736  0.50003219  0.33377995
   0.16645137  0.33258974  0.33386323
   0.00000093  0.00001014  0.33355205
   0.16616318  0.83356365  0.33386945
   0.49994991  0.49969902  0.33378613
   0.66667328  0.33332872  0.33360990
   0.50028420  0.00025979  0.33377879
   0.66742552  0.83386421  0.33386236
Direct configuration=     6
   0.00420080  0.00284848  0.11769562
   0.35754161  0.00320627  0.09835676
   0.00363567  0.35565888  0.09835596
   0.65130689  0.64938193  0.09835449
   0.32688664  0.32484338  0.10021370
   0.68208316  0.00338453  0.10020674
   0.00361195  0.68009455  0.10020300
  -0.00022522  0.50002982  0.33378558
   0.16646662  0.33266092  0.33387154
   0.00000221  0.00000968  0.33354321
   0.16621659  0.83354740  0.33387817
   0.49995570  0.49973464  0.33379216
   0.66667283  0.33332951  0.33360084
   0.50025181  0.00022886  0.33378432
   0.66735342  0.83380847  0.33387059
Direct configuration=     7
   0.00420812  0.00288031  0.11700391
   0.35785822  0.00326127  0.09856159
   0.00353236  0.35590795  0.09855974
   0.65107228  0.64904706  0.09856156
   0.32707361  0.32492954  0.10021028
   0.68198524  0.00346643  0.10020894
   0.00352812  0.67991989  0.10020659
  -0.00012882  0.50002273  0.33380248
   0.16651237  0.33287449  0.33389646
   0.00000607  0.00000831  0.33351669
   0.16637683  0.83349864  0.33390434
   0.49997307  0.49984150  0.33381028
   0.66667147  0.33333189  0.33357363
   0.50015462  0.00013608  0.33380091
   0.66713712  0.83364126  0.33389528
Direct configuration=     8
   0.00422276  0.00294395  0.11562047
   0.35849144  0.00337126  0.09897123
   0.00332575  0.35640609  0.09896730
   0.65060307  0.64837732  0.09897570
   0.32744755  0.32510184  0.10020345
   0.68178941  0.00363022  0.10021335
   0.00336044  0.67957059  0.10021376
   0.00006397  0.50000853  0.33383626
   0.16660386  0.33330161  0.33394629
   0.00001378  0.00000556  0.33346364
   0.16669731  0.83340114  0.33395668
   0.50000779  0.50005522  0.33384651
   0.66666875  0.33333664  0.33351923
   0.49996025 -0.00004948  0.33383410
   0.66670453  0.83330684  0.33394467
Direct configuration=     9
   0.00425205  0.00307125  0.11285361
   0.35975788  0.00359126  0.09979052
   0.00291253  0.35740238  0.09978244
   0.64966463  0.64703785  0.09980397
   0.32819542  0.32544646  0.10018980
   0.68139774  0.00395779  0.10022217
   0.00302510  0.67887197  0.10022812
   0.00044957  0.49998014  0.33390384
   0.16678685  0.33415586  0.33404597
   0.00002920  0.00000006  0.33335756
   0.16733827  0.83320612  0.33406137
   0.50007725  0.50048266  0.33391897
   0.66666331  0.33334614  0.33341042
   0.49957151 -0.00042060  0.33390046
   0.66583935  0.83263799  0.33404345
Direct configuration=    10
   0.00423291  0.00298807  0.11466147
   0.35893039  0.00344751  0.09925520
   0.00318252  0.35675141  0.09924983
   0.65027780  0.64791306  0.09926278
   0.32770676  0.32522129  0.10019872
   0.68165365  0.00374375  0.10021641
   0.00324421  0.67932844  0.10021874
   0.00019762  0.49999869  0.33385969
   0.16666728  0.33359770  0.33398084
   0.00001913  0.00000365  0.33342687
   0.16691947  0.83333354  0.33399297
   0.50003187  0.50020337  0.33387163
   0.66666686  0.33333993  0.33348152
   0.49982551 -0.00017811  0.33385710
   0.66640466  0.83307501  0.33397891
Direct configuration=    11
   0.00423022  0.00297980  0.11414739
   0.35891738  0.00341442  0.09933750
   0.00322566  0.35678068  0.09933196
   0.65025546  0.64792571  0.09934550
   0.32773726  0.32533087  0.10026627
   0.68154726  0.00365879  0.10028646
   0.00330824  0.67929901  0.10028918
   0.00012567  0.50000973  0.33387113
   0.16672432  0.33360494  0.33397688
   0.00001173  0.00000308  0.33345660
   0.16688481  0.83328643  0.33398872
   0.50001393  0.50012448  0.33388269
   0.66667361  0.33334082  0.33348905
   0.49989765 -0.00011217  0.33386842
   0.66640746  0.83312075  0.33397491
Direct configuration=    12
   0.00422216  0.00295497  0.11260516
   0.35887835  0.00331514  0.09958441
   0.00335506  0.35686848  0.09957834
   0.65018845  0.64796365  0.09959367
   0.32782876  0.32565961  0.10046892
   0.68122807  0.00340390  0.10049661
   0.00350031  0.67921071  0.10050049
  -0.00009019  0.50004286  0.33390547
   0.16689544  0.33362665  0.33396500
  -0.00001046  0.00000138  0.33354578
   0.16678083  0.83314507  0.33397597
   0.49996013  0.49988779  0.33391587
   0.66669384  0.33334350  0.33351167
   0.50011406  0.00008565  0.33390238
   0.66641587  0.83325798  0.33396292
Direct configuration=    13
   0.00420602  0.00290532  0.10952068
   0.35880027  0.00311659  0.10007822
   0.00361386  0.35704409  0.10007111
   0.65005441  0.64803952  0.10009001
   0.32801176  0.32631709  0.10087422
   0.68058969  0.00289412  0.10091691
   0.00388446  0.67903410  0.10092312
  -0.00052192  0.50010911  0.33397414
   0.16723768  0.33367008  0.33394124
  -0.00005483 -0.00000204  0.33372415
   0.16657288  0.83286236  0.33395048
   0.49985253  0.49941442  0.33398223
   0.66673429  0.33334884  0.33355690
   0.50054687  0.00048128  0.33397031
   0.66643268  0.83353245  0.33393895
Direct configuration=    14
   0.00420430  0.00289410  0.10881581
   0.35879025  0.00306508  0.10017922
   0.00369692  0.35709351  0.10017237
   0.64999432  0.64805711  0.10019085
   0.32799632  0.32640720  0.10097711
   0.68049847  0.00279829  0.10102157
   0.00397007  0.67902939  0.10102791
  -0.00033150  0.50004726  0.33397862
   0.16700976  0.33356010  0.33394047
  -0.00001861  0.00000469  0.33377120
   0.16663437  0.83305581  0.33394884
   0.49995160  0.49964696  0.33398565
   0.66670767  0.33334622  0.33359009
   0.50035061  0.00032703  0.33397470
   0.66650612  0.83343459  0.33393827
Direct configuration=    15
   0.00420113  0.00287342  0.10751604
   0.35877177  0.00297009  0.10036547
   0.00385009  0.35718463  0.10035907
   0.64988351  0.64808954  0.10037680
   0.32796784  0.32657336  0.10116684
   0.68033026  0.00262160  0.10121456
   0.00412794  0.67902070  0.10122113
   0.00001963  0.49993322  0.33398688
   0.16658947  0.33335730  0.33393904
   0.00004817  0.00001710  0.33385795
   0.16674775  0.83341251  0.33394581
   0.50013428  0.50007574  0.33399197
   0.66665857  0.33334140  0.33365130
   0.49998871  0.00004258  0.33398279
   0.66664154  0.83325414  0.33393703
Direct configuration=    16
   0.00420105  0.00287286  0.10748042
   0.35877127  0.00296749  0.10037057
   0.00385428  0.35718712  0.10036419
   0.64988048  0.64809042  0.10038189
   0.32796706  0.32657792  0.10117204
   0.68032565  0.00261676  0.10121984
   0.00413227  0.67902046  0.10122643
   0.00002925  0.49993009  0.33398710
   0.16657796  0.33335174  0.33393900
   0.00005000  0.00001744  0.33386032
   0.16675086  0.83342229  0.33394573
   0.50013928  0.50008749  0.33399215
   0.66665722  0.33334127  0.33365297
   0.49997879  0.00003479  0.33398301
   0.66664525  0.83324919  0.33393699
Direct configuration=    17
   0.00420094  0.00286942  0.10733308
   0.35883239  0.00296731  0.10039566
   0.00387083  0.35724135  0.10038988
   0.64980030  0.64803792  0.10040608
   0.32792189  0.32650243  0.10118681
   0.68039612  0.00266941  0.10123265
   0.00410672  0.67904341  0.10123875
   0.00007017  0.49997630  0.33397387
   0.16662740  0.33337426  0.33395046
   0.00003026  0.00001368  0.33386681
   0.16675916  0.83339622  0.33395673
   0.50006968  0.50009610  0.33397839
   0.66667894  0.33334546  0.33368493
   0.49994785 -0.00002847  0.33396996
   0.66664802  0.83326254  0.33394862
Direct configuration=    18
   0.00420068  0.00286122  0.10698123
   0.35897836  0.00296687  0.10045556
   0.00391033  0.35737082  0.10045122
   0.64960883  0.64791256  0.10046383
   0.32781401  0.32632218  0.10122208
   0.68056440  0.00279514  0.10126322
   0.00404571  0.67909821  0.10126817
   0.00016787  0.50008662  0.33394227
   0.16674547  0.33342801  0.33397784
  -0.00001687  0.00000472  0.33388229
   0.16677899  0.83333397  0.33398300
   0.49990349  0.50011665  0.33394554
   0.66673080  0.33335547  0.33376124
   0.49987397 -0.00017953  0.33393878
   0.66665463  0.83329440  0.33397640
Direct configuration=    19
   0.00419050  0.00283517  0.10680975
   0.35909419  0.00297806  0.10049353
   0.00391662  0.35746824  0.10049031
   0.64947574  0.64780920  0.10049985
   0.32779877  0.32622245  0.10122609
   0.68066861  0.00291116  0.10126226
   0.00397344  0.67910008  0.10126613
   0.00009616  0.50005543  0.33392567
   0.16673178  0.33342475  0.33399469
   0.00001401  0.00001102  0.33389210
   0.16673492  0.83331222  0.33399917
   0.49997257  0.50005404  0.33392817
   0.66669820  0.33335004  0.33380881
   0.49997363 -0.00007032  0.33392254
   0.66662153  0.83330578  0.33399358
Direct configuration=    20
   0.00418294  0.00281585  0.10668251
   0.35918013  0.00298636  0.10052170
   0.00392129  0.35754052  0.10051932
   0.64937699  0.64773252  0.10052658
   0.32778747  0.32614846  0.10122907
   0.68074592  0.00299724  0.10126155
   0.00391983  0.67910147  0.10126462
   0.00004296  0.50003228  0.33391336
   0.16672163  0.33342234  0.33400719
   0.00003693  0.00001570  0.33389939
   0.16670221  0.83329608  0.33401118
   0.50002383  0.50000759  0.33391529
   0.66667401  0.33334600  0.33384410
   0.50004757  0.00001071  0.33391049
   0.66659696  0.83331422  0.33400632
Direct configuration=    21
   0.00416807  0.00278224  0.10660818
   0.35921470  0.00299965  0.10054483
   0.00390925  0.35756668  0.10054312
   0.64934749  0.64770252  0.10054826
   0.32784605  0.32615970  0.10121916
   0.68074900  0.00304950  0.10124732
   0.00387629  0.67906001  0.10124950
   0.00001376  0.49998465  0.33392016
   0.16668932  0.33340888  0.33400767
   0.00002595  0.00001401  0.33391184
   0.16674567  0.83334448  0.33401155
   0.50005837  0.50003485  0.33392194
   0.66668623  0.33334765  0.33385452
   0.50000658  0.00002584  0.33391759
   0.66662392  0.83328668  0.33400702
Direct configuration=    22
   0.00415624  0.00275551  0.10654905
   0.35924220  0.00301022  0.10056322
   0.00389967  0.35758749  0.10056207
   0.64932402  0.64767865  0.10056551
   0.32789266  0.32616864  0.10121127
   0.68075145  0.00309109  0.10123600
   0.00384165  0.67902702  0.10123746
  -0.00000947  0.49994676  0.33392557
   0.16666361  0.33339817  0.33400805
   0.00001722  0.00001266  0.33392176
   0.16678025  0.83338299  0.33401185
   0.50008585  0.50005653  0.33392723
   0.66669595  0.33334896  0.33386282
   0.49997397  0.00003787  0.33392324
   0.66664537  0.83326477  0.33400758
Direct configuration=    23
   0.00414403  0.00272708  0.10646559
   0.35924133  0.00303197  0.10058875
   0.00388205  0.35757036  0.10058841
   0.64933968  0.64768453  0.10058916
   0.32794627  0.32618939  0.10119617
   0.68074092  0.00312698  0.10121489
   0.00380858  0.67898536  0.10121511
   0.00003546  0.49998594  0.33394380
   0.16668266  0.33340296  0.33400546
   0.00001760  0.00001257  0.33393846
   0.16676582  0.83336463  0.33400933
   0.50004756  0.50006260  0.33394554
   0.66669709  0.33334964  0.33386494
   0.49996903 -0.00000563  0.33394182
   0.66664260  0.83327895  0.33400524
Direct configuration=    24
   0.00413105  0.00269687  0.10637690
   0.35924040  0.00305509  0.10061589
   0.00386333  0.35755216  0.10061640
   0.64935633  0.64769077  0.10061429
   0.32800324  0.32621143  0.10118013
   0.68072973  0.00316512  0.10119245
   0.00377342  0.67894108  0.10119136
   0.00008321  0.50002757  0.33396317
   0.16670289  0.33340805  0.33400270
   0.00001801  0.00001247  0.33395621
   0.16675048  0.83334512  0.33400665
   0.50000685  0.50006906  0.33396499
   0.66669830  0.33335037  0.33386720
   0.49996378 -0.00005186  0.33396157
   0.66663965  0.83329403  0.33400276
Direct configuration=    25
   0.00413865  0.00271153  0.10629421
   0.35920783  0.00307498  0.10062970
   0.00385654  0.35749589  0.10063085
   0.64940125  0.64772672  0.10062647
   0.32796677  0.32619265  0.10117259
   0.68073601  0.00315479  0.10117921
   0.00378475  0.67895261  0.10117694
   0.00005855  0.50002459  0.33397974
   0.16670500  0.33340893  0.33400840
   0.00003201  0.00001591  0.33396382
   0.16672517  0.83332761  0.33401257
   0.50002620  0.50003704  0.33398192
   0.66668523  0.33334904  0.33386927
   0.50001251 -0.00001029  0.33397837
   0.66662420  0.83330534  0.33400861
Direct configuration=    26
   0.00414396  0.00272177  0.10623641
   0.35918507  0.00308888  0.10063935
   0.00385179  0.35745656  0.10064094
   0.64943265  0.64775184  0.10063499
   0.32794128  0.32617951  0.10116732
   0.68074039  0.00314757  0.10116995
   0.00379267  0.67896067  0.10116687
   0.00004132  0.50002250  0.33399133
   0.16670647  0.33340955  0.33401238
   0.00004179  0.00001831  0.33396913
   0.16670748  0.83331538  0.33401672
   0.50003973  0.50001465  0.33399375
   0.66667610  0.33334811  0.33387071
   0.50004657  0.00001877  0.33399012
   0.66661339  0.83331324  0.33401271
Direct configuration=    27
   0.00415325  0.00274208  0.10615270
   0.35916733  0.00309692  0.10064384
   0.00385012  0.35742764  0.10064584
   0.64945524  0.64776748  0.10063829
   0.32790658  0.32618090  0.10116606
   0.68072755  0.00311272  0.10116383
   0.00382143  0.67897522  0.10115978
   0.00002200  0.49999923  0.33400327
   0.16670300  0.33341304  0.33402585
   0.00002870  0.00001635  0.33397051
   0.16674244  0.83333734  0.33403045
   0.50004787  0.50002924  0.33400611
   0.66669116  0.33335039  0.33387765
   0.50001685  0.00002252  0.33400220
   0.66662714  0.83329625  0.33402627
Direct configuration=    28
   0.00416730  0.00277280  0.10602612
   0.35914050  0.00310909  0.10065063
   0.00384759  0.35738392  0.10065326
   0.64948941  0.64779114  0.10064328
   0.32785413  0.32618301  0.10116415
   0.68070813  0.00306002  0.10115458
   0.00386492  0.67899720  0.10114906
  -0.00000722  0.49996404  0.33402133
   0.16669774  0.33341833  0.33404623
   0.00000890  0.00001338  0.33397260
   0.16679530  0.83337055  0.33405121
   0.50006018  0.50005129  0.33402481
   0.66671394  0.33335384  0.33388814
   0.49997193  0.00002818  0.33402047
   0.66664793  0.83327056  0.33404678
Direct configuration=    29
   0.00416910  0.00277826  0.10596310
   0.35914282  0.00310718  0.10065099
   0.00384638  0.35738885  0.10065377
   0.64948699  0.64778465  0.10064302
   0.32785209  0.32620280  0.10116482
   0.68068667  0.00303355  0.10115226
   0.00388299  0.67899881  0.10114616
   0.00000946  0.49997270  0.33402886
   0.16669606  0.33341719  0.33405801
   0.00001217  0.00001392  0.33397368
   0.16679158  0.83337016  0.33406312
   0.50005582  0.50005782  0.33403259
   0.66671183  0.33335375  0.33389564
   0.49996955  0.00001567  0.33402805
   0.66664716  0.83327202  0.33405859
Direct configuration=    30
   0.00417449  0.00279463  0.10577405
   0.35914978  0.00310143  0.10065205
   0.00384274  0.35740364  0.10065532
   0.64947974  0.64776520  0.10064222
   0.32784599  0.32626219  0.10116682
   0.68062228  0.00295416  0.10114529
   0.00393719  0.67900364  0.10113747
   0.00005952  0.49999870  0.33405144
   0.16669102  0.33341378  0.33409335
   0.00002200  0.00001555  0.33397690
   0.16678043  0.83336899  0.33409885
   0.50004275  0.50007743  0.33405595
   0.66670548  0.33335347  0.33391814
   0.49996242 -0.00002187  0.33405080
   0.66664483  0.83327640  0.33409401
Direct configuration=    31
   0.00418528  0.00282738  0.10539596
   0.35916370  0.00308994  0.10065418
   0.00383546  0.35743323  0.10065842
   0.64946525  0.64772628  0.10064064
   0.32783379  0.32638095  0.10117083
   0.68049350  0.00279537  0.10113134
   0.00404559  0.67901330  0.10112007
   0.00015963  0.50005068  0.33409662
   0.16668095  0.33340695  0.33416403
   0.00004165  0.00001881  0.33398335
   0.16675812  0.83336666  0.33417030
   0.50001662  0.50011666  0.33410266
   0.66669279  0.33335293  0.33396315
   0.49994817 -0.00009695  0.33409628
   0.66664017  0.83328516  0.33416484
Direct configuration=    32
   0.00418179  0.00282356  0.10529561
   0.35917618  0.00308084  0.10065457
   0.00383292  0.35745705  0.10065890
   0.64945023  0.64770845  0.10064046
   0.32784244  0.32639830  0.10117000
   0.68047786  0.00277795  0.10112701
   0.00405310  0.67901526  0.10111509
   0.00013922  0.50004922  0.33411021
   0.16668995  0.33340578  0.33417973
   0.00004257  0.00002014  0.33399217
   0.16674942  0.83335882  0.33418602
   0.50001924  0.50009720  0.33411647
   0.66669384  0.33335394  0.33397602
   0.49996899 -0.00007500  0.33410989
   0.66664293  0.83329584  0.33418053
Direct configuration=    33
   0.00417131  0.00281210  0.10499455
   0.35921360  0.00305355  0.10065573
   0.00382532  0.35752851  0.10066035
   0.64940518  0.64765493  0.10063994
   0.32786839  0.32645033  0.10116749
   0.68043092  0.00272571  0.10111404
   0.00407561  0.67902114  0.10110015
   0.00007797  0.50004484  0.33415099
   0.16671697  0.33340228  0.33422683
   0.00004532  0.00002414  0.33401861
   0.16672333  0.83333528  0.33423318
   0.50002709  0.50003883  0.33415790
   0.66669698  0.33335696  0.33401461
   0.50003147 -0.00000915  0.33415072
   0.66665120  0.83332789  0.33422758
Direct configuration=    34
   0.00415036  0.00278918  0.10439244
   0.35928845  0.00299895  0.10065805
   0.00381010  0.35767145  0.10066325
   0.64931508  0.64754790  0.10063890
   0.32792028  0.32655439  0.10116248
   0.68033706  0.00262122  0.10108809
   0.00412063  0.67903291  0.10107027
  -0.00004453  0.50003609  0.33423255
   0.16677101  0.33339527  0.33432102
   0.00005083  0.00003213  0.33407149
   0.16667114  0.83328821  0.33432752
   0.50004280  0.49992209  0.33424076
   0.66670325  0.33336300  0.33409178
   0.50015644  0.00012254  0.33423238
   0.66666776  0.83339199  0.33432168
Direct configuration=    35
   0.00416510  0.00280531  0.10481614
   0.35923578  0.00303737  0.10065642
   0.00382081  0.35757086  0.10066121
   0.64937848  0.64762322  0.10063963
   0.32788376  0.32648116  0.10116600
   0.68040311  0.00269475  0.10110635
   0.00408895  0.67902463  0.10109130
   0.00004167  0.50004225  0.33417516
   0.16673298  0.33340020  0.33425474
   0.00004695  0.00002651  0.33403428
   0.16670787  0.83332133  0.33426114
   0.50003174  0.50000424  0.33418245
   0.66669884  0.33335875  0.33403747
   0.50006850  0.00002987  0.33417492
   0.66665611  0.83334688  0.33425546
Direct configuration=    36
   0.00415760  0.00279588  0.10464717
   0.35925339  0.00302132  0.10066059
   0.00381904  0.35760185  0.10066528
   0.64935163  0.64760308  0.10064383
   0.32788489  0.32644103  0.10115556
   0.68044074  0.00273272  0.10109337
   0.00405454  0.67903257  0.10107787
   0.00002228  0.50001515  0.33420283
   0.16672764  0.33341135  0.33427271
   0.00004107  0.00002624  0.33406774
   0.16674185  0.83333964  0.33427873
   0.50005202  0.50001823  0.33421001
   0.66670866  0.33336066  0.33406119
   0.50004851  0.00004295  0.33420248
   0.66665679  0.83332466  0.33427331
Direct configuration=    37
   0.00413509  0.00276758  0.10414025
   0.35930625  0.00297318  0.10067313
   0.00381374  0.35769482  0.10067749
   0.64927106  0.64754268  0.10065640
   0.32788827  0.32632063  0.10112425
   0.68055364  0.00284664  0.10105444
   0.00395131  0.67905640  0.10103757
  -0.00003588  0.49993386  0.33428584
   0.16671160  0.33344478  0.33432664
   0.00002342  0.00002545  0.33416812
   0.16684382  0.83339458  0.33433150
   0.50011284  0.50006019  0.33429269
   0.66673815  0.33336638  0.33413233
   0.49998852  0.00008220  0.33428515
   0.66665885  0.83325797  0.33432685
Direct configuration=    38
   0.00413409  0.00277122  0.10392491
   0.35931519  0.00296427  0.10068346
   0.00381730  0.35770146  0.10068746
   0.64924252  0.64753270  0.10066766
   0.32789082  0.32624976  0.10110017
   0.68061353  0.00293425  0.10103116
   0.00388705  0.67903644  0.10101448
   0.00003816  0.49998448  0.33432061
   0.16671068  0.33343528  0.33434754
   0.00004433  0.00002888  0.33422123
   0.16680280  0.83337696  0.33435162
   0.50008959  0.50007141  0.33432691
   0.66672115  0.33336502  0.33416825
   0.50000280  0.00003432  0.33431966
   0.66665067  0.83328086  0.33434754
Direct configuration=    39
   0.00413280  0.00277589  0.10364831
   0.35932667  0.00295284  0.10069672
   0.00382187  0.35771001  0.10070027
   0.64920586  0.64751988  0.10068212
   0.32789409  0.32615873  0.10106923
   0.68069047  0.00304680  0.10100126
   0.00380451  0.67901080  0.10098483
   0.00013326  0.50004951  0.33436527
   0.16670950  0.33342308  0.33437438
   0.00007119  0.00003329  0.33428945
   0.16675011  0.83335433  0.33437746
   0.50005973  0.50008583  0.33437087
   0.66669931  0.33336327  0.33421439
   0.50002113 -0.00002718  0.33436398
   0.66664016  0.83331026  0.33437411
Direct configuration=    40
   0.00413584  0.00278178  0.10349528
   0.35931552  0.00296117  0.10070844
   0.00382918  0.35768418  0.10071152
   0.64919877  0.64752946  0.10069546
   0.32792404  0.32615484  0.10104086
   0.68068936  0.00310004  0.10097840
   0.00376914  0.67895447  0.10096304
   0.00010833  0.50005433  0.33438435
   0.16672984  0.33340996  0.33439504
   0.00005831  0.00003301  0.33432748
   0.16674624  0.83335284  0.33439753
   0.50004086  0.50006615  0.33438931
   0.66671610  0.33336715  0.33424854
   0.50002650 -0.00001650  0.33438281
   0.66667264  0.83333446  0.33439459
Direct configuration=    41
   0.00414017  0.00279020  0.10327655
   0.35929958  0.00297308  0.10072520
   0.00383962  0.35764726  0.10072761
   0.64918864  0.64754314  0.10071454
   0.32796684  0.32614928  0.10100031
   0.68068777  0.00317614  0.10094573
   0.00371858  0.67887396  0.10093190
   0.00007270  0.50006122  0.33441161
   0.16675892  0.33339121  0.33442456
   0.00003990  0.00003262  0.33438185
   0.16674071  0.83335071  0.33442620
   0.50001388  0.50003801  0.33441567
   0.66674011  0.33337270  0.33429734
   0.50003418 -0.00000124  0.33440973
   0.66671906  0.83336905  0.33442386
Direct configuration=    42
   0.00413116  0.00276679  0.10308722
   0.35927167  0.00298982  0.10073931
   0.00384708  0.35761007  0.10074093
   0.64920723  0.64757405  0.10073144
   0.32800506  0.32619552  0.10095897
   0.68064745  0.00317920  0.10091614
   0.00371253  0.67882577  0.10090462
   0.00005692  0.50001221  0.33443061
   0.16672395  0.33341535  0.33445889
   0.00005663  0.00003594  0.33442083
   0.16677710  0.83337469  0.33446009
   0.50008171  0.50006224  0.33443386
   0.66672866  0.33337138  0.33434337
   0.50003084  0.00003497  0.33442839
   0.66668267  0.83331934  0.33445800
Direct configuration=    43
   0.00412922  0.00276175  0.10304646
   0.35926566  0.00299343  0.10074234
   0.00384868  0.35760206  0.10074380
   0.64921123  0.64758071  0.10073508
   0.32801329  0.32620548  0.10095006
   0.68063877  0.00317985  0.10090978
   0.00371123  0.67881539  0.10089875
   0.00005352  0.50000166  0.33443471
   0.16671642  0.33342054  0.33446629
   0.00006024  0.00003665  0.33442922
   0.16678494  0.83337985  0.33446738
   0.50009632  0.50006746  0.33443778
   0.66672620  0.33337109  0.33435328
   0.50003012  0.00004276  0.33443240
   0.66667483  0.83330864  0.33446535
Direct configuration=    44
   0.00411436  0.00272723  0.10296198
   0.35925595  0.00300239  0.10074378
   0.00384737  0.35759839  0.10074482
   0.64923460  0.64759815  0.10073813
   0.32799452  0.32623908  0.10093111
   0.68061277  0.00311734  0.10089968
   0.00374904  0.67885015  0.10089041
   0.00008518  0.50002327  0.33444434
   0.16672522  0.33343296  0.33448684
   0.00006648  0.00003730  0.33443844
   0.16678041  0.83336744  0.33448822
   0.50008355  0.50007458  0.33444724
   0.66672156  0.33337078  0.33436984
   0.50003085  0.00001932  0.33444194
   0.66665881  0.83330893  0.33448590
Direct configuration=    45
   0.00410306  0.00270101  0.10289780
   0.35924857  0.00300920  0.10074487
   0.00384638  0.35759561  0.10074559
   0.64925235  0.64761140  0.10074045
   0.32798026  0.32626461  0.10091671
   0.68059302  0.00306985  0.10089202
   0.00377777  0.67887655  0.10088407
   0.00010923  0.50003969  0.33445166
   0.16673190  0.33344240  0.33450245
   0.00007122  0.00003779  0.33444545
   0.16677697  0.83335801  0.33450406
   0.50007385  0.50007999  0.33445442
   0.66671803  0.33337055  0.33438242
   0.50003141  0.00000152  0.33444919
   0.66664664  0.83330915  0.33450151
Direct configuration=    46
   0.00410207  0.00269786  0.10282999
   0.35926618  0.00302144  0.10074000
   0.00384203  0.35760557  0.10074045
   0.64924611  0.64759598  0.10073689
   0.32793410  0.32627971  0.10090427
   0.68057388  0.00300629  0.10088872
   0.00382833  0.67891605  0.10088258
   0.00007449  0.50003626  0.33446571
   0.16674221  0.33341410  0.33451810
   0.00005430  0.00003714  0.33444978
   0.16677390  0.83336918  0.33452041
   0.50005751  0.50006123  0.33446857
   0.66673794  0.33337451  0.33438660
   0.50003074  0.00001626  0.33446330
   0.66669687  0.83333577  0.33451729
Direct configuration=    47
   0.00410198  0.00269756  0.10282364
   0.35926782  0.00302259  0.10073955
   0.00384163  0.35760651  0.10073997
   0.64924553  0.64759454  0.10073655
   0.32792977  0.32628113  0.10090311
   0.68057209  0.00300034  0.10088841
   0.00383307  0.67891974  0.10088244
   0.00007124  0.50003593  0.33446703
   0.16674318  0.33341145  0.33451957
   0.00005272  0.00003708  0.33445018
   0.16677361  0.83337022  0.33452194
   0.50005598  0.50005947  0.33446990
   0.66673980  0.33337488  0.33438700
   0.50003068  0.00001764  0.33446462
   0.66670157  0.83333826  0.33451877
Direct configuration=    48
   0.00411143  0.00271958  0.10277127
   0.35929729  0.00303129  0.10073120
   0.00383601  0.35762158  0.10073151
   0.64921730  0.64755938  0.10072902
   0.32789303  0.32628367  0.10089503
   0.68055985  0.00296545  0.10088826
   0.00386890  0.67893647  0.10088388
   0.00007285  0.50002420  0.33448374
   0.16672435  0.33341077  0.33452981
   0.00006508  0.00003952  0.33445399
   0.16677209  0.83337769  0.33453297
   0.50008170  0.50006503  0.33448680
   0.66672966  0.33337376  0.33438451
   0.50003996  0.00003063  0.33448146
   0.66669116  0.83332831  0.33452922
Direct configuration=    49
   0.00411408  0.00272575  0.10275660
   0.35930555  0.00303373  0.10072886
   0.00383443  0.35762581  0.10072914
   0.64920939  0.64754953  0.10072691
   0.32788274  0.32628438  0.10089276
   0.68055642  0.00295567  0.10088821
   0.00387894  0.67894116  0.10088428
   0.00007331  0.50002091  0.33448843
   0.16671907  0.33341058  0.33453267
   0.00006854  0.00004021  0.33445506
   0.16677166  0.83337979  0.33453606
   0.50008891  0.50006659  0.33449153
   0.66672682  0.33337344  0.33438381
   0.50004256  0.00003428  0.33448618
   0.66668824  0.83332553  0.33453215
Direct configuration=    50
   0.00411736  0.00273696  0.10272336
   0.35931453  0.00302998  0.10072170
   0.00382810  0.35763370  0.10072200
   0.64919620  0.64753298  0.10072001
   0.32788601  0.32628191  0.10088686
   0.68055594  0.00296071  0.10088712
   0.00387685  0.67893572  0.10088418
   0.00009171  0.50003590  0.33450089
   0.16673968  0.33343536  0.33453904
   0.00006533  0.00003896  0.33445933
   0.16678375  0.83336554  0.33454296
   0.50007194  0.50007346  0.33450409