<?xml version="1.0" encoding="ISO-8859-1"?>
<modeling>
 <generator>
  <i name="program" type="string">vasp </i>
  <i name="version" type="string">6.3.2  </i>
  <i name="subversion" type="string">27Jun22 (build Dec 22 2022 13:13:19) complex                          parallel </i>
  <i name="platform" type="string">LinuxIFC </i>
  <i name="date" type="string">2023 08 21 </i>
  <i name="time" type="string">20:19:51 </i>
 </generator>
 <incar>
  <i type="string" name="SYSTEM">Lattice</i>
  <i type="int" name="ISTART">     0</i>
  <i type="string" name="PREC">Accurate</i>
  <i type="string" name="ALGO">Normal</i>
  <i type="int" name="ISPIN">     2</i>
  <i type="int" name="ICHARG">     2</i>
  <i type="int" name="NELM">    64</i>
  <i type="int" name="IBRION">     2</i>
  <i name="EDIFF">      0.00000100</i>
  <i name="EDIFFG">     -0.00100000</i>
  <i type="int" name="NSW">   128</i>
  <i type="int" name="ISIF">     2</i>
  <i name="ENCUT">    450.00000000</i>
  <i name="POTIM">      0.50000000</i>
  <i type="int" name="ISMEAR">     0</i>
  <i name="SIGMA">      0.10000000</i>
  <i type="logical" name="LWAVE"> F  </i>
  <i type="logical" name="LCHARG"> F  </i>
  <i type="string" name="GGA">PE</i>
  <i type="int" name="IVDW">    12</i>
 </incar>
 <primitive_cell>
  <structure name="primitive_cell" >
   <crystal>
    <varray name="basis" >
     <v>       4.19156295       2.42000000       0.00000000 </v>
     <v>      -4.19156295       2.42000000       0.00000000 </v>
     <v>       0.00000000       0.00000000      15.00000000 </v>
    </varray>
    <i name="volume">    304.30747048 </i>
    <varray name="rec_basis" >
     <v>       0.11928725       0.20661157       0.00000000 </v>
     <v>      -0.11928725       0.20661157       0.00000000 </v>
     <v>       0.00000000       0.00000000       0.06666667 </v>
    </varray>
   </crystal>
   <varray name="positions" >
    <v>       0.00415361       0.00267210       0.12034134 </v>
    <v>       0.35695335       0.00285503       0.09748893 </v>
    <v>       0.00423858       0.35550699       0.09749256 </v>
    <v>       0.65142295       0.65006557       0.09747688 </v>
    <v>       0.32808646       0.32671938       0.10030508 </v>
    <v>       0.68027775       0.00278085       0.10027562 </v>
    <v>       0.00416530       0.67883808       0.10026559 </v>
    <v>       0.16666600       0.33333300       0.33720000 </v>
    <v>       0.33333300       0.16666600       0.33720000 </v>
    <v>       0.16666600       0.83333300       0.33720000 </v>
    <v>       0.33333300       0.66666600       0.33720000 </v>
    <v>       0.66666600       0.33333300       0.33720000 </v>
    <v>       0.83333300       0.16666600       0.33720000 </v>
    <v>       0.66666600       0.83333300       0.33720000 </v>
    <v>       0.83333300       0.66666600       0.33720000 </v>
   </varray>
  </structure>
  <varray name="primitive_index" >
   <v type="int" >        1 </v>
   <v type="int" >        2 </v>
   <v type="int" >        3 </v>
   <v type="int" >        4 </v>
   <v type="int" >        5 </v>
   <v type="int" >        6 </v>
   <v type="int" >        7 </v>
   <v type="int" >        8 </v>
   <v type="int" >        9 </v>
   <v type="int" >       10 </v>
   <v type="int" >       11 </v>
   <v type="int" >       12 </v>
   <v type="int" >       13 </v>
   <v type="int" >       14 </v>
   <v type="int" >       15 </v>
  </varray>
 </primitive_cell>
 <kpoints>
  <generation param="Gamma">
   <v type="int" name="divisions">      12       12        1 </v>
   <v name="usershift">      0.00000000       0.00000000       0.00000000 </v>
   <v name="genvec1">      0.08333333      -0.00000000       0.00000000 </v>
   <v name="genvec2">     -0.00000000       0.08333333       0.00000000 </v>
   <v name="genvec3">      0.00000000       0.00000000       1.00000000 </v>
   <v name="shift">      0.00000000       0.00000000       0.00000000 </v>
  </generation>
  <varray name="kpointlist" >
   <v>       0.00000000       0.00000000       0.00000000 </v>
   <v>       0.08333333      -0.00000000       0.00000000 </v>
   <v>      -0.00000000       0.08333333       0.00000000 </v>
   <v>      -0.08333333       0.08333333       0.00000000 </v>
   <v>       0.16666667      -0.00000000       0.00000000 </v>
   <v>      -0.00000000       0.16666667       0.00000000 </v>
   <v>      -0.16666667       0.16666667       0.00000000 </v>
   <v>       0.25000000      -0.00000000       0.00000000 </v>
   <v>      -0.00000000       0.25000000       0.00000000 </v>
   <v>      -0.25000000       0.25000000       0.00000000 </v>
   <v>       0.33333333      -0.00000000       0.00000000 </v>
   <v>      -0.00000000       0.33333333       0.00000000 </v>
   <v>      -0.33333333       0.33333333       0.00000000 </v>
   <v>       0.41666667      -0.00000000       0.00000000 </v>
   <v>      -0.00000000       0.41666667       0.00000000 </v>
   <v>      -0.41666667       0.41666667       0.00000000 </v>
   <v>       0.50000000      -0.00000000       0.00000000 </v>
   <v>      -0.00000000       0.50000000       0.00000000 </v>
   <v>       0.50000000       0.50000000       0.00000000 </v>
   <v>       0.08333333       0.08333333       0.00000000 </v>
   <v>      -0.08333333       0.16666667       0.00000000 </v>
   <v>      -0.16666667       0.08333333       0.00000000 </v>
   <v>       0.16666667       0.08333333       0.00000000 </v>
   <v>      -0.08333333       0.25000000       0.00000000 </v>
   <v>      -0.25000000       0.16666667       0.00000000 </v>
   <v>      -0.16666667       0.25000000       0.00000000 </v>
   <v>       0.08333333       0.16666667       0.00000000 </v>
   <v>       0.25000000      -0.08333333       0.00000000 </v>
   <v>       0.25000000       0.08333333       0.00000000 </v>
   <v>      -0.08333333       0.33333333       0.00000000 </v>
   <v>      -0.33333333       0.25000000       0.00000000 </v>
   <v>      -0.25000000       0.33333333       0.00000000 </v>
   <v>       0.08333333       0.25000000       0.00000000 </v>
   <v>       0.33333333      -0.08333333       0.00000000 </v>
   <v>       0.33333333       0.08333333       0.00000000 </v>
   <v>      -0.08333333       0.41666667       0.00000000 </v>
   <v>      -0.41666667       0.33333333       0.00000000 </v>
   <v>      -0.33333333       0.41666667       0.00000000 </v>
   <v>       0.08333333       0.33333333       0.00000000 </v>
   <v>       0.41666667      -0.08333333       0.00000000 </v>
   <v>       0.41666667       0.08333333       0.00000000 </v>
   <v>      -0.08333333       0.50000000       0.00000000 </v>
   <v>       0.50000000       0.41666667       0.00000000 </v>
   <v>      -0.41666667       0.50000000       0.00000000 </v>
   <v>       0.08333333       0.41666667       0.00000000 </v>
   <v>       0.50000000      -0.08333333       0.00000000 </v>
   <v>       0.16666667       0.16666667       0.00000000 </v>
   <v>      -0.16666667       0.33333333       0.00000000 </v>
   <v>      -0.33333333       0.16666667       0.00000000 </v>
   <v>       0.25000000       0.16666667       0.00000000 </v>
   <v>      -0.16666667       0.41666667       0.00000000 </v>
   <v>      -0.41666667       0.25000000       0.00000000 </v>
   <v>      -0.25000000       0.41666667       0.00000000 </v>
   <v>       0.16666667       0.25000000       0.00000000 </v>
   <v>       0.41666667      -0.16666667       0.00000000 </v>
   <v>       0.33333333       0.16666667       0.00000000 </v>
   <v>      -0.16666667       0.50000000       0.00000000 </v>
   <v>       0.50000000       0.33333333       0.00000000 </v>
   <v>      -0.33333333       0.50000000       0.00000000 </v>
   <v>       0.16666667       0.33333333       0.00000000 </v>
   <v>       0.50000000      -0.16666667       0.00000000 </v>
   <v>       0.41666667       0.16666667       0.00000000 </v>
   <v>      -0.16666667      -0.41666667       0.00000000 </v>
   <v>       0.41666667       0.41666667       0.00000000 </v>
   <v>       0.25000000       0.25000000       0.00000000 </v>
   <v>      -0.25000000       0.50000000       0.00000000 </v>
   <v>       0.50000000       0.25000000       0.00000000 </v>
   <v>       0.33333333       0.25000000       0.00000000 </v>
   <v>      -0.25000000      -0.41666667       0.00000000 </v>
   <v>       0.41666667       0.33333333       0.00000000 </v>
   <v>      -0.33333333      -0.41666667       0.00000000 </v>
   <v>       0.25000000       0.33333333       0.00000000 </v>
   <v>      -0.41666667      -0.25000000       0.00000000 </v>
   <v>       0.33333333       0.33333333       0.00000000 </v>
  </varray>
  <varray name="weights" >
   <v>       0.00694444 </v>
   <v>       0.01388889 </v>
   <v>       0.01388889 </v>
   <v>       0.01388889 </v>
   <v>       0.01388889 </v>
   <v>       0.01388889 </v>
   <v>       0.01388889 </v>
   <v>       0.01388889 </v>
   <v>       0.01388889 </v>
   <v>       0.01388889 </v>
   <v>       0.01388889 </v>
   <v>       0.01388889 </v>
   <v>       0.01388889 </v>
   <v>       0.01388889 </v>
   <v>       0.01388889 </v>
   <v>       0.01388889 </v>
   <v>       0.00694444 </v>
   <v>       0.00694444 </v>
   <v>       0.00694444 </v>
   <v>       0.01388889 </v>
   <v>       0.01388889 </v>
   <v>       0.01388889 </v>
   <v>       0.01388889 </v>
   <v>       0.01388889 </v>
   <v>       0.01388889 </v>
   <v>       0.01388889 </v>
   <v>       0.01388889 </v>
   <v>       0.01388889 </v>
   <v>       0.01388889 </v>
   <v>       0.01388889 </v>
   <v>       0.01388889 </v>
   <v>       0.01388889 </v>
   <v>       0.01388889 </v>
   <v>       0.01388889 </v>
   <v>       0.01388889 </v>
   <v>       0.01388889 </v>
   <v>       0.01388889 </v>
   <v>       0.01388889 </v>
   <v>       0.01388889 </v>
   <v>       0.01388889 </v>
   <v>       0.01388889 </v>
   <v>       0.01388889 </v>
   <v>       0.01388889 </v>
   <v>       0.01388889 </v>
   <v>       0.01388889 </v>
   <v>       0.01388889 </v>
   <v>       0.01388889 </v>
   <v>       0.01388889 </v>
   <v>       0.01388889 </v>
   <v>       0.01388889 </v>
   <v>       0.01388889 </v>
   <v>       0.01388889 </v>
   <v>       0.01388889 </v>
   <v>       0.01388889 </v>
   <v>       0.01388889 </v>
   <v>       0.01388889 </v>
   <v>       0.01388889 </v>
   <v>       0.01388889 </v>
   <v>       0.01388889 </v>
   <v>       0.01388889 </v>
   <v>       0.01388889 </v>
   <v>       0.01388889 </v>
   <v>       0.01388889 </v>
   <v>       0.01388889 </v>
   <v>       0.01388889 </v>
   <v>       0.01388889 </v>
   <v>       0.01388889 </v>
   <v>       0.01388889 </v>
   <v>       0.01388889 </v>
   <v>       0.01388889 </v>
   <v>       0.01388889 </v>
   <v>       0.01388889 </v>
   <v>       0.01388889 </v>
   <v>       0.01388889 </v>
  </varray>
 </kpoints>
 <parameters>
  <separator name="general" >
   <i type="string" name="SYSTEM">Lattice</i>
   <i type="logical" name="LCOMPAT"> F  </i>
  </separator>
  <separator name="electronic" >
   <i type="string" name="PREC">accura</i>
   <i name="ENMAX">    450.00000000</i>
   <i name="ENAUG">    644.87300000</i>
   <i name="EDIFF">      0.00000100</i>
   <i type="int" name="IALGO">    38</i>
   <i type="int" name="IWAVPR">    11</i>
   <i type="int" name="NBANDS">    48</i>
   <i type="int" name="NBANDSLOW">    -1</i>
   <i type="int" name="NBANDSHIGH">    -1</i>
   <i name="NELECT">     56.00000000</i>
   <i type="int" name="TURBO">     0</i>
   <i type="int" name="IRESTART">     0</i>
   <i type="int" name="NREBOOT">     0</i>
   <i type="int" name="NMIN">     0</i>
   <i name="EREF">      0.00000000</i>
   <separator name="electronic smearing" >
    <i type="int" name="ISMEAR">     0</i>
    <i name="SIGMA">      0.10000000</i>
    <i name="KSPACING">      0.50000000</i>
    <i type="logical" name="KGAMMA"> T  </i>
    <i type="logical" name="KBLOWUP"> T  </i>
   </separator>
   <separator name="electronic projectors" >
    <i type="logical" name="LREAL"> F  </i>
    <v name="ROPT">      0.00000000      0.00000000</v>
    <i type="int" name="LMAXPAW">  -100</i>
    <i type="int" name="LMAXMIX">     2</i>
    <i type="logical" name="NLSPLINE"> F  </i>
   </separator>
   <separator name="electronic startup" >
    <i type="int" name="ISTART">     0</i>
    <i type="int" name="ICHARG">     2</i>
    <i type="int" name="INIWAV">     1</i>
   </separator>
   <separator name="electronic spin" >
    <i type="int" name="ISPIN">     2</i>
    <i type="logical" name="LNONCOLLINEAR"> F  </i>
    <v name="MAGMOM">      1.00000000      1.00000000      1.00000000      1.00000000      1.00000000      1.00000000      1.00000000      1.00000000      1.00000000      1.00000000      1.00000000      1.00000000      1.00000000      1.00000000      1.00000000</v>
    <i name="NUPDOWN">     -1.00000000</i>
    <i type="logical" name="LSORBIT"> F  </i>
    <v name="SAXIS">      0.00000000      0.00000000      1.00000000</v>
    <i type="logical" name="LSPIRAL"> F  </i>
    <v name="QSPIRAL">      0.00000000      0.00000000      0.00000000</v>
    <i type="logical" name="LZEROZ"> F  </i>
   </separator>
   <separator name="electronic exchange-correlation" >
    <i type="logical" name="LASPH"> F  </i>
    <i type="logical" name="LMETAGGA"> F  </i>
   </separator>
   <separator name="electronic convergence" >
    <i type="int" name="NELM">    64</i>
    <i type="int" name="NELMDL">    -5</i>
    <i type="int" name="NELMIN">     2</i>
    <i name="ENINI">    450.00000000</i>
    <separator name="electronic convergence detail" >
     <i type="logical" name="LDIAG"> T  </i>
     <i type="logical" name="LSUBROT"> F  </i>
     <i name="WEIMIN">      0.00100000</i>
     <i name="EBREAK">      0.00000001</i>
     <i name="DEPER">      0.30000000</i>
     <i type="int" name="NRMM">     4</i>
     <i name="TIME">      0.40000000</i>
    </separator>
   </separator>
   <separator name="electronic mixer" >
    <i name="AMIX">      0.40000000</i>
    <i name="BMIX">      1.00000000</i>
    <i name="AMIN">      0.10000000</i>
    <i name="AMIX_MAG">      1.60000000</i>
    <i name="BMIX_MAG">      1.00000000</i>
    <separator name="electronic mixer details" >
     <i type="int" name="IMIX">     4</i>
     <i type="logical" name="MIXFIRST"> F  </i>
     <i type="int" name="MAXMIX">   -45</i>
     <i name="WC">    100.00000000</i>
     <i type="int" name="INIMIX">     1</i>
     <i type="int" name="MIXPRE">     1</i>
     <i type="int" name="MREMOVE">     5</i>
    </separator>
   </separator>
   <separator name="electronic dipolcorrection" >
    <i type="logical" name="LDIPOL"> F  </i>
    <i type="logical" name="LMONO"> F  </i>
    <i type="int" name="IDIPOL">     0</i>
    <i name="EPSILON">      1.00000000</i>
    <v name="DIPOL">   -100.00000000   -100.00000000   -100.00000000</v>
    <i name="EFIELD">      0.00000000</i>
   </separator>
  </separator>
  <separator name="grids" >
   <i type="int" name="NGX">    36</i>
   <i type="int" name="NGY">    36</i>
   <i type="int" name="NGZ">   108</i>
   <i type="int" name="NGXF">    72</i>
   <i type="int" name="NGYF">    72</i>
   <i type="int" name="NGZF">   216</i>
   <i type="logical" name="ADDGRID"> F  </i>
  </separator>
  <separator name="ionic" >
   <i type="int" name="NSW">   128</i>
   <i type="int" name="IBRION">     2</i>
   <i type="int" name="MDALGO">     0</i>
   <i type="int" name="ISIF">     2</i>
   <i name="PSTRESS">      0.00000000</i>
   <i name="EDIFFG">     -0.00100000</i>
   <i type="int" name="NFREE">     1</i>
   <i name="POTIM">      0.50000000</i>
   <i name="SMASS">     -3.00000000</i>
   <i name="SCALEE">      1.00000000</i>
  </separator>
  <separator name="ionic md" >
   <i name="TEBEG">      0.00010000</i>
   <i name="TEEND">      0.00010000</i>
   <i type="int" name="NBLOCK">     1</i>
   <i type="int" name="KBLOCK">   128</i>
   <i type="int" name="NPACO">   256</i>
   <i name="APACO">     10.00000000</i>
  </separator>
  <separator name="symmetry" >
   <i type="int" name="ISYM">     2</i>
   <i name="SYMPREC">      0.00001000</i>
  </separator>
  <separator name="dos" >
   <i type="int" name="LORBIT">     0</i>
   <v name="RWIGS">     -1.00000000     -1.00000000</v>
   <i type="int" name="NEDOS">   301</i>
   <i name="EMIN">     10.00000000</i>
   <i name="EMAX">    -10.00000000</i>
   <i name="EFERMI">      0.00000000</i>
  </separator>
  <separator name="writing" >
   <i type="int" name="NWRITE">     2</i>
   <i type="logical" name="LWAVE"> F  </i>
   <i type="logical" name="LDOWNSAMPLE"> F  </i>
   <i type="logical" name="LCHARG"> F  </i>
   <i type="logical" name="LPARD"> F  </i>
   <i type="logical" name="LVTOT"> F  </i>
   <i type="logical" name="LVHAR"> F  </i>
   <i type="logical" name="LELF"> F  </i>
   <i type="logical" name="LOPTICS"> F  </i>
   <v name="STM">      0.00000000      0.00000000      0.00000000      0.00000000      0.00000000      0.00000000      0.00000000</v>
  </separator>
  <separator name="performance" >
   <i type="int" name="NPAR">    48</i>
   <i type="int" name="NSIM">     4</i>
   <i type="int" name="NBLK">    -1</i>
   <i type="logical" name="LPLANE"> T  </i>
   <i type="logical" name="LSCALAPACK"> T  </i>
   <i type="logical" name="LSCAAWARE"> F  </i>
   <i type="logical" name="LSCALU"> F  </i>
   <i type="logical" name="LASYNC"> F  </i>
   <i type="logical" name="LORBITALREAL"> F  </i>
  </separator>
  <separator name="miscellaneous" >
   <i type="int" name="IDIOT">     3</i>
   <i type="int" name="PHON_NSTRUCT">    -1</i>
   <i type="logical" name="LMUSIC"> F  </i>
   <v name="POMASS">     10.81100000     12.01100000</v>
   <v name="DARWINR">      0.00000000      0.00000000</v>
   <v name="DARWINV">      1.00000000      1.00000000</v>
   <i type="logical" name="LCORR"> T  </i>
  </separator>
  <i type="logical" name="GGA_COMPAT"> T  </i>
  <i type="logical" name="LBERRY"> F  </i>
  <i type="int" name="ICORELEVEL">     0</i>
  <i type="logical" name="LDAU"> F  </i>
  <i type="int" name="I_CONSTRAINED_M">     0</i>
  <separator name="electronic exchange-correlation" >
   <i type="string" name="GGA">PE</i>
   <i type="int" name="VOSKOWN">     0</i>
   <i type="logical" name="LHFCALC"> F  </i>
   <i type="string" name="PRECFOCK"></i>
   <i type="logical" name="LSYMGRAD"> F  </i>
   <i type="logical" name="LHFONE"> F  </i>
   <i type="logical" name="LRHFCALC"> F  </i>
   <i type="logical" name="LTHOMAS"> F  </i>
   <i type="logical" name="LMODELHF"> F  </i>
   <i type="logical" name="LFOCKACE"> F  </i>
   <i name="ENCUT4O">     -1.00000000</i>
   <i type="int" name="EXXOEP">     0</i>
   <i type="int" name="FOURORBIT">     0</i>
   <i name="AEXX">      0.00000000</i>
   <i name="HFALPHA">      0.00000000</i>
   <i name="MCALPHA">      0.00000000</i>
   <i name="ALDAX">      1.00000000</i>
   <i name="AGGAX">      1.00000000</i>
   <i name="ALDAC">      1.00000000</i>
   <i name="AGGAC">      1.00000000</i>
   <i type="int" name="NKREDX">     1</i>
   <i type="int" name="NKREDY">     1</i>
   <i type="int" name="NKREDZ">     1</i>
   <i type="logical" name="SHIFTRED"> F  </i>
   <i type="logical" name="ODDONLY"> F  </i>
   <i type="logical" name="EVENONLY"> F  </i>
   <i type="int" name="LMAXFOCK">     0</i>
   <i type="int" name="NMAXFOCKAE">     0</i>
   <i type="logical" name="LFOCKAEDFT"> F  </i>
   <i name="HFSCREEN">      0.00000000</i>
   <i name="HFSCREENC">      0.00000000</i>
   <i type="int" name="NBANDSGWLOW">     0</i>
  </separator>
  <separator name="vdW DFT" >
   <i type="logical" name="LUSE_VDW"> F  </i>
   <i name="Zab_VDW">     -0.84910000</i>
   <i name="PARAM1">      0.12340000</i>
   <i name="PARAM2">      1.00000000</i>
   <i name="PARAM3">      0.00000000</i>
  </separator>
  <separator name="model GW" >
   <i type="int" name="MODEL_GW">     0</i>
   <i name="MODEL_EPS0">     12.17229882</i>
   <i name="MODEL_ALPHA">      1.00000000</i>
  </separator>
  <separator name="linear response parameters" >
   <i type="logical" name="LEPSILON"> F  </i>
   <i type="logical" name="LRPA"> F  </i>
   <i type="logical" name="LNABLA"> F  </i>
   <i type="logical" name="LVEL"> F  </i>
   <i name="CSHIFT">      0.10000000</i>
   <i name="OMEGAMAX">     -1.00000000</i>
   <i name="DEG_THRESHOLD">      0.00200000</i>
   <i name="RTIME">     -0.10000000</i>
   <i name="WPLASMAI">      0.00000000</i>
   <v name="DFIELD">      0.00000000      0.00000000      0.00000000</v>
   <v name="WPLASMA">      0.00000000      0.00000000      0.00000000      0.00000000      0.00000000      0.00000000      0.00000000      0.00000000      0.00000000</v>
  </separator>
  <separator name="orbital magnetization" >
   <i type="logical" name="NUCIND"> F  </i>
   <v name="MAGPOS">      0.00000000      0.00000000      0.00000000</v>
   <i type="logical" name="LNICSALL"> T  </i>
   <i type="logical" name="ORBITALMAG"> F  </i>
   <i type="logical" name="LMAGBLOCH"> F  </i>
   <i type="logical" name="LCHIMAG"> F  </i>
   <i type="logical" name="LGAUGE"> T  </i>
   <i type="int" name="MAGATOM">     0</i>
   <v name="MAGDIPOL">      0.00000000      0.00000000      0.00000000</v>
   <v name="AVECCONST">      0.00000000      0.00000000      0.00000000</v>
  </separator>
  <separator name="response functions" >
   <i type="logical" name="LFINITE_TEMPERATURE"> F  </i>
   <i type="logical" name="LADDER"> F  </i>
   <i type="logical" name="LRPAFORCE"> F  </i>
   <i type="logical" name="LFXC"> F  </i>
   <i type="logical" name="LHARTREE"> T  </i>
   <i type="int" name="IBSE">     0</i>
   <v type="int" name="KPOINT">    -1     0     0     0</v>
   <i type="logical" name="LTCTC"> F  </i>
   <i type="logical" name="LTCTE"> F  </i>
   <i type="logical" name="LTETE"> F  </i>
   <i type="logical" name="LTRIPLET"> F  </i>
   <i type="logical" name="LFXCEPS"> F  </i>
   <i type="logical" name="LFXHEG"> F  </i>
   <i type="int" name="NATURALO">     2</i>
   <i type="logical" name="LHOLEGF"> F  </i>
   <i type="logical" name="L2ORDER"> F  </i>
   <i type="logical" name="LDMP1"> F  </i>
   <i type="logical" name="LMP2LT"> F  </i>
   <i type="logical" name="LSMP2LT"> F  </i>
   <i type="logical" name="LGWLF"> F  </i>
   <i name="ENCUTGW">     -2.00000000</i>
   <i name="ENCUTGWSOFT">     -2.00000000</i>
   <i name="ENCUTLF">     -1.00000000</i>
   <i type="logical" name="LESF_SPLINES"> F  </i>
   <i type="int" name="LMAXMP2">    -1</i>
   <i name="SCISSOR">      0.00000000</i>
   <i type="int" name="NOMEGA">     0</i>
   <i type="int" name="NOMEGAR">     0</i>
   <i type="int" name="NBANDSGW">    -1</i>
   <i type="int" name="NBANDSO">    -1</i>
   <i type="int" name="NBANDSV">    -1</i>
   <i type="int" name="NELMGW">     1</i>
   <i type="int" name="NELMHF">     1</i>
   <i type="int" name="DIM">     3</i>
   <i type="int" name="IESPILON">     4</i>
   <i type="int" name="ANTIRES">     0</i>
   <i name="OMEGAMAX">    -30.00000000</i>
   <i name="OMEGAMIN">    -30.00000000</i>
   <i name="OMEGATL">   -200.00000000</i>
   <i type="int" name="OMEGAGRID">     0</i>
   <i name="CSHIFT">     -0.10000000</i>
   <i type="logical" name="LSELFENERGY"> F  </i>
   <i type="logical" name="LSPECTRAL"> F  </i>
   <i type="logical" name="LSPECTRALGW"> F  </i>
   <i type="logical" name="LSINGLES"> F  </i>
   <i type="logical" name="LFERMIGW"> F  </i>
   <i type="logical" name="ODDONLYGW"> F  </i>
   <i type="logical" name="EVENONLYGW"> F  </i>
   <i type="int" name="NKREDLFX">     1</i>
   <i type="int" name="NKREDLFY">     1</i>
   <i type="int" name="NKREDLFZ">     1</i>
   <i type="int" name="MAXMEM">  2800</i>
   <i type="int" name="TELESCOPE">     0</i>
   <i type="int" name="NTAUPAR">    -1</i>
   <i type="int" name="NOMEGAPAR">    -1</i>
   <i name="DAMP_NEWTON">      0.80000001</i>
   <i name="LAMBDA">      1.00000000</i>
  </separator>
  <separator name="External order field" >
   <i name="OFIELD_KAPPA">      0.00000000</i>
   <v name="OFIELD_K">      0.00000000      0.00000000      0.00000000</v>
   <i name="OFIELD_Q6_NEAR">      0.00000000</i>
   <i name="OFIELD_Q6_FAR">      0.00000000</i>
   <i name="OFIELD_A">      0.00000000</i>
  </separator>
  <separator name="optional k-points parameters" >
   <i type="int" name="KPOINTS_OPT_MODE">     1</i>
   <i type="logical" name="LKPOINTS_OPT"> F  </i>
  </separator>
  <separator name="solvation model" >
   <i type="logical" name="LSOL"> F  </i>
  </separator>
 </parameters>
 <atominfo>
  <atoms>      15 </atoms>
  <types>       2 </types>
  <array name="atoms" >
   <dimension dim="1">ion</dimension>
   <field type="string">element</field>
   <field type="int">atomtype</field>
   <set>
    <rc><c>B </c><c>   1</c></rc>
    <rc><c>B </c><c>   1</c></rc>
    <rc><c>B </c><c>   1</c></rc>
    <rc><c>B </c><c>   1</c></rc>
    <rc><c>C </c><c>   2</c></rc>
    <rc><c>C </c><c>   2</c></rc>
    <rc><c>C </c><c>   2</c></rc>
    <rc><c>C </c><c>   2</c></rc>
    <rc><c>C </c><c>   2</c></rc>
    <rc><c>C </c><c>   2</c></rc>
    <rc><c>C </c><c>   2</c></rc>
    <rc><c>C </c><c>   2</c></rc>
    <rc><c>C </c><c>   2</c></rc>
    <rc><c>C </c><c>   2</c></rc>
    <rc><c>C </c><c>   2</c></rc>
   </set>
  </array>
  <array name="atomtypes" >
   <dimension dim="1">type</dimension>
   <field type="int">atomspertype</field>
   <field type="string">element</field>
   <field>mass</field>
   <field>valence</field>
   <field type="string">pseudopotential</field>
   <set>
    <rc><c>   4</c><c>B </c><c>     10.81100000</c><c>      3.00000000</c><c>  PAW_PBE B 06Sep2000                   </c></rc>
    <rc><c>  11</c><c>C </c><c>     12.01100000</c><c>      4.00000000</c><c>  PAW_PBE C 08Apr2002                   </c></rc>
   </set>
  </array>
 </atominfo>
 <structure name="initialpos" >
  <crystal>
   <varray name="basis" >
    <v>       4.19156295       2.42000000       0.00000000 </v>
    <v>      -4.19156295       2.42000000       0.00000000 </v>
    <v>       0.00000000       0.00000000      15.00000000 </v>
   </varray>
   <i name="volume">    304.30747048 </i>
   <varray name="rec_basis" >
    <v>       0.11928725       0.20661157       0.00000000 </v>
    <v>      -0.11928725       0.20661157       0.00000000 </v>
    <v>       0.00000000       0.00000000       0.06666667 </v>
   </varray>
  </crystal>
  <varray name="positions" >
   <v>       0.00415361       0.00267210       0.12034134 </v>
   <v>       0.35695335       0.00285503       0.09748893 </v>
   <v>       0.00423858       0.35550699       0.09749256 </v>
   <v>       0.65142295       0.65006557       0.09747688 </v>
   <v>       0.32808646       0.32671938       0.10030508 </v>
   <v>       0.68027775       0.00278085       0.10027562 </v>
   <v>       0.00416530       0.67883808       0.10026559 </v>
   <v>       0.16666600       0.33333300       0.33720000 </v>
   <v>       0.33333300       0.16666600       0.33720000 </v>
   <v>       0.16666600       0.83333300       0.33720000 </v>
   <v>       0.33333300       0.66666600       0.33720000 </v>
   <v>       0.66666600       0.33333300       0.33720000 </v>
   <v>       0.83333300       0.16666600       0.33720000 </v>
   <v>       0.66666600       0.83333300       0.33720000 </v>
   <v>       0.83333300       0.66666600       0.33720000 </v>
  </varray>
 </structure>
 <calculation>
  <scstep>
   <time name="dav">    5.46    5.52</time>
   <time name="total">    5.51    5.56</time>
   <energy>
    <i name="alphaZ">     58.45171928 </i>
    <i name="ewald">   4703.69383946 </i>
    <i name="hartreedc">  -6259.09648260 </i>
    <i name="XCdc">    175.20419937 </i>
    <i name="pawpsdc">   1365.87943566 </i>
    <i name="pawaedc">  -1368.52100941 </i>
    <i name="eentropy">     -0.01648119 </i>
    <i name="bandstr">   -375.83832010 </i>
    <i name="atom">   1903.26342058 </i>
    <i name="e_fr_energy">    203.02032105 </i>
    <i name="e_wo_entrp">    203.03680224 </i>
    <i name="e_0_energy">    203.02856164 </i>
   </energy>
  </scstep>
  <scstep>
   <time name="dav">    8.03    8.10</time>
   <time name="total">    8.03    8.10</time>
   <energy>
    <i name="e_fr_energy">   -116.83520697 </i>
    <i name="e_wo_entrp">   -116.83441861 </i>
    <i name="e_0_energy">   -116.83481279 </i>
   </energy>
  </scstep>
  <scstep>
   <time name="dav">   11.04   11.11</time>
   <time name="total">   11.04   11.12</time>
   <energy>
    <i name="e_fr_energy">   -129.47274167 </i>
    <i name="e_wo_entrp">   -129.46964911 </i>
    <i name="e_0_energy">   -129.47119539 </i>
   </energy>
  </scstep>
  <scstep>
   <time name="dav">    8.38    8.44</time>
   <time name="total">    8.38    8.44</time>
   <energy>
    <i name="e_fr_energy">   -129.49690178 </i>
    <i name="e_wo_entrp">   -129.49381071 </i>
    <i name="e_0_energy">   -129.49535624 </i>
   </energy>
  </scstep>
  <scstep>
   <time name="dav">   10.54   10.61</time>
   <time name="total">   10.81   10.89</time>
   <energy>
    <i name="e_fr_energy">   -129.49695795 </i>
    <i name="e_wo_entrp">   -129.49386662 </i>
    <i name="e_0_energy">   -129.49541228 </i>
   </energy>
  </scstep>
  <scstep>
   <time name="dav">   10.83   10.90</time>
   <time name="total">   11.14   11.21</time>
   <energy>
    <i name="e_fr_energy">    -92.06325230 </i>
    <i name="e_wo_entrp">    -92.05656939 </i>
    <i name="e_0_energy">    -92.05991084 </i>
   </energy>
  </scstep>
  <scstep>
   <time name="dav">    9.13    9.20</time>
   <time name="total">    9.43    9.50</time>
   <energy>
    <i name="e_fr_energy">   -100.50110277 </i>
    <i name="e_wo_entrp">   -100.49526557 </i>
    <i name="e_0_energy">   -100.49818417 </i>
   </energy>
  </scstep>
  <scstep>
   <time name="dav">    9.61    9.67</time>
   <time name="total">    9.90    9.98</time>
   <energy>
    <i name="e_fr_energy">   -110.47909339 </i>
    <i name="e_wo_entrp">   -110.47905557 </i>
    <i name="e_0_energy">   -110.47907448 </i>
   </energy>
  </scstep>
  <scstep>
   <time name="dav">    8.06    8.12</time>
   <time name="total">    8.36    8.43</time>
   <energy>
    <i name="e_fr_energy">   -117.16611998 </i>
    <i name="e_wo_entrp">   -117.16611585 </i>
    <i name="e_0_energy">   -117.16611792 </i>
   </energy>
  </scstep>
  <scstep>
   <time name="dav">    9.90    9.97</time>
   <time name="total">   10.20   10.27</time>
   <energy>
    <i name="e_fr_energy">   -123.47789062 </i>
    <i name="e_wo_entrp">   -123.47728400 </i>
    <i name="e_0_energy">   -123.47758731 </i>
   </energy>
  </scstep>
  <scstep>
   <time name="dav">    9.98   10.04</time>
   <time name="total">   10.28   10.34</time>
   <energy>
    <i name="e_fr_energy">   -125.30334557 </i>
    <i name="e_wo_entrp">   -125.30215788 </i>
    <i name="e_0_energy">   -125.30275172 </i>
   </energy>
  </scstep>
  <scstep>
   <time name="dav">    8.25    8.30</time>
   <time name="total">    8.53    8.60</time>
   <energy>
    <i name="e_fr_energy">   -125.42550526 </i>
    <i name="e_wo_entrp">   -125.42403173 </i>
    <i name="e_0_energy">   -125.42476850 </i>
   </energy>
  </scstep>
  <scstep>
   <time name="dav">    6.79    6.84</time>
   <time name="total">    7.08    7.14</time>
   <energy>
    <i name="e_fr_energy">   -125.45214254 </i>
    <i name="e_wo_entrp">   -125.45058203 </i>
    <i name="e_0_energy">   -125.45136229 </i>
   </energy>
  </scstep>
  <scstep>
   <time name="dav">    8.58    8.63</time>
   <time name="total">    8.87    8.93</time>
   <energy>
    <i name="e_fr_energy">   -125.47608123 </i>
    <i name="e_wo_entrp">   -125.47451491 </i>
    <i name="e_0_energy">   -125.47529807 </i>
   </energy>
  </scstep>
  <scstep>
   <time name="dav">    6.99    7.03</time>
   <time name="total">    7.29    7.34</time>
   <energy>
    <i name="e_fr_energy">   -125.48416847 </i>
    <i name="e_wo_entrp">   -125.48260131 </i>
    <i name="e_0_energy">   -125.48338489 </i>
   </energy>
  </scstep>
  <scstep>
   <time name="dav">    7.00    7.05</time>
   <time name="total">    7.30    7.35</time>
   <energy>
    <i name="e_fr_energy">   -125.48625478 </i>
    <i name="e_wo_entrp">   -125.48468758 </i>
    <i name="e_0_energy">   -125.48547118 </i>
   </energy>
  </scstep>
  <scstep>
   <time name="dav">    5.55    5.59</time>
   <time name="total">    5.84    5.89</time>
   <energy>
    <i name="e_fr_energy">   -125.48755483 </i>
    <i name="e_wo_entrp">   -125.48598765 </i>
    <i name="e_0_energy">   -125.48677124 </i>
   </energy>
  </scstep>
  <scstep>
   <time name="dav">    6.41    6.45</time>
   <time name="total">    6.70    6.75</time>
   <energy>
    <i name="e_fr_energy">   -125.48823975 </i>
    <i name="e_wo_entrp">   -125.48667258 </i>
    <i name="e_0_energy">   -125.48745617 </i>
   </energy>
  </scstep>
  <scstep>
   <time name="dav">    7.92    7.97</time>
   <time name="total">    8.21    8.28</time>
   <energy>
    <i name="e_fr_energy">   -125.48870907 </i>
    <i name="e_wo_entrp">   -125.48714188 </i>
    <i name="e_0_energy">   -125.48792548 </i>
   </energy>
  </scstep>
  <scstep>
   <time name="dav">    8.85    8.90</time>
   <time name="total">    9.14    9.21</time>
   <energy>
    <i name="e_fr_energy">   -125.48875808 </i>
    <i name="e_wo_entrp">   -125.48719089 </i>
    <i name="e_0_energy">   -125.48797449 </i>
   </energy>
  </scstep>
  <scstep>
   <time name="dav">    7.84    7.89</time>
   <time name="total">    8.13    8.19</time>
   <energy>
    <i name="e_fr_energy">   -125.48878522 </i>
    <i name="e_wo_entrp">   -125.48721803 </i>
    <i name="e_0_energy">   -125.48800162 </i>
   </energy>
  </scstep>
  <scstep>
   <time name="dav">    8.64    8.69</time>
   <time name="total">    8.93    9.00</time>
   <energy>
    <i name="e_fr_energy">   -125.48880505 </i>
    <i name="e_wo_entrp">   -125.48723786 </i>
    <i name="e_0_energy">   -125.48802146 </i>
   </energy>
  </scstep>
  <scstep>
   <time name="dav">    8.14    8.19</time>
   <time name="total">    8.44    8.49</time>
   <energy>
    <i name="e_fr_energy">   -125.48882240 </i>
    <i name="e_wo_entrp">   -125.48725520 </i>
    <i name="e_0_energy">   -125.48803880 </i>
   </energy>
  </scstep>
  <scstep>
   <time name="dav">    9.09    9.13</time>
   <time name="total">    9.38    9.44</time>
   <energy>
    <i name="e_fr_energy">   -125.48882613 </i>
    <i name="e_wo_entrp">   -125.48725894 </i>
    <i name="e_0_energy">   -125.48804254 </i>
   </energy>
  </scstep>
  <scstep>
   <time name="dav">    9.67    9.72</time>
   <time name="total">    9.96   10.03</time>
   <energy>
    <i name="e_fr_energy">   -125.48882715 </i>
    <i name="e_wo_entrp">   -125.48725996 </i>
    <i name="e_0_energy">   -125.48804356 </i>
   </energy>
  </scstep>
  <scstep>
   <time name="dav">    8.21    8.26</time>
   <time name="total">    8.24    8.30</time>
   <energy>
    <i name="alphaZ">     58.45171928 </i>
    <i name="ewald">   4703.69383946 </i>
    <i name="hartreedc">  -6462.15848992 </i>
    <i name="XCdc">    180.62991192 </i>
    <i name="pawpsdc">   5771.48926309 </i>
    <i name="pawaedc">  -5775.91415413 </i>
    <i name="eentropy">     -0.00156719 </i>
    <i name="bandstr">   -504.94277077 </i>
    <i name="atom">   1903.26342058 </i>
    <i name="e_fr_energy">   -125.48882769 </i>
    <i name="e_wo_entrp">   -125.48726050 </i>
    <i name="e_0_energy">   -125.48804409 </i>
   </energy>
  </scstep>
  <structure>
   <crystal>
    <varray name="basis" >
     <v>       4.19156295       2.42000000       0.00000000 </v>
     <v>      -4.19156295       2.42000000       0.00000000 </v>
     <v>       0.00000000       0.00000000      15.00000000 </v>
    </varray>
    <i name="volume">    304.30747048 </i>
    <varray name="rec_basis" >
     <v>       0.11928725       0.20661157       0.00000000 </v>
     <v>      -0.11928725       0.20661157       0.00000000 </v>
     <v>       0.00000000       0.00000000       0.06666667 </v>
    </varray>
   </crystal>
   <varray name="positions" >
    <v>       0.00415361       0.00267210       0.12034134 </v>
    <v>       0.35695335       0.00285503       0.09748893 </v>
    <v>       0.00423858       0.35550699       0.09749256 </v>
    <v>       0.65142295       0.65006557       0.09747688 </v>
    <v>       0.32808646       0.32671938       0.10030508 </v>
    <v>       0.68027775       0.00278085       0.10027562 </v>
    <v>       0.00416530       0.67883808       0.10026559 </v>
    <v>       0.16666600       0.33333300       0.33720000 </v>
    <v>       0.33333300       0.16666600       0.33720000 </v>
    <v>       0.16666600       0.83333300       0.33720000 </v>
    <v>       0.33333300       0.66666600       0.33720000 </v>
    <v>       0.66666600       0.33333300       0.33720000 </v>
    <v>       0.83333300       0.16666600       0.33720000 </v>
    <v>       0.66666600       0.83333300       0.33720000 </v>
    <v>       0.83333300       0.66666600       0.33720000 </v>
   </varray>
  </structure>
  <varray name="forces" >
   <v>      -0.00417606       0.00556938      -0.41178186 </v>
   <v>      -0.08432886      -0.05394526       0.10882128 </v>
   <v>       0.08391696      -0.05286469       0.10859182 </v>
   <v>       0.00276645       0.09813139       0.11117386 </v>
   <v>       0.00314431      -0.32843770       0.00479778 </v>
   <v>       0.28279566       0.16539841       0.00804305 </v>
   <v>      -0.28366010       0.16754266       0.00917567 </v>
   <v>      -0.01413781       0.00095896       0.01883292 </v>
   <v>       0.01393906       0.00112004       0.01915617 </v>
   <v>       0.00836177       0.01071251       0.01968857 </v>
   <v>      -0.00037459       0.00040579      -0.02689039 </v>
   <v>       0.00060691       0.00018492      -0.02689535 </v>
   <v>      -0.00838281       0.01045892       0.01965267 </v>
   <v>       0.00554489      -0.01251874       0.01896173 </v>
   <v>      -0.00601577      -0.01271660       0.01867207 </v>
  </varray>
  <varray name="stress" >
   <v>      -0.55822864       0.00967117      -0.01578664 </v>
   <v>       0.00967119      -0.55119612      -0.01561575 </v>
   <v>      -0.01578660      -0.01561576      -1.72252507 </v>
  </varray>
  <energy>
   <i name="e_fr_energy">   -127.07732866 </i>
   <i name="e_wo_entrp">   -127.07576147 </i>
   <i name="e_0_energy">   -127.07654507 </i>
  </energy>
  <time name="totalsc">  229.82  231.52</time>
 </calculation>
 <calculation>
  <scstep>
   <time name="dav">    5.44    5.48</time>
   <time name="total">    5.73    5.78</time>
   <energy>
    <i name="alphaZ">     58.45171928 </i>
    <i name="ewald">   4706.50758529 </i>
    <i name="hartreedc">  -6463.63844176 </i>
    <i name="XCdc">    180.70710820 </i>
    <i name="pawpsdc">   5771.49641447 </i>
    <i name="pawaedc">  -5775.92130728 </i>
    <i name="eentropy">     -0.00156719 </i>
    <i name="bandstr">   -506.36382756 </i>
    <i name="atom">   1903.26342058 </i>
    <i name="e_fr_energy">   -125.49889597 </i>
    <i name="e_wo_entrp">   -125.49732878 </i>
    <i name="e_0_energy">   -125.49811238 </i>
   </energy>
  </scstep>
  <scstep>
   <time name="dav">   10.70   10.76</time>
   <time name="total">   11.00   11.07</time>
   <energy>
    <i name="e_fr_energy">   -125.49139905 </i>
    <i name="e_wo_entrp">   -125.48983186 </i>
    <i name="e_0_energy">   -125.49061545 </i>
   </energy>
  </scstep>
  <scstep>
   <time name="dav">    8.01    8.05</time>
   <time name="total">    8.30    8.36</time>
   <energy>
    <i name="e_fr_energy">   -125.49057557 </i>
    <i name="e_wo_entrp">   -125.48900838 </i>
    <i name="e_0_energy">   -125.48979198 </i>
   </energy>
  </scstep>
  <scstep>
   <time name="dav">   11.49   11.56</time>
   <time name="total">   11.78   11.86</time>
   <energy>
    <i name="e_fr_energy">   -125.49054444 </i>
    <i name="e_wo_entrp">   -125.48897725 </i>
    <i name="e_0_energy">   -125.48976085 </i>
   </energy>
  </scstep>
  <scstep>
   <time name="dav">    9.91    9.97</time>
   <time name="total">   10.20   10.27</time>
   <energy>
    <i name="e_fr_energy">   -125.49054765 </i>
    <i name="e_wo_entrp">   -125.48898046 </i>
    <i name="e_0_energy">   -125.48976406 </i>
   </energy>
  </scstep>
  <scstep>
   <time name="dav">    9.40    9.46</time>
   <time name="total">    9.43    9.50</time>
   <energy>
    <i name="alphaZ">     58.45171928 </i>
    <i name="ewald">   4706.50758529 </i>
    <i name="hartreedc">  -6464.31596131 </i>
    <i name="XCdc">    180.72234777 </i>
    <i name="pawpsdc">   5796.91884562 </i>
    <i name="pawaedc">  -5801.35198876 </i>
    <i name="eentropy">     -0.00156719 </i>
    <i name="bandstr">   -505.68494915 </i>
    <i name="atom">   1903.26342058 </i>
    <i name="e_fr_energy">   -125.49054787 </i>
    <i name="e_wo_entrp">   -125.48898067 </i>
    <i name="e_0_energy">   -125.48976427 </i>
   </energy>
  </scstep>
  <structure>
   <crystal>
    <varray name="basis" >
     <v>       4.19156295       2.42000000       0.00000000 </v>
     <v>      -4.19156295       2.42000000       0.00000000 </v>
     <v>       0.00000000       0.00000000      15.00000000 </v>
    </varray>
    <i name="volume">    304.30747048 </i>
    <varray name="rec_basis" >
     <v>       0.11928725       0.20661157       0.00000000 </v>
     <v>      -0.11928725       0.20661157       0.00000000 </v>
     <v>       0.00000000       0.00000000       0.06666667 </v>
    </varray>
   </crystal>
   <varray name="positions" >
    <v>       0.00418509       0.00275165       0.11901697 </v>
    <v>       0.35593036       0.00280262       0.09783892 </v>
    <v>       0.00419457       0.35449714       0.09784181 </v>
    <v>       0.65241700       0.65102777       0.09783443 </v>
    <v>       0.32483086       0.32342758       0.10032051 </v>
    <v>       0.68355377       0.00280205       0.10030149 </v>
    <v>       0.00420289       0.68214045       0.10029510 </v>
    <v>       0.16659420       0.33342392       0.33726057 </v>
    <v>       0.33342438       0.16659695       0.33726161 </v>
    <v>       0.16682090       0.83339166       0.33726332 </v>
    <v>       0.33333489       0.66667220       0.33711352 </v>
    <v>       0.66667134       0.33333135       0.33711350 </v>
    <v>       0.83338901       0.16681849       0.33726321 </v>
    <v>       0.66657313       0.83317631       0.33726098 </v>
    <v>       0.83317163       0.66657387       0.33726005 </v>
   </varray>
  </structure>
  <varray name="forces" >
   <v>      -0.00143468      -0.00072212      -0.19489228 </v>
   <v>       0.23516406       0.13440618       0.06345771 </v>
   <v>      -0.23630671       0.13630322       0.06328418 </v>
   <v>       0.00126300      -0.26563147       0.06510750 </v>
   <v>       0.00036144       0.54436552      -0.02074700 </v>
   <v>      -0.46955555      -0.27362038      -0.01845004 </v>
   <v>       0.47096763      -0.27376321      -0.01802052 </v>
   <v>       0.05439698      -0.00298624       0.00999428 </v>
   <v>      -0.05427472      -0.00349504       0.01008104 </v>
   <v>      -0.03143681      -0.04370581       0.01017842 </v>
   <v>       0.00128101      -0.00209729       0.00001446 </v>
   <v>      -0.00253756      -0.00133543       0.00001789 </v>
   <v>       0.03101536      -0.04278373       0.01013828 </v>
   <v>      -0.02352047       0.04719968       0.00994216 </v>
   <v>       0.02461702       0.04786612       0.00989392 </v>
  </varray>
  <varray name="stress" >
   <v>       1.94962219       0.00155349      -0.01107353 </v>
   <v>       0.00155349       1.93286608      -0.02573120 </v>
   <v>      -0.01107356      -0.02573119      -1.35024895 </v>
  </varray>
  <energy>
   <i name="e_fr_energy">   -127.07838405 </i>
   <i name="e_wo_entrp">   -127.07681686 </i>
   <i name="e_0_energy">   -127.07760046 </i>
  </energy>
  <time name="totalsc">   61.12   61.54</time>
 </calculation>
 <calculation>
  <scstep>
   <time name="dav">    5.44    5.48</time>
   <time name="total">    5.74    5.78</time>
   <energy>
    <i name="alphaZ">     58.45171928 </i>
    <i name="ewald">   4705.12932825 </i>
    <i name="hartreedc">  -6463.58345620 </i>
    <i name="XCdc">    180.68436245 </i>
    <i name="pawpsdc">   5796.93459578 </i>
    <i name="pawaedc">  -5801.36771175 </i>
    <i name="eentropy">     -0.00156719 </i>
    <i name="bandstr">   -505.00887140 </i>
    <i name="atom">   1903.26342058 </i>
    <i name="e_fr_energy">   -125.49818020 </i>
    <i name="e_wo_entrp">   -125.49661301 </i>
    <i name="e_0_energy">   -125.49739661 </i>
   </energy>
  </scstep>
  <scstep>
   <time name="dav">   10.33   10.39</time>
   <time name="total">   10.62   10.69</time>
   <energy>
    <i name="e_fr_energy">   -125.49642410 </i>
    <i name="e_wo_entrp">   -125.49485690 </i>
    <i name="e_0_energy">   -125.49564050 </i>
   </energy>
  </scstep>
  <scstep>
   <time name="dav">    8.81    8.87</time>
   <time name="total">    9.10    9.17</time>
   <energy>
    <i name="e_fr_energy">   -125.49624082 </i>
    <i name="e_wo_entrp">   -125.49467363 </i>
    <i name="e_0_energy">   -125.49545723 </i>
   </energy>
  </scstep>
  <scstep>
   <time name="dav">    9.50    9.55</time>
   <time name="total">    9.79    9.85</time>
   <energy>
    <i name="e_fr_energy">   -125.49623424 </i>
    <i name="e_wo_entrp">   -125.49466705 </i>
    <i name="e_0_energy">   -125.49545065 </i>
   </energy>
  </scstep>
  <scstep>
   <time name="dav">    7.97    8.02</time>
   <time name="total">    8.01    8.05</time>
   <energy>
    <i name="alphaZ">     58.45171928 </i>
    <i name="ewald">   4705.12932825 </i>
    <i name="hartreedc">  -6463.27831230 </i>
    <i name="XCdc">    180.67712752 </i>
    <i name="pawpsdc">   5784.27053740 </i>
    <i name="pawaedc">  -5788.69945866 </i>
    <i name="eentropy">     -0.00156719 </i>
    <i name="bandstr">   -505.30902978 </i>
    <i name="atom">   1903.26342058 </i>
    <i name="e_fr_energy">   -125.49623492 </i>
    <i name="e_wo_entrp">   -125.49466772 </i>
    <i name="e_0_energy">   -125.49545132 </i>
   </energy>
  </scstep>
  <structure>
   <crystal>
    <varray name="basis" >
     <v>       4.19156295       2.42000000       0.00000000 </v>
     <v>      -4.19156295       2.42000000       0.00000000 </v>
     <v>       0.00000000       0.00000000      15.00000000 </v>
    </varray>
    <i name="volume">    304.30747048 </i>
    <varray name="rec_basis" >
     <v>       0.11928725       0.20661157       0.00000000 </v>
     <v>      -0.11928725       0.20661157       0.00000000 </v>
     <v>       0.00000000       0.00000000       0.06666667 </v>
    </varray>
   </crystal>
   <varray name="positions" >
    <v>       0.00417000       0.00271352       0.11965170 </v>
    <v>       0.35642065       0.00282774       0.09767119 </v>
    <v>       0.00421566       0.35498113       0.09767443 </v>
    <v>       0.65194059       0.65056662       0.09766307 </v>
    <v>       0.32639116       0.32500523       0.10031311 </v>
    <v>       0.68198368       0.00279189       0.10028909 </v>
    <v>       0.00418488       0.68055773       0.10028095 </v>
    <v>       0.16662861       0.33338034       0.33723154 </v>
    <v>       0.33338058       0.16663004       0.33723208 </v>
    <v>       0.16674666       0.83336354       0.33723297 </v>
    <v>       0.33333398       0.66666923       0.33715496 </v>
    <v>       0.66666878       0.33333214       0.33715496 </v>
    <v>       0.83336217       0.16674541       0.33723291 </v>
    <v>       0.66661764       0.83325141       0.33723176 </v>
    <v>       0.83324897       0.66661802       0.33723127 </v>
   </varray>
  </structure>
  <varray name="forces" >
   <v>      -0.00284804       0.00246977      -0.29755374 </v>
   <v>       0.08472618       0.04560606       0.08502579 </v>
   <v>      -0.08556307       0.04711138       0.08482587 </v>
   <v>       0.00199928      -0.09441128       0.08701757 </v>
   <v>       0.00174206       0.12406529      -0.00868242 </v>
   <v>      -0.10741885      -0.06218137      -0.00595885 </v>
   <v>       0.10782498      -0.06128301      -0.00521897 </v>
   <v>       0.02145831      -0.00117736       0.01422552 </v>
   <v>      -0.02149015      -0.00136567       0.01442640 </v>
   <v>      -0.01238104      -0.01750417       0.01473235 </v>
   <v>       0.00048250      -0.00089698      -0.01294207 </v>
   <v>      -0.00102603      -0.00060797      -0.01294265 </v>
   <v>       0.01214878      -0.01714515       0.01469338 </v>
   <v>      -0.00947439       0.01853277       0.01425793 </v>
   <v>       0.00981949       0.01878769       0.01409388 </v>
  </varray>
  <varray name="stress" >
   <v>       0.64054564       0.00527010      -0.01342825 </v>
   <v>       0.00527008       0.63323845      -0.02051938 </v>
   <v>      -0.01342829      -0.02051938      -1.50894141 </v>
  </varray>
  <energy>
   <i name="e_fr_energy">   -127.08438617 </i>
   <i name="e_wo_entrp">   -127.08281897 </i>
   <i name="e_0_energy">   -127.08360257 </i>
  </energy>
  <time name="totalsc">   47.91   48.24</time>
 </calculation>
 <calculation>
  <scstep>
   <time name="dav">    5.44    5.48</time>
   <time name="total">    5.74    5.78</time>
   <energy>
    <i name="alphaZ">     58.45171928 </i>
    <i name="ewald">   4704.62706898 </i>
    <i name="hartreedc">  -6462.50331301 </i>
    <i name="XCdc">    180.69666395 </i>
    <i name="pawpsdc">   5784.23600807 </i>
    <i name="pawaedc">  -5788.66493449 </i>
    <i name="eentropy">     -0.00156719 </i>
    <i name="bandstr">   -505.60879139 </i>
    <i name="atom">   1903.26342058 </i>
    <i name="e_fr_energy">   -125.50372521 </i>
    <i name="e_wo_entrp">   -125.50215802 </i>
    <i name="e_0_energy">   -125.50294161 </i>
   </energy>
  </scstep>
  <scstep>
   <time name="dav">   11.68   11.75</time>
   <time name="total">   11.98   12.05</time>
   <energy>
    <i name="e_fr_energy">   -125.50380467 </i>
    <i name="e_wo_entrp">   -125.50223748 </i>
    <i name="e_0_energy">   -125.50302107 </i>
   </energy>
  </scstep>
  <scstep>
   <time name="dav">    8.64    8.70</time>
   <time name="total">    8.94    9.01</time>
   <energy>
    <i name="e_fr_energy">   -125.50380020 </i>
    <i name="e_wo_entrp">   -125.50223301 </i>
    <i name="e_0_energy">   -125.50301661 </i>
   </energy>
  </scstep>
  <scstep>
   <time name="dav">   10.94   11.00</time>
   <time name="total">   11.24   11.31</time>
   <energy>
    <i name="e_fr_energy">   -125.50380171 </i>
    <i name="e_wo_entrp">   -125.50223452 </i>
    <i name="e_0_energy">   -125.50301812 </i>
   </energy>
  </scstep>
  <scstep>
   <time name="dav">    8.62    8.66</time>
   <time name="total">    8.65    8.70</time>
   <energy>
    <i name="alphaZ">     58.45171928 </i>
    <i name="ewald">   4704.62706898 </i>
    <i name="hartreedc">  -6462.49006446 </i>
    <i name="XCdc">    180.69563094 </i>
    <i name="pawpsdc">   5789.96836356 </i>
    <i name="pawaedc">  -5794.39927358 </i>
    <i name="eentropy">     -0.00156719 </i>
    <i name="bandstr">   -505.61910013 </i>
    <i name="atom">   1903.26342058 </i>
    <i name="e_fr_energy">   -125.50380203 </i>
    <i name="e_wo_entrp">   -125.50223483 </i>
    <i name="e_0_energy">   -125.50301843 </i>
   </energy>
  </scstep>
  <structure>
   <crystal>
    <varray name="basis" >
     <v>       4.19156295       2.42000000       0.00000000 </v>
     <v>      -4.19156295       2.42000000       0.00000000 </v>
     <v>       0.00000000       0.00000000      15.00000000 </v>
    </varray>
    <i name="volume">    304.30747048 </i>
    <varray name="rec_basis" >
     <v>       0.11928725       0.20661157       0.00000000 </v>
     <v>      -0.11928725       0.20661157       0.00000000 </v>
     <v>       0.00000000       0.00000000       0.06666667 </v>
    </varray>
   </crystal>
   <varray name="positions" >
    <v>       0.00418696       0.00277465       0.11838605 </v>
    <v>       0.35696322       0.00278206       0.09802424 </v>
    <v>       0.00418173       0.35554559       0.09802668 </v>
    <v>       0.65140067       0.64999628       0.09802421 </v>
    <v>       0.32653406       0.32511906       0.10029253 </v>
    <v>       0.68185481       0.00279683       0.10027958 </v>
    <v>       0.00420498       0.68044281       0.10027470 </v>
    <v>       0.16670794       0.33328557       0.33729122 </v>
    <v>       0.33328409       0.16670867       0.33729266 </v>
    <v>       0.16657132       0.83328795       0.33729496 </v>
    <v>       0.33332898       0.66666051       0.33709118 </v>
    <v>       0.66665957       0.33333150       0.33709117 </v>
    <v>       0.83328780       0.16657378       0.33729475 </v>
    <v>       0.66670728       0.83342035       0.33729165 </v>
    <v>       0.83342059       0.66670839       0.33729041 </v>
   </varray>
  </structure>
  <varray name="forces" >
   <v>       0.00008859      -0.00051415      -0.26805106 </v>
   <v>       0.05011376       0.02909817       0.04923095 </v>
   <v>      -0.05007164       0.03021243       0.04915945 </v>
   <v>       0.00058805      -0.05590069       0.05007956 </v>
   <v>      -0.00046669       0.11427007       0.01995262 </v>
   <v>      -0.09711206      -0.05801534       0.02161522 </v>
   <v>       0.09727956      -0.05786490       0.02193988 </v>
   <v>      -0.05104331      -0.00186551       0.00613218 </v>
   <v>       0.05088162      -0.00161582       0.00613632 </v>
   <v>       0.02597585       0.04393774       0.00609234 </v>
   <v>      -0.00163543       0.00114054       0.00975728 </v>
   <v>       0.00226310       0.00056295       0.00976150 </v>
   <v>      -0.02590604       0.04314125       0.00606394 </v>
   <v>       0.02652243      -0.04305922       0.00605212 </v>
   <v>      -0.02747779      -0.04352751       0.00607770 </v>
  </varray>
  <varray name="stress" >
   <v>       1.08030408       0.00137833      -0.00823104 </v>
   <v>       0.00137834       1.08523254      -0.02467486 </v>
   <v>      -0.00823103      -0.02467486      -1.51907709 </v>
  </varray>
  <energy>
   <i name="e_fr_energy">   -127.09167390 </i>
   <i name="e_wo_entrp">   -127.09010671 </i>
   <i name="e_0_energy">   -127.09089030 </i>
  </energy>
  <time name="totalsc">   51.20   51.55</time>
 </calculation>
 <calculation>
  <scstep>
   <time name="dav">    5.44    5.47</time>
   <time name="total">    5.73    5.77</time>
   <energy>
    <i name="alphaZ">     58.45171928 </i>
    <i name="ewald">   4702.50619210 </i>
    <i name="hartreedc">  -6459.69480966 </i>
    <i name="XCdc">    180.74412453 </i>
    <i name="pawpsdc">   5790.01703274 </i>
    <i name="pawaedc">  -5794.44796582 </i>
    <i name="eentropy">     -0.00156714 </i>
    <i name="bandstr">   -506.35304061 </i>
    <i name="atom">   1903.26342058 </i>
    <i name="e_fr_energy">   -125.51489399 </i>
    <i name="e_wo_entrp">   -125.51332686 </i>
    <i name="e_0_energy">   -125.51411043 </i>
   </energy>
  </scstep>
  <scstep>
   <time name="dav">   11.31   11.38</time>
   <time name="total">   11.60   11.68</time>
   <energy>
    <i name="e_fr_energy">   -125.51578344 </i>
    <i name="e_wo_entrp">   -125.51421630 </i>
    <i name="e_0_energy">   -125.51499987 </i>
   </energy>
  </scstep>
  <scstep>
   <time name="dav">    8.21    8.26</time>
   <time name="total">    8.50    8.57</time>
   <energy>
    <i name="e_fr_energy">   -125.51572727 </i>
    <i name="e_wo_entrp">   -125.51416012 </i>
    <i name="e_0_energy">   -125.51494369 </i>
   </energy>
  </scstep>
  <scstep>
   <time name="dav">   11.66   11.72</time>
   <time name="total">   11.95   12.02</time>
   <energy>
    <i name="e_fr_energy">   -125.51574347 </i>
    <i name="e_wo_entrp">   -125.51417633 </i>
    <i name="e_0_energy">   -125.51495990 </i>
   </energy>
  </scstep>
  <scstep>
   <time name="dav">    8.47    8.52</time>
   <time name="total">    8.76    8.82</time>
   <energy>
    <i name="e_fr_energy">   -125.51574642 </i>
    <i name="e_wo_entrp">   -125.51417927 </i>
    <i name="e_0_energy">   -125.51496284 </i>
   </energy>
  </scstep>
  <scstep>
   <time name="dav">   10.27   10.33</time>
   <time name="total">   10.30   10.36</time>
   <energy>
    <i name="alphaZ">     58.45171928 </i>
    <i name="ewald">   4702.50619210 </i>
    <i name="hartreedc">  -6459.64640759 </i>
    <i name="XCdc">    180.74083909 </i>
    <i name="pawpsdc">   5804.32777024 </i>
    <i name="pawaedc">  -5808.76383084 </i>
    <i name="eentropy">     -0.00156714 </i>
    <i name="bandstr">   -506.39388231 </i>
    <i name="atom">   1903.26342058 </i>
    <i name="e_fr_energy">   -125.51574659 </i>
    <i name="e_wo_entrp">   -125.51417945 </i>
    <i name="e_0_energy">   -125.51496302 </i>
   </energy>
  </scstep>
  <structure>
   <crystal>
    <varray name="basis" >
     <v>       4.19156295       2.42000000       0.00000000 </v>
     <v>      -4.19156295       2.42000000       0.00000000 </v>
     <v>       0.00000000       0.00000000      15.00000000 </v>
    </varray>
    <i name="volume">    304.30747048 </i>
    <varray name="rec_basis" >
     <v>       0.11928725       0.20661157       0.00000000 </v>
     <v>      -0.11928725       0.20661157       0.00000000 </v>
     <v>       0.00000000       0.00000000       0.06666667 </v>
    </varray>
   </crystal>
   <varray name="positions" >
    <v>       0.00423783       0.00295802       0.11458912 </v>
    <v>       0.35859093       0.00264502       0.09908341 </v>
    <v>       0.00407994       0.35723899       0.09908344 </v>
    <v>       0.64978093       0.64828524       0.09910761 </v>
    <v>       0.32696275       0.32546054       0.10023078 </v>
    <v>       0.68146819       0.00281164       0.10025106 </v>
    <v>       0.00426529       0.68009803       0.10025594 </v>
    <v>       0.16694594       0.33300125       0.33747025 </v>
    <v>       0.33299460       0.16694457       0.33747439 </v>
    <v>       0.16604530       0.83306116       0.33748091 </v>
    <v>       0.33331398       0.66663435       0.33689984 </v>
    <v>       0.66663196       0.33332958       0.33689981 </v>
    <v>       0.83306469       0.16605891       0.33748026 </v>
    <v>       0.66697622       0.83392718       0.33747135 </v>
    <v>       0.83393545       0.66697950       0.33746783 </v>
   </varray>
  </structure>
  <varray name="forces" >
   <v>       0.00940561      -0.01027974      -0.21199661 </v>
   <v>      -0.07519469      -0.03345063      -0.04784250 </v>
   <v>       0.07705668      -0.03334974      -0.04748114 </v>
   <v>      -0.00343042       0.08430985      -0.05030153 </v>
   <v>      -0.00645244       0.06529387       0.10583429 </v>
   <v>      -0.04826025      -0.03489807       0.10446394 </v>
   <v>       0.04723355      -0.03656247       0.10371368 </v>
   <v>      -0.27074691      -0.00224981      -0.01801015 </v>
   <v>       0.27016823      -0.00067681      -0.01858365 </v>
   <v>       0.14348437       0.22923429      -0.01970344 </v>
   <v>      -0.00795728       0.00722293       0.07793756 </v>
   <v>       0.01207116       0.00404959       0.07795654 </v>
   <v>      -0.14245154       0.22488196      -0.01971321 </v>
   <v>       0.13401305      -0.23038834      -0.01843544 </v>
   <v>      -0.13893913      -0.23313688      -0.01783834 </v>
  </varray>
  <varray name="stress" >
   <v>       2.29515928      -0.00745367       0.00379644 </v>
   <v>      -0.00745368       2.32251778      -0.03250311 </v>
   <v>       0.00379647      -0.03250309      -1.58913864 </v>
  </varray>
  <energy>
   <i name="e_fr_energy">   -127.10278829 </i>
   <i name="e_wo_entrp">   -127.10122115 </i>
   <i name="e_0_energy">   -127.10200472 </i>
  </energy>
  <time name="totalsc">   61.50   61.92</time>
 </calculation>
 <calculation>
  <scstep>
   <time name="dav">    5.55    5.58</time>
   <time name="total">    5.84    5.88</time>
   <energy>
    <i name="alphaZ">     58.45171928 </i>
    <i name="ewald">   4702.21923222 </i>
    <i name="hartreedc">  -6459.26913338 </i>
    <i name="XCdc">    180.74665602 </i>
    <i name="pawpsdc">   5804.32773400 </i>
    <i name="pawaedc">  -5808.76379379 </i>
    <i name="eentropy">     -0.00156719 </i>
    <i name="bandstr">   -506.49345937 </i>
    <i name="atom">   1903.26342058 </i>
    <i name="e_fr_energy">   -125.51919163 </i>
    <i name="e_wo_entrp">   -125.51762445 </i>
    <i name="e_0_energy">   -125.51840804 </i>
   </energy>
  </scstep>
  <scstep>
   <time name="dav">   10.72   10.77</time>
   <time name="total">   11.00   11.07</time>
   <energy>
    <i name="e_fr_energy">   -125.51918209 </i>
    <i name="e_wo_entrp">   -125.51761490 </i>
    <i name="e_0_energy">   -125.51839850 </i>
   </energy>
  </scstep>
  <scstep>
   <time name="dav">    7.86    7.90</time>
   <time name="total">    8.15    8.21</time>
   <energy>
    <i name="e_fr_energy">   -125.51915819 </i>
    <i name="e_wo_entrp">   -125.51759100 </i>
    <i name="e_0_energy">   -125.51837460 </i>
   </energy>
  </scstep>
  <scstep>
   <time name="dav">   10.82   10.87</time>
   <time name="total">   11.11   11.17</time>
   <energy>
    <i name="e_fr_energy">   -125.51915920 </i>
    <i name="e_wo_entrp">   -125.51759201 </i>
    <i name="e_0_energy">   -125.51837561 </i>
   </energy>
  </scstep>
  <scstep>
   <time name="dav">    8.74    8.79</time>
   <time name="total">    8.77    8.83</time>
   <energy>
    <i name="alphaZ">     58.45171928 </i>
    <i name="ewald">   4702.21923222 </i>
    <i name="hartreedc">  -6459.27609113 </i>
    <i name="XCdc">    180.74587755 </i>
    <i name="pawpsdc">   5805.94793814 </i>
    <i name="pawaedc">  -5810.38463240 </i>
    <i name="eentropy">     -0.00156719 </i>
    <i name="bandstr">   -506.48505669 </i>
    <i name="atom">   1903.26342058 </i>
    <i name="e_fr_energy">   -125.51915965 </i>
    <i name="e_wo_entrp">   -125.51759246 </i>
    <i name="e_0_energy">   -125.51837606 </i>
   </energy>
  </scstep>
  <structure>
   <crystal>
    <varray name="basis" >
     <v>       4.19156295       2.42000000       0.00000000 </v>
     <v>      -4.19156295       2.42000000       0.00000000 </v>
     <v>       0.00000000       0.00000000      15.00000000 </v>
    </varray>
    <i name="volume">    304.30747048 </i>
    <varray name="rec_basis" >
     <v>       0.11928725       0.20661157       0.00000000 </v>
     <v>      -0.11928725       0.20661157       0.00000000 </v>
     <v>       0.00000000       0.00000000       0.06666667 </v>
    </varray>
   </crystal>
   <varray name="positions" >
    <v>       0.00423870       0.00296339       0.11398887 </v>
    <v>       0.35871630       0.00263880       0.09920796 </v>
    <v>       0.00407997       0.35737206       0.09920781 </v>
    <v>       0.64966342       0.64816027       0.09923447 </v>
    <v>       0.32709743       0.32559265       0.10026484 </v>
    <v>       0.68133774       0.00280491       0.10028908 </v>
    <v>       0.00426193       0.67997193       0.10029497 </v>
    <v>       0.16678121       0.33315411       0.33748733 </v>
    <v>       0.33314829       0.16678192       0.33749160 </v>
    <v>       0.16636170       0.83321230       0.33749824 </v>
    <v>       0.33331521       0.66664548       0.33690513 </v>
    <v>       0.66664191       0.33332570       0.33690510 </v>
    <v>       0.83321165       0.16637068       0.33749753 </v>
    <v>       0.66682258       0.83361354       0.33748834 </v>
    <v>       0.83361595       0.66682627       0.33748475 </v>
   </varray>
  </structure>
  <varray name="forces" >
   <v>       0.00946109      -0.00970943      -0.20002739 </v>
   <v>      -0.08088979      -0.03616539      -0.05116902 </v>
   <v>       0.08300837      -0.03669330      -0.05075514 </v>
   <v>      -0.00392015       0.08957882      -0.05393156 </v>
   <v>      -0.00658026       0.04506114       0.10623246 </v>
   <v>      -0.03185379      -0.02448800       0.10446142 </v>
   <v>       0.03112260      -0.02654746       0.10361514 </v>
   <v>      -0.13562644       0.00423342      -0.01906439 </v>
   <v>       0.13514978       0.00529736      -0.01966477 </v>
   <v>       0.07599793       0.11064869      -0.02079015 </v>
   <v>      -0.00360435       0.00415330       0.08010280 </v>
   <v>       0.00599650       0.00232734       0.08012169 </v>
   <v>      -0.07545012       0.10844185      -0.02079238 </v>
   <v>       0.06122469      -0.11735110      -0.01947739 </v>
   <v>      -0.06403605      -0.11878724      -0.01886131 </v>
  </varray>
  <varray name="stress" >
   <v>       2.43602509      -0.00917747       0.00352929 </v>
   <v>      -0.00917743       2.43377413      -0.03066702 </v>
   <v>       0.00352930      -0.03066701      -1.59256467 </v>
  </varray>
  <energy>
   <i name="e_fr_energy">   -127.10605593 </i>
   <i name="e_wo_entrp">   -127.10448874 </i>
   <i name="e_0_energy">   -127.10527234 </i>
  </energy>
  <time name="totalsc">   49.53   49.86</time>
 </calculation>
 <calculation>
  <scstep>
   <time name="dav">    5.49    5.52</time>
   <time name="total">    5.78    5.82</time>
   <energy>
    <i name="alphaZ">     58.45171928 </i>
    <i name="ewald">   4701.55904376 </i>
    <i name="hartreedc">  -6458.44148465 </i>
    <i name="XCdc">    180.75738321 </i>
    <i name="pawpsdc">   5806.07592162 </i>
    <i name="pawaedc">  -5810.51262247 </i>
    <i name="eentropy">     -0.00156715 </i>
    <i name="bandstr">   -506.67428663 </i>
    <i name="atom">   1903.26342058 </i>
    <i name="e_fr_energy">   -125.52247245 </i>
    <i name="e_wo_entrp">   -125.52090531 </i>
    <i name="e_0_energy">   -125.52168888 </i>
   </energy>
  </scstep>
  <scstep>
   <time name="dav">   10.84   10.90</time>
   <time name="total">   11.14   11.21</time>
   <energy>
    <i name="e_fr_energy">   -125.52242997 </i>
    <i name="e_wo_entrp">   -125.52086282 </i>
    <i name="e_0_energy">   -125.52164640 </i>
   </energy>
  </scstep>
  <scstep>
   <time name="dav">    8.76    8.82</time>
   <time name="total">    9.05    9.12</time>
   <energy>
    <i name="e_fr_energy">   -125.52232458 </i>
    <i name="e_wo_entrp">   -125.52075742 </i>
    <i name="e_0_energy">   -125.52154100 </i>
   </energy>
  </scstep>
  <scstep>
   <time name="dav">   10.34   10.40</time>
   <time name="total">   10.63   10.70</time>
   <energy>
    <i name="e_fr_energy">   -125.52232912 </i>
    <i name="e_wo_entrp">   -125.52076196 </i>
    <i name="e_0_energy">   -125.52154554 </i>
   </energy>
  </scstep>
  <scstep>
   <time name="dav">    8.68    8.73</time>
   <time name="total">    8.71    8.77</time>
   <energy>
    <i name="alphaZ">     58.45171928 </i>
    <i name="ewald">   4701.55904376 </i>
    <i name="hartreedc">  -6458.49330591 </i>
    <i name="XCdc">    180.75642723 </i>
    <i name="pawpsdc">   5809.52260475 </i>
    <i name="pawaedc">  -5813.96067062 </i>
    <i name="eentropy">     -0.00156716 </i>
    <i name="bandstr">   -506.62000179 </i>
    <i name="atom">   1903.26342058 </i>
    <i name="e_fr_energy">   -125.52232987 </i>
    <i name="e_wo_entrp">   -125.52076272 </i>
    <i name="e_0_energy">   -125.52154630 </i>
   </energy>
  </scstep>
  <structure>
   <crystal>
    <varray name="basis" >
     <v>       4.19156295       2.42000000       0.00000000 </v>
     <v>      -4.19156295       2.42000000       0.00000000 </v>
     <v>       0.00000000       0.00000000      15.00000000 </v>
    </varray>
    <i name="volume">    304.30747048 </i>
    <varray name="rec_basis" >
     <v>       0.11928725       0.20661157       0.00000000 </v>
     <v>      -0.11928725       0.20661157       0.00000000 </v>
     <v>       0.00000000       0.00000000       0.06666667 </v>
    </varray>
   </crystal>
   <varray name="positions" >
    <v>       0.00424055       0.00297470       0.11272249 </v>
    <v>       0.35898081       0.00262569       0.09947073 </v>
    <v>       0.00408003       0.35765282       0.09947019 </v>
    <v>       0.64941553       0.64789662       0.09950209 </v>
    <v>       0.32738157       0.32587135       0.10033668 </v>
    <v>       0.68106252       0.00279071       0.10036928 </v>
    <v>       0.00425484       0.67970588       0.10037733 </v>
    <v>       0.16643366       0.33347660       0.33752335 </v>
    <v>       0.33347255       0.16643877       0.33752791 </v>
    <v>       0.16702923       0.83353115       0.33753481 </v>
    <v>       0.33331780       0.66666897       0.33691627 </v>
    <v>       0.66666289       0.33331749       0.33691625 </v>
    <v>       0.83352171       0.16702842       0.33753396 </v>
    <v>       0.66649843       0.83295183       0.33752419 </v>
    <v>       0.83294188       0.66650300       0.33752046 </v>
   </varray>
  </structure>
  <varray name="forces" >
   <v>       0.00955812      -0.00847066      -0.17806749 </v>
   <v>      -0.09551673      -0.04337277      -0.05756928 </v>
   <v>       0.09815267      -0.04524816      -0.05705322 </v>
   <v>      -0.00493870       0.10365007      -0.06095101 </v>
   <v>      -0.00680729      -0.00014975       0.10743349 </v>
   <v>       0.00496747      -0.00125248       0.10484773 </v>
   <v>      -0.00508324      -0.00416841       0.10380369 </v>
   <v>       0.14443968       0.01886361      -0.02125880 </v>
   <v>      -0.14472049       0.01885400      -0.02191754 </v>
   <v>      -0.06319521      -0.13566927      -0.02305455 </v>
   <v>       0.00568072      -0.00237622       0.08471025 </v>
   <v>      -0.00693525      -0.00133366       0.08472694 </v>
   <v>       0.06282630      -0.13349093      -0.02303362 </v>
   <v>      -0.09082678       0.11650513      -0.02163451 </v>
   <v>       0.09239873       0.11765951      -0.02098209 </v>
  </varray>
  <varray name="stress" >
   <v>       2.77030593      -0.01224832       0.00294455 </v>
   <v>      -0.01224833       2.70329492      -0.02685596 </v>
   <v>       0.00294455      -0.02685599      -1.62496830 </v>
  </varray>
  <energy>
   <i name="e_fr_energy">   -127.10890353 </i>
   <i name="e_wo_entrp">   -127.10733637 </i>
   <i name="e_0_energy">   -127.10811995 </i>
  </energy>
  <time name="totalsc">   49.96   50.31</time>
 </calculation>
 <calculation>
  <scstep>
   <time name="dav">    5.45    5.49</time>
   <time name="total">    5.74    5.79</time>
   <energy>
    <i name="alphaZ">     58.45171928 </i>
    <i name="ewald">   4701.44560577 </i>
    <i name="hartreedc">  -6458.26933371 </i>
    <i name="XCdc">    180.76365718 </i>
    <i name="pawpsdc">   5809.80372413 </i>
    <i name="pawaedc">  -5814.24179442 </i>
    <i name="eentropy">     -0.00156718 </i>
    <i name="bandstr">   -506.74004718 </i>
    <i name="atom">   1903.26342058 </i>
    <i name="e_fr_energy">   -125.52461554 </i>
    <i name="e_wo_entrp">   -125.52304836 </i>
    <i name="e_0_energy">   -125.52383195 </i>
   </energy>
  </scstep>
  <scstep>
   <time name="dav">   10.02   10.08</time>
   <time name="total">   10.31   10.38</time>
   <energy>
    <i name="e_fr_energy">   -125.52463897 </i>
    <i name="e_wo_entrp">   -125.52307179 </i>
    <i name="e_0_energy">   -125.52385538 </i>
   </energy>
  </scstep>
  <scstep>
   <time name="dav">    8.13    8.18</time>
   <time name="total">    8.42    8.48</time>
   <energy>
    <i name="e_fr_energy">   -125.52463735 </i>
    <i name="e_wo_entrp">   -125.52307017 </i>
    <i name="e_0_energy">   -125.52385376 </i>
   </energy>
  </scstep>
  <scstep>
   <time name="dav">    9.87    9.93</time>
   <time name="total">    9.91    9.96</time>
   <energy>
    <i name="alphaZ">     58.45171928 </i>
    <i name="ewald">   4701.44560577 </i>
    <i name="hartreedc">  -6458.34923566 </i>
    <i name="XCdc">    180.76291544 </i>
    <i name="pawpsdc">   5812.22736157 </i>
    <i name="pawaedc">  -5816.66625227 </i>
    <i name="eentropy">     -0.00156718 </i>
    <i name="bandstr">   -506.65860493 </i>
    <i name="atom">   1903.26342058 </i>
    <i name="e_fr_energy">   -125.52463740 </i>
    <i name="e_wo_entrp">   -125.52307022 </i>
    <i name="e_0_energy">   -125.52385381 </i>
   </energy>
  </scstep>
  <structure>
   <crystal>
    <varray name="basis" >
     <v>       4.19156295       2.42000000       0.00000000 </v>
     <v>      -4.19156295       2.42000000       0.00000000 </v>
     <v>       0.00000000       0.00000000      15.00000000 </v>
    </varray>
    <i name="volume">    304.30747048 </i>
    <varray name="rec_basis" >
     <v>       0.11928725       0.20661157       0.00000000 </v>
     <v>      -0.11928725       0.20661157       0.00000000 </v>
     <v>       0.00000000       0.00000000       0.06666667 </v>
    </varray>
   </crystal>
   <varray name="positions" >
    <v>       0.00423616       0.00295500       0.11205996 </v>
    <v>       0.35892391       0.00264068       0.09955432 </v>
    <v>       0.00410024       0.35759712       0.09955390 </v>
    <v>       0.64948381       0.64796800       0.09958591 </v>
    <v>       0.32750024       0.32600150       0.10042976 </v>
    <v>       0.68094345       0.00277713       0.10046458 </v>
    <v>       0.00423915       0.67958584       0.10047300 </v>
    <v>       0.16646036       0.33350545       0.33752719 </v>
    <v>       0.33350188       0.16646770       0.33753150 </v>
    <v>       0.16702076       0.83349715       0.33753787 </v>
    <v>       0.33332055       0.66666939       0.33696950 </v>
    <v>       0.66666275       0.33331858       0.33696950 </v>
    <v>       0.83348729       0.16701985       0.33753697 </v>
    <v>       0.66646803       0.83295720       0.33752774 </v>
    <v>       0.83294542       0.66647343       0.33752431 </v>
   </varray>
  </structure>
  <varray name="forces" >
   <v>       0.00804258      -0.00625942      -0.15674382 </v>
   <v>      -0.07335420      -0.03138755      -0.04726250 </v>
   <v>       0.07605651      -0.03418340      -0.04675693 </v>
   <v>      -0.00507097       0.07725981      -0.05064878 </v>
   <v>      -0.00588133      -0.00793951       0.09067201 </v>
   <v>       0.00883219       0.00337932       0.08781405 </v>
   <v>      -0.00828475       0.00010431       0.08674713 </v>
   <v>       0.14384584       0.00425661      -0.01872647 </v>
   <v>      -0.14383287       0.00360545      -0.01932227 </v>
   <v>      -0.07361225      -0.12455365      -0.02033000 </v>
   <v>       0.00429190      -0.00357259       0.07614468 </v>
   <v>      -0.00628721      -0.00196924       0.07615628 </v>
   <v>       0.07303138      -0.12231487      -0.02029767 </v>
   <v>      -0.07457126       0.12113931      -0.01901125 </v>
   <v>       0.07679445       0.12243541      -0.01843444 </v>
  </varray>
  <varray name="stress" >
   <v>       2.92661461      -0.01086253       0.00118833 </v>
   <v>      -0.01086252       2.87651017      -0.02365112 </v>
   <v>       0.00118833      -0.02365107      -1.60747459 </v>
  </varray>
  <energy>
   <i name="e_fr_energy">   -127.11100264 </i>
   <i name="e_wo_entrp">   -127.10943547 </i>
   <i name="e_0_energy">   -127.11021906 </i>
  </energy>
  <time name="totalsc">   39.04   39.31</time>
 </calculation>
 <calculation>
  <scstep>
   <time name="dav">    5.45    5.49</time>
   <time name="total">    5.74    5.79</time>
   <energy>
    <i name="alphaZ">     58.45171928 </i>
    <i name="ewald">   4700.93402636 </i>
    <i name="hartreedc">  -6457.54275933 </i>
    <i name="XCdc">    180.78203013 </i>
    <i name="pawpsdc">   5812.26751462 </i>
    <i name="pawaedc">  -5816.70640713 </i>
    <i name="eentropy">     -0.00156718 </i>
    <i name="bandstr">   -506.97761084 </i>
    <i name="atom">   1903.26342058 </i>
    <i name="e_fr_energy">   -125.52963352 </i>
    <i name="e_wo_entrp">   -125.52806634 </i>
    <i name="e_0_energy">   -125.52884993 </i>
   </energy>
  </scstep>
  <scstep>
   <time name="dav">   11.47   11.52</time>
   <time name="total">   11.75   11.82</time>
   <energy>
    <i name="e_fr_energy">   -125.52984543 </i>
    <i name="e_wo_entrp">   -125.52827824 </i>
    <i name="e_0_energy">   -125.52906183 </i>
   </energy>
  </scstep>
  <scstep>
   <time name="dav">    8.47    8.52</time>
   <time name="total">    8.76    8.83</time>
   <energy>
    <i name="e_fr_energy">   -125.52982766 </i>
    <i name="e_wo_entrp">   -125.52826047 </i>
    <i name="e_0_energy">   -125.52904406 </i>
   </energy>
  </scstep>
  <scstep>
   <time name="dav">    9.82    9.87</time>
   <time name="total">   10.11   10.17</time>
   <energy>
    <i name="e_fr_energy">   -125.52982776 </i>
    <i name="e_wo_entrp">   -125.52826058 </i>
    <i name="e_0_energy">   -125.52904417 </i>
   </energy>
  </scstep>
  <scstep>
   <time name="dav">    9.23    9.28</time>
   <time name="total">    9.52    9.58</time>
   <energy>
    <i name="e_fr_energy">   -125.52982575 </i>
    <i name="e_wo_entrp">   -125.52825857 </i>
    <i name="e_0_energy">   -125.52904216 </i>
   </energy>
  </scstep>
  <scstep>
   <time name="dav">    9.96   10.02</time>
   <time name="total">    9.99   10.05</time>
   <energy>
    <i name="alphaZ">     58.45171928 </i>
    <i name="ewald">   4700.93402636 </i>
    <i name="hartreedc">  -6457.83009412 </i>
    <i name="XCdc">    180.77972995 </i>
    <i name="pawpsdc">   5818.70424605 </i>
    <i name="pawaedc">  -5823.14530301 </i>
    <i name="eentropy">     -0.00156719 </i>
    <i name="bandstr">   -506.68600323 </i>
    <i name="atom">   1903.26342058 </i>
    <i name="e_fr_energy">   -125.52982531 </i>
    <i name="e_wo_entrp">   -125.52825813 </i>
    <i name="e_0_energy">   -125.52904172 </i>
   </energy>
  </scstep>
  <structure>
   <crystal>
    <varray name="basis" >
     <v>       4.19156295       2.42000000       0.00000000 </v>
     <v>      -4.19156295       2.42000000       0.00000000 </v>
     <v>       0.00000000       0.00000000      15.00000000 </v>
    </varray>
    <i name="volume">    304.30747048 </i>
    <varray name="rec_basis" >
     <v>       0.11928725       0.20661157       0.00000000 </v>
     <v>      -0.11928725       0.20661157       0.00000000 </v>
     <v>       0.00000000       0.00000000       0.06666667 </v>
    </varray>
   </crystal>
   <varray name="positions" >
    <v>       0.00422297       0.00289588       0.11007235 </v>
    <v>       0.35875322       0.00268566       0.09980508 </v>
    <v>       0.00416085       0.35743002       0.09980503 </v>
    <v>       0.64968865       0.64818214       0.09983734 </v>
    <v>       0.32785624       0.32639195       0.10070900 </v>
    <v>       0.68058624       0.00273642       0.10075050 </v>
    <v>       0.00419207       0.67922571       0.10076000 </v>
    <v>       0.16654049       0.33359200       0.33753870 </v>
    <v>       0.33358987       0.16655448       0.33754227 </v>
    <v>       0.16699537       0.83339517       0.33754704 </v>
    <v>       0.33332879       0.66667062       0.33712920 </v>
    <v>       0.66666234       0.33332183       0.33712924 </v>
    <v>       0.83338404       0.16699413       0.33754600 </v>
    <v>       0.66637684       0.83297330       0.33753838 </v>
    <v>       0.83295602       0.66638470       0.33753588 </v>
   </varray>
  </structure>
  <varray name="forces" >
   <v>       0.00344844       0.00047235      -0.10176880 </v>
   <v>      -0.01274716       0.00117881      -0.01499520 </v>
   <v>       0.01589995      -0.00438602      -0.01452631 </v>
   <v>      -0.00548758       0.00500010      -0.01837833 </v>
   <v>      -0.00329879      -0.03818810       0.04201302 </v>
   <v>       0.02655685       0.02055657       0.03840891 </v>
   <v>      -0.02406259       0.01627017       0.03732976 </v>
   <v>       0.14507524      -0.03730748      -0.01115835 </v>
   <v>      -0.14417940      -0.03985400      -0.01156564 </v>
   <v>      -0.10454652      -0.09507343      -0.01222146 </v>
   <v>       0.00019219      -0.00716958       0.05059367 </v>
   <v>      -0.00439973      -0.00389644       0.05059141 </v>
[...]
       <r>     2.7403     1.3940    30.8797 </r>
       <r>     2.8470     0.6821    30.9524 </r>
       <r>     2.9536     0.8074    31.0385 </r>
       <r>     3.0602     1.2173    31.1683 </r>
       <r>     3.1668     1.5779    31.3365 </r>
       <r>     3.2734     1.2387    31.4686 </r>
       <r>     3.3800     1.3606    31.6136 </r>
       <r>     3.4867     1.0252    31.7229 </r>
       <r>     3.5933     1.9629    31.9322 </r>
       <r>     3.6999     3.0303    32.2553 </r>
       <r>     3.8065     3.0463    32.5801 </r>
       <r>     3.9131     2.8246    32.8812 </r>
       <r>     4.0197     2.7019    33.1693 </r>
       <r>     4.1264     3.3016    33.5213 </r>
       <r>     4.2330     3.4380    33.8879 </r>
       <r>     4.3396     3.0196    34.2098 </r>
       <r>     4.4462     3.1036    34.5407 </r>
       <r>     4.5528     3.0486    34.8657 </r>
       <r>     4.6595     2.4911    35.1313 </r>
       <r>     4.7661     3.2219    35.4748 </r>
       <r>     4.8727     3.6667    35.8658 </r>
       <r>     4.9793     2.8782    36.1726 </r>
       <r>     5.0859     3.0515    36.4980 </r>
       <r>     5.1925     3.3126    36.8511 </r>
       <r>     5.2992     2.6613    37.1349 </r>
       <r>     5.4058     2.7001    37.4228 </r>
       <r>     5.5124     3.0408    37.7470 </r>
       <r>     5.6190     3.7294    38.1446 </r>
       <r>     5.7256     2.8787    38.4515 </r>
       <r>     5.8322     2.7168    38.7412 </r>
       <r>     5.9389     2.5273    39.0106 </r>
       <r>     6.0455     2.7672    39.3056 </r>
       <r>     6.1521     2.1476    39.5346 </r>
       <r>     6.2587     2.0608    39.7543 </r>
       <r>     6.3653     2.8874    40.0622 </r>
       <r>     6.4719     3.0516    40.3875 </r>
       <r>     6.5786     3.2786    40.7371 </r>
       <r>     6.6852     3.1997    41.0782 </r>
       <r>     6.7918     4.3070    41.5374 </r>
       <r>     6.8984     3.8095    41.9436 </r>
       <r>     7.0050     3.2337    42.2884 </r>
       <r>     7.1116     3.2455    42.6344 </r>
       <r>     7.2183     2.7723    42.9300 </r>
       <r>     7.3249     2.2116    43.1658 </r>
       <r>     7.4315     2.7775    43.4619 </r>
       <r>     7.5381     3.0334    43.7853 </r>
       <r>     7.6447     2.6494    44.0678 </r>
       <r>     7.7513     3.2471    44.4140 </r>
       <r>     7.8580     3.8977    44.8295 </r>
       <r>     7.9646     4.1496    45.2720 </r>
       <r>     8.0712     4.1450    45.7139 </r>
       <r>     8.1778     4.0966    46.1507 </r>
       <r>     8.2844     3.5109    46.5250 </r>
       <r>     8.3910     4.2646    46.9797 </r>
       <r>     8.4977     4.5657    47.4664 </r>
       <r>     8.6043     2.5669    47.7401 </r>
       <r>     8.7109     1.3531    47.8844 </r>
       <r>     8.8175     0.6391    47.9525 </r>
       <r>     8.9241     0.3664    47.9916 </r>
       <r>     9.0308     0.0762    47.9997 </r>
       <r>     9.1374     0.0028    48.0000 </r>
       <r>     9.2440     0.0000    48.0000 </r>
       <r>     9.3506     0.0000    48.0000 </r>
       <r>     9.4572     0.0000    48.0000 </r>
       <r>     9.5638     0.0000    48.0000 </r>
       <r>     9.6705     0.0000    48.0000 </r>
       <r>     9.7771     0.0000    48.0000 </r>
       <r>     9.8837     0.0000    48.0000 </r>
       <r>     9.9903     0.0000    48.0000 </r>
       <r>    10.0969     0.0000    48.0000 </r>
       <r>    10.2035     0.0000    48.0000 </r>
       <r>    10.3102     0.0000    48.0000 </r>
      </set>
      <set comment="spin 2">
       <r>   -21.6750     0.0000     0.0000 </r>
       <r>   -21.5684     0.0000     0.0000 </r>
       <r>   -21.4617     0.0000     0.0000 </r>
       <r>   -21.3551     0.0000     0.0000 </r>
       <r>   -21.2485     0.0000     0.0000 </r>
       <r>   -21.1419     0.0000     0.0000 </r>
       <r>   -21.0353     0.0000     0.0000 </r>
       <r>   -20.9287     0.0000     0.0000 </r>
       <r>   -20.8220     0.0000     0.0000 </r>
       <r>   -20.7154     0.0000     0.0000 </r>
       <r>   -20.6088     0.0000     0.0000 </r>
       <r>   -20.5022     0.0000     0.0000 </r>
       <r>   -20.3956     0.0009     0.0001 </r>
       <r>   -20.2890     0.0346     0.0038 </r>
       <r>   -20.1823     0.2518     0.0306 </r>
       <r>   -20.0757     0.5297     0.0871 </r>
       <r>   -19.9691     0.5765     0.1486 </r>
       <r>   -19.8625     0.6307     0.2158 </r>
       <r>   -19.7559     0.5297     0.2723 </r>
       <r>   -19.6492     0.6856     0.3454 </r>
       <r>   -19.5426     0.5431     0.4033 </r>
       <r>   -19.4360     0.5356     0.4604 </r>
       <r>   -19.3294     0.7681     0.5423 </r>
       <r>   -19.2228     0.4971     0.5953 </r>
       <r>   -19.1162     0.4829     0.6468 </r>
       <r>   -19.0095     0.7771     0.7296 </r>
       <r>   -18.9029     0.6753     0.8016 </r>
       <r>   -18.7963     0.3884     0.8431 </r>
       <r>   -18.6897     0.5302     0.8996 </r>
       <r>   -18.5831     0.8863     0.9941 </r>
       <r>   -18.4765     0.5993     1.0580 </r>
       <r>   -18.3698     0.4900     1.1102 </r>
       <r>   -18.2632     0.3713     1.1498 </r>
       <r>   -18.1566     0.8115     1.2363 </r>
       <r>   -18.0500     0.8697     1.3290 </r>
       <r>   -17.9434     0.4772     1.3799 </r>
       <r>   -17.8368     0.4039     1.4230 </r>
       <r>   -17.7301     0.5175     1.4782 </r>
       <r>   -17.6235     0.7601     1.5592 </r>
       <r>   -17.5169     0.9033     1.6555 </r>
       <r>   -17.4103     0.8856     1.7499 </r>
       <r>   -17.3037     1.0683     1.8638 </r>
       <r>   -17.1971     1.3255     2.0051 </r>
       <r>   -17.0904     1.8867     2.2063 </r>
       <r>   -16.9838     2.1170     2.4320 </r>
       <r>   -16.8772     2.4599     2.6943 </r>
       <r>   -16.7706     2.6869     2.9807 </r>
       <r>   -16.6640     1.5363     3.1445 </r>
       <r>   -16.5574     0.3744     3.1845 </r>
       <r>   -16.4507     0.7992     3.2697 </r>
       <r>   -16.3441     1.1045     3.3874 </r>
       <r>   -16.2375     0.6097     3.4524 </r>
       <r>   -16.1309     0.5411     3.5101 </r>
       <r>   -16.0243     0.4836     3.5617 </r>
       <r>   -15.9176     0.5101     3.6161 </r>
       <r>   -15.8110     0.4214     3.6610 </r>
       <r>   -15.7044     0.9406     3.7613 </r>
       <r>   -15.5978     1.1044     3.8790 </r>
       <r>   -15.4912     0.5541     3.9381 </r>
       <r>   -15.3846     0.4927     3.9906 </r>
       <r>   -15.2779     0.4255     4.0360 </r>
       <r>   -15.1713     0.5564     4.0953 </r>
       <r>   -15.0647     0.8148     4.1822 </r>
       <r>   -14.9581     1.6063     4.3534 </r>
       <r>   -14.8515     2.4107     4.6105 </r>
       <r>   -14.7449     2.4577     4.8725 </r>
       <r>   -14.6382     2.0278     5.0887 </r>
       <r>   -14.5316     1.3892     5.2368 </r>
       <r>   -14.4250     1.0572     5.3495 </r>
       <r>   -14.3184     1.6297     5.5233 </r>
       <r>   -14.2118     2.0796     5.7450 </r>
       <r>   -14.1052     1.7385     5.9304 </r>
       <r>   -13.9985     1.3570     6.0750 </r>
       <r>   -13.8919     1.8030     6.2673 </r>
       <r>   -13.7853     2.4265     6.5260 </r>
       <r>   -13.6787     2.2737     6.7684 </r>
       <r>   -13.5721     2.1900     7.0019 </r>
       <r>   -13.4655     1.2635     7.1366 </r>
       <r>   -13.3588     0.7559     7.2172 </r>
       <r>   -13.2522     0.4513     7.2653 </r>
       <r>   -13.1456     0.4492     7.3132 </r>
       <r>   -13.0390     0.7939     7.3978 </r>
       <r>   -12.9324     0.9409     7.4982 </r>
       <r>   -12.8258     0.6298     7.5653 </r>
       <r>   -12.7191     0.7810     7.6486 </r>
       <r>   -12.6125     0.9290     7.7476 </r>
       <r>   -12.5059     0.7409     7.8266 </r>
       <r>   -12.3993     0.7141     7.9028 </r>
       <r>   -12.2927     0.4784     7.9538 </r>
       <r>   -12.1861     0.6405     8.0221 </r>
       <r>   -12.0794     1.0832     8.1375 </r>
       <r>   -11.9728     0.5687     8.1982 </r>
       <r>   -11.8662     0.3884     8.2396 </r>
       <r>   -11.7596     0.4424     8.2867 </r>
       <r>   -11.6530     0.6190     8.3528 </r>
       <r>   -11.5463     0.9070     8.4495 </r>
       <r>   -11.4397     0.6267     8.5163 </r>
       <r>   -11.3331     0.2397     8.5418 </r>
       <r>   -11.2265     0.4845     8.5935 </r>
       <r>   -11.1199     0.7449     8.6729 </r>
       <r>   -11.0133     0.6879     8.7462 </r>
       <r>   -10.9066     0.8701     8.8390 </r>
       <r>   -10.8000     0.9666     8.9421 </r>
       <r>   -10.6934     0.4293     8.9878 </r>
       <r>   -10.5868     1.0125     9.0958 </r>
       <r>   -10.4802     1.7668     9.2842 </r>
       <r>   -10.3736     1.9271     9.4896 </r>
       <r>   -10.2669     1.9822     9.7010 </r>
       <r>   -10.1603     2.0512     9.9196 </r>
       <r>   -10.0537     2.1637    10.1503 </r>
       <r>    -9.9471     2.0050    10.3641 </r>
       <r>    -9.8405     1.3633    10.5095 </r>
       <r>    -9.7339     1.3406    10.6524 </r>
       <r>    -9.6272     1.6910    10.8327 </r>
       <r>    -9.5206     1.3975    10.9817 </r>
       <r>    -9.4140     2.0719    11.2026 </r>
       <r>    -9.3074     2.5581    11.4753 </r>
       <r>    -9.2008     1.7586    11.6628 </r>
       <r>    -9.0942     1.1580    11.7863 </r>
       <r>    -8.9875     0.8404    11.8759 </r>
       <r>    -8.8809     2.1079    12.1006 </r>
       <r>    -8.7743     2.7715    12.3961 </r>
       <r>    -8.6677     1.6642    12.5735 </r>
       <r>    -8.5611     1.0613    12.6867 </r>
       <r>    -8.4545     1.5310    12.8499 </r>
       <r>    -8.3478     2.3945    13.1052 </r>
       <r>    -8.2412     2.2546    13.3456 </r>
       <r>    -8.1346     1.7080    13.5277 </r>
       <r>    -8.0280     2.1997    13.7622 </r>
       <r>    -7.9214     2.9138    14.0729 </r>
       <r>    -7.8148     3.1096    14.4044 </r>
       <r>    -7.7081     2.5237    14.6735 </r>
       <r>    -7.6015     1.5035    14.8338 </r>
       <r>    -7.4949     0.8578    14.9252 </r>
       <r>    -7.3883     1.9871    15.1371 </r>
       <r>    -7.2817     2.4357    15.3968 </r>
       <r>    -7.1750     1.7092    15.5790 </r>
       <r>    -7.0684     1.4434    15.7329 </r>
       <r>    -6.9618     1.9615    15.9420 </r>
       <r>    -6.8552     2.3123    16.1886 </r>
       <r>    -6.7486     2.4055    16.4450 </r>
       <r>    -6.6420     2.8701    16.7510 </r>
       <r>    -6.5353     2.6077    17.0290 </r>
       <r>    -6.4287     2.7645    17.3238 </r>
       <r>    -6.3221     2.2653    17.5653 </r>
       <r>    -6.2155     2.2837    17.8088 </r>
       <r>    -6.1089     3.2262    18.1528 </r>
       <r>    -6.0023     3.2814    18.5026 </r>
       <r>    -5.8956     3.8941    18.9178 </r>
       <r>    -5.7890     3.3568    19.2757 </r>
       <r>    -5.6824     2.4760    19.5397 </r>
       <r>    -5.5758     2.7318    19.8309 </r>
       <r>    -5.4692     4.1245    20.2707 </r>
       <r>    -5.3626     4.3265    20.7319 </r>
       <r>    -5.2559     2.6845    21.0182 </r>
       <r>    -5.1493     2.0995    21.2420 </r>
       <r>    -5.0427     1.3862    21.3898 </r>
       <r>    -4.9361     1.2687    21.5251 </r>
       <r>    -4.8295     1.7283    21.7093 </r>
       <r>    -4.7229     1.5348    21.8730 </r>
       <r>    -4.6162     1.0539    21.9853 </r>
       <r>    -4.5096     1.0971    22.1023 </r>
       <r>    -4.4030     1.8923    22.3041 </r>
       <r>    -4.2964     3.0619    22.6305 </r>
       <r>    -4.1898     2.9022    22.9399 </r>
       <r>    -4.0832     2.2260    23.1773 </r>
       <r>    -3.9765     2.4015    23.4333 </r>
       <r>    -3.8699     3.1638    23.7706 </r>
       <r>    -3.7633     2.5176    24.0390 </r>
       <r>    -3.6567     2.4680    24.3022 </r>
       <r>    -3.5501     2.5299    24.5719 </r>
       <r>    -3.4434     2.1198    24.7979 </r>
       <r>    -3.3368     1.5811    24.9665 </r>
       <r>    -3.2302     1.6291    25.1402 </r>
       <r>    -3.1236     2.3025    25.3856 </r>
       <r>    -3.0170     2.2575    25.6263 </r>
       <r>    -2.9104     1.5876    25.7956 </r>
       <r>    -2.8037     1.5824    25.9643 </r>
       <r>    -2.6971     1.1022    26.0818 </r>
       <r>    -2.5905     1.2089    26.2107 </r>
       <r>    -2.4839     2.0578    26.4301 </r>
       <r>    -2.3773     2.2829    26.6735 </r>
       <r>    -2.2707     0.7358    26.7519 </r>
       <r>    -2.1640     0.6712    26.8235 </r>
       <r>    -2.0574     1.2083    26.9523 </r>
       <r>    -1.9508     1.1800    27.0781 </r>
       <r>    -1.8442     1.3288    27.2198 </r>
       <r>    -1.7376     1.4016    27.3692 </r>
       <r>    -1.6310     1.3198    27.5100 </r>
       <r>    -1.5243     1.1366    27.6311 </r>
       <r>    -1.4177     0.4890    27.6833 </r>
       <r>    -1.3111     0.4968    27.7363 </r>
       <r>    -1.2045     0.5965    27.7998 </r>
       <r>    -1.0979     0.3911    27.8415 </r>
       <r>    -0.9913     0.6049    27.9060 </r>
       <r>    -0.8846     0.5813    27.9680 </r>
       <r>    -0.7780     0.1553    27.9846 </r>
       <r>    -0.6714     0.0142    27.9861 </r>
       <r>    -0.5648     0.0003    27.9861 </r>
       <r>    -0.4582     0.0008    27.9862 </r>
       <r>    -0.3516     0.0276    27.9891 </r>
       <r>    -0.2449     0.1301    28.0030 </r>
       <r>    -0.1383     0.0923    28.0129 </r>
       <r>    -0.0317     0.0096    28.0139 </r>
       <r>     0.0749     0.0001    28.0139 </r>
       <r>     0.1815     0.0002    28.0139 </r>
       <r>     0.2881     0.0215    28.0162 </r>
       <r>     0.3948     0.2460    28.0424 </r>
       <r>     0.5014     0.4094    28.0861 </r>
       <r>     0.6080     0.1633    28.1035 </r>
       <r>     0.7146     0.4816    28.1548 </r>
       <r>     0.8212     0.9078    28.2516 </r>
       <r>     0.9279     1.4802    28.4095 </r>
       <r>     1.0345     2.9537    28.7244 </r>
       <r>     1.1411     2.4055    28.9808 </r>
       <r>     1.2477     0.6099    29.0459 </r>
       <r>     1.3543     0.1234    29.0590 </r>
       <r>     1.4609     0.4785    29.1100 </r>
       <r>     1.5676     1.6898    29.2902 </r>
       <r>     1.6742     2.6309    29.5707 </r>
       <r>     1.7808     1.9309    29.7766 </r>
       <r>     1.8874     1.2853    29.9136 </r>
       <r>     1.9940     1.1071    30.0316 </r>
       <r>     2.1006     1.2791    30.1680 </r>
       <r>     2.2073     0.9227    30.2664 </r>
       <r>     2.3139     1.1231    30.3861 </r>
       <r>     2.4205     0.8609    30.4779 </r>
       <r>     2.5271     0.6980    30.5523 </r>
       <r>     2.6337     1.6764    30.7311 </r>
       <r>     2.7403     1.3940    30.8797 </r>
       <r>     2.8470     0.6820    30.9524 </r>
       <r>     2.9536     0.8073    31.0385 </r>
       <r>     3.0602     1.2173    31.1683 </r>
       <r>     3.1668     1.5779    31.3365 </r>
       <r>     3.2734     1.2387    31.4686 </r>
       <r>     3.3800     1.3606    31.6136 </r>
       <r>     3.4867     1.0252    31.7229 </r>
       <r>     3.5933     1.9629    31.9322 </r>
       <r>     3.6999     3.0303    32.2553 </r>
       <r>     3.8065     3.0463    32.5801 </r>
       <r>     3.9131     2.8246    32.8812 </r>
       <r>     4.0197     2.7019    33.1693 </r>
       <r>     4.1264     3.3016    33.5213 </r>
       <r>     4.2330     3.4380    33.8879 </r>
       <r>     4.3396     3.0196    34.2098 </r>
       <r>     4.4462     3.1035    34.5407 </r>
       <r>     4.5528     3.0485    34.8657 </r>
       <r>     4.6595     2.4909    35.1313 </r>
       <r>     4.7661     3.2218    35.4748 </r>
       <r>     4.8727     3.6668    35.8657 </r>
       <r>     4.9793     2.8782    36.1726 </r>
       <r>     5.0859     3.0514    36.4979 </r>
       <r>     5.1925     3.3126    36.8511 </r>
       <r>     5.2992     2.6611    37.1348 </r>
       <r>     5.4058     2.7004    37.4227 </r>
       <r>     5.5124     3.0409    37.7469 </r>
       <r>     5.6190     3.7295    38.1446 </r>
       <r>     5.7256     2.8785    38.4515 </r>
       <r>     5.8322     2.7168    38.7411 </r>
       <r>     5.9389     2.5275    39.0106 </r>
       <r>     6.0455     2.7672    39.3056 </r>
       <r>     6.1521     2.1474    39.5346 </r>
       <r>     6.2587     2.0606    39.7543 </r>
       <r>     6.3653     2.8876    40.0621 </r>
       <r>     6.4719     3.0515    40.3875 </r>
       <r>     6.5786     3.2785    40.7370 </r>
       <r>     6.6852     3.1996    41.0782 </r>
       <r>     6.7918     4.3069    41.5373 </r>
       <r>     6.8984     3.8095    41.9435 </r>
       <r>     7.0050     3.2335    42.2883 </r>
       <r>     7.1116     3.2460    42.6343 </r>
       <r>     7.2183     2.7727    42.9300 </r>
       <r>     7.3249     2.2115    43.1657 </r>
       <r>     7.4315     2.7771    43.4618 </r>
       <r>     7.5381     3.0336    43.7853 </r>
       <r>     7.6447     2.6496    44.0678 </r>
       <r>     7.7513     3.2473    44.4140 </r>
       <r>     7.8580     3.8980    44.8296 </r>
       <r>     7.9646     4.1492    45.2720 </r>
       <r>     8.0712     4.1445    45.7138 </r>
       <r>     8.1778     4.0968    46.1506 </r>
       <r>     8.2844     3.5109    46.5249 </r>
       <r>     8.3910     4.2643    46.9796 </r>
       <r>     8.4977     4.5661    47.4664 </r>
       <r>     8.6043     2.5672    47.7401 </r>
       <r>     8.7109     1.3531    47.8844 </r>
       <r>     8.8175     0.6391    47.9525 </r>
       <r>     8.9241     0.3664    47.9916 </r>
       <r>     9.0308     0.0762    47.9997 </r>
       <r>     9.1374     0.0028    48.0000 </r>
       <r>     9.2440     0.0000    48.0000 </r>
       <r>     9.3506     0.0000    48.0000 </r>
       <r>     9.4572     0.0000    48.0000 </r>
       <r>     9.5638     0.0000    48.0000 </r>
       <r>     9.6705     0.0000    48.0000 </r>
       <r>     9.7771     0.0000    48.0000 </r>
       <r>     9.8837     0.0000    48.0000 </r>
       <r>     9.9903     0.0000    48.0000 </r>
       <r>    10.0969     0.0000    48.0000 </r>
       <r>    10.2035     0.0000    48.0000 </r>
       <r>    10.3102     0.0000    48.0000 </r>
      </set>
     </set>
    </array>
   </total>
  </dos>
 </calculation>
 <structure name="finalpos" >
  <crystal>
   <varray name="basis" >
    <v>       4.19156295       2.42000000       0.00000000 </v>
    <v>      -4.19156295       2.42000000       0.00000000 </v>
    <v>       0.00000000       0.00000000      15.00000000 </v>
   </varray>
   <i name="volume">    304.30747048 </i>
   <varray name="rec_basis" >
    <v>       0.11928725       0.20661157       0.00000000 </v>
    <v>      -0.11928725       0.20661157       0.00000000 </v>
    <v>       0.00000000       0.00000000       0.06666667 </v>
   </varray>
  </crystal>
  <varray name="positions" >
   <v>       0.00437176       0.00290255       0.09956703 </v>
   <v>       0.35952937       0.00290984       0.10117067 </v>
   <v>       0.00438157       0.35805973       0.10117263 </v>
   <v>       0.64922391       0.64775232       0.10117746 </v>
   <v>       0.32810040       0.32662837       0.10091639 </v>
   <v>       0.68065874       0.00291030       0.10092512 </v>
   <v>       0.00438386       0.67918757       0.10092729 </v>
   <v>       0.16647611       0.33321518       0.33819935 </v>
   <v>       0.33316051       0.16653105       0.33820120 </v>
   <v>       0.16651450       0.83323896       0.33820378 </v>
   <v>       0.33316382       0.66655308       0.33809179 </v>
   <v>       0.66649780       0.33321794       0.33809174 </v>
   <v>       0.83318353       0.16656875       0.33820315 </v>
   <v>       0.66650070       0.83320283       0.33819974 </v>
   <v>       0.83314743       0.66655554       0.33819867 </v>
  </varray>
 </structure>
</modeling>
