Lattice                                 
           1
     4.338787    2.505000    0.000000
    -4.338787    2.505000    0.000000
     0.000000    0.000000   15.000000
   B    C 
     2    14
Direct configuration=     1
   0.33833034  0.66916432  0.10000000
   0.67165522  0.33584146  0.10000000
   0.16373946  0.31999962  0.10000000
   0.32250218  0.16126397  0.10000000
   0.16376430  0.84376384  0.10000000
   0.84623863  0.16123684  0.10000000
   0.68749850  0.84373000  0.10000000
   0.84626736  0.68499594  0.10000000
   0.16666600  0.33333300  0.32880000
   0.33333300  0.16666600  0.32880000
   0.16666600  0.83333300  0.32880000
   0.33333300  0.66666600  0.32880000
   0.66666600  0.33333300  0.32880000
   0.83333300  0.16666600  0.32880000
   0.66666600  0.83333300  0.32880000
   0.83333300  0.66666600  0.32880000
Direct configuration=     2
   0.33832890  0.66916333  0.10014486
   0.67167776  0.33581160  0.10014485
   0.16796558  0.32846406  0.09995113
   0.33095984  0.16548891  0.09995077
   0.16799707  0.83952031  0.09995114
   0.84199638  0.16546564  0.09995158
   0.67905760  0.83952938  0.09995176
   0.84202222  0.67655731  0.09995156
   0.16636345  0.33272406  0.32886721
   0.33272365  0.16636246  0.32886781
   0.16636349  0.83363720  0.32886721
   0.33332692  0.66666410  0.32860161
   0.66666152  0.33332970  0.32860162
   0.83363700  0.16636413  0.32886587
   0.66727364  0.83363575  0.32886513
   0.83363697  0.66727406  0.32886589
Direct configuration=     3
   0.33832997  0.66916407  0.10003730
   0.67166102  0.33583377  0.10003730
   0.16482775  0.32217933  0.09998741
   0.32468015  0.16235195  0.09998732
   0.16485430  0.84267107  0.09998742
   0.84514619  0.16232582  0.09998753
   0.68532485  0.84264828  0.09998758
   0.84517417  0.68282288  0.09998753
   0.16658809  0.33317619  0.32881731
   0.33317608  0.16658783  0.32881746
   0.16658810  0.83341134  0.32881731
   0.33333143  0.66666551  0.32874891
   0.66666485  0.33333215  0.32874891
   0.83341128  0.16658826  0.32881696
   0.66682248  0.83341096  0.32881677
   0.83341128  0.66682258  0.32881697
Direct configuration=     4
   0.33832997  0.66916407  0.10003727
   0.67166101  0.33583378  0.10003727
   0.16482667  0.32217718  0.09998743
   0.32467800  0.16235087  0.09998733
   0.16485322  0.84267215  0.09998743
   0.84514727  0.16232474  0.09998754
   0.68532700  0.84264935  0.09998759
   0.84517525  0.68282502  0.09998754
   0.16658817  0.33317635  0.32881729
   0.33317624  0.16658791  0.32881744
   0.16658818  0.83341126  0.32881729
   0.33333144  0.66666551  0.32874896
   0.66666485  0.33333215  0.32874896
   0.83341121  0.16658834  0.32881695
   0.66682232  0.83341088  0.32881676
   0.83341120  0.66682243  0.32881695
Direct configuration=     5
   0.33833503  0.66916457  0.10013501
   0.67166573  0.33583063  0.10013500
   0.16482209  0.32216728  0.09995486
   0.32466918  0.16234093  0.09995451
   0.16484082  0.84267308  0.09995486
   0.84516238  0.16232790  0.09995536
   0.68533235  0.84266222  0.09995550
   0.84517885  0.68283448  0.09995536
   0.16655483  0.33311121  0.32886063
   0.33311054  0.16655495  0.32886119
   0.16655482  0.83344331  0.32886063
   0.33333034  0.66666485  0.32861982
   0.66666364  0.33333165  0.32861982
   0.83344273  0.16655554  0.32885938
   0.66688593  0.83344281  0.32885868
   0.83344274  0.66688658  0.32885938
Direct configuration=     6
   0.33833699  0.66916477  0.10017300
   0.67166756  0.33582941  0.10017299
   0.16482031  0.32216343  0.09994220
   0.32466575  0.16233706  0.09994175
   0.16483600  0.84267344  0.09994221
   0.84516826  0.16232912  0.09994285
   0.68533442  0.84266722  0.09994303
   0.84518025  0.68283816  0.09994285
   0.16654187  0.33308590  0.32887747
   0.33308501  0.16654215  0.32887819
   0.16654186  0.83345577  0.32887747
   0.33332992  0.66666460  0.32856963
   0.66666317  0.33333146  0.32856963
   0.83345498  0.16654279  0.32887587
   0.66691066  0.83345522  0.32887497
   0.83345500  0.66691151  0.32887587
Direct configuration=     7
   0.33831917  0.66916600  0.10024386
   0.67166466  0.33583677  0.10024385
   0.16486251  0.32218051  0.09991994
   0.32467378  0.16234574  0.09991914
   0.16485475  0.84266437  0.09991994
   0.84514793  0.16232557  0.09992115
   0.68535175  0.84265876  0.09992148
   0.84514606  0.68283025  0.09992110
   0.16663527  0.33327439  0.32888920
   0.33327291  0.16663661  0.32889025
   0.16663528  0.83335976  0.32888920
   0.33332875  0.66666453  0.32853072
   0.66666250  0.33333071  0.32853072
   0.83335829  0.16663685  0.32888690
   0.66672013  0.83335951  0.32888565
   0.83335826  0.66672167  0.32888690
Direct configuration=     8
   0.33833014  0.66916524  0.10020022
   0.67166644  0.33583224  0.10020021
   0.16483653  0.32216999  0.09993365
   0.32466883  0.16234039  0.09993307
   0.16484320  0.84266996  0.09993365
   0.84516045  0.16232776  0.09993452
   0.68534108  0.84266397  0.09993475
   0.84516711  0.68283512  0.09993450
   0.16657775  0.33315831  0.32888198
   0.33315719  0.16657843  0.32888282
   0.16657775  0.83341888  0.32888198
   0.33332947  0.66666457  0.32855468
   0.66666291  0.33333117  0.32855468
   0.83341783  0.16657893  0.32888011
   0.66683746  0.83341845  0.32887908
   0.83341784  0.66683858  0.32888011
Direct configuration=     9
   0.33833030  0.66916523  0.10019959
   0.67166647  0.33583217  0.10019958
   0.16483615  0.32216984  0.09993385
   0.32466876  0.16234032  0.09993327
   0.16484304  0.84267004  0.09993385
   0.84516063  0.16232779  0.09993471
   0.68534092  0.84266405  0.09993495
   0.84516742  0.68283519  0.09993469
   0.16657692  0.33315663  0.32888187
   0.33315552  0.16657759  0.32888271
   0.16657692  0.83341974  0.32888188
   0.33332948  0.66666457  0.32855503
   0.66666292  0.33333118  0.32855503
   0.83341870  0.16657809  0.32888001
   0.66683916  0.83341930  0.32887898
   0.83341870  0.66684027  0.32888001
Direct configuration=    10
   0.33833023  0.66916524  0.10019989
   0.67166646  0.33583220  0.10019988
   0.16483633  0.32216992  0.09993375
   0.32466880  0.16234035  0.09993317
   0.16484312  0.84267000  0.09993376
   0.84516054  0.16232777  0.09993462
   0.68534100  0.84266401  0.09993485
   0.84516727  0.68283515  0.09993460
   0.16657732  0.33315744  0.32888192
   0.33315632  0.16657800  0.32888276
   0.16657732  0.83341933  0.32888193
   0.33332947  0.66666457  0.32855487
   0.66666292  0.33333118  0.32855486
   0.83341828  0.16657849  0.32888006
   0.66683835  0.83341889  0.32887903
   0.83341829  0.66683946  0.32888006
Direct configuration=    11
   0.33834009  0.66916790  0.10022569
   0.67166030  0.33583389  0.10022569
   0.16482048  0.32216748  0.09992634
   0.32467887  0.16233330  0.09992553
   0.16482664  0.84266791  0.09992634
   0.84518146  0.16233629  0.09992760
   0.68532561  0.84266743  0.09992805
   0.84518841  0.68283441  0.09992759
   0.16657606  0.33315672  0.32887684
   0.33315509  0.16657725  0.32887783
   0.16657607  0.83341909  0.32887684
   0.33332850  0.66666395  0.32856641
   0.66666178  0.33333077  0.32856640
   0.83341753  0.16657772  0.32887468
   0.66683761  0.83341869  0.32887350
   0.83341752  0.66683919  0.32887467
Direct configuration=    12
   0.33834038  0.66916798  0.10022647
   0.67166011  0.33583394  0.10022646
   0.16482000  0.32216741  0.09992612
   0.32467917  0.16233308  0.09992531
   0.16482614  0.84266785  0.09992612
   0.84518209  0.16233655  0.09992739
   0.68532515  0.84266753  0.09992784
   0.84518905  0.68283438  0.09992738
   0.16657602  0.33315670  0.32887668
   0.33315506  0.16657723  0.32887768
   0.16657603  0.83341909  0.32887669
   0.33332847  0.66666394  0.32856675
   0.66666174  0.33333076  0.32856675
   0.83341750  0.16657769  0.32887452
   0.66683759  0.83341868  0.32887334
   0.83341750  0.66683918  0.32887451
Direct configuration=    13
   0.33833656  0.66916797  0.10023871
   0.67166460  0.33583396  0.10023870
   0.16483077  0.32216815  0.09992277
   0.32467389  0.16233416  0.09992181
   0.16483364  0.84266846  0.09992277
   0.84517536  0.16233538  0.09992428
   0.68533317  0.84266790  0.09992484
   0.84517900  0.68283515  0.09992427
   0.16657360  0.33315275  0.32887396
   0.33315080  0.16657512  0.32887503
   0.16657361  0.83342059  0.32887396
   0.33332785  0.66666365  0.32857260
   0.66666114  0.33333044  0.32857259
   0.83341871  0.16657560  0.32887165
   0.66684062  0.83342018  0.32887040
   0.83341870  0.66684254  0.32887165
Direct configuration=    14
   0.33833424  0.66916796  0.10024612
   0.67166732  0.33583396  0.10024612
   0.16483730  0.32216860  0.09992074
   0.32467070  0.16233481  0.09991970
   0.16483817  0.84266883  0.09992074
   0.84517128  0.16233467  0.09992240
   0.68533803  0.84266813  0.09992303
   0.84517292  0.68283562  0.09992239
   0.16657213  0.33315035  0.32887231
   0.33314822  0.16657385  0.32887342
   0.16657214  0.83342151  0.32887231
   0.33332747  0.66666348  0.32857614
   0.66666077  0.33333025  0.32857613
   0.83341944  0.16657433  0.32886991
   0.66684245  0.83342109  0.32886863
   0.83341943  0.66684457  0.32886991
Direct configuration=    15
   0.33833435  0.66916796  0.10024578
   0.67166719  0.33583396  0.10024577
   0.16483699  0.32216858  0.09992084
   0.32467084  0.16233478  0.09991980
   0.16483796  0.84266881  0.09992083
   0.84517147  0.16233470  0.09992249
   0.68533780  0.84266812  0.09992311
   0.84517320  0.68283560  0.09992248
   0.16657220  0.33315046  0.32887239
   0.33314834  0.16657391  0.32887350
   0.16657221  0.83342146  0.32887239
   0.33332749  0.66666349  0.32857597
   0.66666079  0.33333026  0.32857597
   0.83341941  0.16657439  0.32886999
   0.66684237  0.83342105  0.32886871
   0.83341940  0.66684448  0.32886999
Direct configuration=    16
   0.33833455  0.66916796  0.10024514
   0.67166696  0.33583396  0.10024514
   0.16483643  0.32216854  0.09992101
   0.32467112  0.16233472  0.09991998
   0.16483757  0.84266878  0.09992101
   0.84517182  0.16233476  0.09992265
   0.68533738  0.84266810  0.09992327
   0.84517372  0.68283556  0.09992264
   0.16657232  0.33315067  0.32887253
   0.33314856  0.16657402  0.32887364
   0.16657233  0.83342138  0.32887253
   0.33332752  0.66666350  0.32857567
   0.66666082  0.33333028  0.32857567
   0.83341935  0.16657450  0.32887014
   0.66684221  0.83342097  0.32886886
   0.83341933  0.66684430  0.32887014
Direct configuration=    17
   0.33833442  0.66916796  0.10024556
   0.67166711  0.33583396  0.10024555
   0.16483680  0.32216856  0.09992090
   0.32467094  0.16233476  0.09991986
   0.16483783  0.84266880  0.09992089
   0.84517159  0.16233472  0.09992255
   0.68533766  0.84266811  0.09992316
   0.84517338  0.68283558  0.09992253
   0.16657224  0.33315053  0.32887244
   0.33314841  0.16657395  0.32887354
   0.16657225  0.83342144  0.32887243
   0.33332750  0.66666349  0.32857587
   0.66666080  0.33333027  0.32857586
   0.83341939  0.16657443  0.32887004
   0.66684231  0.83342102  0.32886876
   0.83341938  0.66684442  0.32887004
Direct configuration=    18
   0.33833440  0.66916796  0.10024560
   0.67166713  0.33583396  0.10024560
   0.16483684  0.32216857  0.09992089
   0.32467092  0.16233476  0.09991985
   0.16483786  0.84266880  0.09992088
   0.84517156  0.16233472  0.09992253
   0.68533769  0.84266812  0.09992315
   0.84517334  0.68283559  0.09992252
   0.16657223  0.33315052  0.32887243
   0.33314840  0.16657394  0.32887354
   0.16657224  0.83342144  0.32887242
   0.33332750  0.66666349  0.32857589
   0.66666079  0.33333026  0.32857589
   0.83341939  0.16657442  0.32887003
   0.66684232  0.83342103  0.32886875
   0.83341938  0.66684443  0.32887003
Direct configuration=    19
   0.33833433  0.66916728  0.10024523
   0.67166721  0.33583353  0.10024523
   0.16483726  0.32216966  0.09992126
   0.32467230  0.16233607  0.09992019
   0.16483815  0.84266802  0.09992126
   0.84517082  0.16233380  0.09992300
   0.68533928  0.84266875  0.09992366
   0.84517205  0.68283616  0.09992299
   0.16657215  0.33315055  0.32887236
   0.33314831  0.16657396  0.32887347
   0.16657216  0.83342122  0.32887236
   0.33332727  0.66666344  0.32857519
   0.66666064  0.33333013  0.32857519
   0.83341905  0.16657445  0.32886997
   0.66684196  0.83342079  0.32886869
   0.83341904  0.66684419  0.32886997
