   8   8   0  16
  0.4338553E+02  0.5169000E-09  0.5169000E-09  0.1500000E-08  0.5000000E-15
  1.000000000000000E-004
  CAR 
 Lattice                                 
     12.51463966    -21.42764039  301     -3.47919756      1.00000000
    -21.428  0.0000E+00  0.0000E+00
    -21.314  0.0000E+00  0.0000E+00
    -21.201  0.0000E+00  0.0000E+00
    -21.088  0.0000E+00  0.0000E+00
    -20.975  0.0000E+00  0.0000E+00
    -20.862  0.0000E+00  0.0000E+00
    -20.749  0.0000E+00  0.0000E+00
    -20.636  0.0000E+00  0.0000E+00
    -20.523  0.0000E+00  0.0000E+00
    -20.409  0.3484E-16  0.3942E-17
    -20.296  0.2186E-11  0.2474E-12
    -20.183  0.1201E-07  0.1359E-08
    -20.070  0.6253E-05  0.7088E-06
    -19.957  0.3609E-03  0.4154E-04
    -19.844  0.3124E-02  0.3950E-03
    -19.731  0.6871E-02  0.1172E-02
    -19.617  0.8294E-02  0.2111E-02
    -19.504  0.9596E-02  0.3197E-02
    -19.391  0.1276E-01  0.4640E-02
    -19.278  0.1680E-01  0.6542E-02
    -19.165  0.9813E-02  0.7652E-02
    -19.052  0.1387E-02  0.7809E-02
    -18.939  0.3257E-04  0.7812E-02
    -18.825  0.9276E-07  0.7812E-02
    -18.712  0.2623E-10  0.7812E-02
    -18.599  0.6649E-15  0.7812E-02
    -18.486  0.0000E+00  0.7812E-02
    -18.373  0.0000E+00  0.7812E-02
    -18.260  0.0000E+00  0.7812E-02
    -18.147  0.2297E-16  0.7812E-02
    -18.033  0.1763E-11  0.7813E-02
    -17.920  0.1142E-07  0.7813E-02
    -17.807  0.6799E-05  0.7813E-02
    -17.694  0.4417E-03  0.7863E-02
    -17.581  0.4254E-02  0.8345E-02
    -17.468  0.1037E-01  0.9518E-02
    -17.355  0.1254E-01  0.1094E-01
    -17.241  0.9490E-02  0.1201E-01
    -17.128  0.7300E-02  0.1284E-01
    -17.015  0.7368E-02  0.1367E-01
    -16.902  0.7570E-02  0.1453E-01
    -16.789  0.8439E-02  0.1548E-01
    -16.676  0.8781E-02  0.1647E-01
    -16.563  0.1094E-01  0.1771E-01
    -16.449  0.1332E-01  0.1922E-01
    -16.336  0.1301E-01  0.2069E-01
    -16.223  0.9439E-02  0.2176E-01
    -16.110  0.7572E-02  0.2261E-01
    -15.997  0.5341E-02  0.2322E-01
    -15.884  0.1796E-02  0.2342E-01
    -15.771  0.1331E-03  0.2344E-01
    -15.657  0.1417E-05  0.2344E-01
    -15.544  0.1660E-08  0.2344E-01
    -15.431  0.1831E-12  0.2344E-01
    -15.318  0.1724E-17  0.2344E-01
    -15.205  0.0000E+00  0.2344E-01
    -15.092  0.0000E+00  0.2344E-01
    -14.979  0.0000E+00  0.2344E-01
    -14.865  0.0000E+00  0.2344E-01
    -14.752  0.6366E-18  0.2344E-01
    -14.639  0.8620E-13  0.2344E-01
    -14.526  0.1003E-08  0.2344E-01
    -14.413  0.1046E-05  0.2344E-01
    -14.300  0.1140E-03  0.2345E-01
    -14.187  0.1803E-02  0.2365E-01
    -14.073  0.6310E-02  0.2437E-01
    -13.960  0.8183E-02  0.2529E-01
    -13.847  0.1075E-01  0.2651E-01
    -13.734  0.1249E-01  0.2792E-01
    -13.621  0.1260E-01  0.2935E-01
    -13.508  0.8782E-02  0.3034E-01
    -13.395  0.5146E-02  0.3092E-01
    -13.281  0.6539E-02  0.3166E-01
    -13.168  0.5088E-02  0.3224E-01
    -13.055  0.5312E-02  0.3284E-01
    -12.942  0.4530E-02  0.3335E-01
    -12.829  0.5794E-02  0.3401E-01
    -12.716  0.5743E-02  0.3466E-01
    -12.603  0.7341E-02  0.3549E-01
    -12.490  0.8738E-02  0.3648E-01
    -12.376  0.5715E-02  0.3712E-01
    -12.263  0.7193E-02  0.3794E-01
    -12.150  0.5551E-02  0.3857E-01
    -12.037  0.5886E-02  0.3923E-01
    -11.924  0.4926E-02  0.3979E-01
    -11.811  0.3085E-02  0.4014E-01
    -11.698  0.2941E-02  0.4047E-01
    -11.584  0.1613E-02  0.4065E-01
    -11.471  0.8094E-03  0.4075E-01
    -11.358  0.2501E-02  0.4103E-01
    -11.245  0.3161E-02  0.4139E-01
    -11.132  0.2198E-02  0.4163E-01
    -11.019  0.2139E-02  0.4188E-01
    -10.906  0.5344E-02  0.4248E-01
    -10.792  0.5672E-02  0.4312E-01
    -10.679  0.5590E-02  0.4376E-01
    -10.566  0.4811E-02  0.4430E-01
    -10.453  0.8887E-02  0.4531E-01
    -10.340  0.9041E-02  0.4633E-01
    -10.227  0.7882E-02  0.4722E-01
    -10.114  0.6529E-02  0.4796E-01
    -10.000  0.5783E-02  0.4861E-01
     -9.887  0.7426E-02  0.4945E-01
     -9.774  0.9542E-02  0.5053E-01
     -9.661  0.9982E-02  0.5166E-01
     -9.548  0.8188E-02  0.5259E-01
     -9.435  0.8082E-02  0.5350E-01
     -9.322  0.8569E-02  0.5447E-01
     -9.208  0.5723E-02  0.5512E-01
     -9.095  0.8717E-02  0.5611E-01
     -8.982  0.9288E-02  0.5716E-01
     -8.869  0.1018E-01  0.5831E-01
     -8.756  0.1002E-01  0.5944E-01
     -8.643  0.1035E-01  0.6061E-01
     -8.530  0.1118E-01  0.6188E-01
     -8.416  0.1096E-01  0.6312E-01
     -8.303  0.8941E-02  0.6413E-01
     -8.190  0.7325E-02  0.6496E-01
     -8.077  0.8766E-02  0.6595E-01
     -7.964  0.1159E-01  0.6726E-01
     -7.851  0.1387E-01  0.6883E-01
     -7.738  0.1836E-01  0.7091E-01
     -7.624  0.1638E-01  0.7276E-01
     -7.511  0.1467E-01  0.7442E-01
     -7.398  0.9813E-02  0.7553E-01
     -7.285  0.6848E-02  0.7631E-01
     -7.172  0.7881E-02  0.7720E-01
     -7.059  0.7710E-02  0.7807E-01
     -6.946  0.6596E-02  0.7882E-01
     -6.832  0.6224E-02  0.7952E-01
     -6.719  0.6649E-02  0.8027E-01
     -6.606  0.1019E-01  0.8143E-01
     -6.493  0.1621E-01  0.8326E-01
     -6.380  0.2700E-01  0.8632E-01
     -6.267  0.3016E-01  0.8973E-01
     -6.154  0.2032E-01  0.9203E-01
     -6.040  0.1366E-01  0.9357E-01
     -5.927  0.9160E-02  0.9461E-01
     -5.814  0.8968E-02  0.9562E-01
     -5.701  0.9922E-02  0.9675E-01
     -5.588  0.9961E-02  0.9787E-01
     -5.475  0.8938E-02  0.9889E-01
     -5.362  0.1236E-01  0.1003E+00
     -5.248  0.1127E-01  0.1016E+00
     -5.135  0.1243E-01  0.1030E+00
     -5.022  0.1555E-01  0.1047E+00
     -4.909  0.1662E-01  0.1066E+00
     -4.796  0.1786E-01  0.1086E+00
     -4.683  0.1777E-01  0.1106E+00
     -4.570  0.1741E-01  0.1126E+00
     -4.457  0.1143E-01  0.1139E+00
     -4.343  0.6788E-02  0.1147E+00
     -4.230  0.5074E-02  0.1152E+00
     -4.117  0.4590E-02  0.1158E+00
     -4.004  0.4565E-02  0.1163E+00
     -3.891  0.4239E-02  0.1168E+00
     -3.778  0.3005E-02  0.1171E+00
     -3.665  0.7666E-03  0.1172E+00
     -3.551  0.3690E-04  0.1172E+00
     -3.438  0.2815E-06  0.1172E+00
     -3.325  0.1285E-04  0.1172E+00
     -3.212  0.4284E-03  0.1172E+00
     -3.099  0.2585E-02  0.1175E+00
     -2.986  0.5829E-02  0.1182E+00
     -2.873  0.5952E-02  0.1189E+00
     -2.759  0.7380E-02  0.1197E+00
     -2.646  0.1128E-01  0.1210E+00
     -2.533  0.8452E-02  0.1219E+00
     -2.420  0.7459E-02  0.1228E+00
     -2.307  0.6137E-02  0.1235E+00
     -2.194  0.3256E-02  0.1238E+00
     -2.081  0.3108E-02  0.1242E+00
     -1.967  0.3186E-02  0.1245E+00
     -1.854  0.1375E-02  0.1247E+00
     -1.741  0.9360E-03  0.1248E+00
     -1.628  0.8031E-03  0.1249E+00
     -1.515  0.7470E-03  0.1250E+00
     -1.402  0.1281E-03  0.1250E+00
     -1.289  0.2315E-04  0.1250E+00
     -1.175  0.3820E-03  0.1250E+00
     -1.062  0.8881E-03  0.1251E+00
     -0.949  0.8573E-03  0.1252E+00
     -0.836  0.8947E-03  0.1253E+00
     -0.723  0.1885E-02  0.1256E+00
     -0.610  0.2705E-02  0.1259E+00
     -0.497  0.1610E-02  0.1260E+00
     -0.383  0.2800E-02  0.1264E+00
     -0.270  0.6597E-02  0.1271E+00
     -0.157  0.7813E-02  0.1280E+00
     -0.044  0.1119E-01  0.1293E+00
      0.069  0.1026E-01  0.1304E+00
      0.182  0.6491E-02  0.1312E+00
      0.295  0.5197E-02  0.1317E+00
      0.409  0.5395E-02  0.1324E+00
      0.522  0.5894E-02  0.1330E+00
      0.635  0.5998E-02  0.1337E+00
      0.748  0.4793E-02  0.1342E+00
      0.861  0.4222E-02  0.1347E+00
      0.974  0.7161E-02  0.1355E+00
      1.087  0.6480E-02  0.1363E+00
      1.201  0.8529E-02  0.1372E+00
      1.314  0.7147E-02  0.1380E+00
      1.427  0.8406E-02  0.1390E+00
      1.540  0.9613E-02  0.1401E+00
      1.653  0.8147E-02  0.1410E+00
      1.766  0.9917E-02  0.1421E+00
      1.879  0.1118E-01  0.1434E+00
      1.993  0.1015E-01  0.1445E+00
      2.106  0.1114E-01  0.1458E+00
      2.219  0.1270E-01  0.1472E+00
      2.332  0.1457E-01  0.1489E+00
      2.445  0.1456E-01  0.1505E+00
      2.558  0.1444E-01  0.1522E+00
      2.671  0.1363E-01  0.1537E+00
      2.785  0.1837E-01  0.1558E+00
      2.898  0.1403E-01  0.1574E+00
      3.011  0.1310E-01  0.1588E+00
      3.124  0.1594E-01  0.1607E+00
      3.237  0.1501E-01  0.1624E+00
      3.350  0.1501E-01  0.1640E+00
      3.463  0.1496E-01  0.1657E+00
      3.577  0.1350E-01  0.1673E+00
      3.690  0.1594E-01  0.1691E+00
      3.803  0.1516E-01  0.1708E+00
      3.916  0.1461E-01  0.1724E+00
      4.029  0.1579E-01  0.1742E+00
      4.142  0.1399E-01  0.1758E+00
      4.255  0.1365E-01  0.1774E+00
      4.368  0.1466E-01  0.1790E+00
      4.482  0.1721E-01  0.1810E+00
      4.595  0.2051E-01  0.1833E+00
      4.708  0.1964E-01  0.1855E+00
      4.821  0.1858E-01  0.1876E+00
      4.934  0.2095E-01  0.1900E+00
      5.047  0.2270E-01  0.1925E+00
      5.160  0.2661E-01  0.1956E+00
      5.274  0.2593E-01  0.1985E+00
      5.387  0.2837E-01  0.2017E+00
      5.500  0.3143E-01  0.2053E+00
      5.613  0.3097E-01  0.2088E+00
      5.726  0.2207E-01  0.2113E+00
      5.839  0.2648E-01  0.2142E+00
      5.952  0.3240E-01  0.2179E+00
      6.066  0.3035E-01  0.2213E+00
      6.179  0.2647E-01  0.2243E+00
      6.292  0.2501E-01  0.2272E+00
      6.405  0.3125E-01  0.2307E+00
      6.518  0.2964E-01  0.2341E+00
      6.631  0.2579E-01  0.2370E+00
      6.744  0.3040E-01  0.2404E+00
      6.858  0.3958E-01  0.2449E+00
      6.971  0.3971E-01  0.2494E+00
      7.084  0.3263E-01  0.2531E+00
      7.197  0.3197E-01  0.2567E+00
      7.310  0.3409E-01  0.2606E+00
      7.423  0.3271E-01  0.2643E+00
      7.536  0.2823E-01  0.2674E+00
      7.650  0.3146E-01  0.2710E+00
      7.763  0.3590E-01  0.2751E+00
      7.876  0.3294E-01  0.2788E+00
      7.989  0.3547E-01  0.2828E+00
      8.102  0.3746E-01  0.2870E+00
      8.215  0.3461E-01  0.2910E+00
      8.328  0.2810E-01  0.2941E+00
      8.442  0.3112E-01  0.2977E+00
      8.555  0.3383E-01  0.3015E+00
      8.668  0.3232E-01  0.3051E+00
      8.781  0.2844E-01  0.3084E+00
      8.894  0.2607E-01  0.3113E+00
      9.007  0.2853E-01  0.3145E+00
      9.120  0.3123E-01  0.3181E+00
      9.234  0.3007E-01  0.3215E+00
      9.347  0.3733E-01  0.3257E+00
      9.460  0.3930E-01  0.3302E+00
      9.573  0.3951E-01  0.3346E+00
      9.686  0.3968E-01  0.3391E+00
      9.799  0.4016E-01  0.3437E+00
      9.912  0.3720E-01  0.3479E+00
     10.026  0.3064E-01  0.3513E+00
     10.139  0.2715E-01  0.3544E+00
     10.252  0.2374E-01  0.3571E+00
     10.365  0.2457E-01  0.3599E+00
     10.478  0.2830E-01  0.3631E+00
     10.591  0.2835E-01  0.3663E+00
     10.704  0.2856E-01  0.3695E+00
     10.818  0.2445E-01  0.3723E+00
     10.931  0.1621E-01  0.3741E+00
     11.044  0.6938E-02  0.3749E+00
     11.157  0.9217E-03  0.3750E+00
     11.270  0.2009E-04  0.3750E+00
     11.383  0.4795E-07  0.3750E+00
     11.496  0.1050E-10  0.3750E+00
     11.610  0.1962E-15  0.3750E+00
     11.723  0.0000E+00  0.3750E+00
     11.836  0.0000E+00  0.3750E+00
     11.949  0.0000E+00  0.3750E+00
     12.062  0.0000E+00  0.3750E+00
     12.175  0.0000E+00  0.3750E+00
     12.288  0.0000E+00  0.3750E+00
     12.401  0.0000E+00  0.3750E+00
     12.515  0.0000E+00  0.3750E+00
