       N       E                     dE             d eps       ncg     rms          rms(c)
DAV:   1     0.937909046499E+02    0.93791E+02   -0.12366E+04 13920   0.414E+02
DAV:   2    -0.675052806063E+02   -0.16130E+03   -0.16044E+03 17712   0.860E+01
DAV:   3    -0.734238979774E+02   -0.59186E+01   -0.59186E+01 25056   0.217E+01
DAV:   4    -0.734312917467E+02   -0.73938E-02   -0.73938E-02 17040   0.778E-01
DAV:   5    -0.734313049567E+02   -0.13210E-04   -0.13210E-04 24096   0.384E-02    0.131E+01
DAV:   6    -0.689924856189E+02    0.44388E+01   -0.58707E+00 24192   0.520E+00    0.745E+00
DAV:   7    -0.673335344102E+02    0.16590E+01   -0.39195E+00 26208   0.431E+00    0.214E+00
DAV:   8    -0.672504009689E+02    0.83133E-01   -0.17477E-01 25296   0.905E-01    0.602E-01
DAV:   9    -0.672312266957E+02    0.19174E-01   -0.12596E-02 25680   0.320E-01    0.172E-01
DAV:  10    -0.672217722254E+02    0.94545E-02   -0.99495E-03 23616   0.174E-01    0.918E-02
DAV:  11    -0.672204026158E+02    0.13696E-02   -0.36607E-03 21936   0.107E-01    0.561E-02
DAV:  12    -0.672204185526E+02   -0.15937E-04   -0.94062E-04 18624   0.610E-02    0.282E-02
DAV:  13    -0.672236044955E+02   -0.31859E-02   -0.61778E-04 22368   0.410E-02    0.147E-02
DAV:  14    -0.672246902971E+02   -0.10858E-02   -0.10964E-04 22368   0.157E-02    0.109E-02
DAV:  15    -0.672257261336E+02   -0.10358E-02   -0.17044E-04 20160   0.163E-02    0.338E-03
DAV:  16    -0.672258819614E+02   -0.15583E-03   -0.10533E-05 22560   0.437E-03    0.239E-03
DAV:  17    -0.672259344242E+02   -0.52463E-04   -0.21500E-06 17232   0.230E-03    0.302E-04
DAV:  18    -0.672259385939E+02   -0.41697E-05   -0.76014E-08 21024   0.494E-04    0.179E-04
DAV:  19    -0.672259398840E+02   -0.12900E-05   -0.36358E-08 15456   0.257E-04    0.247E-05
DAV:  20    -0.672259399970E+02   -0.11305E-06   -0.13510E-09 21888   0.608E-05
   1 F= -.67904277E+02 E0= -.67904277E+02  d E =-.679043E+02
       N       E                     dE             d eps       ncg     rms          rms(c)
DAV:   1    -0.672243655031E+02    0.15744E-02   -0.32721E+00 14352   0.533E+00    0.497E-01
DAV:   2    -0.672160543501E+02    0.83112E-02   -0.54588E-02 25536   0.652E-01    0.223E-01
DAV:   3    -0.672156607377E+02    0.39361E-03   -0.39635E-03 17424   0.185E-01    0.110E-01
DAV:   4    -0.672156635391E+02   -0.28014E-05   -0.46996E-04 18528   0.598E-02    0.221E-02
DAV:   5    -0.672156657094E+02   -0.21703E-05   -0.25369E-05 22848   0.137E-02    0.635E-03
DAV:   6    -0.672156672232E+02   -0.15138E-05   -0.31567E-06 15456   0.551E-03    0.217E-03
DAV:   7    -0.672156685028E+02   -0.12796E-05   -0.26902E-07 17952   0.152E-03    0.612E-04
DAV:   8    -0.672156701457E+02   -0.16429E-05   -0.10209E-07 14640   0.656E-04    0.359E-04
DAV:   9    -0.672156715703E+02   -0.14247E-05   -0.69479E-08 17136   0.362E-04    0.357E-04
DAV:  10    -0.672156728465E+02   -0.12761E-05   -0.91461E-08 21696   0.368E-04    0.214E-04
DAV:  11    -0.672156735815E+02   -0.73507E-06   -0.65160E-09 24720   0.132E-04
   2 F= -.67893017E+02 E0= -.67893017E+02  d E =0.112594E-01
       N       E                     dE             d eps       ncg     rms          rms(c)
DAV:   1    -0.672336188595E+02   -0.17946E-01   -0.14863E+00 13968   0.360E+00    0.335E-01
DAV:   2    -0.672298323880E+02    0.37865E-02   -0.25197E-02 25296   0.442E-01    0.151E-01
DAV:   3    -0.672296707828E+02    0.16161E-03   -0.17406E-03 24480   0.123E-01    0.759E-02
DAV:   4    -0.672296744285E+02   -0.36457E-05   -0.16836E-04 24288   0.355E-02    0.136E-02
DAV:   5    -0.672296763015E+02   -0.18730E-05   -0.80861E-06 23136   0.744E-03    0.391E-03
DAV:   6    -0.672296781084E+02   -0.18069E-05   -0.14485E-06 17856   0.352E-03    0.136E-03
DAV:   7    -0.672296792735E+02   -0.11650E-05   -0.10292E-07 19776   0.887E-04    0.438E-04
DAV:   8    -0.672296805938E+02   -0.13204E-05   -0.87529E-08 20544   0.514E-04    0.243E-04
DAV:   9    -0.672296814998E+02   -0.90595E-06   -0.59067E-08 22560   0.296E-04
   3 F= -.67907718E+02 E0= -.67907718E+02  d E =-.344176E-02
       N       E                     dE             d eps       ncg     rms          rms(c)
DAV:   1    -0.672296901191E+02   -0.95253E-05   -0.43531E-03 22032   0.213E-01    0.149E-02
DAV:   2    -0.672296886538E+02    0.14654E-05   -0.24198E-05 21600   0.162E-02    0.828E-03
DAV:   3    -0.672296882207E+02    0.43312E-06   -0.18360E-06 16944   0.448E-03
   4 F= -.67907723E+02 E0= -.67907723E+02  d E =-.499792E-05
       N       E                     dE             d eps       ncg     rms          rms(c)
DAV:   1    -0.672296968364E+02   -0.81826E-05   -0.89403E-04 19104   0.965E-02    0.649E-03
DAV:   2    -0.672296966142E+02    0.22219E-06   -0.61613E-06 19584   0.820E-03
   5 F= -.67907732E+02 E0= -.67907732E+02  d E =-.141697E-04
       N       E                     dE             d eps       ncg     rms          rms(c)
DAV:   1    -0.672297118540E+02   -0.15018E-04   -0.13912E-03 14496   0.124E-01    0.651E-03
DAV:   2    -0.672297119809E+02   -0.12690E-06   -0.43199E-06 19488   0.704E-03
   6 F= -.67907748E+02 E0= -.67907748E+02  d E =-.159359E-04
       N       E                     dE             d eps       ncg     rms          rms(c)
DAV:   1    -0.672297183497E+02   -0.64957E-05   -0.22640E-03 15984   0.158E-01    0.944E-03
DAV:   2    -0.672297184310E+02   -0.81380E-07   -0.66893E-06 18192   0.876E-03
   7 F= -.67907756E+02 E0= -.67907756E+02  d E =-.230896E-04
       N       E                     dE             d eps       ncg     rms          rms(c)
DAV:   1    -0.672297190267E+02   -0.67705E-06   -0.33188E-05 17472   0.174E-02    0.158E-03
DAV:   2    -0.672297189965E+02    0.30225E-07   -0.58594E-07 22080   0.235E-03
   8 F= -.67907756E+02 E0= -.67907756E+02  d E =-.533800E-06
       N       E                     dE             d eps       ncg     rms          rms(c)
DAV:   1    -0.672297190395E+02   -0.12763E-07   -0.23217E-06 22752   0.456E-03    0.316E-04
DAV:   2    -0.672297190416E+02   -0.21173E-08   -0.45229E-08 22128   0.634E-04
   9 F= -.67907756E+02 E0= -.67907756E+02  d E =-.586999E-06
