       N       E                     dE             d eps       ncg     rms          rms(c)
DAV:   1     0.259883593905E+03    0.25988E+03   -0.28673E+04 14208   0.965E+02
DAV:   2    -0.130051070168E+03   -0.38993E+03   -0.38941E+03 21888   0.180E+02
DAV:   3    -0.145768377503E+03   -0.15717E+02   -0.15693E+02 25344   0.499E+01
DAV:   4    -0.145811749797E+03   -0.43372E-01   -0.43346E-01 21984   0.249E+00
DAV:   5    -0.145811824919E+03   -0.75122E-04   -0.75121E-04 23376   0.106E-01    0.250E+01
DAV:   6    -0.107361101159E+03    0.38451E+02   -0.67647E+01 24144   0.265E+01    0.145E+01
DAV:   7    -0.114691772822E+03   -0.73307E+01   -0.10135E+01 23328   0.110E+01    0.856E+00
DAV:   8    -0.123668359568E+03   -0.89766E+01   -0.82850E+00 24384   0.902E+00    0.460E+00
DAV:   9    -0.131264929589E+03   -0.75966E+01   -0.40317E+00 17760   0.692E+00    0.306E+00
DAV:  10    -0.138635006330E+03   -0.73701E+01   -0.10320E+01 21312   0.796E+00    0.175E+00
DAV:  11    -0.140046715971E+03   -0.14117E+01   -0.15451E+00 20928   0.326E+00    0.117E+00
DAV:  12    -0.140283061657E+03   -0.23635E+00   -0.30772E-01 20640   0.152E+00    0.489E-01
DAV:  13    -0.140343943168E+03   -0.60882E-01   -0.48692E-02 16320   0.797E-01    0.208E-01
DAV:  14    -0.140369903733E+03   -0.25961E-01   -0.87258E-03 19440   0.338E-01    0.977E-02
DAV:  15    -0.140379239565E+03   -0.93358E-02   -0.49570E-03 16080   0.184E-01    0.496E-02
DAV:  16    -0.140380908136E+03   -0.16686E-02   -0.68319E-04 14496   0.984E-02    0.274E-02
DAV:  17    -0.140382681224E+03   -0.17731E-02   -0.24611E-04 15648   0.637E-02    0.177E-02
DAV:  18    -0.140383809640E+03   -0.11284E-02   -0.13423E-04 15216   0.468E-02    0.128E-02
DAV:  19    -0.140384348653E+03   -0.53901E-03   -0.71082E-05 18672   0.384E-02    0.783E-03
DAV:  20    -0.140384536939E+03   -0.18829E-03   -0.26717E-05 17136   0.249E-02    0.459E-03
DAV:  21    -0.140384583403E+03   -0.46464E-04   -0.97422E-06 19968   0.149E-02    0.278E-03
DAV:  22    -0.140384600328E+03   -0.16924E-04   -0.41052E-06 23232   0.853E-03    0.191E-03
DAV:  23    -0.140384608191E+03   -0.78636E-05   -0.16407E-06 19920   0.469E-03    0.885E-04
DAV:  24    -0.140384611656E+03   -0.34648E-05   -0.39515E-07 22608   0.235E-03    0.513E-04
DAV:  25    -0.140384613555E+03   -0.18991E-05   -0.11800E-07 21360   0.117E-03    0.270E-04
DAV:  26    -0.140384614688E+03   -0.11331E-05   -0.79826E-08 19440   0.864E-04    0.140E-04
DAV:  27    -0.140384615046E+03   -0.35796E-06   -0.26840E-08 20064   0.490E-04
   1 F= -.14227837E+03 E0= -.14227709E+03  d E =-.142278E+03  mag=     0.0000
       N       E                     dE             d eps       ncg     rms          rms(c)
DAV:   1    -0.140340086952E+03    0.44528E-01   -0.16222E+01 14208   0.133E+01    0.116E+00
DAV:   2    -0.140299083720E+03    0.41003E-01   -0.27515E-01 24912   0.179E+00    0.549E-01
DAV:   3    -0.140295390233E+03    0.36935E-02   -0.36527E-02 22512   0.592E-01    0.239E-01
DAV:   4    -0.140295297692E+03    0.92541E-04   -0.39589E-03 21072   0.192E-01    0.896E-02
DAV:   5    -0.140295296512E+03    0.11802E-05   -0.27919E-04 18432   0.621E-02    0.224E-02
DAV:   6    -0.140295299483E+03   -0.29711E-05   -0.29632E-05 23520   0.198E-02    0.130E-02
DAV:   7    -0.140295309027E+03   -0.95444E-05   -0.17446E-05 21216   0.136E-02    0.292E-03
DAV:   8    -0.140295317826E+03   -0.87985E-05   -0.16479E-06 21792   0.422E-03    0.172E-03
DAV:   9    -0.140295333835E+03   -0.16009E-04   -0.19496E-06 19440   0.308E-03    0.108E-03
DAV:  10    -0.140295339537E+03   -0.57015E-05   -0.35066E-07 20544   0.125E-03    0.794E-04
DAV:  11    -0.140295346553E+03   -0.70164E-05   -0.71538E-07 18000   0.146E-03    0.425E-04
DAV:  12    -0.140295349084E+03   -0.25311E-05   -0.22225E-07 15936   0.765E-04    0.260E-04
DAV:  13    -0.140295349687E+03   -0.60322E-06   -0.34227E-08 20544   0.329E-04
   2 F= -.14219391E+03 E0= -.14219242E+03  d E =0.844553E-01  mag=    -0.0000
       N       E                     dE             d eps       ncg     rms          rms(c)
DAV:   1    -0.140420241075E+03   -0.12489E+00   -0.86035E+00 14208   0.968E+00    0.846E-01
DAV:   2    -0.140398694505E+03    0.21547E-01   -0.14254E-01 23808   0.132E+00    0.399E-01
DAV:   3    -0.140396616390E+03    0.20781E-02   -0.22336E-02 22656   0.449E-01    0.166E-01
DAV:   4    -0.140396542415E+03    0.73974E-04   -0.24528E-03 19008   0.149E-01    0.706E-02
DAV:   5    -0.140396539654E+03    0.27611E-05   -0.18582E-04 19488   0.500E-02    0.124E-02
DAV:   6    -0.140396538243E+03    0.14112E-05   -0.35451E-05 18912   0.199E-02    0.626E-03
DAV:   7    -0.140396543303E+03   -0.50605E-05   -0.34057E-06 22944   0.624E-03    0.127E-03
DAV:   8    -0.140396549509E+03   -0.62052E-05   -0.42580E-07 21744   0.193E-03    0.875E-04
DAV:   9    -0.140396555416E+03   -0.59078E-05   -0.28565E-07 18816   0.112E-03    0.713E-04
DAV:  10    -0.140396560120E+03   -0.47035E-05   -0.22041E-07 16320   0.845E-04    0.523E-04
DAV:  11    -0.140396564026E+03   -0.39058E-05   -0.29447E-07 14208   0.880E-04    0.232E-04
DAV:  12    -0.140396564495E+03   -0.46910E-06   -0.97467E-09 24144   0.207E-04
   3 F= -.14229192E+03 E0= -.14229054E+03  d E =-.135543E-01  mag=     0.0000
       N       E                     dE             d eps       ncg     rms          rms(c)
DAV:   1    -0.140396565617E+03   -0.15915E-05   -0.32761E-07 15408   0.189E-03    0.169E-04
DAV:   2    -0.140396565681E+03   -0.64103E-07   -0.63225E-09 26352   0.281E-04
   4 F= -.14229192E+03 E0= -.14229054E+03  d E =-.135547E-01  mag=    -0.0000
       N       E                     dE             d eps       ncg     rms          rms(c)
DAV:   1    -0.140396650919E+03   -0.85302E-04   -0.12200E-02 14208   0.466E-01    0.214E-02
DAV:   2    -0.140396651746E+03   -0.82701E-06   -0.58408E-05 24480   0.343E-02    0.129E-02
DAV:   3    -0.140396654824E+03   -0.30777E-05   -0.73015E-06 14208   0.100E-02    0.204E-03
DAV:   4    -0.140396654863E+03   -0.39956E-07   -0.68729E-07 24480   0.331E-03
   5 F= -.14229204E+03 E0= -.14229066E+03  d E =-.114853E-03  mag=     0.0000
       N       E                     dE             d eps       ncg     rms          rms(c)
DAV:   1    -0.140396653263E+03    0.15601E-05   -0.10509E-03 15360   0.137E-01    0.639E-03
DAV:   2    -0.140396653222E+03    0.40894E-07   -0.50221E-06 21888   0.101E-02
   6 F= -.14229204E+03 E0= -.14229067E+03  d E =-.120758E-03  mag=    -0.0000
       N       E                     dE             d eps       ncg     rms          rms(c)
DAV:   1    -0.140396628205E+03    0.25058E-04   -0.51927E-03 14208   0.315E-01    0.160E-02
DAV:   2    -0.140396627451E+03    0.75454E-06   -0.46057E-05 19392   0.307E-02    0.989E-03
DAV:   3    -0.140396628459E+03   -0.10079E-05   -0.77398E-06 17376   0.107E-02    0.261E-03
DAV:   4    -0.140396628472E+03   -0.13453E-07   -0.14863E-06 23808   0.452E-03
   7 F= -.14229206E+03 E0= -.14229069E+03  d E =-.188399E-04  mag=    -0.0000
       N       E                     dE             d eps       ncg     rms          rms(c)
DAV:   1    -0.140396639748E+03   -0.11289E-04   -0.24997E-04 15840   0.690E-02    0.342E-03
DAV:   2    -0.140396639596E+03    0.15229E-06   -0.22048E-06 15168   0.669E-03
   8 F= -.14229206E+03 E0= -.14229069E+03  d E =-.204449E-04  mag=    -0.0000
       N       E                     dE             d eps       ncg     rms          rms(c)
DAV:   1    -0.140396567955E+03    0.71793E-04   -0.50666E-03 14208   0.310E-01    0.161E-02
DAV:   2    -0.140396567334E+03    0.62064E-06   -0.51259E-05 14208   0.309E-02    0.100E-02
DAV:   3    -0.140396567639E+03   -0.30435E-06   -0.81205E-06 15360   0.108E-02
   9 F= -.14229205E+03 E0= -.14229068E+03  d E =0.125530E-04  mag=     0.0000
       N       E                     dE             d eps       ncg     rms          rms(c)
DAV:   1    -0.140396624884E+03   -0.57550E-04   -0.20909E-03 14208   0.199E-01    0.990E-03
DAV:   2    -0.140396624635E+03    0.24945E-06   -0.21925E-05 15360   0.199E-02    0.615E-03
DAV:   3    -0.140396624719E+03   -0.84313E-07   -0.31104E-06 14208   0.669E-03
  10 F= -.14229207E+03 E0= -.14229070E+03  d E =-.605899E-05  mag=    -0.0000
       N       E                     dE             d eps       ncg     rms          rms(c)
DAV:   1    -0.140396623388E+03    0.12464E-05   -0.26881E-06 22464   0.723E-03    0.534E-04
DAV:   2    -0.140396623456E+03   -0.67968E-07   -0.33487E-08 16368   0.777E-04
  11 F= -.14229207E+03 E0= -.14229070E+03  d E =-.617852E-05  mag=    -0.0000
       N       E                     dE             d eps       ncg     rms          rms(c)
DAV:   1    -0.140396582290E+03    0.41098E-04   -0.91114E-04 14592   0.132E-01    0.672E-03
DAV:   2    -0.140396581935E+03    0.35591E-06   -0.11057E-05 14592   0.149E-02    0.408E-03
DAV:   3    -0.140396582092E+03   -0.15733E-06   -0.17027E-06 14208   0.515E-03
  12 F= -.14229207E+03 E0= -.14229070E+03  d E =-.617910E-06  mag=    -0.0000
       N       E                     dE             d eps       ncg     rms          rms(c)
DAV:   1    -0.140396603337E+03   -0.21403E-04   -0.19759E-04 18000   0.614E-02    0.274E-03
DAV:   2    -0.140396603329E+03    0.83764E-08   -0.22722E-06 15552   0.663E-03
  13 F= -.14229207E+03 E0= -.14229070E+03  d E =-.207927E-05  mag=    -0.0000
       N       E                     dE             d eps       ncg     rms          rms(c)
DAV:   1    -0.140396571105E+03    0.32232E-04   -0.22743E-04 17088   0.628E-02    0.283E-03
DAV:   2    -0.140396571012E+03    0.92798E-07   -0.18825E-06 16272   0.600E-03
  14 F= -.14229207E+03 E0= -.14229070E+03  d E =-.157478E-05  mag=     0.0000
       N       E                     dE             d eps       ncg     rms          rms(c)
DAV:   1    -0.140396556240E+03    0.14865E-04   -0.41087E-05 15120   0.272E-02    0.157E-03
DAV:   2    -0.140396556191E+03    0.48890E-07   -0.29293E-07 16128   0.242E-03
  15 F= -.14229207E+03 E0= -.14229070E+03  d E =-.174348E-05  mag=     0.0000
       N       E                     dE             d eps       ncg     rms          rms(c)
DAV:   1    -0.140396506717E+03    0.49523E-04   -0.25165E-04 16272   0.667E-02    0.341E-03
DAV:   2    -0.140396506494E+03    0.22263E-06   -0.29137E-06 15888   0.724E-03
  16 F= -.14229207E+03 E0= -.14229070E+03  d E =-.314058E-06  mag=     0.0000
       N       E                     dE             d eps       ncg     rms          rms(c)
DAV:   1    -0.140396519062E+03   -0.12345E-04   -0.18371E-05 14784   0.175E-02    0.715E-04
DAV:   2    -0.140396519124E+03   -0.61892E-07   -0.37587E-07 16368   0.246E-03
  17 F= -.14229207E+03 E0= -.14229070E+03  d E =-.574540E-06  mag=     0.0000
       N       E                     dE             d eps       ncg     rms          rms(c)
DAV:   1    -0.140396488536E+03    0.30526E-04   -0.79423E-05 19584   0.361E-02    0.184E-03
DAV:   2    -0.140396488423E+03    0.11313E-06   -0.83984E-07 16464   0.382E-03
  18 F= -.14229207E+03 E0= -.14229071E+03  d E =-.508935E-06  mag=     0.0000
       N       E                     dE             d eps       ncg     rms          rms(c)
DAV:   1    -0.140396396112E+03    0.92424E-04   -0.69022E-04 14208   0.108E-01    0.574E-03
DAV:   2    -0.140396395500E+03    0.61229E-06   -0.77030E-06 17376   0.118E-02
  19 F= -.14229207E+03 E0= -.14229071E+03  d E =-.121779E-05  mag=     0.0000
       N       E                     dE             d eps       ncg     rms          rms(c)
DAV:   1    -0.140396208052E+03    0.18806E-03   -0.27378E-03 14208   0.215E-01    0.116E-02
DAV:   2    -0.140396206683E+03    0.13682E-05   -0.30285E-05 14208   0.235E-02    0.702E-03
DAV:   3    -0.140396206994E+03   -0.31096E-06   -0.46425E-06 17424   0.807E-03
  20 F= -.14229207E+03 E0= -.14229071E+03  d E =-.652713E-08  mag=     0.0000
       N       E                     dE             d eps       ncg     rms          rms(c)
DAV:   1    -0.140396350012E+03   -0.14333E-03   -0.15504E-03 14400   0.161E-01    0.779E-03
DAV:   2    -0.140396349380E+03    0.63225E-06   -0.19364E-05 17184   0.183E-02    0.468E-03
DAV:   3    -0.140396349474E+03   -0.93992E-07   -0.25464E-06 19584   0.583E-03
  21 F= -.14229207E+03 E0= -.14229071E+03  d E =-.152855E-05  mag=    -0.0000
       N       E                     dE             d eps       ncg     rms          rms(c)
DAV:   1    -0.140396329571E+03    0.19809E-04   -0.29130E-05 15120   0.221E-02    0.987E-04
DAV:   2    -0.140396329665E+03   -0.94312E-07   -0.45174E-07 15648   0.278E-03
  22 F= -.14229207E+03 E0= -.14229071E+03  d E =-.583845E-06  mag=    -0.0000
       N       E                     dE             d eps       ncg     rms          rms(c)
DAV:   1    -0.140396269750E+03    0.59820E-04   -0.27985E-04 14208   0.680E-02    0.371E-03
DAV:   2    -0.140396269391E+03    0.35935E-06   -0.32774E-06 16800   0.762E-03
  23 F= -.14229208E+03 E0= -.14229071E+03  d E =-.149061E-05  mag=     0.0000
       N       E                     dE             d eps       ncg     rms          rms(c)
DAV:   1    -0.140396149417E+03    0.12033E-03   -0.11041E-03 14208   0.135E-01    0.737E-03
DAV:   2    -0.140396148593E+03    0.82380E-06   -0.11978E-05 14976   0.147E-02    0.444E-03
DAV:   3    -0.140396148897E+03   -0.30426E-06   -0.18342E-06 17088   0.499E-03
  24 F= -.14229208E+03 E0= -.14229071E+03  d E =-.336955E-05  mag=    -0.0000
       N       E                     dE             d eps       ncg     rms          rms(c)
DAV:   1    -0.140395908246E+03    0.24035E-03   -0.45594E-03 14208   0.273E-01    0.145E-02
DAV:   2    -0.140395905821E+03    0.24242E-05   -0.50759E-05 14208   0.301E-02    0.868E-03
DAV:   3    -0.140395906043E+03   -0.22198E-06   -0.77144E-06 15840   0.102E-02
  25 F= -.14229208E+03 E0= -.14229071E+03  d E =-.531900E-05  mag=     0.0000
       N       E                     dE             d eps       ncg     rms          rms(c)
DAV:   1    -0.140396006833E+03   -0.10101E-03   -0.73793E-04 15216   0.111E-01    0.513E-03
DAV:   2    -0.140396006701E+03    0.13207E-06   -0.93233E-06 15696   0.126E-02
  26 F= -.14229208E+03 E0= -.14229071E+03  d E =-.501157E-05  mag=     0.0000
       N       E                     dE             d eps       ncg     rms          rms(c)
DAV:   1    -0.140395959624E+03    0.47209E-04   -0.18791E-04 16320   0.543E-02    0.239E-03
DAV:   2    -0.140395959568E+03    0.56160E-07   -0.24998E-06 15744   0.650E-03
  27 F= -.14229208E+03 E0= -.14229071E+03  d E =-.544129E-05  mag=     0.0000
       N       E                     dE             d eps       ncg     rms          rms(c)
DAV:   1    -0.140395927346E+03    0.32277E-04   -0.74308E-05 18528   0.356E-02    0.213E-03
DAV:   2    -0.140395927241E+03    0.10577E-06   -0.75446E-07 15456   0.369E-03
  28 F= -.14229208E+03 E0= -.14229071E+03  d E =-.554614E-05  mag=     0.0000
       N       E                     dE             d eps       ncg     rms          rms(c)
DAV:   1    -0.140395915624E+03    0.11722E-04   -0.93276E-06 14208   0.127E-02    0.893E-04
DAV:   2    -0.140395915644E+03   -0.19446E-07   -0.10043E-07 14976   0.158E-03
  29 F= -.14229208E+03 E0= -.14229071E+03  d E =-.569639E-05  mag=     0.0000
       N       E                     dE             d eps       ncg     rms          rms(c)
DAV:   1    -0.140395910993E+03    0.46316E-05   -0.15911E-06 15360   0.523E-03    0.478E-04
DAV:   2    -0.140395911024E+03   -0.31442E-07   -0.28769E-08 16944   0.935E-04
  30 F= -.14229208E+03 E0= -.14229071E+03  d E =-.578077E-05  mag=     0.0000
       N       E                     dE             d eps       ncg     rms          rms(c)
DAV:   1    -0.140395908810E+03    0.21832E-05   -0.37556E-07 16992   0.255E-03    0.279E-04
DAV:   2    -0.140395908825E+03   -0.15394E-07   -0.71300E-09 16992   0.459E-04
  31 F= -.14229208E+03 E0= -.14229071E+03  d E =-.583524E-05  mag=     0.0000
       N       E                     dE             d eps       ncg     rms          rms(c)
DAV:   1    -0.140395907711E+03    0.10986E-05   -0.94020E-08 18048   0.128E-03    0.146E-04
DAV:   2    -0.140395907720E+03   -0.89894E-08   -0.23616E-09 18096   0.278E-04
  32 F= -.14229208E+03 E0= -.14229071E+03  d E =-.586295E-05  mag=     0.0000
       N       E                     dE             d eps       ncg     rms          rms(c)
DAV:   1    -0.140395907163E+03    0.54806E-06   -0.24100E-08 19728   0.652E-04    0.788E-05
DAV:   2    -0.140395907167E+03   -0.35980E-08   -0.57283E-10 19584   0.136E-04
  33 F= -.14229208E+03 E0= -.14229071E+03  d E =-.587585E-05  mag=     0.0000
       N       E                     dE             d eps       ncg     rms          rms(c)
DAV:   1    -0.140395906888E+03    0.27486E-06   -0.60214E-09 19392   0.327E-04    0.404E-05
DAV:   2    -0.140395906890E+03   -0.21782E-08   -0.18160E-10 20928   0.790E-05
  34 F= -.14229208E+03 E0= -.14229071E+03  d E =-.588274E-05  mag=     0.0000
       N       E                     dE             d eps       ncg     rms          rms(c)
DAV:   1    -0.140395906751E+03    0.13691E-06   -0.15391E-09 20544   0.166E-04    0.212E-05
DAV:   2    -0.140395906753E+03   -0.14170E-08   -0.41015E-11 20448   0.396E-05
  35 F= -.14229208E+03 E0= -.14229071E+03  d E =-.588666E-05  mag=     0.0000
       N       E                     dE             d eps       ncg     rms          rms(c)
DAV:   1    -0.140395906683E+03    0.67795E-07   -0.38799E-10 20352   0.840E-05    0.109E-05
DAV:   2    -0.140395906684E+03   -0.90131E-09   -0.11809E-11 20256   0.234E-05
  36 F= -.14229208E+03 E0= -.14229071E+03  d E =-.588915E-05  mag=     0.0000
       N       E                     dE             d eps       ncg     rms          rms(c)
DAV:   1    -0.140395906650E+03    0.33734E-07   -0.94017E-11 19776   0.433E-05    0.586E-06
DAV:   2    -0.140395906650E+03   -0.68758E-09    0.14574E-12 19248   0.132E-05
  37 F= -.14229208E+03 E0= -.14229071E+03  d E =-.589060E-05  mag=     0.0000
       N       E                     dE             d eps       ncg     rms          rms(c)
DAV:   1    -0.140395906633E+03    0.16478E-07   -0.21530E-11 18720   0.228E-05    0.329E-06
DAV:   2    -0.140395906634E+03   -0.38563E-09    0.55646E-12 16992   0.890E-06
  38 F= -.14229208E+03 E0= -.14229071E+03  d E =-.589151E-05  mag=     0.0000
       N       E                     dE             d eps       ncg     rms          rms(c)
DAV:   1    -0.140395906625E+03    0.80063E-08   -0.24223E-13 18768   0.126E-05    0.203E-06
DAV:   2    -0.140395906625E+03   -0.21919E-09    0.52716E-12 14448   0.608E-06
  39 F= -.14229208E+03 E0= -.14229071E+03  d E =-.589219E-05  mag=     0.0000
       N       E                     dE             d eps       ncg     rms          rms(c)
DAV:   1    -0.140396356555E+03   -0.44993E-03   -0.15199E-02 14208   0.499E-01    0.261E-02
DAV:   2    -0.140396347714E+03    0.88412E-05   -0.16814E-04 15552   0.541E-02    0.154E-02
DAV:   3    -0.140396348514E+03   -0.79941E-06   -0.25238E-05 17952   0.182E-02    0.361E-03
DAV:   4    -0.140396349167E+03   -0.65365E-06   -0.43742E-06 15648   0.731E-03
  40 F= -.14229207E+03 E0= -.14229071E+03  d E =0.306483E-06  mag=    -0.0000
