<?xml version="1.0" encoding="ISO-8859-1"?>
<modeling>
 <generator>
  <i name="program" type="string">vasp </i>
  <i name="version" type="string">6.3.2  </i>
  <i name="subversion" type="string">27Jun22 (build Dec 22 2022 13:13:19) complex                          parallel </i>
  <i name="platform" type="string">LinuxIFC </i>
  <i name="date" type="string">2023 08 23 </i>
  <i name="time" type="string">00:13:56 </i>
 </generator>
 <incar>
  <i type="string" name="SYSTEM">Lattice</i>
  <i type="int" name="ISTART">     0</i>
  <i type="string" name="PREC">Accurate</i>
  <i type="string" name="ALGO">Normal</i>
  <i type="int" name="ISPIN">     2</i>
  <i type="int" name="ICHARG">     2</i>
  <i type="int" name="NELM">    64</i>
  <i type="int" name="IBRION">     2</i>
  <i name="EDIFF">      0.00000100</i>
  <i name="EDIFFG">     -0.00100000</i>
  <i type="int" name="NSW">   128</i>
  <i type="int" name="ISIF">     2</i>
  <i name="ENCUT">    450.00000000</i>
  <i name="POTIM">      0.50000000</i>
  <i type="int" name="ISMEAR">     0</i>
  <i name="SIGMA">      0.10000000</i>
  <i type="logical" name="LWAVE"> F  </i>
  <i type="logical" name="LCHARG"> F  </i>
  <i type="string" name="GGA">PE</i>
  <i type="int" name="IVDW">    12</i>
 </incar>
 <primitive_cell>
  <structure name="primitive_cell" >
   <crystal>
    <varray name="basis" >
     <v>       4.36563406       2.52050000       0.00000000 </v>
     <v>      -4.36563406       2.52050000       0.00000000 </v>
     <v>       0.00000000       0.00000000      15.00000000 </v>
    </varray>
    <i name="volume">    330.10741948 </i>
    <varray name="rec_basis" >
     <v>       0.11453090       0.19837334       0.00000000 </v>
     <v>      -0.11453090       0.19837334       0.00000000 </v>
     <v>       0.00000000       0.00000000       0.06666667 </v>
    </varray>
   </crystal>
   <varray name="positions" >
    <v>       0.33833034       0.66916432       0.10000000 </v>
    <v>       0.67165522       0.33584146       0.10000000 </v>
    <v>       0.16373946       0.31999962       0.10000000 </v>
    <v>       0.32250218       0.16126397       0.10000000 </v>
    <v>       0.16376430       0.84376384       0.10000000 </v>
    <v>       0.84623863       0.16123684       0.10000000 </v>
    <v>       0.68749850       0.84373000       0.10000000 </v>
    <v>       0.84626736       0.68499594       0.10000000 </v>
    <v>       0.33333267       0.16666633       0.32553333 </v>
    <v>       0.49999967       0.99999933       0.32553333 </v>
    <v>       0.33333267       0.66666633       0.32553333 </v>
    <v>       0.49999967       0.49999933       0.32553333 </v>
    <v>       0.83333267       0.16666633       0.32553333 </v>
    <v>       0.99999967       0.99999933       0.32553333 </v>
    <v>       0.83333267       0.66666633       0.32553333 </v>
    <v>       0.99999967       0.49999933       0.32553333 </v>
   </varray>
  </structure>
  <varray name="primitive_index" >
   <v type="int" >        1 </v>
   <v type="int" >        2 </v>
   <v type="int" >        3 </v>
   <v type="int" >        4 </v>
   <v type="int" >        5 </v>
   <v type="int" >        6 </v>
   <v type="int" >        7 </v>
   <v type="int" >        8 </v>
   <v type="int" >        9 </v>
   <v type="int" >       10 </v>
   <v type="int" >       11 </v>
   <v type="int" >       12 </v>
   <v type="int" >       13 </v>
   <v type="int" >       14 </v>
   <v type="int" >       15 </v>
   <v type="int" >       16 </v>
  </varray>
 </primitive_cell>
 <kpoints>
  <generation param="Gamma">
   <v type="int" name="divisions">      12       12        1 </v>
   <v name="usershift">      0.00000000       0.00000000       0.00000000 </v>
   <v name="genvec1">      0.08333333      -0.00000000       0.00000000 </v>
   <v name="genvec2">     -0.00000000       0.08333333       0.00000000 </v>
   <v name="genvec3">      0.00000000       0.00000000       1.00000000 </v>
   <v name="shift">      0.00000000       0.00000000       0.00000000 </v>
  </generation>
  <varray name="kpointlist" >
   <v>       0.00000000       0.00000000       0.00000000 </v>
   <v>       0.08333333       0.00000000       0.00000000 </v>
   <v>       0.00000000       0.08333333       0.00000000 </v>
   <v>      -0.08333333       0.08333333       0.00000000 </v>
   <v>       0.16666667       0.00000000       0.00000000 </v>
   <v>       0.00000000       0.16666667       0.00000000 </v>
   <v>      -0.16666667       0.16666667       0.00000000 </v>
   <v>       0.25000000       0.00000000       0.00000000 </v>
   <v>       0.00000000       0.25000000       0.00000000 </v>
   <v>      -0.25000000       0.25000000       0.00000000 </v>
   <v>       0.33333333       0.00000000       0.00000000 </v>
   <v>       0.00000000       0.33333333       0.00000000 </v>
   <v>      -0.33333333       0.33333333       0.00000000 </v>
   <v>       0.41666667       0.00000000       0.00000000 </v>
   <v>       0.00000000       0.41666667       0.00000000 </v>
   <v>      -0.41666667       0.41666667       0.00000000 </v>
   <v>       0.50000000       0.00000000       0.00000000 </v>
   <v>       0.00000000       0.50000000       0.00000000 </v>
   <v>       0.50000000       0.50000000       0.00000000 </v>
   <v>       0.08333333       0.08333333       0.00000000 </v>
   <v>      -0.08333333       0.16666667       0.00000000 </v>
   <v>      -0.16666667       0.08333333       0.00000000 </v>
   <v>       0.16666667       0.08333333       0.00000000 </v>
   <v>      -0.08333333       0.25000000       0.00000000 </v>
   <v>      -0.25000000       0.16666667       0.00000000 </v>
   <v>      -0.16666667       0.25000000       0.00000000 </v>
   <v>       0.08333333       0.16666667       0.00000000 </v>
   <v>       0.25000000      -0.08333333       0.00000000 </v>
   <v>       0.25000000       0.08333333       0.00000000 </v>
   <v>      -0.08333333       0.33333333       0.00000000 </v>
   <v>      -0.33333333       0.25000000       0.00000000 </v>
   <v>      -0.25000000       0.33333333       0.00000000 </v>
   <v>       0.08333333       0.25000000       0.00000000 </v>
   <v>       0.33333333      -0.08333333       0.00000000 </v>
   <v>       0.33333333       0.08333333       0.00000000 </v>
   <v>      -0.08333333       0.41666667       0.00000000 </v>
   <v>      -0.41666667       0.33333333       0.00000000 </v>
   <v>      -0.33333333       0.41666667       0.00000000 </v>
   <v>       0.08333333       0.33333333       0.00000000 </v>
   <v>       0.41666667      -0.08333333       0.00000000 </v>
   <v>       0.41666667       0.08333333       0.00000000 </v>
   <v>      -0.08333333       0.50000000       0.00000000 </v>
   <v>       0.50000000       0.41666667       0.00000000 </v>
   <v>      -0.41666667       0.50000000       0.00000000 </v>
   <v>       0.08333333       0.41666667       0.00000000 </v>
   <v>       0.50000000      -0.08333333       0.00000000 </v>
   <v>       0.16666667       0.16666667       0.00000000 </v>
   <v>      -0.16666667       0.33333333       0.00000000 </v>
   <v>      -0.33333333       0.16666667       0.00000000 </v>
   <v>       0.25000000       0.16666667       0.00000000 </v>
   <v>      -0.16666667       0.41666667       0.00000000 </v>
   <v>      -0.41666667       0.25000000       0.00000000 </v>
   <v>      -0.25000000       0.41666667       0.00000000 </v>
   <v>       0.16666667       0.25000000       0.00000000 </v>
   <v>       0.41666667      -0.16666667       0.00000000 </v>
   <v>       0.33333333       0.16666667       0.00000000 </v>
   <v>      -0.16666667       0.50000000       0.00000000 </v>
   <v>       0.50000000       0.33333333       0.00000000 </v>
   <v>      -0.33333333       0.50000000       0.00000000 </v>
   <v>       0.16666667       0.33333333       0.00000000 </v>
   <v>       0.50000000      -0.16666667       0.00000000 </v>
   <v>       0.41666667       0.16666667       0.00000000 </v>
   <v>      -0.16666667      -0.41666667       0.00000000 </v>
   <v>       0.41666667       0.41666667       0.00000000 </v>
   <v>       0.25000000       0.25000000       0.00000000 </v>
   <v>      -0.25000000       0.50000000       0.00000000 </v>
   <v>       0.50000000       0.25000000       0.00000000 </v>
   <v>       0.33333333       0.25000000       0.00000000 </v>
   <v>      -0.25000000      -0.41666667       0.00000000 </v>
   <v>       0.41666667       0.33333333       0.00000000 </v>
   <v>      -0.33333333      -0.41666667       0.00000000 </v>
   <v>       0.25000000       0.33333333       0.00000000 </v>
   <v>      -0.41666667      -0.25000000       0.00000000 </v>
   <v>       0.33333333       0.33333333       0.00000000 </v>
  </varray>
  <varray name="weights" >
   <v>       0.00694444 </v>
   <v>       0.01388889 </v>
   <v>       0.01388889 </v>
   <v>       0.01388889 </v>
   <v>       0.01388889 </v>
   <v>       0.01388889 </v>
   <v>       0.01388889 </v>
   <v>       0.01388889 </v>
   <v>       0.01388889 </v>
   <v>       0.01388889 </v>
   <v>       0.01388889 </v>
   <v>       0.01388889 </v>
   <v>       0.01388889 </v>
   <v>       0.01388889 </v>
   <v>       0.01388889 </v>
   <v>       0.01388889 </v>
   <v>       0.00694444 </v>
   <v>       0.00694444 </v>
   <v>       0.00694444 </v>
   <v>       0.01388889 </v>
   <v>       0.01388889 </v>
   <v>       0.01388889 </v>
   <v>       0.01388889 </v>
   <v>       0.01388889 </v>
   <v>       0.01388889 </v>
   <v>       0.01388889 </v>
   <v>       0.01388889 </v>
   <v>       0.01388889 </v>
   <v>       0.01388889 </v>
   <v>       0.01388889 </v>
   <v>       0.01388889 </v>
   <v>       0.01388889 </v>
   <v>       0.01388889 </v>
   <v>       0.01388889 </v>
   <v>       0.01388889 </v>
   <v>       0.01388889 </v>
   <v>       0.01388889 </v>
   <v>       0.01388889 </v>
   <v>       0.01388889 </v>
   <v>       0.01388889 </v>
   <v>       0.01388889 </v>
   <v>       0.01388889 </v>
   <v>       0.01388889 </v>
   <v>       0.01388889 </v>
   <v>       0.01388889 </v>
   <v>       0.01388889 </v>
   <v>       0.01388889 </v>
   <v>       0.01388889 </v>
   <v>       0.01388889 </v>
   <v>       0.01388889 </v>
   <v>       0.01388889 </v>
   <v>       0.01388889 </v>
   <v>       0.01388889 </v>
   <v>       0.01388889 </v>
   <v>       0.01388889 </v>
   <v>       0.01388889 </v>
   <v>       0.01388889 </v>
   <v>       0.01388889 </v>
   <v>       0.01388889 </v>
   <v>       0.01388889 </v>
   <v>       0.01388889 </v>
   <v>       0.01388889 </v>
   <v>       0.01388889 </v>
   <v>       0.01388889 </v>
   <v>       0.01388889 </v>
   <v>       0.01388889 </v>
   <v>       0.01388889 </v>
   <v>       0.01388889 </v>
   <v>       0.01388889 </v>
   <v>       0.01388889 </v>
   <v>       0.01388889 </v>
   <v>       0.01388889 </v>
   <v>       0.01388889 </v>
   <v>       0.01388889 </v>
  </varray>
 </kpoints>
 <parameters>
  <separator name="general" >
   <i type="string" name="SYSTEM">Lattice</i>
   <i type="logical" name="LCOMPAT"> F  </i>
  </separator>
  <separator name="electronic" >
   <i type="string" name="PREC">accura</i>
   <i name="ENMAX">    450.00000000</i>
   <i name="ENAUG">    644.87300000</i>
   <i name="EDIFF">      0.00000100</i>
   <i type="int" name="IALGO">    38</i>
   <i type="int" name="IWAVPR">    11</i>
   <i type="int" name="NBANDS">    48</i>
   <i type="int" name="NBANDSLOW">    -1</i>
   <i type="int" name="NBANDSHIGH">    -1</i>
   <i name="NELECT">     62.00000000</i>
   <i type="int" name="TURBO">     0</i>
   <i type="int" name="IRESTART">     0</i>
   <i type="int" name="NREBOOT">     0</i>
   <i type="int" name="NMIN">     0</i>
   <i name="EREF">      0.00000000</i>
   <separator name="electronic smearing" >
    <i type="int" name="ISMEAR">     0</i>
    <i name="SIGMA">      0.10000000</i>
    <i name="KSPACING">      0.50000000</i>
    <i type="logical" name="KGAMMA"> T  </i>
    <i type="logical" name="KBLOWUP"> T  </i>
   </separator>
   <separator name="electronic projectors" >
    <i type="logical" name="LREAL"> F  </i>
    <v name="ROPT">      0.00000000      0.00000000</v>
    <i type="int" name="LMAXPAW">  -100</i>
    <i type="int" name="LMAXMIX">     2</i>
    <i type="logical" name="NLSPLINE"> F  </i>
   </separator>
   <separator name="electronic startup" >
    <i type="int" name="ISTART">     0</i>
    <i type="int" name="ICHARG">     2</i>
    <i type="int" name="INIWAV">     1</i>
   </separator>
   <separator name="electronic spin" >
    <i type="int" name="ISPIN">     2</i>
    <i type="logical" name="LNONCOLLINEAR"> F  </i>
    <v name="MAGMOM">      1.00000000      1.00000000      1.00000000      1.00000000      1.00000000      1.00000000      1.00000000      1.00000000      1.00000000      1.00000000      1.00000000      1.00000000      1.00000000      1.00000000      1.00000000      1.00000000</v>
    <i name="NUPDOWN">     -1.00000000</i>
    <i type="logical" name="LSORBIT"> F  </i>
    <v name="SAXIS">      0.00000000      0.00000000      1.00000000</v>
    <i type="logical" name="LSPIRAL"> F  </i>
    <v name="QSPIRAL">      0.00000000      0.00000000      0.00000000</v>
    <i type="logical" name="LZEROZ"> F  </i>
   </separator>
   <separator name="electronic exchange-correlation" >
    <i type="logical" name="LASPH"> F  </i>
    <i type="logical" name="LMETAGGA"> F  </i>
   </separator>
   <separator name="electronic convergence" >
    <i type="int" name="NELM">    64</i>
    <i type="int" name="NELMDL">    -5</i>
    <i type="int" name="NELMIN">     2</i>
    <i name="ENINI">    450.00000000</i>
    <separator name="electronic convergence detail" >
     <i type="logical" name="LDIAG"> T  </i>
     <i type="logical" name="LSUBROT"> F  </i>
     <i name="WEIMIN">      0.00100000</i>
     <i name="EBREAK">      0.00000001</i>
     <i name="DEPER">      0.30000000</i>
     <i type="int" name="NRMM">     4</i>
     <i name="TIME">      0.40000000</i>
    </separator>
   </separator>
   <separator name="electronic mixer" >
    <i name="AMIX">      0.40000000</i>
    <i name="BMIX">      1.00000000</i>
    <i name="AMIN">      0.10000000</i>
    <i name="AMIX_MAG">      1.60000000</i>
    <i name="BMIX_MAG">      1.00000000</i>
    <separator name="electronic mixer details" >
     <i type="int" name="IMIX">     4</i>
     <i type="logical" name="MIXFIRST"> F  </i>
     <i type="int" name="MAXMIX">   -45</i>
     <i name="WC">    100.00000000</i>
     <i type="int" name="INIMIX">     1</i>
     <i type="int" name="MIXPRE">     1</i>
     <i type="int" name="MREMOVE">     5</i>
    </separator>
   </separator>
   <separator name="electronic dipolcorrection" >
    <i type="logical" name="LDIPOL"> F  </i>
    <i type="logical" name="LMONO"> F  </i>
    <i type="int" name="IDIPOL">     0</i>
    <i name="EPSILON">      1.00000000</i>
    <v name="DIPOL">   -100.00000000   -100.00000000   -100.00000000</v>
    <i name="EFIELD">      0.00000000</i>
   </separator>
  </separator>
  <separator name="grids" >
   <i type="int" name="NGX">    36</i>
   <i type="int" name="NGY">    36</i>
   <i type="int" name="NGZ">   108</i>
   <i type="int" name="NGXF">    72</i>
   <i type="int" name="NGYF">    72</i>
   <i type="int" name="NGZF">   216</i>
   <i type="logical" name="ADDGRID"> F  </i>
  </separator>
  <separator name="ionic" >
   <i type="int" name="NSW">   128</i>
   <i type="int" name="IBRION">     2</i>
   <i type="int" name="MDALGO">     0</i>
   <i type="int" name="ISIF">     2</i>
   <i name="PSTRESS">      0.00000000</i>
   <i name="EDIFFG">     -0.00100000</i>
   <i type="int" name="NFREE">     1</i>
   <i name="POTIM">      0.50000000</i>
   <i name="SMASS">     -3.00000000</i>
   <i name="SCALEE">      1.00000000</i>
  </separator>
  <separator name="ionic md" >
   <i name="TEBEG">      0.00010000</i>
   <i name="TEEND">      0.00010000</i>
   <i type="int" name="NBLOCK">     1</i>
   <i type="int" name="KBLOCK">   128</i>
   <i type="int" name="NPACO">   256</i>
   <i name="APACO">     10.00000000</i>
  </separator>
  <separator name="symmetry" >
   <i type="int" name="ISYM">     2</i>
   <i name="SYMPREC">      0.00001000</i>
  </separator>
  <separator name="dos" >
   <i type="int" name="LORBIT">     0</i>
   <v name="RWIGS">     -1.00000000     -1.00000000</v>
   <i type="int" name="NEDOS">   301</i>
   <i name="EMIN">     10.00000000</i>
   <i name="EMAX">    -10.00000000</i>
   <i name="EFERMI">      0.00000000</i>
  </separator>
  <separator name="writing" >
   <i type="int" name="NWRITE">     2</i>
   <i type="logical" name="LWAVE"> F  </i>
   <i type="logical" name="LDOWNSAMPLE"> F  </i>
   <i type="logical" name="LCHARG"> F  </i>
   <i type="logical" name="LPARD"> F  </i>
   <i type="logical" name="LVTOT"> F  </i>
   <i type="logical" name="LVHAR"> F  </i>
   <i type="logical" name="LELF"> F  </i>
   <i type="logical" name="LOPTICS"> F  </i>
   <v name="STM">      0.00000000      0.00000000      0.00000000      0.00000000      0.00000000      0.00000000      0.00000000</v>
  </separator>
  <separator name="performance" >
   <i type="int" name="NPAR">    48</i>
   <i type="int" name="NSIM">     4</i>
   <i type="int" name="NBLK">    -1</i>
   <i type="logical" name="LPLANE"> T  </i>
   <i type="logical" name="LSCALAPACK"> T  </i>
   <i type="logical" name="LSCAAWARE"> F  </i>
   <i type="logical" name="LSCALU"> F  </i>
   <i type="logical" name="LASYNC"> F  </i>
   <i type="logical" name="LORBITALREAL"> F  </i>
  </separator>
  <separator name="miscellaneous" >
   <i type="int" name="IDIOT">     3</i>
   <i type="int" name="PHON_NSTRUCT">    -1</i>
   <i type="logical" name="LMUSIC"> F  </i>
   <v name="POMASS">     10.81100000     12.01100000</v>
   <v name="DARWINR">      0.00000000      0.00000000</v>
   <v name="DARWINV">      1.00000000      1.00000000</v>
   <i type="logical" name="LCORR"> T  </i>
  </separator>
  <i type="logical" name="GGA_COMPAT"> T  </i>
  <i type="logical" name="LBERRY"> F  </i>
  <i type="int" name="ICORELEVEL">     0</i>
  <i type="logical" name="LDAU"> F  </i>
  <i type="int" name="I_CONSTRAINED_M">     0</i>
  <separator name="electronic exchange-correlation" >
   <i type="string" name="GGA">PE</i>
   <i type="int" name="VOSKOWN">     0</i>
   <i type="logical" name="LHFCALC"> F  </i>
   <i type="string" name="PRECFOCK"></i>
   <i type="logical" name="LSYMGRAD"> F  </i>
   <i type="logical" name="LHFONE"> F  </i>
   <i type="logical" name="LRHFCALC"> F  </i>
   <i type="logical" name="LTHOMAS"> F  </i>
   <i type="logical" name="LMODELHF"> F  </i>
   <i type="logical" name="LFOCKACE"> F  </i>
   <i name="ENCUT4O">     -1.00000000</i>
   <i type="int" name="EXXOEP">     0</i>
   <i type="int" name="FOURORBIT">     0</i>
   <i name="AEXX">      0.00000000</i>
   <i name="HFALPHA">      0.00000000</i>
   <i name="MCALPHA">      0.00000000</i>
   <i name="ALDAX">      1.00000000</i>
   <i name="AGGAX">      1.00000000</i>
   <i name="ALDAC">      1.00000000</i>
   <i name="AGGAC">      1.00000000</i>
   <i type="int" name="NKREDX">     1</i>
   <i type="int" name="NKREDY">     1</i>
   <i type="int" name="NKREDZ">     1</i>
   <i type="logical" name="SHIFTRED"> F  </i>
   <i type="logical" name="ODDONLY"> F  </i>
   <i type="logical" name="EVENONLY"> F  </i>
   <i type="int" name="LMAXFOCK">     0</i>
   <i type="int" name="NMAXFOCKAE">     0</i>
   <i type="logical" name="LFOCKAEDFT"> F  </i>
   <i name="HFSCREEN">      0.00000000</i>
   <i name="HFSCREENC">      0.00000000</i>
   <i type="int" name="NBANDSGWLOW">     0</i>
  </separator>
  <separator name="vdW DFT" >
   <i type="logical" name="LUSE_VDW"> F  </i>
   <i name="Zab_VDW">     -0.84910000</i>
   <i name="PARAM1">      0.12340000</i>
   <i name="PARAM2">      1.00000000</i>
   <i name="PARAM3">      0.00000000</i>
  </separator>
  <separator name="model GW" >
   <i type="int" name="MODEL_GW">     0</i>
   <i name="MODEL_EPS0">     12.37902823</i>
   <i name="MODEL_ALPHA">      1.00000000</i>
  </separator>
  <separator name="linear response parameters" >
   <i type="logical" name="LEPSILON"> F  </i>
   <i type="logical" name="LRPA"> F  </i>
   <i type="logical" name="LNABLA"> F  </i>
   <i type="logical" name="LVEL"> F  </i>
   <i name="CSHIFT">      0.10000000</i>
   <i name="OMEGAMAX">     -1.00000000</i>
   <i name="DEG_THRESHOLD">      0.00200000</i>
   <i name="RTIME">     -0.10000000</i>
   <i name="WPLASMAI">      0.00000000</i>
   <v name="DFIELD">      0.00000000      0.00000000      0.00000000</v>
   <v name="WPLASMA">      0.00000000      0.00000000      0.00000000      0.00000000      0.00000000      0.00000000      0.00000000      0.00000000      0.00000000</v>
  </separator>
  <separator name="orbital magnetization" >
   <i type="logical" name="NUCIND"> F  </i>
   <v name="MAGPOS">      0.00000000      0.00000000      0.00000000</v>
   <i type="logical" name="LNICSALL"> T  </i>
   <i type="logical" name="ORBITALMAG"> F  </i>
   <i type="logical" name="LMAGBLOCH"> F  </i>
   <i type="logical" name="LCHIMAG"> F  </i>
   <i type="logical" name="LGAUGE"> T  </i>
   <i type="int" name="MAGATOM">     0</i>
   <v name="MAGDIPOL">      0.00000000      0.00000000      0.00000000</v>
   <v name="AVECCONST">      0.00000000      0.00000000      0.00000000</v>
  </separator>
  <separator name="response functions" >
   <i type="logical" name="LFINITE_TEMPERATURE"> F  </i>
   <i type="logical" name="LADDER"> F  </i>
   <i type="logical" name="LRPAFORCE"> F  </i>
   <i type="logical" name="LFXC"> F  </i>
   <i type="logical" name="LHARTREE"> T  </i>
   <i type="int" name="IBSE">     0</i>
   <v type="int" name="KPOINT">    -1     0     0     0</v>
   <i type="logical" name="LTCTC"> F  </i>
   <i type="logical" name="LTCTE"> F  </i>
   <i type="logical" name="LTETE"> F  </i>
   <i type="logical" name="LTRIPLET"> F  </i>
   <i type="logical" name="LFXCEPS"> F  </i>
   <i type="logical" name="LFXHEG"> F  </i>
   <i type="int" name="NATURALO">     2</i>
   <i type="logical" name="LHOLEGF"> F  </i>
   <i type="logical" name="L2ORDER"> F  </i>
   <i type="logical" name="LDMP1"> F  </i>
   <i type="logical" name="LMP2LT"> F  </i>
   <i type="logical" name="LSMP2LT"> F  </i>
   <i type="logical" name="LGWLF"> F  </i>
   <i name="ENCUTGW">     -2.00000000</i>
   <i name="ENCUTGWSOFT">     -2.00000000</i>
   <i name="ENCUTLF">     -1.00000000</i>
   <i type="logical" name="LESF_SPLINES"> F  </i>
   <i type="int" name="LMAXMP2">    -1</i>
   <i name="SCISSOR">      0.00000000</i>
   <i type="int" name="NOMEGA">     0</i>
   <i type="int" name="NOMEGAR">     0</i>
   <i type="int" name="NBANDSGW">    -1</i>
   <i type="int" name="NBANDSO">    -1</i>
   <i type="int" name="NBANDSV">    -1</i>
   <i type="int" name="NELMGW">     1</i>
   <i type="int" name="NELMHF">     1</i>
   <i type="int" name="DIM">     3</i>
   <i type="int" name="IESPILON">     4</i>
   <i type="int" name="ANTIRES">     0</i>
   <i name="OMEGAMAX">    -30.00000000</i>
   <i name="OMEGAMIN">    -30.00000000</i>
   <i name="OMEGATL">   -200.00000000</i>
   <i type="int" name="OMEGAGRID">     0</i>
   <i name="CSHIFT">     -0.10000000</i>
   <i type="logical" name="LSELFENERGY"> F  </i>
   <i type="logical" name="LSPECTRAL"> F  </i>
   <i type="logical" name="LSPECTRALGW"> F  </i>
   <i type="logical" name="LSINGLES"> F  </i>
   <i type="logical" name="LFERMIGW"> F  </i>
   <i type="logical" name="ODDONLYGW"> F  </i>
   <i type="logical" name="EVENONLYGW"> F  </i>
   <i type="int" name="NKREDLFX">     1</i>
   <i type="int" name="NKREDLFY">     1</i>
   <i type="int" name="NKREDLFZ">     1</i>
   <i type="int" name="MAXMEM">  2800</i>
   <i type="int" name="TELESCOPE">     0</i>
   <i type="int" name="NTAUPAR">    -1</i>
   <i type="int" name="NOMEGAPAR">    -1</i>
   <i name="DAMP_NEWTON">      0.80000001</i>
   <i name="LAMBDA">      1.00000000</i>
  </separator>
  <separator name="External order field" >
   <i name="OFIELD_KAPPA">      0.00000000</i>
   <v name="OFIELD_K">      0.00000000      0.00000000      0.00000000</v>
   <i name="OFIELD_Q6_NEAR">      0.00000000</i>
   <i name="OFIELD_Q6_FAR">      0.00000000</i>
   <i name="OFIELD_A">      0.00000000</i>
  </separator>
  <separator name="optional k-points parameters" >
   <i type="int" name="KPOINTS_OPT_MODE">     1</i>
   <i type="logical" name="LKPOINTS_OPT"> F  </i>
  </separator>
  <separator name="solvation model" >
   <i type="logical" name="LSOL"> F  </i>
  </separator>
 </parameters>
 <atominfo>
  <atoms>      16 </atoms>
  <types>       2 </types>
  <array name="atoms" >
   <dimension dim="1">ion</dimension>
   <field type="string">element</field>
   <field type="int">atomtype</field>
   <set>
    <rc><c>B </c><c>   1</c></rc>
    <rc><c>B </c><c>   1</c></rc>
    <rc><c>C </c><c>   2</c></rc>
    <rc><c>C </c><c>   2</c></rc>
    <rc><c>C </c><c>   2</c></rc>
    <rc><c>C </c><c>   2</c></rc>
    <rc><c>C </c><c>   2</c></rc>
    <rc><c>C </c><c>   2</c></rc>
    <rc><c>C </c><c>   2</c></rc>
    <rc><c>C </c><c>   2</c></rc>
    <rc><c>C </c><c>   2</c></rc>
    <rc><c>C </c><c>   2</c></rc>
    <rc><c>C </c><c>   2</c></rc>
    <rc><c>C </c><c>   2</c></rc>
    <rc><c>C </c><c>   2</c></rc>
    <rc><c>C </c><c>   2</c></rc>
   </set>
  </array>
  <array name="atomtypes" >
   <dimension dim="1">type</dimension>
   <field type="int">atomspertype</field>
   <field type="string">element</field>
   <field>mass</field>
   <field>valence</field>
   <field type="string">pseudopotential</field>
   <set>
    <rc><c>   2</c><c>B </c><c>     10.81100000</c><c>      3.00000000</c><c>  PAW_PBE B 06Sep2000                   </c></rc>
    <rc><c>  14</c><c>C </c><c>     12.01100000</c><c>      4.00000000</c><c>  PAW_PBE C 08Apr2002                   </c></rc>
   </set>
  </array>
 </atominfo>
 <structure name="initialpos" >
  <crystal>
   <varray name="basis" >
    <v>       4.36563406       2.52050000       0.00000000 </v>
    <v>      -4.36563406       2.52050000       0.00000000 </v>
    <v>       0.00000000       0.00000000      15.00000000 </v>
   </varray>
   <i name="volume">    330.10741948 </i>
   <varray name="rec_basis" >
    <v>       0.11453090       0.19837334       0.00000000 </v>
    <v>      -0.11453090       0.19837334       0.00000000 </v>
    <v>       0.00000000       0.00000000       0.06666667 </v>
   </varray>
  </crystal>
  <varray name="positions" >
   <v>       0.33833034       0.66916432       0.10000000 </v>
   <v>       0.67165522       0.33584146       0.10000000 </v>
   <v>       0.16373946       0.31999962       0.10000000 </v>
   <v>       0.32250218       0.16126397       0.10000000 </v>
   <v>       0.16376430       0.84376384       0.10000000 </v>
   <v>       0.84623863       0.16123684       0.10000000 </v>
   <v>       0.68749850       0.84373000       0.10000000 </v>
   <v>       0.84626736       0.68499594       0.10000000 </v>
   <v>       0.33333267       0.16666633       0.32553333 </v>
   <v>       0.49999967       0.99999933       0.32553333 </v>
   <v>       0.33333267       0.66666633       0.32553333 </v>
   <v>       0.49999967       0.49999933       0.32553333 </v>
   <v>       0.83333267       0.16666633       0.32553333 </v>
   <v>       0.99999967       0.99999933       0.32553333 </v>
   <v>       0.83333267       0.66666633       0.32553333 </v>
   <v>       0.99999967       0.49999933       0.32553333 </v>
  </varray>
 </structure>
 <calculation>
  <scstep>
   <time name="dav">    5.84    5.89</time>
   <time name="total">    5.89    5.94</time>
   <energy>
    <i name="alphaZ">     62.61406690 </i>
    <i name="ewald">   5468.26268556 </i>
    <i name="hartreedc">  -7285.73366002 </i>
    <i name="XCdc">    199.86295496 </i>
    <i name="pawpsdc">   1604.28699987 </i>
    <i name="pawaedc">  -1610.37247880 </i>
    <i name="eentropy">     -0.01655114 </i>
    <i name="bandstr">   -381.37935084 </i>
    <i name="atom">   2202.35892741 </i>
    <i name="e_fr_energy">    259.88359390 </i>
    <i name="e_wo_entrp">    259.90014504 </i>
    <i name="e_0_energy">    259.89186947 </i>
   </energy>
  </scstep>
  <scstep>
   <time name="dav">    9.00    9.06</time>
   <time name="total">    9.00    9.07</time>
   <energy>
    <i name="e_fr_energy">   -130.05107017 </i>
    <i name="e_wo_entrp">   -130.04184004 </i>
    <i name="e_0_energy">   -130.04645511 </i>
   </energy>
  </scstep>
  <scstep>
   <time name="dav">   10.98   11.06</time>
   <time name="total">   10.98   11.06</time>
   <energy>
    <i name="e_fr_energy">   -145.76837750 </i>
    <i name="e_wo_entrp">   -145.76210814 </i>
    <i name="e_0_energy">   -145.76524282 </i>
   </energy>
  </scstep>
  <scstep>
   <time name="dav">    9.48    9.55</time>
   <time name="total">    9.48    9.55</time>
   <energy>
    <i name="e_fr_energy">   -145.81174980 </i>
    <i name="e_wo_entrp">   -145.80533686 </i>
    <i name="e_0_energy">   -145.80854333 </i>
   </energy>
  </scstep>
  <scstep>
   <time name="dav">   10.11   10.18</time>
   <time name="total">   10.38   10.45</time>
   <energy>
    <i name="e_fr_energy">   -145.81182492 </i>
    <i name="e_wo_entrp">   -145.80541197 </i>
    <i name="e_0_energy">   -145.80861844 </i>
   </energy>
  </scstep>
  <scstep>
   <time name="dav">   10.38   10.44</time>
   <time name="total">   10.68   10.76</time>
   <energy>
    <i name="e_fr_energy">   -107.36110116 </i>
    <i name="e_wo_entrp">   -107.33911975 </i>
    <i name="e_0_energy">   -107.35011045 </i>
   </energy>
  </scstep>
  <scstep>
   <time name="dav">   10.10   10.16</time>
   <time name="total">   10.40   10.48</time>
   <energy>
    <i name="e_fr_energy">   -114.69177282 </i>
    <i name="e_wo_entrp">   -114.67222203 </i>
    <i name="e_0_energy">   -114.68199742 </i>
   </energy>
  </scstep>
  <scstep>
   <time name="dav">   10.58   10.66</time>
   <time name="total">   10.88   10.97</time>
   <energy>
    <i name="e_fr_energy">   -123.66835957 </i>
    <i name="e_wo_entrp">   -123.66049552 </i>
    <i name="e_0_energy">   -123.66442755 </i>
   </energy>
  </scstep>
  <scstep>
   <time name="dav">    7.43    7.49</time>
   <time name="total">    7.73    7.79</time>
   <energy>
    <i name="e_fr_energy">   -131.26492959 </i>
    <i name="e_wo_entrp">   -131.25973941 </i>
    <i name="e_0_energy">   -131.26233450 </i>
   </energy>
  </scstep>
  <scstep>
   <time name="dav">    9.06    9.12</time>
   <time name="total">    9.36    9.44</time>
   <energy>
    <i name="e_fr_energy">   -138.63500633 </i>
    <i name="e_wo_entrp">   -138.63276757 </i>
    <i name="e_0_energy">   -138.63388695 </i>
   </energy>
  </scstep>
  <scstep>
   <time name="dav">    8.89    8.95</time>
   <time name="total">    9.19    9.25</time>
   <energy>
    <i name="e_fr_energy">   -140.04671597 </i>
    <i name="e_wo_entrp">   -140.04457747 </i>
    <i name="e_0_energy">   -140.04564672 </i>
   </energy>
  </scstep>
  <scstep>
   <time name="dav">    8.67    8.73</time>
   <time name="total">    8.96    9.03</time>
   <energy>
    <i name="e_fr_energy">   -140.28306166 </i>
    <i name="e_wo_entrp">   -140.28106328 </i>
    <i name="e_0_energy">   -140.28206247 </i>
   </energy>
  </scstep>
  <scstep>
   <time name="dav">    6.80    6.86</time>
   <time name="total">    7.10    7.16</time>
   <energy>
    <i name="e_fr_energy">   -140.34394317 </i>
    <i name="e_wo_entrp">   -140.34162980 </i>
    <i name="e_0_energy">   -140.34278648 </i>
   </energy>
  </scstep>
  <scstep>
   <time name="dav">    8.18    8.23</time>
   <time name="total">    8.47    8.54</time>
   <energy>
    <i name="e_fr_energy">   -140.36990373 </i>
    <i name="e_wo_entrp">   -140.36740971 </i>
    <i name="e_0_energy">   -140.36865672 </i>
   </energy>
  </scstep>
  <scstep>
   <time name="dav">    6.72    6.77</time>
   <time name="total">    7.02    7.07</time>
   <energy>
    <i name="e_fr_energy">   -140.37923956 </i>
    <i name="e_wo_entrp">   -140.37667896 </i>
    <i name="e_0_energy">   -140.37795926 </i>
   </energy>
  </scstep>
  <scstep>
   <time name="dav">    5.96    6.00</time>
   <time name="total">    6.26    6.31</time>
   <energy>
    <i name="e_fr_energy">   -140.38090814 </i>
    <i name="e_wo_entrp">   -140.37833803 </i>
    <i name="e_0_energy">   -140.37962308 </i>
   </energy>
  </scstep>
  <scstep>
   <time name="dav">    6.51    6.56</time>
   <time name="total">    6.81    6.87</time>
   <energy>
    <i name="e_fr_energy">   -140.38268122 </i>
    <i name="e_wo_entrp">   -140.38012090 </i>
    <i name="e_0_energy">   -140.38140106 </i>
   </energy>
  </scstep>
  <scstep>
   <time name="dav">    6.33    6.38</time>
   <time name="total">    6.62    6.68</time>
   <energy>
    <i name="e_fr_energy">   -140.38380964 </i>
    <i name="e_wo_entrp">   -140.38126034 </i>
    <i name="e_0_energy">   -140.38253499 </i>
   </energy>
  </scstep>
  <scstep>
   <time name="dav">    7.75    7.79</time>
   <time name="total">    8.04    8.10</time>
   <energy>
    <i name="e_fr_energy">   -140.38434865 </i>
    <i name="e_wo_entrp">   -140.38179941 </i>
    <i name="e_0_energy">   -140.38307403 </i>
   </energy>
  </scstep>
  <scstep>
   <time name="dav">    7.17    7.21</time>
   <time name="total">    7.46    7.52</time>
   <energy>
    <i name="e_fr_energy">   -140.38453694 </i>
    <i name="e_wo_entrp">   -140.38198104 </i>
    <i name="e_0_energy">   -140.38325899 </i>
   </energy>
  </scstep>
  <scstep>
   <time name="dav">    8.44    8.49</time>
   <time name="total">    8.73    8.79</time>
   <energy>
    <i name="e_fr_energy">   -140.38458340 </i>
    <i name="e_wo_entrp">   -140.38202380 </i>
    <i name="e_0_energy">   -140.38330360 </i>
   </energy>
  </scstep>
  <scstep>
   <time name="dav">    9.88    9.94</time>
   <time name="total">   10.18   10.25</time>
   <energy>
    <i name="e_fr_energy">   -140.38460033 </i>
    <i name="e_wo_entrp">   -140.38204012 </i>
    <i name="e_0_energy">   -140.38332022 </i>
   </energy>
  </scstep>
  <scstep>
   <time name="dav">    8.41    8.47</time>
   <time name="total">    8.71    8.77</time>
   <energy>
    <i name="e_fr_energy">   -140.38460819 </i>
    <i name="e_wo_entrp">   -140.38204791 </i>
    <i name="e_0_energy">   -140.38332805 </i>
   </energy>
  </scstep>
  <scstep>
   <time name="dav">    9.68    9.73</time>
   <time name="total">    9.97   10.03</time>
   <energy>
    <i name="e_fr_energy">   -140.38461166 </i>
    <i name="e_wo_entrp">   -140.38205189 </i>
    <i name="e_0_energy">   -140.38333177 </i>
   </energy>
  </scstep>
  <scstep>
   <time name="dav">    9.11    9.16</time>
   <time name="total">    9.41    9.47</time>
   <energy>
    <i name="e_fr_energy">   -140.38461356 </i>
    <i name="e_wo_entrp">   -140.38205421 </i>
    <i name="e_0_energy">   -140.38333388 </i>
   </energy>
  </scstep>
  <scstep>
   <time name="dav">    8.24    8.29</time>
   <time name="total">    8.53    8.60</time>
   <energy>
    <i name="e_fr_energy">   -140.38461469 </i>
    <i name="e_wo_entrp">   -140.38205543 </i>
    <i name="e_0_energy">   -140.38333506 </i>
   </energy>
  </scstep>
  <scstep>
   <time name="dav">    8.53    8.58</time>
   <time name="total">    8.56    8.61</time>
   <energy>
    <i name="alphaZ">     62.61406690 </i>
    <i name="ewald">   5468.26268556 </i>
    <i name="hartreedc">  -7518.22184798 </i>
    <i name="XCdc">    206.49486171 </i>
    <i name="pawpsdc">   6329.95812310 </i>
    <i name="pawaedc">  -6337.97642667 </i>
    <i name="eentropy">     -0.00255926 </i>
    <i name="bandstr">   -553.87244583 </i>
    <i name="atom">   2202.35892741 </i>
    <i name="e_fr_energy">   -140.38461505 </i>
    <i name="e_wo_entrp">   -140.38205579 </i>
    <i name="e_0_energy">   -140.38333542 </i>
   </energy>
  </scstep>
  <structure>
   <crystal>
    <varray name="basis" >
     <v>       4.36563406       2.52050000       0.00000000 </v>
     <v>      -4.36563406       2.52050000       0.00000000 </v>
     <v>       0.00000000       0.00000000      15.00000000 </v>
    </varray>
    <i name="volume">    330.10741948 </i>
    <varray name="rec_basis" >
     <v>       0.11453090       0.19837334       0.00000000 </v>
     <v>      -0.11453090       0.19837334       0.00000000 </v>
     <v>       0.00000000       0.00000000       0.06666667 </v>
    </varray>
   </crystal>
   <varray name="positions" >
    <v>       0.33833034       0.66916432       0.10000000 </v>
    <v>       0.67165522       0.33584146       0.10000000 </v>
    <v>       0.16373946       0.31999962       0.10000000 </v>
    <v>       0.32250218       0.16126397       0.10000000 </v>
    <v>       0.16376430       0.84376384       0.10000000 </v>
    <v>       0.84623863       0.16123684       0.10000000 </v>
    <v>       0.68749850       0.84373000       0.10000000 </v>
    <v>       0.84626736       0.68499594       0.10000000 </v>
    <v>       0.33333267       0.16666633       0.32553333 </v>
    <v>       0.49999967       0.99999933       0.32553333 </v>
    <v>       0.33333267       0.66666633       0.32553333 </v>
    <v>       0.49999967       0.49999933       0.32553333 </v>
    <v>       0.83333267       0.16666633       0.32553333 </v>
    <v>       0.99999967       0.99999933       0.32553333 </v>
    <v>       0.83333267       0.66666633       0.32553333 </v>
    <v>       0.99999967       0.49999933       0.32553333 </v>
   </varray>
  </structure>
  <varray name="forces" >
   <v>       0.00066668       0.00107574       0.05350216 </v>
   <v>       0.00528290       0.00091175      -0.00646998 </v>
   <v>      -0.30018739       0.51942567      -0.01762599 </v>
   <v>       0.28797411       0.49799163       0.00485079 </v>
   <v>       0.60097000      -0.00026995      -0.01762570 </v>
   <v>      -0.57863418      -0.00091202       0.00470903 </v>
   <v>      -0.30180134      -0.51866473      -0.01771707 </v>
   <v>       0.28539042      -0.50015860       0.00470486 </v>
   <v>       0.00210491       0.00341804       0.00305410 </v>
   <v>      -0.01307861       0.02081075       0.01637676 </v>
   <v>      -0.00007353      -0.00034407      -0.06438593 </v>
   <v>       0.02436625      -0.00080794       0.01637399 </v>
   <v>      -0.00344480       0.00063859       0.00196491 </v>
   <v>       0.00014066       0.00046887      -0.00048796 </v>
   <v>       0.00246960      -0.00277220       0.00197209 </v>
   <v>      -0.01214568      -0.02081152       0.01680395 </v>
  </varray>
  <varray name="stress" >
   <v>       4.01155231      -0.00496604       0.00380913 </v>
   <v>      -0.00496600       4.01119887       0.00652375 </v>
   <v>       0.00380917       0.00652376      -2.50306561 </v>
  </varray>
  <energy>
   <i name="e_fr_energy">   -142.27836614 </i>
   <i name="e_wo_entrp">   -142.27580688 </i>
   <i name="e_0_energy">   -142.27708651 </i>
  </energy>
  <time name="totalsc">  240.08  241.87</time>
 </calculation>
 <calculation>
  <scstep>
   <time name="dav">    5.85    5.88</time>
   <time name="total">    6.14    6.19</time>
   <energy>
    <i name="alphaZ">     62.61406690 </i>
    <i name="ewald">   5459.67048344 </i>
    <i name="hartreedc">  -7512.06011545 </i>
    <i name="XCdc">    206.35202611 </i>
    <i name="pawpsdc">   6329.95810292 </i>
    <i name="pawaedc">  -6337.97641068 </i>
    <i name="eentropy">     -0.00275285 </i>
    <i name="bandstr">   -551.25441475 </i>
    <i name="atom">   2202.35892741 </i>
    <i name="e_fr_energy">   -140.34008695 </i>
    <i name="e_wo_entrp">   -140.33733410 </i>
    <i name="e_0_energy">   -140.33871053 </i>
   </energy>
  </scstep>
  <scstep>
   <time name="dav">   10.74   10.80</time>
   <time name="total">   11.03   11.10</time>
   <energy>
    <i name="e_fr_energy">   -140.29908372 </i>
    <i name="e_wo_entrp">   -140.29622512 </i>
    <i name="e_0_energy">   -140.29765442 </i>
   </energy>
  </scstep>
  <scstep>
   <time name="dav">    9.54    9.60</time>
   <time name="total">    9.84    9.91</time>
   <energy>
    <i name="e_fr_energy">   -140.29539023 </i>
    <i name="e_wo_entrp">   -140.29243442 </i>
    <i name="e_0_energy">   -140.29391233 </i>
   </energy>
  </scstep>
  <scstep>
   <time name="dav">    8.98    9.04</time>
   <time name="total">    9.27    9.35</time>
   <energy>
    <i name="e_fr_energy">   -140.29529769 </i>
    <i name="e_wo_entrp">   -140.29232338 </i>
    <i name="e_0_energy">   -140.29381053 </i>
   </energy>
  </scstep>
  <scstep>
   <time name="dav">    7.69    7.74</time>
   <time name="total">    7.99    8.05</time>
   <energy>
    <i name="e_fr_energy">   -140.29529651 </i>
    <i name="e_wo_entrp">   -140.29231627 </i>
    <i name="e_0_energy">   -140.29380639 </i>
   </energy>
  </scstep>
  <scstep>
   <time name="dav">   10.11   10.17</time>
   <time name="total">   10.40   10.47</time>
   <energy>
    <i name="e_fr_energy">   -140.29529948 </i>
    <i name="e_wo_entrp">   -140.29231935 </i>
    <i name="e_0_energy">   -140.29380942 </i>
   </energy>
  </scstep>
  <scstep>
   <time name="dav">    8.99    9.04</time>
   <time name="total">    9.28    9.35</time>
   <energy>
    <i name="e_fr_energy">   -140.29530903 </i>
    <i name="e_wo_entrp">   -140.29232905 </i>
    <i name="e_0_energy">   -140.29381904 </i>
   </energy>
  </scstep>
  <scstep>
   <time name="dav">    9.18    9.23</time>
   <time name="total">    9.47    9.54</time>
   <energy>
    <i name="e_fr_energy">   -140.29531783 </i>
    <i name="e_wo_entrp">   -140.29233763 </i>
    <i name="e_0_energy">   -140.29382773 </i>
   </energy>
  </scstep>
  <scstep>
   <time name="dav">    8.20    8.25</time>
   <time name="total">    8.49    8.55</time>
   <energy>
    <i name="e_fr_energy">   -140.29533384 </i>
    <i name="e_wo_entrp">   -140.29235339 </i>
    <i name="e_0_energy">   -140.29384361 </i>
   </energy>
  </scstep>
  <scstep>
   <time name="dav">    8.63    8.69</time>
   <time name="total">    8.92    8.99</time>
   <energy>
    <i name="e_fr_energy">   -140.29533954 </i>
    <i name="e_wo_entrp">   -140.29235909 </i>
    <i name="e_0_energy">   -140.29384931 </i>
   </energy>
  </scstep>
  <scstep>
   <time name="dav">    7.42    7.46</time>
   <time name="total">    7.71    7.77</time>
   <energy>
    <i name="e_fr_energy">   -140.29534655 </i>
    <i name="e_wo_entrp">   -140.29236611 </i>
    <i name="e_0_energy">   -140.29385633 </i>
   </energy>
  </scstep>
  <scstep>
   <time name="dav">    6.52    6.55</time>
   <time name="total">    6.81    6.86</time>
   <energy>
    <i name="e_fr_energy">   -140.29534908 </i>
    <i name="e_wo_entrp">   -140.29236862 </i>
    <i name="e_0_energy">   -140.29385885 </i>
   </energy>
  </scstep>
  <scstep>
   <time name="dav">    8.71    8.76</time>
   <time name="total">    8.74    8.80</time>
   <energy>
    <i name="alphaZ">     62.61406690 </i>
    <i name="ewald">   5459.67048344 </i>
    <i name="hartreedc">  -7509.35817012 </i>
    <i name="XCdc">    206.24512078 </i>
    <i name="pawpsdc">   6288.42281500 </i>
    <i name="pawaedc">  -6296.42678848 </i>
    <i name="eentropy">     -0.00298047 </i>
    <i name="bandstr">   -553.81882415 </i>
    <i name="atom">   2202.35892741 </i>
    <i name="e_fr_energy">   -140.29534969 </i>
    <i name="e_wo_entrp">   -140.29236922 </i>
    <i name="e_0_energy">   -140.29385945 </i>
   </energy>
  </scstep>
  <structure>
   <crystal>
    <varray name="basis" >
     <v>       4.36563406       2.52050000       0.00000000 </v>
     <v>      -4.36563406       2.52050000       0.00000000 </v>
     <v>       0.00000000       0.00000000      15.00000000 </v>
    </varray>
    <i name="volume">    330.10741948 </i>
    <varray name="rec_basis" >
     <v>       0.11453090       0.19837334       0.00000000 </v>
     <v>      -0.11453090       0.19837334       0.00000000 </v>
     <v>       0.00000000       0.00000000       0.06666667 </v>
    </varray>
   </crystal>
   <varray name="positions" >
    <v>       0.33834432       0.66917093       0.10017207 </v>
    <v>       0.67169313       0.33582100       0.09997919 </v>
    <v>       0.16705178       0.32662917       0.09994331 </v>
    <v>       0.32885913       0.16443864       0.10001560 </v>
    <v>       0.16708224       0.84044073       0.09994331 </v>
    <v>       0.84303279       0.16442523       0.10001515 </v>
    <v>       0.68086732       0.84043389       0.09994302 </v>
    <v>       0.84305767       0.67863254       0.10001513 </v>
    <v>       0.33337701       0.16668741       0.32554316 </v>
    <v>       0.50012656       0.00027076       0.32558600 </v>
    <v>       0.33332897       0.66666345       0.32532626 </v>
    <v>       0.50012656       0.49985697       0.32558599 </v>
    <v>       0.83331974       0.16669148       0.32553965 </v>
    <v>       0.00000493       0.00000304       0.32553176 </v>
    <v>       0.83331978       0.66662616       0.32553968 </v>
    <v>       0.99973339       0.49986727       0.32558738 </v>
   </varray>
  </structure>
  <varray name="forces" >
   <v>      -0.00021480      -0.00208756       0.00698309 </v>
   <v>      -0.01301261      -0.00274207      -0.00445245 </v>
   <v>       0.79716980      -1.38188708       0.01073445 </v>
   <v>      -0.76349762      -1.32552591      -0.01087129 </v>
   <v>      -1.59963458      -0.00312485       0.01073183 </v>
   <v>       1.54310133       0.00494412      -0.01085710 </v>
   <v>       0.79739148       1.37933203       0.01057289 </v>
   <v>      -0.76157225       1.33059361      -0.01084633 </v>
   <v>      -0.00335480      -0.00502959       0.00901360 </v>
   <v>       0.03164372      -0.04923335      -0.00825867 </v>
   <v>      -0.00003230       0.00065846       0.00024761 </v>
   <v>      -0.05781879       0.00241550      -0.00824755 </v>
   <v>       0.00429996      -0.00146613       0.00889290 </v>
   <v>       0.00014288      -0.00048503      -0.00419699 </v>
   <v>      -0.00407544       0.00334688       0.00886988 </v>
   <v>       0.02946402       0.05029096      -0.00831587 </v>
  </varray>
  <varray name="stress" >
   <v>      -3.68544692      -0.02998247       0.00346800 </v>
   <v>      -0.02998248      -3.75006408       0.00598511 </v>
   <v>       0.00346797       0.00598510      -2.41342274 </v>
  </varray>
  <energy>
   <i name="e_fr_energy">   -142.19391082 </i>
   <i name="e_wo_entrp">   -142.19093036 </i>
   <i name="e_0_energy">   -142.19242059 </i>
  </energy>
  <time name="totalsc">  119.38  120.26</time>
 </calculation>
 <calculation>
  <scstep>
   <time name="dav">    5.85    5.89</time>
   <time name="total">    6.14    6.19</time>
   <energy>
    <i name="alphaZ">     62.61406690 </i>
    <i name="ewald">   5465.70419846 </i>
    <i name="hartreedc">  -7513.56325913 </i>
    <i name="XCdc">    206.34118103 </i>
    <i name="pawpsdc">   6288.41928766 </i>
    <i name="pawaedc">  -6296.42326630 </i>
    <i name="eentropy">     -0.00194488 </i>
    <i name="bandstr">   -555.86943223 </i>
    <i name="atom">   2202.35892741 </i>
    <i name="e_fr_energy">   -140.42024107 </i>
    <i name="e_wo_entrp">   -140.41829620 </i>
    <i name="e_0_energy">   -140.41926864 </i>
   </energy>
  </scstep>
  <scstep>
   <time name="dav">   10.12   10.18</time>
   <time name="total">   10.41   10.48</time>
   <energy>
    <i name="e_fr_energy">   -140.39869451 </i>
    <i name="e_wo_entrp">   -140.39625046 </i>
    <i name="e_0_energy">   -140.39747248 </i>
   </energy>
  </scstep>
  <scstep>
   <time name="dav">    9.71    9.77</time>
   <time name="total">   10.00   10.06</time>
   <energy>
    <i name="e_fr_energy">   -140.39661639 </i>
    <i name="e_wo_entrp">   -140.39391858 </i>
    <i name="e_0_energy">   -140.39526749 </i>
   </energy>
  </scstep>
  <scstep>
   <time name="dav">    7.95    8.00</time>
   <time name="total">    8.24    8.30</time>
   <energy>
    <i name="e_fr_energy">   -140.39654242 </i>
    <i name="e_wo_entrp">   -140.39382823 </i>
    <i name="e_0_energy">   -140.39518532 </i>
   </energy>
  </scstep>
  <scstep>
   <time name="dav">    8.13    8.18</time>
   <time name="total">    8.41    8.48</time>
   <energy>
    <i name="e_fr_energy">   -140.39653965 </i>
    <i name="e_wo_entrp">   -140.39378381 </i>
    <i name="e_0_energy">   -140.39516173 </i>
   </energy>
  </scstep>
  <scstep>
   <time name="dav">    8.00    8.05</time>
   <time name="total">    8.29    8.35</time>
   <energy>
    <i name="e_fr_energy">   -140.39653824 </i>
    <i name="e_wo_entrp">   -140.39378997 </i>
    <i name="e_0_energy">   -140.39516411 </i>
   </energy>
  </scstep>
  <scstep>
   <time name="dav">    9.81    9.86</time>
   <time name="total">   10.10   10.16</time>
   <energy>
    <i name="e_fr_energy">   -140.39654330 </i>
    <i name="e_wo_entrp">   -140.39379467 </i>
    <i name="e_0_energy">   -140.39516899 </i>
   </energy>
  </scstep>
  <scstep>
   <time name="dav">    9.13    9.18</time>
   <time name="total">    9.42    9.49</time>
   <energy>
    <i name="e_fr_energy">   -140.39654951 </i>
    <i name="e_wo_entrp">   -140.39379886 </i>
    <i name="e_0_energy">   -140.39517419 </i>
   </energy>
  </scstep>
  <scstep>
   <time name="dav">    7.75    7.79</time>
   <time name="total">    8.04    8.09</time>
   <energy>
    <i name="e_fr_energy">   -140.39655542 </i>
    <i name="e_wo_entrp">   -140.39380360 </i>
    <i name="e_0_energy">   -140.39517951 </i>
   </energy>
  </scstep>
  <scstep>
   <time name="dav">    6.67    6.71</time>
   <time name="total">    6.96    7.01</time>
   <energy>
    <i name="e_fr_energy">   -140.39656012 </i>
    <i name="e_wo_entrp">   -140.39380800 </i>
    <i name="e_0_energy">   -140.39518406 </i>
   </energy>
  </scstep>
  <scstep>
   <time name="dav">    5.84    5.88</time>
   <time name="total">    6.13    6.18</time>
   <energy>
    <i name="e_fr_energy">   -140.39656403 </i>
    <i name="e_wo_entrp">   -140.39381164 </i>
    <i name="e_0_energy">   -140.39518783 </i>
   </energy>
  </scstep>
  <scstep>
   <time name="dav">   10.36   10.42</time>
   <time name="total">   10.39   10.45</time>
   <energy>
    <i name="alphaZ">     62.61406690 </i>
    <i name="ewald">   5465.70419846 </i>
    <i name="hartreedc">  -7515.62904774 </i>
    <i name="XCdc">    206.42227554 </i>
    <i name="pawpsdc">   6315.90675746 </i>
    <i name="pawaedc">  -6323.92005481 </i>
    <i name="eentropy">     -0.00275246 </i>
    <i name="bandstr">   -553.85093525 </i>
    <i name="atom">   2202.35892741 </i>
    <i name="e_fr_energy">   -140.39656449 </i>
    <i name="e_wo_entrp">   -140.39381203 </i>
    <i name="e_0_energy">   -140.39518826 </i>
   </energy>
  </scstep>
  <structure>
   <crystal>
    <varray name="basis" >
     <v>       4.36563406       2.52050000       0.00000000 </v>
     <v>      -4.36563406       2.52050000       0.00000000 </v>
     <v>       0.00000000       0.00000000      15.00000000 </v>
    </varray>
    <i name="volume">    330.10741948 </i>
    <varray name="rec_basis" >
     <v>       0.11453090       0.19837334       0.00000000 </v>
     <v>      -0.11453090       0.19837334       0.00000000 </v>
     <v>       0.00000000       0.00000000       0.06666667 </v>
    </varray>
   </crystal>
   <varray name="positions" >
    <v>       0.33833411       0.66916611       0.10004641 </v>
    <v>       0.67166544       0.33583594       0.09999439 </v>
    <v>       0.16463291       0.32178785       0.09998471 </v>
    <v>       0.32421688       0.16212029       0.10000421 </v>
    <v>       0.16465927       0.84286748       0.09998471 </v>
    <v>       0.84537391       0.16209686       0.10000409 </v>
    <v>       0.68570984       0.84284092       0.09998463 </v>
    <v>       0.84540159       0.68327951       0.10000408 </v>
    <v>       0.33334463       0.16667202       0.32553598 </v>
    <v>       0.50003390       0.00007255       0.32554754 </v>
    <v>       0.33333167       0.66666555       0.32547748 </v>
    <v>       0.50003390       0.49996093       0.32554754 </v>
    <v>       0.83332918       0.16667312       0.32553504 </v>
    <v>       0.00000109       0.00000033       0.32553291 </v>
    <v>       0.83332919       0.66665550       0.32553504 </v>
    <v>       0.99992784       0.49996371       0.32554791 </v>
   </varray>
  </structure>
  <varray name="forces" >
   <v>       0.00042451       0.00027879       0.03994889 </v>
   <v>       0.00070476      -0.00002034      -0.00589232 </v>
   <v>       0.00033436      -0.00140096      -0.00983727 </v>
   <v>      -0.00069716      -0.00261838       0.00076568 </v>
   <v>      -0.00176652      -0.00118125      -0.00983701 </v>
   <v>       0.00339651       0.00081353       0.00068285 </v>
   <v>      -0.00076764       0.00110517      -0.00995524 </v>
   <v>      -0.00192517       0.00249144       0.00068405 </v>
   <v>       0.00064232       0.00115086       0.00468097 </v>
   <v>      -0.00104141       0.00190476       0.00975908 </v>
   <v>      -0.00005350      -0.00006136      -0.04703229 </v>
   <v>       0.00219659       0.00003584       0.00975895 </v>
   <v>      -0.00134251       0.00008503       0.00385073 </v>
   <v>       0.00012615       0.00018940      -0.00148541 </v>
   <v>       0.00071443      -0.00110514       0.00385049 </v>
   <v>      -0.00094573      -0.00166740       0.01005783 </v>
  </varray>
  <varray name="stress" >
   <v>       1.40643763      -0.01267614       0.00374257 </v>
   <v>      -0.01267616       1.38999694       0.00646249 </v>
   <v>       0.00374262       0.00646248      -2.47616801 </v>
  </varray>
  <energy>
   <i name="e_fr_energy">   -142.29192045 </i>
   <i name="e_wo_entrp">   -142.28916798 </i>
   <i name="e_0_energy">   -142.29054421 </i>
  </energy>
  <time name="totalsc">  107.85  108.60</time>
 </calculation>
 <calculation>
  <scstep>
   <time name="dav">    6.39    6.43</time>
   <time name="total">    6.68    6.73</time>
   <energy>
    <i name="alphaZ">     62.61406690 </i>
    <i name="ewald">   5465.70546148 </i>
    <i name="hartreedc">  -7515.63143496 </i>
    <i name="XCdc">    206.42229452 </i>
    <i name="pawpsdc">   6315.91512243 </i>
    <i name="pawaedc">  -6323.92841155 </i>
    <i name="eentropy">     -0.00275226 </i>
    <i name="bandstr">   -553.84983958 </i>
    <i name="atom">   2202.35892741 </i>
    <i name="e_fr_energy">   -140.39656562 </i>
    <i name="e_wo_entrp">   -140.39381336 </i>
    <i name="e_0_energy">   -140.39518949 </i>
   </energy>
  </scstep>
  <scstep>
   <time name="dav">   11.55   11.62</time>
   <time name="total">   11.58   11.65</time>
   <energy>
    <i name="alphaZ">     62.61406690 </i>
    <i name="ewald">   5465.70546148 </i>
    <i name="hartreedc">  -7515.63212070 </i>
    <i name="XCdc">    206.42230934 </i>
    <i name="pawpsdc">   6315.91933643 </i>
    <i name="pawaedc">  -6323.93262718 </i>
    <i name="eentropy">     -0.00275230 </i>
    <i name="bandstr">   -553.84916706 </i>
    <i name="atom">   2202.35892741 </i>
    <i name="e_fr_energy">   -140.39656568 </i>
    <i name="e_wo_entrp">   -140.39381338 </i>
    <i name="e_0_energy">   -140.39518953 </i>
   </energy>
  </scstep>
  <structure>
   <crystal>
    <varray name="basis" >
     <v>       4.36563406       2.52050000       0.00000000 </v>
     <v>      -4.36563406       2.52050000       0.00000000 </v>
     <v>       0.00000000       0.00000000      15.00000000 </v>
    </varray>
    <i name="volume">    330.10741948 </i>
    <varray name="rec_basis" >
     <v>       0.11453090       0.19837334       0.00000000 </v>
     <v>      -0.11453090       0.19837334       0.00000000 </v>
     <v>       0.00000000       0.00000000       0.06666667 </v>
    </varray>
   </crystal>
   <varray name="positions" >
    <v>       0.33833411       0.66916610       0.10004639 </v>
    <v>       0.67166544       0.33583594       0.09999439 </v>
    <v>       0.16463245       0.32178693       0.09998472 </v>
    <v>       0.32421600       0.16211985       0.10000421 </v>
    <v>       0.16465881       0.84286794       0.09998472 </v>
    <v>       0.84537435       0.16209642       0.10000408 </v>
    <v>       0.68571075       0.84284138       0.09998464 </v>
    <v>       0.84540203       0.68328039       0.10000408 </v>
    <v>       0.33334462       0.16667202       0.32553598 </v>
    <v>       0.50003388       0.00007251       0.32554753 </v>
    <v>       0.33333167       0.66666556       0.32547751 </v>
    <v>       0.50003388       0.49996095       0.32554753 </v>
    <v>       0.83332918       0.16667311       0.32553504 </v>
    <v>       0.00000109       0.00000033       0.32553291 </v>
    <v>       0.83332919       0.66665550       0.32553504 </v>
    <v>       0.99992788       0.49996373       0.32554790 </v>
   </varray>
  </structure>
  <varray name="forces" >
   <v>       0.00042465       0.00027908       0.03995549 </v>
   <v>       0.00070676      -0.00001985      -0.00589274 </v>
   <v>       0.00020936      -0.00118426      -0.00984052 </v>
   <v>      -0.00057833      -0.00241203       0.00076849 </v>
   <v>      -0.00151569      -0.00118098      -0.00984023 </v>
   <v>       0.00315655       0.00081289       0.00068560 </v>
   <v>      -0.00089277       0.00088894      -0.00995848 </v>
   <v>      -0.00180687       0.00228423       0.00068682 </v>
   <v>       0.00064216       0.00115048       0.00467964 </v>
   <v>      -0.00104754       0.00191426       0.00976183 </v>
   <v>      -0.00005353      -0.00006152      -0.04704100 </v>
   <v>       0.00220781       0.00003535       0.00976171 </v>
   <v>      -0.00134183       0.00008534       0.00384927 </v>
   <v>       0.00012622       0.00018959      -0.00148555 </v>
   <v>       0.00071443      -0.00110444       0.00384902 </v>
   <v>      -0.00095138      -0.00167706       0.01006065 </v>
  </varray>
  <varray name="stress" >
   <v>       1.40806920      -0.01267574       0.00374267 </v>
   <v>      -0.01267571       1.39162230       0.00646283 </v>
   <v>       0.00374269       0.00646285      -2.47506984 </v>
  </varray>
  <energy>
   <i name="e_fr_energy">   -142.29192087 </i>
   <i name="e_wo_entrp">   -142.28916857 </i>
   <i name="e_0_energy">   -142.29054472 </i>
  </energy>
  <time name="totalsc">   23.64   23.80</time>
 </calculation>
 <calculation>
  <scstep>
   <time name="dav">    5.84    5.88</time>
   <time name="total">    6.13    6.18</time>
   <energy>
    <i name="alphaZ">     62.61406690 </i>
    <i name="ewald">   5465.75953409 </i>
    <i name="hartreedc">  -7515.68462556 </i>
    <i name="XCdc">    206.42257461 </i>
    <i name="pawpsdc">   6315.92030365 </i>
    <i name="pawaedc">  -6323.93359567 </i>
    <i name="eentropy">     -0.00274697 </i>
    <i name="bandstr">   -553.85108937 </i>
    <i name="atom">   2202.35892741 </i>
    <i name="e_fr_energy">   -140.39665092 </i>
    <i name="e_wo_entrp">   -140.39390395 </i>
    <i name="e_0_energy">   -140.39527743 </i>
   </energy>
  </scstep>
  <scstep>
   <time name="dav">   10.45   10.52</time>
   <time name="total">   10.74   10.82</time>
   <energy>
    <i name="e_fr_energy">   -140.39665175 </i>
    <i name="e_wo_entrp">   -140.39390630 </i>
    <i name="e_0_energy">   -140.39527902 </i>
   </energy>
  </scstep>
  <scstep>
   <time name="dav">    5.84    5.88</time>
   <time name="total">    6.13    6.18</time>
   <energy>
    <i name="e_fr_energy">   -140.39665482 </i>
    <i name="e_wo_entrp">   -140.39391123 </i>
    <i name="e_0_energy">   -140.39528303 </i>
   </energy>
  </scstep>
  <scstep>
   <time name="dav">   10.62   10.68</time>
   <time name="total">   10.65   10.72</time>
   <energy>
    <i name="alphaZ">     62.61406690 </i>
    <i name="ewald">   5465.75953409 </i>
    <i name="hartreedc">  -7515.67705405 </i>
    <i name="XCdc">    206.42256737 </i>
    <i name="pawpsdc">   6315.94491625 </i>
    <i name="pawaedc">  -6323.95821121 </i>
    <i name="eentropy">     -0.00274338 </i>
    <i name="bandstr">   -553.85865823 </i>
    <i name="atom">   2202.35892741 </i>
    <i name="e_fr_energy">   -140.39665486 </i>
    <i name="e_wo_entrp">   -140.39391148 </i>
    <i name="e_0_energy">   -140.39528317 </i>
   </energy>
  </scstep>
  <structure>
   <crystal>
    <varray name="basis" >
     <v>       4.36563406       2.52050000       0.00000000 </v>
     <v>      -4.36563406       2.52050000       0.00000000 </v>
     <v>       0.00000000       0.00000000      15.00000000 </v>
    </varray>
    <i name="volume">    330.10741948 </i>
    <varray name="rec_basis" >
     <v>       0.11453090       0.19837334       0.00000000 </v>
     <v>      -0.11453090       0.19837334       0.00000000 </v>
     <v>       0.00000000       0.00000000       0.06666667 </v>
    </varray>
   </crystal>
   <varray name="positions" >
    <v>       0.33833842       0.66916639       0.10015646 </v>
    <v>       0.67166868       0.33583241       0.09997817 </v>
    <v>       0.16463018       0.32178911       0.09995758 </v>
    <v>       0.32420587       0.16210901       0.10000635 </v>
    <v>       0.16464843       0.84285900       0.09995758 </v>
    <v>       0.84538968       0.16209435       0.10000600 </v>
    <v>       0.68570096       0.84284647       0.09995718 </v>
    <v>       0.84540596       0.68329525       0.10000600 </v>
    <v>       0.33335714       0.16667843       0.32554885 </v>
    <v>       0.50004482       0.00009362       0.32557444 </v>
    <v>       0.33333091       0.66666530       0.32534791 </v>
    <v>       0.50004483       0.49995055       0.32557444 </v>
    <v>       0.83332352       0.16668019       0.32554562 </v>
    <v>       0.00000324       0.00000129       0.32552883 </v>
    <v>       0.83332351       0.66664303       0.32554563 </v>
    <v>       0.99990917       0.49995426       0.32557564 </v>
   </varray>
  </structure>
  <varray name="forces" >
   <v>      -0.00157381      -0.00118766       0.01722487 </v>
   <v>      -0.00039303       0.00042718       0.00099870 </v>
   <v>       0.00394453       0.00025424       0.00336812 </v>
   <v>      -0.00022238       0.00035847      -0.00687006 </v>
   <v>      -0.00098384       0.00125558       0.00336113 </v>
   <v>      -0.00277297      -0.00100080      -0.00696278 </v>
   <v>       0.00284141       0.00248661       0.00326714 </v>
   <v>      -0.00114506      -0.00314089      -0.00696876 </v>
   <v>      -0.00090239      -0.00164718       0.00677653 </v>
   <v>       0.00188199      -0.00316515      -0.00478816 </v>
   <v>       0.00024247       0.00033964      -0.01200461 </v>
   <v>      -0.00375862       0.00008796      -0.00478517 </v>
   <v>       0.00233390       0.00007798       0.00650981 </v>
   <v>      -0.00016058      -0.00019296      -0.00081566 </v>
   <v>      -0.00103043       0.00202409       0.00650523 </v>
   <v>       0.00169881       0.00302288      -0.00481632 </v>
  </varray>
  <varray name="stress" >
   <v>       1.40458039      -0.00237077       0.00379891 </v>
   <v>      -0.00237076       1.41420305       0.00664410 </v>
   <v>       0.00379893       0.00664405      -2.49419606 </v>
  </varray>
  <energy>
   <i name="e_fr_energy">   -142.29203573 </i>
   <i name="e_wo_entrp">   -142.28929234 </i>
   <i name="e_0_energy">   -142.29066404 </i>
  </energy>
  <time name="totalsc">   39.02   39.31</time>
 </calculation>
 <calculation>
  <scstep>
   <time name="dav">    6.37    6.41</time>
   <time name="total">    6.66    6.71</time>
   <energy>
    <i name="alphaZ">     62.61406690 </i>
    <i name="ewald">   5465.77481765 </i>
    <i name="hartreedc">  -7515.68976138 </i>
    <i name="XCdc">    206.42260914 </i>
    <i name="pawpsdc">   6315.94103818 </i>
    <i name="pawaedc">  -6323.95433060 </i>
    <i name="eentropy">     -0.00274165 </i>
    <i name="bandstr">   -553.86127891 </i>
    <i name="atom">   2202.35892741 </i>
    <i name="e_fr_energy">   -140.39665326 </i>
    <i name="e_wo_entrp">   -140.39391161 </i>
    <i name="e_0_energy">   -140.39528244 </i>
   </energy>
  </scstep>
  <scstep>
   <time name="dav">    9.23    9.28</time>
   <time name="total">    9.26    9.31</time>
   <energy>
    <i name="alphaZ">     62.61406690 </i>
    <i name="ewald">   5465.77481765 </i>
    <i name="hartreedc">  -7515.68879814 </i>
    <i name="XCdc">    206.42261150 </i>
    <i name="pawpsdc">   6315.94767578 </i>
    <i name="pawaedc">  -6323.96097365 </i>
    <i name="eentropy">     -0.00274116 </i>
    <i name="bandstr">   -553.86223950 </i>
    <i name="atom">   2202.35892741 </i>
    <i name="e_fr_energy">   -140.39665322 </i>
    <i name="e_wo_entrp">   -140.39391206 </i>
    <i name="e_0_energy">   -140.39528264 </i>
   </energy>
  </scstep>
  <structure>
   <crystal>
    <varray name="basis" >
     <v>       4.36563406       2.52050000       0.00000000 </v>
     <v>      -4.36563406       2.52050000       0.00000000 </v>
     <v>       0.00000000       0.00000000      15.00000000 </v>
    </varray>
    <i name="volume">    330.10741948 </i>
    <varray name="rec_basis" >
     <v>       0.11453090       0.19837334       0.00000000 </v>
     <v>      -0.11453090       0.19837334       0.00000000 </v>
     <v>       0.00000000       0.00000000       0.06666667 </v>
    </varray>
   </crystal>
   <varray name="positions" >
    <v>       0.33833968       0.66916648       0.10018866 </v>
    <v>       0.67166963       0.33583137       0.09997342 </v>
    <v>       0.16462951       0.32178974       0.09994964 </v>
    <v>       0.32420291       0.16210584       0.10000697 </v>
    <v>       0.16464540       0.84285639       0.09994964 </v>
    <v>       0.84539416       0.16209374       0.10000655 </v>
    <v>       0.68569810       0.84284796       0.09994914 </v>
    <v>       0.84540711       0.68329960       0.10000656 </v>
    <v>       0.33336080       0.16668031       0.32555262 </v>
    <v>       0.50004803       0.00009980       0.32558232 </v>
    <v>       0.33333068       0.66666522       0.32530999 </v>
    <v>       0.50004803       0.49994750       0.32558232 </v>
    <v>       0.83332187       0.16668226       0.32554872 </v>
    <v>       0.00000387       0.00000158       0.32552763 </v>
    <v>       0.83332185       0.66663938       0.32554872 </v>
    <v>       0.99990369       0.49995149       0.32558375 </v>
   </varray>
  </structure>
  <varray name="forces" >
   <v>      -0.00212960      -0.00159444       0.01083615 </v>
   <v>      -0.00066237       0.00057145       0.00305090 </v>
   <v>       0.00498269       0.00053242       0.00731778 </v>
   <v>      -0.00016872       0.00106857      -0.00928829 </v>
   <v>      -0.00092744       0.00194063       0.00732049 </v>
   <v>      -0.00436583      -0.00152350      -0.00938643 </v>
   <v>       0.00392948       0.00304341       0.00721459 </v>
   <v>      -0.00095632      -0.00457651      -0.00938548 </v>
   <v>      -0.00129836      -0.00236656       0.00753334 </v>
   <v>       0.00268811      -0.00456849      -0.00907777 </v>
   <v>       0.00032010       0.00044418      -0.00224639 </v>
   <v>      -0.00540534       0.00010012      -0.00907400 </v>
   <v>       0.00328127       0.00007771       0.00742410 </v>
   <v>      -0.00023842      -0.00029664      -0.00045704 </v>
   <v>      -0.00147688       0.00283008       0.00741721 </v>
   <v>       0.00242761       0.00431755      -0.00919916 </v>
  </varray>
  <varray name="stress" >
   <v>       1.40602810      -0.00066985       0.00381774 </v>
   <v>      -0.00066988       1.42016147       0.00665649 </v>
   <v>       0.00381776       0.00665651      -2.49765803 </v>
  </varray>
  <energy>
   <i name="e_fr_energy">   -142.29204163 </i>
   <i name="e_wo_entrp">   -142.28930047 </i>
   <i name="e_0_energy">   -142.29067105 </i>
  </energy>
  <time name="totalsc">   21.29   21.43</time>
 </calculation>
 <calculation>
  <scstep>
   <time name="dav">    5.85    5.89</time>
   <time name="total">    6.14    6.19</time>
   <energy>
    <i name="alphaZ">     62.61406690 </i>
    <i name="ewald">   5465.92890303 </i>
    <i name="hartreedc">  -7515.83963877 </i>
    <i name="XCdc">    206.42272488 </i>
    <i name="pawpsdc">   6315.94149805 </i>
    <i name="pawaedc">  -6323.95479395 </i>
    <i name="eentropy">     -0.00274003 </i>
    <i name="bandstr">   -553.86557573 </i>
    <i name="atom">   2202.35892741 </i>
    <i name="e_fr_energy">   -140.39662821 </i>
    <i name="e_wo_entrp">   -140.39388817 </i>
    <i name="e_0_energy">   -140.39525819 </i>
   </energy>
  </scstep>
  <scstep>
   <time name="dav">    8.25    8.30</time>
   <time name="total">    8.54    8.60</time>
   <energy>
    <i name="e_fr_energy">   -140.39662745 </i>
    <i name="e_wo_entrp">   -140.39388819 </i>
    <i name="e_0_energy">   -140.39525782 </i>
   </energy>
  </scstep>
  <scstep>
   <time name="dav">    7.19    7.23</time>
   <time name="total">    7.48    7.53</time>
   <energy>
    <i name="e_fr_energy">   -140.39662846 </i>
    <i name="e_wo_entrp">   -140.39389068 </i>
    <i name="e_0_energy">   -140.39525957 </i>
   </energy>
  </scstep>
  <scstep>
   <time name="dav">   10.23   10.29</time>
   <time name="total">   10.26   10.32</time>
   <energy>
    <i name="alphaZ">     62.61406690 </i>
    <i name="ewald">   5465.92890303 </i>
    <i name="hartreedc">  -7515.83047060 </i>
    <i name="XCdc">    206.42263100 </i>
    <i name="pawpsdc">   6315.94175057 </i>
    <i name="pawaedc">  -6323.95504058 </i>
    <i name="eentropy">     -0.00273773 </i>
    <i name="bandstr">   -553.87465847 </i>
    <i name="atom">   2202.35892741 </i>
    <i name="e_fr_energy">   -140.39662847 </i>
    <i name="e_wo_entrp">   -140.39389074 </i>
    <i name="e_0_energy">   -140.39525960 </i>
   </energy>
  </scstep>
  <structure>
   <crystal>
    <varray name="basis" >
     <v>       4.36563406       2.52050000       0.00000000 </v>
     <v>      -4.36563406       2.52050000       0.00000000 </v>
     <v>       0.00000000       0.00000000      15.00000000 </v>
    </varray>
    <i name="volume">    330.10741948 </i>
    <varray name="rec_basis" >
     <v>       0.11453090       0.19837334       0.00000000 </v>
     <v>      -0.11453090       0.19837334       0.00000000 </v>
     <v>       0.00000000       0.00000000       0.06666667 </v>
    </varray>
   </crystal>
   <varray name="positions" >
    <v>       0.33831642       0.66916340       0.10024980 </v>
    <v>       0.67167214       0.33583867       0.09997792 </v>
    <v>       0.16465839       0.32177005       0.09996361 </v>
    <v>       0.32420858       0.16211301       0.09998055 </v>
    <v>       0.16465476       0.84287540       0.09996362 </v>
    <v>       0.84536330       0.16210181       0.09997978 </v>
    <v>       0.68574141       0.84285604       0.09996272 </v>
    <v>       0.84536380       0.68326880       0.09997979 </v>
    <v>       0.33333722       0.16666805       0.32557798 </v>
    <v>       0.50002488       0.00005254       0.32556318 </v>
    <v>       0.33333592       0.66666740       0.32526856 </v>
    <v>       0.50002485       0.49997257       0.32556318 </v>
    <v>       0.83333740       0.16666845       0.32557315 </v>
    <v>       0.00000070       0.00000046       0.32552520 </v>
    <v>       0.83333743       0.66666788       0.32557314 </v>
    <v>       0.99994813       0.49997416       0.32556448 </v>
   </varray>
  </structure>
  <varray name="forces" >
   <v>       0.00540343       0.00431826       0.00394122 </v>
   <v>      -0.00183551      -0.00325242      -0.00100849 </v>
   <v>      -0.01408828      -0.00458175       0.00208945 </v>
   <v>       0.00563641       0.00048663      -0.00046661 </v>
   <v>      -0.00190740      -0.00856416       0.00210165 </v>
   <v>       0.01127710       0.00766108      -0.00059332 </v>
   <v>      -0.01213032      -0.00823661       0.00202990 </v>
   <v>       0.00732355       0.01162237      -0.00059934 </v>
   <v>       0.00188585       0.00355590      -0.00182701 </v>
   <v>      -0.00418862       0.00786998      -0.00328101 </v>
   <v>      -0.00059255      -0.00071649       0.00240744 </v>
   <v>       0.00918025       0.00017169      -0.00329075 </v>
   <v>      -0.00502912      -0.00011965      -0.00176617 </v>
   <v>       0.00064938       0.00082219       0.00543973 </v>
   <v>       0.00216386      -0.00427522      -0.00175003 </v>
   <v>      -0.00374802      -0.00676182      -0.00342667 </v>
  </varray>
  <varray name="stress" >
   <v>       1.47165962      -0.05303341       0.00391054 </v>
   <v>      -0.05303342       1.35143469       0.00674760 </v>
   <v>       0.00391056       0.00674761      -2.49803248 </v>
  </varray>
  <energy>
   <i name="e_fr_energy">   -142.29206047 </i>
   <i name="e_wo_entrp">   -142.28932274 </i>
   <i name="e_0_energy">   -142.29069161 </i>
  </energy>
  <time name="totalsc">   37.79   38.05</time>
 </calculation>
 <calculation>
  <scstep>
   <time name="dav">    6.63    6.67</time>
   <time name="total">    6.92    6.97</time>
   <energy>
    <i name="alphaZ">     62.61406690 </i>
    <i name="ewald">   5465.89530464 </i>
    <i name="hartreedc">  -7515.79461423 </i>
    <i name="XCdc">    206.42259597 </i>
    <i name="pawpsdc">   6315.93979838 </i>
    <i name="pawaedc">  -6323.95308813 </i>
    <i name="eentropy">     -0.00273770 </i>
    <i name="bandstr">   -553.87689297 </i>
    <i name="atom">   2202.35892741 </i>
    <i name="e_fr_energy">   -140.39663975 </i>
    <i name="e_wo_entrp">   -140.39390205 </i>
    <i name="e_0_energy">   -140.39527090 </i>
   </energy>
  </scstep>
  <scstep>
   <time name="dav">    6.28    6.33</time>
   <time name="total">    6.32    6.37</time>
   <energy>
    <i name="alphaZ">     62.61406690 </i>
    <i name="ewald">   5465.89530464 </i>
    <i name="hartreedc">  -7515.79353731 </i>
    <i name="XCdc">    206.42259339 </i>
    <i name="pawpsdc">   6315.93169440 </i>
    <i name="pawaedc">  -6323.94498108 </i>
    <i name="eentropy">     -0.00273781 </i>
    <i name="bandstr">   -553.87797013 </i>
    <i name="atom">   2202.35892741 </i>
    <i name="e_fr_energy">   -140.39663960 </i>
    <i name="e_wo_entrp">   -140.39390178 </i>
    <i name="e_0_energy">   -140.39527069 </i>
   </energy>
  </scstep>
  <structure>
   <crystal>
    <varray name="basis" >
     <v>       4.36563406       2.52050000       0.00000000 </v>
     <v>      -4.36563406       2.52050000       0.00000000 </v>
     <v>       0.00000000       0.00000000      15.00000000 </v>
    </varray>
    <i name="volume">    330.10741948 </i>
    <varray name="rec_basis" >
     <v>       0.11453090       0.19837334       0.00000000 </v>
     <v>      -0.11453090       0.19837334       0.00000000 </v>
     <v>       0.00000000       0.00000000       0.06666667 </v>
    </varray>
   </crystal>
   <varray name="positions" >
    <v>       0.33832150       0.66916407       0.10023645 </v>
    <v>       0.67167159       0.33583708       0.09997694 </v>
    <v>       0.16465208       0.32177435       0.09996056 </v>
    <v>       0.32420734       0.16211145       0.09998632 </v>
    <v>       0.16465271       0.84287125       0.09996056 </v>
    <v>       0.84537005       0.16210004       0.09998563 </v>
    <v>       0.68573195       0.84285427       0.09995976 </v>
    <v>       0.84537326       0.68327553       0.09998563 </v>
    <v>       0.33334237       0.16667072       0.32557244 </v>
    <v>       0.50002994       0.00006286       0.32556736 </v>
    <v>       0.33333478       0.66666692       0.32527761 </v>
    <v>       0.50002992       0.49996709       0.32556736 </v>
    <v>       0.83333401       0.16667147       0.32556781 </v>
    <v>       0.00000139       0.00000070       0.32552573 </v>
    <v>       0.83333402       0.66666165       0.32556780 </v>
    <v>       0.99993842       0.49996921       0.32556869 </v>
   </varray>
  </structure>
  <varray name="forces" >
   <v>       0.00375124       0.00303773       0.00525128 </v>
   <v>      -0.00155322      -0.00241597      -0.00006877 </v>
   <v>      -0.01005978      -0.00353249       0.00316460 </v>
   <v>       0.00444954       0.00057292      -0.00229621 </v>
   <v>      -0.00169532      -0.00640502       0.00317684 </v>
   <v>       0.00791721       0.00576926      -0.00239304 </v>
   <v>      -0.00872505      -0.00577053       0.00308703 </v>
   <v>       0.00563804       0.00821153      -0.00239285 </v>
   <v>       0.00124846       0.00237434       0.00023802 </v>
   <v>      -0.00274052       0.00524211      -0.00456470 </v>
   <v>      -0.00040391      -0.00047210       0.00138868 </v>
   <v>       0.00609479       0.00015362      -0.00457153 </v>
   <v>      -0.00336334      -0.00007753       0.00026794 </v>
   <v>       0.00045230       0.00058162       0.00413810 </v>
   <v>       0.00143370      -0.00284934       0.00027797 </v>
   <v>      -0.00244414      -0.00442015      -0.00470337 </v>
  </varray>
  <varray name="stress" >
   <v>       1.46197881      -0.04551273       0.00395793 </v>
   <v>      -0.04551274       1.36181977       0.00681129 </v>
   <v>       0.00395794       0.00681129      -2.49514612 </v>
  </varray>
  <energy>
   <i name="e_fr_energy">   -142.29206208 </i>
   <i name="e_wo_entrp">   -142.28932427 </i>
   <i name="e_0_energy">   -142.29069317 </i>
  </energy>
  <time name="totalsc">   18.57   18.71</time>
 </calculation>
 <calculation>
  <scstep>
   <time name="dav">    5.83    5.87</time>
   <time name="total">    6.12    6.17</time>
   <energy>
    <i name="alphaZ">     62.61406690 </i>
    <i name="ewald">   5466.15477278 </i>
    <i name="hartreedc">  -7516.05168611 </i>
    <i name="XCdc">    206.42275416 </i>
    <i name="pawpsdc">   6315.92898908 </i>
    <i name="pawaedc">  -6323.94228149 </i>
    <i name="eentropy">     -0.00273724 </i>
    <i name="bandstr">   -553.87937344 </i>
    <i name="atom">   2202.35892741 </i>
    <i name="e_fr_energy">   -140.39656795 </i>
    <i name="e_wo_entrp">   -140.39383072 </i>
    <i name="e_0_energy">   -140.39519934 </i>
   </energy>
  </scstep>
  <scstep>
   <time name="dav">    5.85    5.89</time>
   <time name="total">    6.13    6.18</time>
   <energy>
    <i name="e_fr_energy">   -140.39656733 </i>
    <i name="e_wo_entrp">   -140.39383099 </i>
    <i name="e_0_energy">   -140.39519916 </i>
   </energy>
  </scstep>
  <scstep>
   <time name="dav">    6.36    6.40</time>
   <time name="total">    6.40    6.44</time>
   <energy>
    <i name="alphaZ">     62.61406690 </i>
    <i name="ewald">   5466.15477278 </i>
    <i name="hartreedc">  -7516.04864096 </i>
    <i name="XCdc">    206.42264965 </i>
    <i name="pawpsdc">   6315.93792545 </i>
    <i name="pawaedc">  -6323.95120863 </i>
    <i name="eentropy">     -0.00273552 </i>
    <i name="bandstr">   -553.88232473 </i>
    <i name="atom">   2202.35892741 </i>
    <i name="e_fr_energy">   -140.39656764 </i>
    <i name="e_wo_entrp">   -140.39383212 </i>
    <i name="e_0_energy">   -140.39519988 </i>
   </energy>
  </scstep>
  <structure>
   <crystal>
    <varray name="basis" >
     <v>       4.36563406       2.52050000       0.00000000 </v>
     <v>      -4.36563406       2.52050000       0.00000000 </v>
     <v>       0.00000000       0.00000000      15.00000000 </v>
    </varray>
    <i name="volume">    330.10741948 </i>
    <varray name="rec_basis" >
     <v>       0.11453090       0.19837334       0.00000000 </v>
     <v>      -0.11453090       0.19837334       0.00000000 </v>
     <v>       0.00000000       0.00000000       0.06666667 </v>
    </varray>
   </crystal>
   <varray name="positions" >
    <v>       0.33834932       0.66916927       0.10029105 </v>
    <v>       0.67164583       0.33582928       0.09997969 </v>
    <v>       0.16459371       0.32178029       0.09997849 </v>
    <v>       0.32423704       0.16209963       0.09996265 </v>
[...]
  </structure>
  <varray name="forces" >
   <v>      -0.00001241       0.00041760      -0.00009785 </v>
   <v>      -0.00051808      -0.00050472       0.00690836 </v>
   <v>      -0.00134020      -0.00066200      -0.00114807 </v>
   <v>       0.00035565       0.00032737       0.00075626 </v>
   <v>       0.00029220      -0.00086640      -0.00115308 </v>
   <v>       0.00118613       0.00092169       0.00074622 </v>
   <v>      -0.00140839      -0.00115632      -0.00121199 </v>
   <v>       0.00114105       0.00097494       0.00075354 </v>
   <v>      -0.00200888      -0.00251772      -0.00128064 </v>
   <v>       0.00179088       0.00118608       0.00183559 </v>
   <v>      -0.00139375      -0.00143396      -0.00434166 </v>
   <v>       0.00097022       0.00165630       0.00183719 </v>
   <v>      -0.00021746      -0.00156840      -0.00130139 </v>
   <v>       0.00147708       0.00159255      -0.00288114 </v>
   <v>      -0.00209094      -0.00047241      -0.00130773 </v>
   <v>       0.00177692       0.00210539       0.00188638 </v>
  </varray>
  <varray name="stress" >
   <v>       1.42312539      -0.01904515       0.00385876 </v>
   <v>      -0.01904514       1.39442985       0.00670353 </v>
   <v>       0.00385876       0.00670355      -2.46022713 </v>
  </varray>
  <energy>
   <i name="e_fr_energy">   -142.29208007 </i>
   <i name="e_wo_entrp">   -142.28934889 </i>
   <i name="e_0_energy">   -142.29071448 </i>
  </energy>
  <time name="totalsc">   22.90   23.06</time>
 </calculation>
 <calculation>
  <scstep>
   <time name="dav">    8.37    8.42</time>
   <time name="total">    8.65    8.72</time>
   <energy>
    <i name="alphaZ">     62.61406690 </i>
    <i name="ewald">   5470.10345590 </i>
    <i name="hartreedc">  -7519.99520234 </i>
    <i name="XCdc">    206.42366276 </i>
    <i name="pawpsdc">   6315.95688950 </i>
    <i name="pawaedc">  -6323.97019180 </i>
    <i name="eentropy">     -0.00273118 </i>
    <i name="bandstr">   -553.88478380 </i>
    <i name="atom">   2202.35892741 </i>
    <i name="e_fr_energy">   -140.39590665 </i>
    <i name="e_wo_entrp">   -140.39317547 </i>
    <i name="e_0_energy">   -140.39454106 </i>
   </energy>
  </scstep>
  <scstep>
   <time name="dav">    8.14    8.19</time>
   <time name="total">    8.18    8.23</time>
   <energy>
    <i name="alphaZ">     62.61406690 </i>
    <i name="ewald">   5470.10345590 </i>
    <i name="hartreedc">  -7519.99513586 </i>
    <i name="XCdc">    206.42366235 </i>
    <i name="pawpsdc">   6315.95691625 </i>
    <i name="pawaedc">  -6323.97021858 </i>
    <i name="eentropy">     -0.00273118 </i>
    <i name="bandstr">   -553.88484985 </i>
    <i name="atom">   2202.35892741 </i>
    <i name="e_fr_energy">   -140.39590665 </i>
    <i name="e_wo_entrp">   -140.39317547 </i>
    <i name="e_0_energy">   -140.39454106 </i>
   </energy>
  </scstep>
  <structure>
   <crystal>
    <varray name="basis" >
     <v>       4.36563406       2.52050000       0.00000000 </v>
     <v>      -4.36563406       2.52050000       0.00000000 </v>
     <v>       0.00000000       0.00000000      15.00000000 </v>
    </varray>
    <i name="volume">    330.10741948 </i>
    <varray name="rec_basis" >
     <v>       0.11453090       0.19837334       0.00000000 </v>
     <v>      -0.11453090       0.19837334       0.00000000 </v>
     <v>       0.00000000       0.00000000       0.06666667 </v>
    </varray>
   </crystal>
   <varray name="positions" >
    <v>       0.33831241       0.66915451       0.10034818 </v>
    <v>       0.67165005       0.33582438       0.09998588 </v>
    <v>       0.16462384       0.32177091       0.10004485 </v>
    <v>       0.32418841       0.16209252       0.10003987 </v>
    <v>       0.16462041       0.84284846       0.10004486 </v>
    <v>       0.84537021       0.16209334       0.10003325 </v>
    <v>       0.68569507       0.84284686       0.10003862 </v>
    <v>       0.84536822       0.68327810       0.10003318 </v>
    <v>       0.33338028       0.16668921       0.32551320 </v>
    <v>       0.50005474       0.00009319       0.32548231 </v>
    <v>       0.33335698       0.66667755       0.32521877 </v>
    <v>       0.50005473       0.49996407       0.32548231 </v>
    <v>       0.83335066       0.16669073       0.32550857 </v>
    <v>       0.00001700       0.00000974       0.32550149 </v>
    <v>       0.83335059       0.66665797       0.32550859 </v>
    <v>       0.99993175       0.49996713       0.32548274 </v>
   </varray>
  </structure>
  <varray name="forces" >
   <v>      -0.00001255       0.00041763      -0.00009814 </v>
   <v>      -0.00051813      -0.00050479       0.00690832 </v>
   <v>      -0.00134021      -0.00066178      -0.00114839 </v>
   <v>       0.00035548       0.00032710       0.00075614 </v>
   <v>       0.00029255      -0.00086633      -0.00115339 </v>
   <v>       0.00118642       0.00092164       0.00074613 </v>
   <v>      -0.00140853      -0.00115653      -0.00121228 </v>
   <v>       0.00114088       0.00097518       0.00075345 </v>
   <v>      -0.00200909      -0.00251794      -0.00128055 </v>
   <v>       0.00179093       0.00118653       0.00183591 </v>
   <v>      -0.00139394      -0.00143416      -0.00434162 </v>
   <v>       0.00097069       0.00165650       0.00183750 </v>
   <v>      -0.00021763      -0.00156860      -0.00130129 </v>
   <v>       0.00147729       0.00159277      -0.00288084 </v>
   <v>      -0.00209115      -0.00047259      -0.00130764 </v>
   <v>       0.00177698       0.00210536       0.00188670 </v>
  </varray>
  <varray name="stress" >
   <v>       1.42312407      -0.01904633       0.00385883 </v>
   <v>      -0.01904631       1.39442682       0.00670358 </v>
   <v>       0.00385880       0.00670358      -2.46017388 </v>
  </varray>
  <energy>
   <i name="e_fr_energy">   -142.29208007 </i>
   <i name="e_wo_entrp">   -142.28934889 </i>
   <i name="e_0_energy">   -142.29071448 </i>
  </energy>
  <time name="totalsc">   22.23   22.39</time>
 </calculation>
 <calculation>
  <scstep>
   <time name="dav">    7.86    7.90</time>
   <time name="total">    8.15    8.20</time>
   <energy>
    <i name="alphaZ">     62.61406690 </i>
    <i name="ewald">   5470.10355613 </i>
    <i name="hartreedc">  -7519.99516060 </i>
    <i name="XCdc">    206.42366197 </i>
    <i name="pawpsdc">   6315.95696213 </i>
    <i name="pawaedc">  -6323.97026449 </i>
    <i name="eentropy">     -0.00273118 </i>
    <i name="bandstr">   -553.88492490 </i>
    <i name="atom">   2202.35892741 </i>
    <i name="e_fr_energy">   -140.39590663 </i>
    <i name="e_wo_entrp">   -140.39317546 </i>
    <i name="e_0_energy">   -140.39454104 </i>
   </energy>
  </scstep>
  <scstep>
   <time name="dav">    7.37    7.41</time>
   <time name="total">    7.40    7.45</time>
   <energy>
    <i name="alphaZ">     62.61406690 </i>
    <i name="ewald">   5470.10355613 </i>
    <i name="hartreedc">  -7519.99511076 </i>
    <i name="XCdc">    206.42366166 </i>
    <i name="pawpsdc">   6315.95697711 </i>
    <i name="pawaedc">  -6323.97027948 </i>
    <i name="eentropy">     -0.00273118 </i>
    <i name="bandstr">   -553.88497443 </i>
    <i name="atom">   2202.35892741 </i>
    <i name="e_fr_energy">   -140.39590663 </i>
    <i name="e_wo_entrp">   -140.39317546 </i>
    <i name="e_0_energy">   -140.39454104 </i>
   </energy>
  </scstep>
  <structure>
   <crystal>
    <varray name="basis" >
     <v>       4.36563406       2.52050000       0.00000000 </v>
     <v>      -4.36563406       2.52050000       0.00000000 </v>
     <v>       0.00000000       0.00000000      15.00000000 </v>
    </varray>
    <i name="volume">    330.10741948 </i>
    <varray name="rec_basis" >
     <v>       0.11453090       0.19837334       0.00000000 </v>
     <v>      -0.11453090       0.19837334       0.00000000 </v>
     <v>       0.00000000       0.00000000       0.06666667 </v>
    </varray>
   </crystal>
   <varray name="positions" >
    <v>       0.33831241       0.66915451       0.10034818 </v>
    <v>       0.67165005       0.33582438       0.09998588 </v>
    <v>       0.16462384       0.32177091       0.10004485 </v>
    <v>       0.32418841       0.16209252       0.10003988 </v>
    <v>       0.16462041       0.84284846       0.10004487 </v>
    <v>       0.84537021       0.16209334       0.10003325 </v>
    <v>       0.68569507       0.84284686       0.10003862 </v>
    <v>       0.84536821       0.68327810       0.10003318 </v>
    <v>       0.33338028       0.16668921       0.32551320 </v>
    <v>       0.50005474       0.00009319       0.32548230 </v>
    <v>       0.33335698       0.66667755       0.32521877 </v>
    <v>       0.50005473       0.49996407       0.32548230 </v>
    <v>       0.83335066       0.16669073       0.32550857 </v>
    <v>       0.00001700       0.00000974       0.32550149 </v>
    <v>       0.83335059       0.66665797       0.32550859 </v>
    <v>       0.99993175       0.49996713       0.32548273 </v>
   </varray>
  </structure>
  <varray name="forces" >
   <v>      -0.00001262       0.00041764      -0.00009835 </v>
   <v>      -0.00051815      -0.00050483       0.00690823 </v>
   <v>      -0.00134020      -0.00066168      -0.00114855 </v>
   <v>       0.00035538       0.00032696       0.00075607 </v>
   <v>       0.00029272      -0.00086629      -0.00115355 </v>
   <v>       0.00118658       0.00092162       0.00074607 </v>
   <v>      -0.00140859      -0.00115663      -0.00121244 </v>
   <v>       0.00114079       0.00097532       0.00075339 </v>
   <v>      -0.00200919      -0.00251806      -0.00128048 </v>
   <v>       0.00179096       0.00118675       0.00183608 </v>
   <v>      -0.00139404      -0.00143426      -0.00434158 </v>
   <v>       0.00097093       0.00165660       0.00183768 </v>
   <v>      -0.00021771      -0.00156871      -0.00130122 </v>
   <v>       0.00147739       0.00159288      -0.00288068 </v>
   <v>      -0.00209126      -0.00047269      -0.00130757 </v>
   <v>       0.00177701       0.00210535       0.00188687 </v>
  </varray>
  <varray name="stress" >
   <v>       1.42312285      -0.01904695       0.00385881 </v>
   <v>      -0.01904696       1.39442462       0.00670362 </v>
   <v>       0.00385881       0.00670363      -2.46013213 </v>
  </varray>
  <energy>
   <i name="e_fr_energy">   -142.29208007 </i>
   <i name="e_wo_entrp">   -142.28934890 </i>
   <i name="e_0_energy">   -142.29071448 </i>
  </energy>
  <time name="totalsc">   21.02   21.17</time>
 </calculation>
 <calculation>
  <scstep>
   <time name="dav">    7.93    7.97</time>
   <time name="total">    8.22    8.27</time>
   <energy>
    <i name="alphaZ">     62.61406690 </i>
    <i name="ewald">   5470.10360625 </i>
    <i name="hartreedc">  -7519.99510500 </i>
    <i name="XCdc">    206.42366137 </i>
    <i name="pawpsdc">   6315.95700493 </i>
    <i name="pawaedc">  -6323.97030732 </i>
    <i name="eentropy">     -0.00273118 </i>
    <i name="bandstr">   -553.88502998 </i>
    <i name="atom">   2202.35892741 </i>
    <i name="e_fr_energy">   -140.39590663 </i>
    <i name="e_wo_entrp">   -140.39317545 </i>
    <i name="e_0_energy">   -140.39454104 </i>
   </energy>
  </scstep>
  <scstep>
   <time name="dav">    6.41    6.45</time>
   <time name="total">    6.45    6.49</time>
   <energy>
    <i name="alphaZ">     62.61406690 </i>
    <i name="ewald">   5470.10360625 </i>
    <i name="hartreedc">  -7519.99506764 </i>
    <i name="XCdc">    206.42366115 </i>
    <i name="pawpsdc">   6315.95701527 </i>
    <i name="pawaedc">  -6323.97031768 </i>
    <i name="eentropy">     -0.00273118 </i>
    <i name="bandstr">   -553.88506711 </i>
    <i name="atom">   2202.35892741 </i>
    <i name="e_fr_energy">   -140.39590663 </i>
    <i name="e_wo_entrp">   -140.39317545 </i>
    <i name="e_0_energy">   -140.39454104 </i>
   </energy>
  </scstep>
  <structure>
   <crystal>
    <varray name="basis" >
     <v>       4.36563406       2.52050000       0.00000000 </v>
     <v>      -4.36563406       2.52050000       0.00000000 </v>
     <v>       0.00000000       0.00000000      15.00000000 </v>
    </varray>
    <i name="volume">    330.10741948 </i>
    <varray name="rec_basis" >
     <v>       0.11453090       0.19837334       0.00000000 </v>
     <v>      -0.11453090       0.19837334       0.00000000 </v>
     <v>       0.00000000       0.00000000       0.06666667 </v>
    </varray>
   </crystal>
   <varray name="positions" >
    <v>       0.33831241       0.66915451       0.10034818 </v>
    <v>       0.67165005       0.33582438       0.09998588 </v>
    <v>       0.16462384       0.32177091       0.10004485 </v>
    <v>       0.32418841       0.16209252       0.10003988 </v>
    <v>       0.16462041       0.84284846       0.10004487 </v>
    <v>       0.84537021       0.16209334       0.10003326 </v>
    <v>       0.68569507       0.84284686       0.10003862 </v>
    <v>       0.84536821       0.68327810       0.10003318 </v>
    <v>       0.33338028       0.16668921       0.32551320 </v>
    <v>       0.50005474       0.00009319       0.32548230 </v>
    <v>       0.33335698       0.66667755       0.32521877 </v>
    <v>       0.50005473       0.49996407       0.32548230 </v>
    <v>       0.83335066       0.16669073       0.32550857 </v>
    <v>       0.00001700       0.00000974       0.32550149 </v>
    <v>       0.83335060       0.66665797       0.32550859 </v>
    <v>       0.99993175       0.49996713       0.32548273 </v>
   </varray>
  </structure>
  <varray name="forces" >
   <v>      -0.00001266       0.00041765      -0.00009849 </v>
   <v>      -0.00051816      -0.00050484       0.00690815 </v>
   <v>      -0.00134020      -0.00066163      -0.00114864 </v>
   <v>       0.00035533       0.00032688       0.00075603 </v>
   <v>       0.00029280      -0.00086627      -0.00115364 </v>
   <v>       0.00118666       0.00092160       0.00074604 </v>
   <v>      -0.00140862      -0.00115667      -0.00121252 </v>
   <v>       0.00114074       0.00097539       0.00075336 </v>
   <v>      -0.00200924      -0.00251811      -0.00128043 </v>
   <v>       0.00179097       0.00118687       0.00183619 </v>
   <v>      -0.00139409      -0.00143431      -0.00434154 </v>
   <v>       0.00097105       0.00165666       0.00183779 </v>
   <v>      -0.00021775      -0.00156876      -0.00130117 </v>
   <v>       0.00147744       0.00159294      -0.00288058 </v>
   <v>      -0.00209131      -0.00047273      -0.00130752 </v>
   <v>       0.00177702       0.00210535       0.00188698 </v>
  </varray>
  <varray name="stress" >
   <v>       1.42312192      -0.01904722       0.00385881 </v>
   <v>      -0.01904724       1.39442325       0.00670362 </v>
   <v>       0.00385882       0.00670362      -2.46010170 </v>
  </varray>
  <energy>
   <i name="e_fr_energy">   -142.29208007 </i>
   <i name="e_wo_entrp">   -142.28934890 </i>
   <i name="e_0_energy">   -142.29071449 </i>
  </energy>
  <time name="totalsc">   20.05   20.19</time>
 </calculation>
 <calculation>
  <scstep>
   <time name="dav">    5.83    5.86</time>
   <time name="total">    6.12    6.16</time>
   <energy>
    <i name="alphaZ">     62.61406690 </i>
    <i name="ewald">   5467.56197167 </i>
    <i name="hartreedc">  -7517.45610259 </i>
    <i name="XCdc">    206.42256020 </i>
    <i name="pawpsdc">   6315.95703501 </i>
    <i name="pawaedc">  -6323.97033743 </i>
    <i name="eentropy">     -0.00273446 </i>
    <i name="bandstr">   -553.88174328 </i>
    <i name="atom">   2202.35892741 </i>
    <i name="e_fr_energy">   -140.39635656 </i>
    <i name="e_wo_entrp">   -140.39362210 </i>
    <i name="e_0_energy">   -140.39498933 </i>
   </energy>
  </scstep>
  <scstep>
   <time name="dav">    6.46    6.50</time>
   <time name="total">    6.76    6.81</time>
   <energy>
    <i name="e_fr_energy">   -140.39634771 </i>
    <i name="e_wo_entrp">   -140.39361475 </i>
    <i name="e_0_energy">   -140.39498123 </i>
   </energy>
  </scstep>
  <scstep>
   <time name="dav">    7.48    7.52</time>
   <time name="total">    7.77    7.82</time>
   <energy>
    <i name="e_fr_energy">   -140.39634851 </i>
    <i name="e_wo_entrp">   -140.39361531 </i>
    <i name="e_0_energy">   -140.39498191 </i>
   </energy>
  </scstep>
  <scstep>
   <time name="dav">    6.50    6.54</time>
   <time name="total">    6.54    6.58</time>
   <energy>
    <i name="alphaZ">     62.61406690 </i>
    <i name="ewald">   5467.56197167 </i>
    <i name="hartreedc">  -7517.43500113 </i>
    <i name="XCdc">    206.42289791 </i>
    <i name="pawpsdc">   6315.92171024 </i>
    <i name="pawaedc">  -6323.93500369 </i>
    <i name="eentropy">     -0.00273395 </i>
    <i name="bandstr">   -553.90318452 </i>
    <i name="atom">   2202.35892741 </i>
    <i name="e_fr_energy">   -140.39634917 </i>
    <i name="e_wo_entrp">   -140.39361522 </i>
    <i name="e_0_energy">   -140.39498219 </i>
   </energy>
  </scstep>
  <structure>
   <crystal>
    <varray name="basis" >
     <v>       4.36563406       2.52050000       0.00000000 </v>
     <v>      -4.36563406       2.52050000       0.00000000 </v>
     <v>       0.00000000       0.00000000      15.00000000 </v>
    </varray>
    <i name="volume">    330.10741948 </i>
    <varray name="rec_basis" >
     <v>       0.11453090       0.19837334       0.00000000 </v>
     <v>      -0.11453090       0.19837334       0.00000000 </v>
     <v>       0.00000000       0.00000000       0.06666667 </v>
    </varray>
   </crystal>
   <varray name="positions" >
    <v>       0.33832212       0.66916428       0.10030799 </v>
    <v>       0.67165780       0.33582875       0.09997092 </v>
    <v>       0.16464326       0.32178741       0.09999702 </v>
    <v>       0.32418926       0.16209306       0.09999950 </v>
    <v>       0.16464225       0.84284947       0.09999700 </v>
    <v>       0.84538550       0.16209249       0.09999631 </v>
    <v>       0.68569378       0.84284627       0.09999403 </v>
    <v>       0.84538574       0.68329469       0.09999635 </v>
    <v>       0.33335916       0.16668011       0.32554955 </v>
    <v>       0.50005707       0.00010082       0.32552379 </v>
    <v>       0.33333708       0.66666913       0.32525389 </v>
    <v>       0.50005703       0.49995486       0.32552379 </v>
    <v>       0.83333115       0.16668158       0.32554503 </v>
    <v>       0.00001463       0.00000660       0.32554227 </v>
    <v>       0.83333119       0.66665071       0.32554504 </v>
    <v>       0.99991830       0.49995844       0.32552416 </v>
   </varray>
  </structure>
  <varray name="forces" >
   <v>       0.00165179       0.00003997      -0.00068336 </v>
   <v>      -0.00004018       0.00024808       0.00337654 </v>
   <v>      -0.00088703      -0.00403232       0.00085484 </v>
   <v>       0.00217535       0.00322855       0.00060246 </v>
   <v>      -0.00475935      -0.00187959       0.00085371 </v>
   <v>      -0.00197449       0.00144084       0.00055225 </v>
   <v>       0.00055189       0.00211501       0.00077151 </v>
   <v>       0.00293621      -0.00177594       0.00054978 </v>
   <v>       0.00047577       0.00029233      -0.00020243 </v>
   <v>       0.00128682      -0.00414354       0.00025087 </v>
   <v>       0.00091076       0.00100829      -0.00276989 </v>
   <v>      -0.00470560      -0.00067383       0.00025012 </v>
   <v>       0.00169785       0.00094695      -0.00025619 </v>
   <v>      -0.00088712      -0.00097182      -0.00422081 </v>
   <v>       0.00044777       0.00165034      -0.00025631 </v>
   <v>       0.00111957       0.00250669       0.00032691 </v>
  </varray>
  <varray name="stress" >
   <v>       1.42293254      -0.01642484       0.00391004 </v>
   <v>      -0.01642486       1.39680004       0.00667309 </v>
   <v>       0.00391004       0.00667309      -2.47570161 </v>
  </varray>
  <energy>
   <i name="e_fr_energy">   -142.29207388 </i>
   <i name="e_wo_entrp">   -142.28933993 </i>
   <i name="e_0_energy">   -142.29070690 </i>
  </energy>
