Lattice                                 
           1
     4.365634    2.520500    0.000000
    -4.365634    2.520500    0.000000
     0.000000    0.000000   15.000000
   B    C 
     2    14
Direct configuration=     1
   0.33833034  0.66916432  0.10000000
   0.67165522  0.33584146  0.10000000
   0.16373946  0.31999962  0.10000000
   0.32250218  0.16126397  0.10000000
   0.16376430  0.84376384  0.10000000
   0.84623863  0.16123684  0.10000000
   0.68749850  0.84373000  0.10000000
   0.84626736  0.68499594  0.10000000
   0.33333267  0.16666633  0.32553333
   0.49999967  0.99999933  0.32553333
   0.33333267  0.66666633  0.32553333
   0.49999967  0.49999933  0.32553333
   0.83333267  0.16666633  0.32553333
   0.99999967  0.99999933  0.32553333
   0.83333267  0.66666633  0.32553333
   0.99999967  0.49999933  0.32553333
Direct configuration=     2
   0.33834432  0.66917093  0.10017207
   0.67169313  0.33582100  0.09997919
   0.16705178  0.32662917  0.09994331
   0.32885913  0.16443864  0.10001560
   0.16708224  0.84044073  0.09994331
   0.84303279  0.16442523  0.10001515
   0.68086732  0.84043389  0.09994302
   0.84305767  0.67863254  0.10001513
   0.33337701  0.16668741  0.32554316
   0.50012656  0.00027076  0.32558600
   0.33332897  0.66666345  0.32532626
   0.50012656  0.49985697  0.32558599
   0.83331974  0.16669148  0.32553965
   0.00000493  0.00000304  0.32553176
   0.83331978  0.66662616  0.32553968
   0.99973339  0.49986727  0.32558738
Direct configuration=     3
   0.33833411  0.66916611  0.10004641
   0.67166544  0.33583594  0.09999439
   0.16463291  0.32178785  0.09998471
   0.32421688  0.16212029  0.10000421
   0.16465927  0.84286748  0.09998471
   0.84537391  0.16209686  0.10000409
   0.68570984  0.84284092  0.09998463
   0.84540159  0.68327951  0.10000408
   0.33334463  0.16667202  0.32553598
   0.50003390  0.00007255  0.32554754
   0.33333167  0.66666555  0.32547748
   0.50003390  0.49996093  0.32554754
   0.83332918  0.16667312  0.32553504
   0.00000109  0.00000033  0.32553291
   0.83332919  0.66665550  0.32553504
   0.99992784  0.49996371  0.32554791
Direct configuration=     4
   0.33833411  0.66916610  0.10004639
   0.67166544  0.33583594  0.09999439
   0.16463245  0.32178693  0.09998472
   0.32421600  0.16211985  0.10000421
   0.16465881  0.84286794  0.09998472
   0.84537435  0.16209642  0.10000408
   0.68571075  0.84284138  0.09998464
   0.84540203  0.68328039  0.10000408
   0.33334462  0.16667202  0.32553598
   0.50003388  0.00007251  0.32554753
   0.33333167  0.66666556  0.32547751
   0.50003388  0.49996095  0.32554753
   0.83332918  0.16667311  0.32553504
   0.00000109  0.00000033  0.32553291
   0.83332919  0.66665550  0.32553504
   0.99992788  0.49996373  0.32554790
Direct configuration=     5
   0.33833842  0.66916639  0.10015646
   0.67166868  0.33583241  0.09997817
   0.16463018  0.32178911  0.09995758
   0.32420587  0.16210901  0.10000635
   0.16464843  0.84285900  0.09995758
   0.84538968  0.16209435  0.10000600
   0.68570096  0.84284647  0.09995718
   0.84540596  0.68329525  0.10000600
   0.33335714  0.16667843  0.32554885
   0.50004482  0.00009362  0.32557444
   0.33333091  0.66666530  0.32534791
   0.50004483  0.49995055  0.32557444
   0.83332352  0.16668019  0.32554562
   0.00000324  0.00000129  0.32552883
   0.83332351  0.66664303  0.32554563
   0.99990917  0.49995426  0.32557564
Direct configuration=     6
   0.33833968  0.66916648  0.10018866
   0.67166963  0.33583137  0.09997342
   0.16462951  0.32178974  0.09994964
   0.32420291  0.16210584  0.10000697
   0.16464540  0.84285639  0.09994964
   0.84539416  0.16209374  0.10000655
   0.68569810  0.84284796  0.09994914
   0.84540711  0.68329960  0.10000656
   0.33336080  0.16668031  0.32555262
   0.50004803  0.00009980  0.32558232
   0.33333068  0.66666522  0.32530999
   0.50004803  0.49994750  0.32558232
   0.83332187  0.16668226  0.32554872
   0.00000387  0.00000158  0.32552763
   0.83332185  0.66663938  0.32554872
   0.99990369  0.49995149  0.32558375
Direct configuration=     7
   0.33831642  0.66916340  0.10024980
   0.67167214  0.33583867  0.09997792
   0.16465839  0.32177005  0.09996361
   0.32420858  0.16211301  0.09998055
   0.16465476  0.84287540  0.09996362
   0.84536330  0.16210181  0.09997978
   0.68574141  0.84285604  0.09996272
   0.84536380  0.68326880  0.09997979
   0.33333722  0.16666805  0.32557798
   0.50002488  0.00005254  0.32556318
   0.33333592  0.66666740  0.32526856
   0.50002485  0.49997257  0.32556318
   0.83333740  0.16666845  0.32557315
   0.00000070  0.00000046  0.32552520
   0.83333743  0.66666788  0.32557314
   0.99994813  0.49997416  0.32556448
Direct configuration=     8
   0.33832150  0.66916407  0.10023645
   0.67167159  0.33583708  0.09997694
   0.16465208  0.32177435  0.09996056
   0.32420734  0.16211145  0.09998632
   0.16465271  0.84287125  0.09996056
   0.84537005  0.16210004  0.09998563
   0.68573195  0.84285427  0.09995976
   0.84537326  0.68327553  0.09998563
   0.33334237  0.16667072  0.32557244
   0.50002994  0.00006286  0.32556736
   0.33333478  0.66666692  0.32527761
   0.50002992  0.49996709  0.32556736
   0.83333401  0.16667147  0.32556781
   0.00000139  0.00000070  0.32552573
   0.83333402  0.66666165  0.32556780
   0.99993842  0.49996921  0.32556869
Direct configuration=     9
   0.33834932  0.66916927  0.10029105
   0.67164583  0.33582928  0.09997969
   0.16459371  0.32178029  0.09997849
   0.32423704  0.16209963  0.09996265
   0.16459776  0.84283880  0.09997854
   0.84543539  0.16211523  0.09996146
   0.68567089  0.84285349  0.09997722
   0.84543978  0.68329637  0.09996147
   0.33335254  0.16667638  0.32558970
   0.50004507  0.00008839  0.32554214
   0.33333237  0.66666637  0.32525437
   0.50004513  0.49995565  0.32554214
   0.83332747  0.16667785  0.32558454
   0.00000628  0.00000262  0.32553565
   0.83332749  0.66664988  0.32558455
   0.99991926  0.49995915  0.32554300
Direct configuration=    10
   0.33833131  0.66916591  0.10025569
   0.67166251  0.33583433  0.09997791
   0.16463151  0.32177644  0.09996688
   0.32421781  0.16210728  0.09997798
   0.16463334  0.84285981  0.09996690
   0.84539308  0.16210540  0.09997711
   0.68571043  0.84285400  0.09996591
   0.84539671  0.68328287  0.09997712
   0.33334595  0.16667272  0.32557853
   0.50003527  0.00007186  0.32555847
   0.33333393  0.66666673  0.32526942
   0.50003528  0.49996306  0.32555847
   0.83333171  0.16667372  0.32557371
   0.00000311  0.00000138  0.32552923
   0.83333172  0.66665750  0.32557371
   0.99993167  0.49996566  0.32555964
Direct configuration=    11
   0.33833195  0.66916603  0.10025696
   0.67166191  0.33583415  0.09997797
   0.16463015  0.32177658  0.09996730
   0.32421850  0.16210701  0.09997742
   0.16463206  0.84285906  0.09996732
   0.84539460  0.16210575  0.09997655
   0.68570901  0.84285398  0.09996632
   0.84539825  0.68328336  0.09997655
   0.33334619  0.16667285  0.32557893
   0.50003562  0.00007246  0.32555788
   0.33333387  0.66666672  0.32526888
   0.50003563  0.49996279  0.32555788
   0.83333155  0.16667387  0.32557410
   0.00000323  0.00000142  0.32552946
   0.83333157  0.66665723  0.32557409
   0.99993122  0.49996543  0.32555904
Direct configuration=    12
   0.33833063  0.66916506  0.10028022
   0.67167330  0.33583067  0.09997491
   0.16464858  0.32179240  0.09997466
   0.32418988  0.16209806  0.09997331
   0.16465044  0.84285276  0.09997467
   0.84538722  0.16209265  0.09997206
   0.68570190  0.84285077  0.09997333
   0.84538638  0.68329935  0.09997207
   0.33336329  0.16668165  0.32557709
   0.50005247  0.00010493  0.32554661
   0.33333262  0.66666629  0.32526509
   0.50005246  0.49994677  0.32554660
   0.83332360  0.16668369  0.32557232
   0.00000651  0.00000288  0.32554405
   0.83332358  0.66663989  0.32557232
   0.99990248  0.49995085  0.32554734
Direct configuration=    13
   0.33833125  0.66916552  0.10026926
   0.67166794  0.33583231  0.09997635
   0.16463990  0.32178495  0.09997119
   0.32420337  0.16210227  0.09997525
   0.16464178  0.84285573  0.09997121
   0.84539070  0.16209882  0.09997418
   0.68570525  0.84285228  0.09997003
   0.84539198  0.68329182  0.09997418
   0.33335524  0.16667751  0.32557796
   0.50004453  0.00008963  0.32555192
   0.33333321  0.66666649  0.32526688
   0.50004453  0.49995432  0.32555192
   0.83332735  0.16667906  0.32557316
   0.00000496  0.00000219  0.32553718
   0.83332734  0.66664806  0.32557316
   0.99991602  0.49995772  0.32555285
Direct configuration=    14
   0.33832951  0.66916411  0.10028002
   0.67166756  0.33583275  0.09997239
   0.16463920  0.32178046  0.09997365
   0.32420563  0.16210340  0.09997861
   0.16463881  0.84285729  0.09997364
   0.84538722  0.16210115  0.09997722
   0.68571043  0.84285439  0.09997226
   0.84538654  0.68328635  0.09997727
   0.33335437  0.16667688  0.32557136
   0.50004106  0.00008267  0.32554740
   0.33333537  0.66666737  0.32526633
   0.50004105  0.49995828  0.32554740
   0.83333066  0.16667823  0.32556670
   0.00000454  0.00000222  0.32554766
   0.83333064  0.66665179  0.32556670
   0.99992274  0.49996132  0.32554805
Direct configuration=    15
   0.33832873  0.66916349  0.10028478
   0.67166740  0.33583294  0.09997063
   0.16463889  0.32177847  0.09997473
   0.32420664  0.16210390  0.09998009
   0.16463750  0.84285798  0.09997471
   0.84538569  0.16210218  0.09997857
   0.68571272  0.84285532  0.09997325
   0.84538414  0.68328393  0.09997863
   0.33335399  0.16667661  0.32556845
   0.50003952  0.00007960  0.32554540
   0.33333632  0.66666776  0.32526609
   0.50003951  0.49996003  0.32554540
   0.83333212  0.16667787  0.32556385
   0.00000436  0.00000223  0.32555229
   0.83333210  0.66665344  0.32556385
   0.99992572  0.49996291  0.32554593
Direct configuration=    16
   0.33833123  0.66916506  0.10029222
   0.67165976  0.33583117  0.09996921
   0.16463077  0.32178035  0.09997972
   0.32420880  0.16210061  0.09998493
   0.16463066  0.84285217  0.09997969
   0.84539554  0.16210271  0.09998300
   0.68569964  0.84285254  0.09997789
   0.84539558  0.68328858  0.09998307
   0.33335268  0.16667650  0.32556285
   0.50004553  0.00008558  0.32553990
   0.33333482  0.66666760  0.32526386
   0.50004553  0.49995903  0.32553990
   0.83333058  0.16667775  0.32555831
   0.00000845  0.00000375  0.32555348
   0.83333059  0.66665317  0.32555832
   0.99992517  0.49996212  0.32554032
Direct configuration=    17
   0.33833062  0.66916467  0.10029038
   0.67166165  0.33583161  0.09996956
   0.16463278  0.32177988  0.09997849
   0.32420827  0.16210143  0.09998373
   0.16463235  0.84285361  0.09997846
   0.84539310  0.16210258  0.09998190
   0.68570287  0.84285323  0.09997674
   0.84539275  0.68328743  0.09998197
   0.33335300  0.16667653  0.32556424
   0.50004405  0.00008410  0.32554126
   0.33333519  0.66666764  0.32526442
   0.50004404  0.49995928  0.32554126
   0.83333096  0.16667778  0.32555968
   0.00000744  0.00000337  0.32555318
   0.83333096  0.66665323  0.32555968
   0.99992531  0.49996231  0.32554171
Direct configuration=    18
   0.33832907  0.66916460  0.10029359
   0.67166095  0.33583109  0.09996981
   0.16463469  0.32178125  0.09998187
   0.32420480  0.16209990  0.09998661
   0.16463415  0.84285285  0.09998184
   0.84539171  0.16210074  0.09998453
   0.68570121  0.84285196  0.09997989
   0.84539147  0.68328875  0.09998459
   0.33335412  0.16667718  0.32556156
   0.50004642  0.00008715  0.32553807
   0.33333554  0.66666791  0.32526250
   0.50004641  0.49995847  0.32553807
   0.83333100  0.16667847  0.32555701
   0.00000875  0.00000396  0.32555120
   0.83333101  0.66665277  0.32555701
   0.99992403  0.49996161  0.32553851
Direct configuration=    19
   0.33832442  0.66916439  0.10030323
   0.67165884  0.33582953  0.09997055
   0.16464042  0.32178537  0.09999200
   0.32419440  0.16209532  0.09999523
   0.16463957  0.84285059  0.09999198
   0.84538755  0.16209522  0.09999241
   0.68569624  0.84284816  0.09998935
   0.84538764  0.68329273  0.09999245
   0.33335749  0.16667914  0.32555353
   0.50005354  0.00009629  0.32552852
   0.33333657  0.66666873  0.32525674
   0.50005351  0.49995606  0.32552852
   0.83333110  0.16668055  0.32554900
   0.00001269  0.00000572  0.32554523
   0.83333113  0.66665139  0.32554901
   0.99992020  0.49995949  0.32552891
Direct configuration=    20
   0.33831513  0.66916396  0.10032249
   0.67165463  0.33582639  0.09997204
   0.16465188  0.32179360  0.10001227
   0.32417361  0.16208617  0.10001248
   0.16465040  0.84284606  0.10001227
   0.84537924  0.16208418  0.10000818
   0.68568630  0.84284055  0.10000827
   0.84537997  0.68330068  0.10000818
   0.33336423  0.16668306  0.32553747
   0.50006779  0.00011458  0.32550941
   0.33333864  0.66667036  0.32524523
   0.50006773  0.49995122  0.32550941
   0.83333131  0.16668471  0.32553297
   0.00002055  0.00000925  0.32553329
   0.83333138  0.66664863  0.32553299
   0.99991254  0.49995525  0.32550971
Direct configuration=    21
   0.33832212  0.66916428  0.10030799
   0.67165780  0.33582875  0.09997092
   0.16464326  0.32178741  0.09999702
   0.32418926  0.16209306  0.09999950
   0.16464225  0.84284947  0.09999700
   0.84538550  0.16209249  0.09999631
   0.68569378  0.84284627  0.09999403
   0.84538574  0.68329469  0.09999635
   0.33335916  0.16668011  0.32554955
   0.50005707  0.00010082  0.32552379
   0.33333708  0.66666913  0.32525389
   0.50005703  0.49995486  0.32552379
   0.83333115  0.16668158  0.32554503
   0.00001463  0.00000660  0.32554227
   0.83333119  0.66665071  0.32554504
   0.99991830  0.49995844  0.32552416
Direct configuration=    22
   0.33832168  0.66916384  0.10030982
   0.67165745  0.33582855  0.09997160
   0.16464237  0.32178666  0.09999919
   0.32418922  0.16209303  0.10000133
   0.16464126  0.84284942  0.09999918
   0.84538480  0.16209253  0.09999799
   0.68569384  0.84284630  0.09999606
   0.84538495  0.68329394  0.09999802
   0.33336012  0.16668052  0.32554790
   0.50005696  0.00010047  0.32552190
   0.33333799  0.66666952  0.32525230
   0.50005693  0.49995528  0.32552191
   0.83333204  0.16668200  0.32554338
   0.00001474  0.00000674  0.32554042
   0.83333207  0.66665104  0.32554339
   0.99991892  0.49995883  0.32552228
Direct configuration=    23
   0.33832036  0.66916250  0.10031530
   0.67165639  0.33582796  0.09997364
   0.16463973  0.32178441  0.10000572
   0.32418911  0.16209296  0.10000684
   0.16463828  0.84284929  0.10000570
   0.84538272  0.16209265  0.10000303
   0.68569402  0.84284638  0.10000214
   0.84538256  0.68329168  0.10000304
   0.33336300  0.16668176  0.32554295
   0.50005664  0.00009943  0.32551625
   0.33334070  0.66667066  0.32524751
   0.50005661  0.49995653  0.32551625
   0.83333470  0.16668324  0.32553840
   0.00001506  0.00000717  0.32553486
   0.83333472  0.66665203  0.32553842
   0.99992075  0.49996002  0.32551663
Direct configuration=    24
   0.33831771  0.66915984  0.10032626
   0.67165428  0.33582676  0.09997772
   0.16463443  0.32177991  0.10001876
   0.32418887  0.16209281  0.10001785
   0.16463232  0.84284901  0.10001876
   0.84537855  0.16209288  0.10001311
   0.68569437  0.84284654  0.10001430
   0.84537778  0.68328715  0.10001309
   0.33336876  0.16668425  0.32553303
   0.50005601  0.00009735  0.32550493
   0.33334613  0.66667296  0.32523793
   0.50005598  0.49995905  0.32550493
   0.83334002  0.16668574  0.32552846
   0.00001571  0.00000802  0.32552373
   0.83334001  0.66665401  0.32552847
   0.99992442  0.49996239  0.32550533
Direct configuration=    25
   0.33831241  0.66915451  0.10034818
   0.67165005  0.33582438  0.09998588
   0.16462384  0.32177091  0.10004485
   0.32418841  0.16209252  0.10003988
   0.16462041  0.84284846  0.10004487
   0.84537021  0.16209334  0.10003326
   0.68569507  0.84284686  0.10003862
   0.84536821  0.68327810  0.10003318
   0.33338028  0.16668921  0.32551320
   0.50005474  0.00009319  0.32548230
   0.33335698  0.66667755  0.32521877
   0.50005473  0.49996407  0.32548230
   0.83335066  0.16669073  0.32550856
   0.00001700  0.00000974  0.32550149
   0.83335060  0.66665797  0.32550859
   0.99993175  0.49996713  0.32548273
Direct configuration=    26
   0.33831459  0.66915671  0.10033914
   0.67165179  0.33582536  0.09998251
   0.16462820  0.32177462  0.10003409
   0.32418860  0.16209264  0.10003079
   0.16462532  0.84284869  0.10003410
   0.84537365  0.16209315  0.10002495
   0.68569478  0.84284673  0.10002859
   0.84537216  0.68328183  0.10002490
   0.33337553  0.16668716  0.32552138
   0.50005526  0.00009490  0.32549164
   0.33335250  0.66667566  0.32522667
   0.50005525  0.49996200  0.32549164
   0.83334627  0.16668867  0.32551677
   0.00001647  0.00000903  0.32551066
   0.83334623  0.66665634  0.32551679
   0.99992873  0.49996517  0.32549205
Direct configuration=    27
   0.33831356  0.66915567  0.10034340
   0.67165097  0.33582490  0.09998410
   0.16462615  0.32177287  0.10003916
   0.32418851  0.16209259  0.10003507
   0.16462301  0.84284858  0.10003917
   0.84537203  0.16209324  0.10002886
   0.68569492  0.84284679  0.10003332
   0.84537030  0.68328007  0.10002880
   0.33337777  0.16668813  0.32551753
   0.50005502  0.00009409  0.32548724
   0.33335461  0.66667655  0.32522295
   0.50005500  0.49996297  0.32548724
   0.83334834  0.16668964  0.32551290
   0.00001672  0.00000936  0.32550634
   0.83334829  0.66665711  0.32551293
   0.99993015  0.49996610  0.32548766
Direct configuration=    28
   0.33831286  0.66915497  0.10034630
   0.67165041  0.33582458  0.09998518
   0.16462474  0.32177168  0.10004262
   0.32418845  0.16209255  0.10003799
   0.16462143  0.84284851  0.10004263
   0.84537092  0.16209330  0.10003153
   0.68569501  0.84284683  0.10003654
   0.84536903  0.68327888  0.10003146
   0.33337929  0.16668879  0.32551490
   0.50005485  0.00009354  0.32548424
   0.33335605  0.66667715  0.32522041
   0.50005483  0.49996364  0.32548424
   0.83334975  0.16669030  0.32551027
   0.00001689  0.00000959  0.32550339
   0.83334969  0.66665763  0.32551029
   0.99993112  0.49996672  0.32548467
Direct configuration=    29
   0.33831261  0.66915471  0.10034735
   0.67165021  0.33582447  0.09998557
   0.16462424  0.32177125  0.10004387
   0.32418843  0.16209253  0.10003905
   0.16462086  0.84284848  0.10004388
   0.84537052  0.16209332  0.10003250
   0.68569504  0.84284685  0.10003771
   0.84536857  0.68327844  0.10003243
   0.33337984  0.16668903  0.32551395
   0.50005479  0.00009334  0.32548316
   0.33335657  0.66667737  0.32521949
   0.50005477  0.49996388  0.32548315
   0.83335026  0.16669054  0.32550931
   0.00001695  0.00000967  0.32550232
   0.83335020  0.66665782  0.32550934
   0.99993148  0.49996695  0.32548358
Direct configuration=    30
   0.33831251  0.66915461  0.10034777
   0.67165013  0.33582442  0.09998573
   0.16462403  0.32177107  0.10004437
   0.32418842  0.16209253  0.10003947
   0.16462063  0.84284847  0.10004439
   0.84537036  0.16209333  0.10003288
   0.68569506  0.84284686  0.10003817
   0.84536839  0.68327827  0.10003281
   0.33338007  0.16668912  0.32551357
   0.50005476  0.00009326  0.32548272
   0.33335678  0.66667746  0.32521912
   0.50005475  0.49996398  0.32548272
   0.83335046  0.16669064  0.32550893
   0.00001698  0.00000971  0.32550190
   0.83335040  0.66665790  0.32550896
   0.99993162  0.49996704  0.32548315
Direct configuration=    31
   0.33831246  0.66915456  0.10034798
   0.67165009  0.33582440  0.09998580
   0.16462393  0.32177099  0.10004461
   0.32418841  0.16209253  0.10003967
   0.16462052  0.84284846  0.10004463
   0.84537028  0.16209334  0.10003307
   0.68569506  0.84284686  0.10003840
   0.84536830  0.68327818  0.10003300
   0.33338017  0.16668917  0.32551338
   0.50005475  0.00009323  0.32548251
   0.33335688  0.66667751  0.32521895
   0.50005474  0.49996402  0.32548251
   0.83335056  0.16669068  0.32550875
   0.00001699  0.00000972  0.32550169
   0.83335050  0.66665793  0.32550878
   0.99993169  0.49996709  0.32548294
Direct configuration=    32
   0.33831243  0.66915453  0.10034808
   0.67165007  0.33582439  0.09998584
   0.16462389  0.32177095  0.10004473
   0.32418841  0.16209252  0.10003978
   0.16462047  0.84284846  0.10004475
   0.84537025  0.16209334  0.10003316
   0.68569507  0.84284686  0.10003851
   0.84536826  0.68327814  0.10003309
   0.33338022  0.16668919  0.32551329
   0.50005474  0.00009321  0.32548241
   0.33335693  0.66667753  0.32521886
   0.50005473  0.49996405  0.32548241
   0.83335061  0.16669071  0.32550866
   0.00001700  0.00000973  0.32550159
   0.83335055  0.66665795  0.32550868
   0.99993172  0.49996711  0.32548284
Direct configuration=    33
   0.33831242  0.66915452  0.10034813
   0.67165006  0.33582438  0.09998586
   0.16462386  0.32177093  0.10004479
   0.32418841  0.16209252  0.10003983
   0.16462044  0.84284846  0.10004481
   0.84537023  0.16209334  0.10003321
   0.68569507  0.84284686  0.10003857
   0.84536824  0.68327812  0.10003314
   0.33338025  0.16668920  0.32551325
   0.50005474  0.00009320  0.32548236
   0.33335695  0.66667754  0.32521881
   0.50005473  0.49996406  0.32548235
   0.83335063  0.16669072  0.32550861
   0.00001700  0.00000973  0.32550154
   0.83335057  0.66665796  0.32550864
   0.99993174  0.49996712  0.32548279
Direct configuration=    34
   0.33831241  0.66915452  0.10034815
   0.67165006  0.33582438  0.09998587
   0.16462385  0.32177092  0.10004482
   0.32418841  0.16209252  0.10003985
   0.16462042  0.84284846  0.10004484
   0.84537022  0.16209334  0.10003323
   0.68569507  0.84284686  0.10003859
   0.84536823  0.68327811  0.10003316
   0.33338026  0.16668921  0.32551322
   0.50005474  0.00009319  0.32548233
   0.33335696  0.66667754  0.32521879
   0.50005473  0.49996406  0.32548233
   0.83335065  0.16669072  0.32550859
   0.00001700  0.00000974  0.32550151
   0.83335058  0.66665797  0.32550861
   0.99993174  0.49996712  0.32548276
Direct configuration=    35
   0.33831241  0.66915451  0.10034817
   0.67165005  0.33582438  0.09998587
   0.16462384  0.32177091  0.10004484
   0.32418841  0.16209252  0.10003986
   0.16462042  0.84284846  0.10004485
   0.84537021  0.16209334  0.10003324
   0.68569507  0.84284686  0.10003861
   0.84536822  0.68327811  0.10003317
   0.33338027  0.16668921  0.32551321
   0.50005474  0.00009319  0.32548232
   0.33335697  0.66667755  0.32521878
   0.50005473  0.49996407  0.32548231
   0.83335065  0.16669073  0.32550858
   0.00001700  0.00000974  0.32550150
   0.83335059  0.66665797  0.32550860
   0.99993175  0.49996713  0.32548275
Direct configuration=    36
   0.33831241  0.66915451  0.10034817
   0.67165005  0.33582438  0.09998588
   0.16462384  0.32177091  0.10004484
   0.32418841  0.16209252  0.10003987
   0.16462041  0.84284846  0.10004486
   0.84537021  0.16209334  0.10003325
   0.68569507  0.84284686  0.10003862
   0.84536822  0.68327810  0.10003318
   0.33338027  0.16668921  0.32551321
   0.50005474  0.00009319  0.32548231
   0.33335697  0.66667755  0.32521877
   0.50005473  0.49996407  0.32548231
   0.83335065  0.16669073  0.32550857
   0.00001700  0.00000974  0.32550149
   0.83335059  0.66665797  0.32550860
   0.99993175  0.49996713  0.32548274
Direct configuration=    37
   0.33831241  0.66915451  0.10034818
   0.67165005  0.33582438  0.09998588
   0.16462384  0.32177091  0.10004485
   0.32418841  0.16209252  0.10003987
   0.16462041  0.84284846  0.10004486
   0.84537021  0.16209334  0.10003325
   0.68569507  0.84284686  0.10003862
   0.84536822  0.68327810  0.10003318
   0.33338028  0.16668921  0.32551320
   0.50005474  0.00009319  0.32548231
   0.33335698  0.66667755  0.32521877
   0.50005473  0.49996407  0.32548231
   0.83335066  0.16669073  0.32550857
   0.00001700  0.00000974  0.32550149
   0.83335059  0.66665797  0.32550859
   0.99993175  0.49996713  0.32548274
Direct configuration=    38
   0.33831241  0.66915451  0.10034818
   0.67165005  0.33582438  0.09998588
   0.16462384  0.32177091  0.10004485
   0.32418841  0.16209252  0.10003988
   0.16462041  0.84284846  0.10004487
   0.84537021  0.16209334  0.10003325
   0.68569507  0.84284686  0.10003862
   0.84536821  0.68327810  0.10003318
   0.33338028  0.16668921  0.32551320
   0.50005474  0.00009319  0.32548230
   0.33335698  0.66667755  0.32521877
   0.50005473  0.49996407  0.32548230
   0.83335066  0.16669073  0.32550857
   0.00001700  0.00000974  0.32550149
   0.83335059  0.66665797  0.32550859
   0.99993175  0.49996713  0.32548273
Direct configuration=    39
   0.33831241  0.66915451  0.10034818
   0.67165005  0.33582438  0.09998588
   0.16462384  0.32177091  0.10004485
   0.32418841  0.16209252  0.10003988
   0.16462041  0.84284846  0.10004487
   0.84537021  0.16209334  0.10003326
   0.68569507  0.84284686  0.10003862
   0.84536821  0.68327810  0.10003318
   0.33338028  0.16668921  0.32551320
   0.50005474  0.00009319  0.32548230
   0.33335698  0.66667755  0.32521877
   0.50005473  0.49996407  0.32548230
   0.83335066  0.16669073  0.32550857
   0.00001700  0.00000974  0.32550149
   0.83335060  0.66665797  0.32550859
   0.99993175  0.49996713  0.32548273
