Lattice                                 
           1
     4.194161    2.421500    0.000000
    -4.194161    2.421500    0.000000
     0.000000    0.000000   15.000000
   B    C 
     4    11
Direct configuration=     1
   0.00415361  0.00267210  0.12034134
   0.35695335  0.00285503  0.09748893
   0.00423858  0.35550699  0.09749256
   0.65142295  0.65006557  0.09747688
   0.32808646  0.32671938  0.10030508
   0.68027775  0.00278085  0.10027562
   0.00416530  0.67883808  0.10026559
   0.99999933  0.49999967  0.33373333
   0.16666633  0.33333267  0.33373333
   0.99999933  0.99999967  0.33373333
   0.16666633  0.83333267  0.33373333
   0.49999933  0.49999967  0.33373333
   0.66666633  0.33333267  0.33373333
   0.49999933  0.99999967  0.33373333
   0.66666633  0.83333267  0.33373333
Direct configuration=     2
   0.00418067  0.00275300  0.11924807
   0.35586560  0.00303258  0.09782688
   0.00395867  0.35419530  0.09782898
   0.65272783  0.65110976  0.09781829
   0.32476709  0.32305558  0.10029576
   0.68390267  0.00310595  0.10027421
   0.00388573  0.68217971  0.10026689
   0.00012697  0.49997598  0.33374218
   0.16687292  0.33394468  0.33380149
   0.99999919  0.99999364  0.33363261
   0.16706429  0.83312470  0.33380437
   0.50003921  0.50016347  0.33374506
   0.66666625  0.33333786  0.33368501
   0.49985070  0.99987112  0.33374171
   0.66605286  0.83292399  0.33380117
Direct configuration=     3
   0.00416614  0.00270955  0.11983528
   0.35644984  0.00293722  0.09764536
   0.00410901  0.35489983  0.09764829
   0.65202696  0.65054891  0.09763491
   0.32654997  0.32502345  0.10030076
   0.68195568  0.00293133  0.10027497
   0.00403589  0.68038488  0.10026619
   0.00005842  0.49998870  0.33373743
   0.16676196  0.33361596  0.33376488
   0.99999927  0.99999688  0.33368671
   0.16685054  0.83323640  0.33376621
   0.50001779  0.50007549  0.33373876
   0.66666629  0.33333507  0.33371097
   0.49993053  0.99994017  0.33373721
   0.66638237  0.83314349  0.33376473
Direct configuration=     4
   0.00418024  0.00276592  0.11893619
   0.35688580  0.00305240  0.09794575
   0.00391104  0.35519443  0.09794714
   0.65174726  0.65008255  0.09793863
   0.32664746  0.32490326  0.10026258
   0.68205460  0.00312397  0.10024448
   0.00385655  0.68030587  0.10023779
  -0.00008126  0.50000973  0.33375705
   0.16662232  0.33315392  0.33380929
   0.99999998  0.00000278  0.33362877
   0.16654073  0.83338347  0.33381279
   0.49998577  0.49990699  0.33376053
   0.66666940  0.33333223  0.33366645
   0.50008871  0.00008156  0.33375641
   0.66685204  0.83346825  0.33380881
Direct configuration=     5
   0.00419910  0.00284128  0.11773433
   0.35746857  0.00320638  0.09834729
   0.00364640  0.35558825  0.09834664
   0.65137337  0.64945915  0.09834464
   0.32677779  0.32474259  0.10021154
   0.68218683  0.00338149  0.10020373
   0.00361682  0.68020027  0.10019982
  -0.00026797  0.50003783  0.33378328
   0.16643564  0.33253628  0.33386866
   0.00000094  0.00001068  0.33355133
   0.16612659  0.83358006  0.33387506
   0.49994298  0.49968174  0.33378963
   0.66667356  0.33332842  0.33360693
   0.50030016  0.00027056  0.33378207
   0.66747989  0.83390236  0.33386773
Direct configuration=     6
   0.00420148  0.00285166  0.11749536
   0.35757587  0.00322536  0.09841741
   0.00361166  0.35567250  0.09841641
   0.65129385  0.64934588  0.09841549
   0.32684247  0.32477344  0.10021092
   0.68215215  0.00340913  0.10020498
   0.00358853  0.68013959  0.10020154
  -0.00023516  0.50003502  0.33378902
   0.16645227  0.33261182  0.33387694
   0.00000224  0.00001018  0.33354325
   0.16618288  0.83356237  0.33388374
   0.49994933  0.49971856  0.33379576
   0.66667308  0.33332923  0.33359821
   0.50026668  0.00023897  0.33378770
   0.66740335  0.83384362  0.33387593
Direct configuration=     7
   0.00420864  0.00288278  0.11677845
   0.35789777  0.00328233  0.09862775
   0.00350743  0.35592525  0.09862571
   0.65105530  0.64900609  0.09862806
   0.32703650  0.32486602  0.10020907
   0.68204811  0.00349206  0.10020876
   0.00350365  0.67995754  0.10020670
  -0.00013676  0.50002658  0.33380622
   0.16650216  0.33283844  0.33390179
   0.00000613  0.00000870  0.33351903
   0.16635175  0.83350932  0.33390981
   0.49996837  0.49982900  0.33381414
   0.66667162  0.33333167  0.33357203
   0.50016624  0.00014417  0.33380461
   0.66717374  0.83366738  0.33390055
Direct configuration=     8
   0.00422294  0.00294504  0.11534462
   0.35854158  0.00339626  0.09904843
   0.00329899  0.35643074  0.09904433
   0.65057820  0.64832651  0.09905320
   0.32742457  0.32505117  0.10020535
   0.68184003  0.00365791  0.10021631
   0.00333390  0.67959345  0.10021702
   0.00006004  0.50000971  0.33384063
   0.16660194  0.33329169  0.33395148
   0.00001393  0.00000573  0.33347057
   0.16668950  0.83340320  0.33396193
   0.50000647  0.50004989  0.33385092
   0.66666870  0.33333654  0.33351968
   0.49996535 -0.00004542  0.33383841
   0.66671453  0.83331491  0.33394978
Direct configuration=     9
   0.00425154  0.00306956  0.11247697
   0.35982918  0.00362411  0.09988979
   0.00288210  0.35744174  0.09988155
   0.64962399  0.64696735  0.09990347
   0.32820070  0.32542147  0.10019793
   0.68142386  0.00398961  0.10023141
   0.00299441  0.67886526  0.10023766
   0.00045366  0.49997596  0.33390946
   0.16680149  0.33419818  0.33405086
   0.00002953 -0.00000020  0.33337366
   0.16736499  0.83319097  0.33406619
   0.50008266  0.50049167  0.33392448
   0.66666287  0.33334628  0.33341499
   0.49956359 -0.00042460  0.33390602
   0.66579610  0.83260997  0.33404825
Direct configuration=    10
   0.00423321  0.00298975  0.11431492
   0.35900392  0.00347807  0.09935054
   0.00314930  0.35679377  0.09934495
   0.65023556  0.64783847  0.09935851
   0.32770325  0.32518413  0.10020269
   0.68169059  0.00377701  0.10022173
   0.00321200  0.67933198  0.10022443
   0.00020138  0.49999759  0.33386534
   0.16667359  0.33361718  0.33398716
   0.00001953  0.00000360  0.33343577
   0.16693205  0.83332699  0.33399937
   0.50003383  0.50020852  0.33387734
   0.66666661  0.33334004  0.33348209
   0.49982109 -0.00018157  0.33386269
   0.66638475  0.83306178  0.33398514
Direct configuration=    11
   0.00423056  0.00298147  0.11378277
   0.35899537  0.00344645  0.09943463
   0.00319078  0.35682594  0.09942889
   0.65021038  0.64784668  0.09944299
   0.32773165  0.32529063  0.10027345
   0.68158712  0.00369300  0.10029495
   0.00327533  0.67930481  0.10029802
   0.00013044  0.50000791  0.33387679
   0.16672747  0.33362039  0.33398336
   0.00001206  0.00000302  0.33346690
   0.16689654  0.83328305  0.33399525
   0.50001646  0.50013134  0.33388836
   0.66667343  0.33334096  0.33349098
   0.49989140 -0.00011675  0.33387401
   0.66639167  0.83310844  0.33398131
Direct configuration=    12
   0.00422260  0.00295662  0.11218630
   0.35896970  0.00335158  0.09968691
   0.00331523  0.35692247  0.09968070
   0.65013485  0.64787130  0.09969645
   0.32781685  0.32561011  0.10048575
   0.68127670  0.00344096  0.10051459
   0.00346531  0.67922331  0.10051878
  -0.00008236  0.50003889  0.33391111
   0.16688911  0.33362999  0.33397197
  -0.00001036  0.00000125  0.33356030
   0.16679002  0.83315123  0.33398291
   0.49996437  0.49989978  0.33392143
   0.66669390  0.33334372  0.33351766
   0.50010233  0.00007772  0.33390796
   0.66641242  0.83324840  0.33396983
Direct configuration=    13
   0.00420667  0.00290693  0.10899337
   0.35891837  0.00316185  0.10019146
   0.00356413  0.35711554  0.10018433
   0.64998378  0.64792055  0.10020337
   0.32798724  0.32624908  0.10091034
   0.68065585  0.00293688  0.10095388
   0.00384527  0.67906031  0.10096030
  -0.00050798  0.50010083  0.33397977
   0.16721239  0.33364920  0.33394919
  -0.00005521 -0.00000227  0.33374710
   0.16657699  0.83288759  0.33395823
   0.49986019  0.49943666  0.33398756
   0.66673484  0.33334923  0.33357100
   0.50052420  0.00046665  0.33397588
   0.66645394  0.83352831  0.33394686
Direct configuration=    14
   0.00420493  0.00289389  0.10814772
   0.35890291  0.00309907  0.10030926
   0.00366672  0.35717129  0.10030252
   0.64991222  0.64794623  0.10032079
   0.32795302  0.32634005  0.10103637
   0.68056297  0.00282594  0.10108154
   0.00394727  0.67906758  0.10108800
  -0.00024394  0.50002233  0.33398324
   0.16690790  0.33350643  0.33394966
  -0.00000508  0.00000698  0.33380406
   0.16666000  0.83314372  0.33395759
   0.49999001  0.49975188  0.33398968
   0.66669745  0.33334527  0.33361548
   0.50025891  0.00025254  0.33397926
   0.66654537  0.83339412  0.33394749
Direct configuration=    15
   0.00420296  0.00287909  0.10718775
   0.35888535  0.00302780  0.10044297
   0.00378318  0.35723458  0.10043670
   0.64983100  0.64797538  0.10045408
   0.32791418  0.32644332  0.10117945
   0.68045753  0.00270001  0.10122645
   0.00406305  0.67907584  0.10123295
   0.00005579  0.49993321  0.33398718
   0.16656225  0.33334436  0.33395019
   0.00005182  0.00001749  0.33386873
   0.16675424  0.83343448  0.33395686
   0.50013738  0.50010971  0.33399209
   0.66665500  0.33334078  0.33366597
   0.49995776  0.00000949  0.33398311
   0.66664917  0.83324178  0.33394820
Direct configuration=    16
   0.00420224  0.00287312  0.10699020
   0.35893579  0.00301758  0.10047354
   0.00381581  0.35728844  0.10046800
   0.64974679  0.64793575  0.10048353
   0.32786139  0.32637097  0.10120237
   0.68052530  0.00274590  0.10124699
   0.00404637  0.67910207  0.10125288
   0.00009469  0.49998433  0.33397275
   0.16662161  0.33336969  0.33396288
   0.00002817  0.00001301  0.33387886
   0.16676253  0.83340312  0.33396896
   0.50005848  0.50011393  0.33397701
   0.66668072  0.33334571  0.33370470
   0.49992678 -0.00005608  0.33396889
   0.66665401  0.83325980  0.33396110
Direct configuration=    17
   0.00420082  0.00286147  0.10660471
   0.35903423  0.00299763  0.10053320
   0.00387947  0.35739352  0.10052909
   0.64958246  0.64785841  0.10054101
   0.32775837  0.32622978  0.10124709
   0.68065756  0.00283545  0.10128707
   0.00401382  0.67915325  0.10129178
   0.00017061  0.50008407  0.33394459
   0.16673743  0.33341910  0.33398765
  -0.00001799  0.00000428  0.33389862
   0.16677872  0.83334193  0.33399257
   0.49990451  0.50012217  0.33394757
   0.66673090  0.33335533  0.33378028
   0.49986632 -0.00018403  0.33394116
   0.66666345  0.83329496  0.33398629
Direct configuration=    18
   0.00418852  0.00282871  0.10636180
   0.35914015  0.00299344  0.10058101
   0.00390937  0.35749739  0.10057824
   0.64943722  0.64776835  0.10058647
   0.32774293  0.32614185  0.10125979
   0.68075163  0.00294498  0.10129390
   0.00395132  0.67915144  0.10129731
   0.00008259  0.50005447  0.33392755
   0.16673840  0.33342608  0.33400638
   0.00001408  0.00001091  0.33391328
   0.16672791  0.83330414  0.33401048
   0.49997380  0.50004074  0.33392960
   0.66669686  0.33334963  0.33383690
   0.49998710 -0.00005646  0.33392454
   0.66661879  0.83331166  0.33400542
Direct configuration=    19
   0.00418120  0.00280919  0.10621707
   0.35920326  0.00299095  0.10060950
   0.00392718  0.35755928  0.10060753
   0.64935068  0.64771468  0.10061356
   0.32773372  0.32608946  0.10126736
   0.68080768  0.00301024  0.10129797
   0.00391407  0.67915036  0.10130060
   0.00003015  0.50003683  0.33391739
   0.16673898  0.33343024  0.33401754
   0.00003319  0.00001486  0.33392202
   0.16669764  0.83328163  0.33402115
   0.50001509  0.49999221  0.33391889
   0.66667658  0.33334623  0.33387063
   0.50005906  0.00001956  0.33391464
   0.66659218  0.83332162  0.33401682
Direct configuration=    20
   0.00416333  0.00276766  0.10608792
   0.35925024  0.00300039  0.10064457
   0.00392217  0.35760252  0.10064349
   0.64930095  0.64767435  0.10064680
   0.32780171  0.32610377  0.10125843
   0.68080983  0.00307222  0.10128367
   0.00386478  0.67910042  0.10128517
   0.00000196  0.49997416  0.33392593
   0.16668276  0.33340811  0.33401977
   0.00002977  0.00001470  0.33393752
   0.16674396  0.83334602  0.33402323
   0.50007329  0.50003067  0.33392724
   0.66668157  0.33334674  0.33388603
   0.50001514  0.00004201  0.33392356
   0.66661920  0.83328361  0.33401933
Direct configuration=    21
   0.00415034  0.00273746  0.10599400
   0.35928440  0.00300725  0.10067008
   0.00391853  0.35763396  0.10066965
   0.64926478  0.64764502  0.10067096
   0.32785115  0.32611418  0.10125194
   0.68081138  0.00311729  0.10127326
   0.00382893  0.67906410  0.10127395
  -0.00001854  0.49992859  0.33393214
   0.16664188  0.33339201  0.33402140
   0.00002729  0.00001458  0.33394880
   0.16677764  0.83339284  0.33402474
   0.50011562  0.50005865  0.33393332
   0.66668521  0.33334711  0.33389723
   0.49998320  0.00005833  0.33393004
   0.66663886  0.83325597  0.33402116
Direct configuration=    22
   0.00413640  0.00270478  0.10585748
   0.35929277  0.00302982  0.10070855
   0.00390066  0.35762595  0.10070905
   0.64927083  0.64764229  0.10070732
   0.32791079  0.32613590  0.10123578
   0.68080095  0.00315888  0.10125029
   0.00379101  0.67901798  0.10124957
   0.00003462  0.49997575  0.33395515
   0.16667019  0.33339601  0.33401985
   0.00001758  0.00001260  0.33396725
   0.16677193  0.83337746  0.33402334
   0.50005745  0.50007222  0.33395649
   0.66669717  0.33334967  0.33389919
   0.49995892 -0.00000525  0.33395345
   0.66664940  0.83327327  0.33401991
Direct configuration=    23
   0.00412206  0.00267113  0.10571693
   0.35930138  0.00305307  0.10074816
   0.00388227  0.35761770  0.10074963
   0.64927706  0.64763948  0.10074474
   0.32797219  0.32615826  0.10121914
   0.68079021  0.00320171  0.10122663
   0.00375196  0.67897049  0.10122447
   0.00008934  0.50002430  0.33397883
   0.16669934  0.33340012  0.33401826
   0.00000759  0.00001057  0.33398624
   0.16676605  0.83336163  0.33402190
   0.49999756  0.50008619  0.33398035
   0.66670949  0.33335231  0.33390121
   0.49993393 -0.00007072  0.33397755
   0.66666024  0.83329108  0.33401862
Direct configuration=    24
   0.00412980  0.00268698  0.10557808
   0.35926613  0.00308223  0.10077560
   0.00386507  0.35754945  0.10077776
   0.64933486  0.64767746  0.10077036
   0.32793525  0.32613610  0.10120888
   0.68079946  0.00319287  0.10120977
   0.00375962  0.67898255  0.10120627
   0.00007293  0.50003928  0.33400315
   0.16671114  0.33340810  0.33402534
   0.00003419  0.00001631  0.33399510
   0.16671437  0.83331933  0.33402934
   0.50001427  0.50003544  0.33400524
   0.66668325  0.33334895  0.33389982
   0.50001697 -0.00002154  0.33400212
   0.66662336  0.83331382  0.33402585
Direct configuration=    25
   0.00413289  0.00269331  0.10552264
   0.35925206  0.00309387  0.10078656
   0.00385820  0.35752220  0.10078899
   0.64935794  0.64769262  0.10078059
   0.32792050  0.32612725  0.10120478
   0.68080316  0.00318933  0.10120304
   0.00376269  0.67898736  0.10119900
   0.00006638  0.50004526  0.33401285
   0.16671586  0.33341129  0.33402817
   0.00004481  0.00001861  0.33399863
   0.16669373  0.83330244  0.33403231
   0.50002093  0.50001518  0.33401517
   0.66667277  0.33334761  0.33389927
   0.50005012 -0.00000191  0.33401192
   0.66660863  0.83332290  0.33402873
Direct configuration=    26
   0.00415025  0.00273306  0.10536959
   0.35921898  0.00311448  0.10080062
   0.00384357  0.35746200  0.10080342
   0.64941095  0.64772064  0.10079337
   0.32785865  0.32611931  0.10120360
   0.68079062  0.00313455  0.10119591
   0.00380574  0.67901656  0.10119069
   0.00000862  0.49998834  0.33403272
   0.16669972  0.33341463  0.33404922
   0.00002904  0.00001673  0.33399744
   0.16674815  0.83334150  0.33405386
   0.50005921  0.50002700  0.33403583
   0.66669132  0.33335063  0.33390467
   0.50001978  0.00003641  0.33403191
   0.66662606  0.83329150  0.33404983
Direct configuration=    27
   0.00415960  0.00275446  0.10528715
   0.35920115  0.00312558  0.10080819
   0.00383569  0.35742957  0.10081119
   0.64943951  0.64773573  0.10080025
   0.32782533  0.32611504  0.10120296
   0.68078387  0.00310504  0.10119207
   0.00382894  0.67903229  0.10118621
  -0.00002249  0.49995768  0.33404342
   0.16669103  0.33341643  0.33406056
   0.00002055  0.00001572  0.33399680
   0.16677747  0.83336254  0.33406546
   0.50007983  0.50003337  0.33404695
   0.66670132  0.33335226  0.33390758
   0.50000343  0.00005705  0.33404267
   0.66663544  0.83327458  0.33406119
Direct configuration=    28
   0.00416619  0.00277335  0.10514752
   0.35920473  0.00312453  0.10081133
   0.00382514  0.35743459  0.10081433
   0.64944384  0.64772095  0.10080287
   0.32782134  0.32615745  0.10120719
   0.68073599  0.00304533  0.10119233
   0.00386838  0.67903614  0.10118573
   0.00001622  0.49997564  0.33405693
   0.16668918  0.33341241  0.33408562
   0.00001891  0.00001519  0.33399483
   0.16678164  0.83336966  0.33409081
   0.50006096  0.50005714  0.33406102
   0.66670524  0.33335318  0.33391982
   0.49997811  0.00001686  0.33405615
   0.66664480  0.83327493  0.33408619
Direct configuration=    29
   0.00418163  0.00281763  0.10482024
   0.35921310  0.00312209  0.10081870
   0.00380040  0.35744635  0.10082168
   0.64945400  0.64768629  0.10080901
   0.32781200  0.32625685  0.10121710
   0.68062376  0.00290537  0.10119294
   0.00396081  0.67904519  0.10118459
   0.00010696  0.50001771  0.33408858
   0.16668485  0.33340297  0.33414434
   0.00001507  0.00001393  0.33399022
   0.16679142  0.83338637  0.33415024
   0.50001673  0.50011285  0.33409400
   0.66671445  0.33335533  0.33394849
   0.49991875 -0.00007734  0.33408773
   0.66666672  0.83327574  0.33414479
Direct configuration=    30
   0.00417631  0.00281284  0.10466372
   0.35923725  0.00310337  0.10081965
   0.00379425  0.35749340  0.10082239
   0.64942705  0.64765101  0.10080999
   0.32783661  0.32629465  0.10121990
   0.68059017  0.00287368  0.10119314
   0.00397392  0.67904440  0.10118437
   0.00009801  0.50003582  0.33410573
   0.16669662  0.33340084  0.33416792
   0.00003486  0.00001886  0.33400128
   0.16674372  0.83335342  0.33417379
   0.50002192  0.50007159  0.33411137
   0.66669667  0.33335377  0.33396645
   0.49998405 -0.00004396  0.33410473
   0.66664926  0.83330365  0.33416823
Direct configuration=    31
   0.00417098  0.00280803  0.10450683
   0.35926145  0.00308461  0.10082061
   0.00378809  0.35754056  0.10082310
   0.64940003  0.64761565  0.10081098
   0.32786128  0.32633254  0.10122269
   0.68055650  0.00284191  0.10119335
   0.00398705  0.67904360  0.10118414
   0.00008904  0.50005397  0.33412291
   0.16670841  0.33339871  0.33419155
   0.00005469  0.00002380  0.33401237
   0.16669590  0.83332038  0.33419740
   0.50002712  0.50003023  0.33412878
   0.66667885  0.33335220  0.33398446
   0.50004952 -0.00001051  0.33412176
   0.66663175  0.83333163  0.33419174
Direct configuration=    32
   0.00416096  0.00279362  0.10433781
   0.35928740  0.00305601  0.10082319
   0.00379203  0.35759523  0.10082527
   0.64935778  0.64758442  0.10081423
   0.32787479  0.32631160  0.10121856
   0.68058017  0.00286727  0.10118888
   0.00396044  0.67905142  0.10117967
   0.00003217  0.50001825  0.33414606
   0.16671757  0.33341080  0.33420853
   0.00004236  0.00002322  0.33404401
   0.16672744  0.83333029  0.33421393
   0.50004809  0.50001841  0.33415168
   0.66669432  0.33335531  0.33400764
   0.50004742  0.00003231  0.33414470
   0.66663771  0.83331917  0.33420851
Direct configuration=    33
   0.00414533  0.00277113  0.10407412
   0.35932788  0.00301138  0.10082722
   0.00379818  0.35768052  0.10082866
   0.64929186  0.64753571  0.10081931
   0.32789587  0.32627894  0.10121210
   0.68061710  0.00290684  0.10118190
   0.00391893  0.67906362  0.10117269
  -0.00005655  0.49996252  0.33418217
   0.16673187  0.33342966  0.33423502
   0.00002313  0.00002232  0.33409337
   0.16677665  0.83334575  0.33423971
   0.50008082  0.49999996  0.33418740
   0.66671847  0.33336017  0.33404382
   0.50004416  0.00009911  0.33418047
   0.66664699  0.83329971  0.33423469
Direct configuration=    34
   0.00414323  0.00277130  0.10391703
   0.35933640  0.00299292  0.10083324
   0.00380929  0.35770075  0.10083432
   0.64926192  0.64752655  0.10082621
   0.32788833  0.32622696  0.10120059
   0.68066268  0.00295799  0.10117165
   0.00388158  0.67906437  0.10116273
  -0.00001167  0.49997305  0.33420504
   0.16671854  0.33342804  0.33424853
   0.00002760  0.00002254  0.33413092
   0.16678481  0.83335868  0.33425263
   0.50007706  0.50003380  0.33420980
   0.66671692  0.33336022  0.33406880
   0.50001623  0.00006019  0.33420313
   0.66664775  0.83328997  0.33424803
Direct configuration=    35
   0.00413896  0.00277165  0.10359745
   0.35935374  0.00295536  0.10084551
   0.00383189  0.35774189  0.10084584
   0.64920102  0.64750793  0.10084025
   0.32787300  0.32612121  0.10117718
   0.68075540  0.00306206  0.10115079
   0.00380561  0.67906589  0.10114247
   0.00007964  0.49999448  0.33425156
   0.16669142  0.33342474  0.33427600
   0.00003670  0.00002298  0.33420732
   0.16680139  0.83338499  0.33427892
   0.50006941  0.50010264  0.33425538
   0.66671378  0.33336033  0.33411960
   0.49995941 -0.00001898  0.33424922
   0.66664928  0.83327016  0.33427516
Direct configuration=    36
   0.00414458  0.00278301  0.10346388
   0.35933683  0.00296036  0.10085643
   0.00384427  0.35771274  0.10085657
   0.64919992  0.64752591  0.10085200
   0.32787578  0.32610546  0.10115615
   0.68076260  0.00309886  0.10113274
   0.00378463  0.67903281  0.10112502
   0.00009751  0.50003354  0.33426857
   0.16670701  0.33340722  0.33429244
   0.00004858  0.00002619  0.33423784
   0.16674941  0.83335741  0.33429495
   0.50004533  0.50007346  0.33427195
   0.66670451  0.33336013  0.33414652
   0.50000314 -0.00002195  0.33426609
   0.66665657  0.83331220  0.33429152
Direct configuration=    37
   0.00414952  0.00279300  0.10334649
   0.35932196  0.00296475  0.10086603
   0.00385514  0.35768712  0.10086599
   0.64919895  0.64754171  0.10086233
   0.32787822  0.32609161  0.10113767
   0.68076893  0.00313119  0.10111688
   0.00376619  0.67900373  0.10110968
   0.00011320  0.50006786  0.33428351
   0.16672072  0.33339183  0.33430688
   0.00005902  0.00002900  0.33426466
   0.16670373  0.83333317  0.33430903
   0.50002417  0.50004782  0.33428650
   0.66669636  0.33335996  0.33417017
   0.50004158 -0.00002456  0.33428092
   0.66666299  0.83334915  0.33430590
Direct configuration=    38
   0.00415013  0.00278969  0.10320032
   0.35929098  0.00298423  0.10088115
   0.00386382  0.35763774  0.10088100
   0.64922076  0.64757590  0.10087833
   0.32790121  0.32612247  0.10110688
   0.68073632  0.00313900  0.10109091
   0.00376250  0.67895568  0.10108471
   0.00006744  0.50004248  0.33430010
   0.16672993  0.33339880  0.33433125
   0.00004854  0.00002890  0.33429172
   0.16672666  0.83334084  0.33433325
   0.50003712  0.50003568  0.33430270
   0.66671038  0.33336302  0.33420261
   0.50004218  0.00000964  0.33429746
   0.66667271  0.83334325  0.33433029
Direct configuration=    39
   0.00415082  0.00278599  0.10303721
   0.35925640  0.00300597  0.10089801
   0.00387350  0.35758265  0.10089775
   0.64924510  0.64761404  0.10089619
   0.32792685  0.32615690  0.10107252
   0.68069993  0.00314772  0.10106192
   0.00375839  0.67890206  0.10105683
   0.00001638  0.50001416  0.33431861
   0.16674022  0.33340658  0.33435845
   0.00003685  0.00002880  0.33432190
   0.16675225  0.83334941  0.33436027
   0.50005157  0.50002213  0.33432077
   0.66672602  0.33336643  0.33423880
   0.50004285  0.00004781  0.33431592
   0.66668355  0.83333668  0.33435752
Direct configuration=    40
   0.00413400  0.00274614  0.10292620
   0.35924919  0.00302217  0.10090541
   0.00386604  0.35757462  0.10090517
   0.64926754  0.64762797  0.10090404
   0.32793550  0.32619877  0.10104927
   0.68066892  0.00310689  0.10104312
   0.00377864  0.67891171  0.10103896
   0.00006663  0.50000361  0.33433424
   0.16670595  0.33342480  0.33438104
   0.00005163  0.00002985  0.33433493
   0.16678247  0.83337254  0.33438321
   0.50008064  0.50007614  0.33433636
   0.66671392  0.33336439  0.33425883
   0.50000692  0.00001505  0.33433165
   0.66665267  0.83329267  0.33438024
Direct configuration=    41
   0.00413245  0.00274245  0.10291592
   0.35924852  0.00302367  0.10090609
   0.00386535  0.35757388  0.10090586
   0.64926962  0.64762926  0.10090477
   0.32793630  0.32620264  0.10104712
   0.68066605  0.00310311  0.10104138
   0.00378051  0.67891261  0.10103731
   0.00007129  0.50000264  0.33433568
   0.16670277  0.33342649  0.33438313
   0.00005300  0.00002994  0.33433614
   0.16678527  0.83337468  0.33438533
   0.50008334  0.50008113  0.33433780
   0.66671280  0.33336420  0.33426068
   0.50000359  0.00001201  0.33433311
   0.66664981  0.83328860  0.33438235
Direct configuration=    42
   0.00411793  0.00271053  0.10284531
   0.35926859  0.00303455  0.10090450
   0.00385114  0.35759532  0.10090441
   0.64927098  0.64761398  0.10090319
   0.32791618  0.32622000  0.10103533
   0.68065608  0.00305339  0.10103266
   0.00380976  0.67895475  0.10102922
   0.00009444  0.50002894  0.33435048
   0.16671281  0.33341936  0.33439896
   0.00005501  0.00003050  0.33434002
   0.16676734  0.83336466  0.33440176
   0.50006073  0.50007775  0.33435283
   0.66671252  0.33336467  0.33426754
   0.50000983 -0.00000825  0.33434808
   0.66665730  0.83330718  0.33439837
Direct configuration=    43
   0.00410488  0.00268182  0.10278180
   0.35928665  0.00304433  0.10090307
   0.00383835  0.35761461  0.10090311
   0.64927221  0.64760023  0.10090177
   0.32789809  0.32623561  0.10102472
   0.68064712  0.00300866  0.10102483
   0.00383608  0.67899266  0.10102194
   0.00011527  0.50005261  0.33436379
   0.16672185  0.33341296  0.33441320
   0.00005681  0.00003101  0.33434351
   0.16675122  0.83335565  0.33441655
   0.50004040  0.50007470  0.33436635
   0.66671226  0.33336509  0.33427371
   0.50001544 -0.00002649  0.33436154
   0.66666403  0.83332389  0.33441278
Direct configuration=    44
   0.00410758  0.00268937  0.10270750
   0.35932190  0.00305873  0.10089621
   0.00382440  0.35763342  0.10089650
   0.64924881  0.64756232  0.10089466
   0.32786105  0.32623200  0.10101562
   0.68064481  0.00297726  0.10101859
   0.00386545  0.67901902  0.10101631
   0.00006932  0.50003253  0.33438294
   0.16672863  0.33340806  0.33442899
   0.00004878  0.00003158  0.33434835
   0.16675845  0.83336101  0.33443307
   0.50005025  0.50005427  0.33438586
   0.66672297  0.33336762  0.33427830
   0.50002685  0.00001062  0.33438094
   0.66668142  0.83332954  0.33442883
Direct configuration=    45
   0.00410886  0.00269298  0.10267201
   0.35933874  0.00306561  0.10089294
   0.00381773  0.35764241  0.10089334
   0.64923764  0.64754422  0.10089127
   0.32784335  0.32623027  0.10101127
   0.68064371  0.00296225  0.10101562
   0.00387948  0.67903162  0.10101361
   0.00004737  0.50002294  0.33439209
   0.16673187  0.33340572  0.33443654
   0.00004495  0.00003186  0.33435066
   0.16676190  0.83336357  0.33444096
   0.50005496  0.50004450  0.33439518
   0.66672808  0.33336882  0.33428049
   0.50003230  0.00002834  0.33439020
   0.66668973  0.83333224  0.33443649
Direct configuration=    46
   0.00412431  0.00273040  0.10261332
   0.35935556  0.00307031  0.10088381
   0.00381298  0.35764085  0.10088446
   0.64921267  0.64751731  0.10088175
   0.32782660  0.32621615  0.10100513
   0.68064458  0.00297127  0.10101098
   0.00388457  0.67901789  0.10100927
   0.00005949  0.50001044  0.33440889
   0.16671461  0.33341930  0.33444837
   0.00005708  0.00003366  0.33435879
   0.16677399  0.83337055  0.33445323
   0.50008154  0.50006245  0.33441217
   0.66671817  0.33336760  0.33428679
   0.50002888  0.00003039  0.33440718
   0.66666562  0.83330876  0.33444853
Direct configuration=    47
   0.00412929  0.00274247  0.10259440
   0.35936099  0.00307182  0.10088087
   0.00381145  0.35764035  0.10088159
   0.64920462  0.64750864  0.10087869
   0.32782119  0.32621160  0.10100314
   0.68064486  0.00297418  0.10100948
   0.00388621  0.67901347  0.10100788
   0.00006340  0.50000641  0.33441431
   0.16670905  0.33342367  0.33445218
   0.00006100  0.00003425  0.33436141
   0.16677789  0.83337280  0.33445718
   0.50009010  0.50006824  0.33441765
   0.66671498  0.33336720  0.33428882
   0.50002778  0.00003105  0.33441266
   0.66665784  0.83330119  0.33445241
Direct configuration=    48
   0.00413766  0.00276666  0.10253676
   0.35934939  0.00306123  0.10087051
   0.00381032  0.35762917  0.10087143
   0.64920161  0.64750930  0.10086787
   0.32783517  0.32620005  0.10099576
   0.68064838  0.00300279  0.10100266
   0.00386679  0.67898743  0.10100114
   0.00008892  0.50002958  0.33443013
   0.16672314  0.33342630  0.33446442
   0.00005840  0.00003363  0.33437425
   0.16677433  0.83336452  0.33446959
   0.50006598  0.50007429  0.33443350
   0.66671959  0.33336832  0.33430123
   0.50001969  0.00000321  0.33442863
   0.66666129  0.83331086  0.33446480
Direct configuration=    49
   0.00414252  0.00278069  0.10250331
   0.35934266  0.00305508  0.10086449
   0.00380967  0.35762268  0.10086553
   0.64919987  0.64750969  0.10086160
   0.32784327  0.32619334  0.10099147
   0.68065043  0.00301940  0.10099871
   0.00385551  0.67897232  0.10099723
   0.00010372  0.50004302  0.33443931
   0.16673131  0.33342782  0.33447152
   0.00005689  0.00003327  0.33438171
   0.16677227  0.83335972  0.33447679
   0.50005199  0.50007780  0.33444269
   0.66672226  0.33336897  0.33430843
   0.50001500 -0.00001294  0.33443789
   0.66666329  0.83331647  0.33447199
Direct configuration=    50
   0.00413475  0.00276973  0.10245069
   0.35931378  0.00303445  0.10085576
   0.00380960  0.35761619  0.10085688
   0.64922105  0.64753430  0.10085251
   0.32787339  0.32618977  0.10098140
   0.68065580  0.00304113  0.10098840
   0.00382635  0.67896173  0.10098685
   0.00008568  0.50003954  0.33445223
   0.16673404  0.33341527  0.33448438
   0.00005422  0.00003424  0.33439681
   0.16676593  0.83336296  0.33448958
   0.50005233  0.50006539  0.33445549