  16  16   0  16
  0.2012733E+02  0.4979000E-09  0.4979000E-09  0.1500000E-08  0.5000000E-15
  1.000000000000000E-004
  CAR 
 Lattice                                 
      9.81954262    -21.17464277  301     -0.26734670      1.00000000
    -21.175  0.0000E+00  0.0000E+00
    -21.071  0.0000E+00  0.0000E+00
    -20.968  0.0000E+00  0.0000E+00
    -20.865  0.0000E+00  0.0000E+00
    -20.761  0.0000E+00  0.0000E+00
    -20.658  0.0000E+00  0.0000E+00
    -20.555  0.0000E+00  0.0000E+00
    -20.451  0.0000E+00  0.0000E+00
    -20.348  0.2905E-19  0.3001E-20
    -20.245  0.2981E-14  0.3080E-15
    -20.142  0.3183E-10  0.3289E-11
    -20.038  0.4549E-07  0.4703E-08
    -19.935  0.9289E-05  0.9644E-06
    -19.832  0.3080E-03  0.3278E-04
    -19.728  0.2085E-02  0.2481E-03
    -19.625  0.4279E-02  0.6902E-03
    -19.522  0.4860E-02  0.1192E-02
    -19.418  0.4873E-02  0.1696E-02
    -19.315  0.4916E-02  0.2204E-02
    -19.212  0.4897E-02  0.2710E-02
    -19.108  0.4882E-02  0.3214E-02
    -19.005  0.4956E-02  0.3726E-02
    -18.902  0.4917E-02  0.4234E-02
    -18.798  0.4805E-02  0.4730E-02
    -18.695  0.5262E-02  0.5274E-02
    -18.592  0.4416E-02  0.5730E-02
    -18.488  0.5492E-02  0.6298E-02
    -18.385  0.4744E-02  0.6788E-02
    -18.282  0.4585E-02  0.7262E-02
    -18.179  0.5741E-02  0.7855E-02
    -18.075  0.4533E-02  0.8323E-02
    -17.972  0.4525E-02  0.8790E-02
    -17.869  0.6013E-02  0.9412E-02
    -17.765  0.4610E-02  0.9888E-02
    -17.662  0.4229E-02  0.1032E-01
    -17.559  0.5966E-02  0.1094E-01
    -17.455  0.5339E-02  0.1149E-01
    -17.352  0.3928E-02  0.1190E-01
    -17.249  0.5180E-02  0.1243E-01
    -17.145  0.6168E-02  0.1307E-01
    -17.042  0.4785E-02  0.1357E-01
    -16.939  0.3789E-02  0.1396E-01
    -16.835  0.5950E-02  0.1457E-01
    -16.732  0.5947E-02  0.1519E-01
    -16.629  0.4753E-02  0.1568E-01
    -16.526  0.3828E-02  0.1607E-01
    -16.422  0.5830E-02  0.1667E-01
    -16.319  0.6541E-02  0.1735E-01
    -16.216  0.4494E-02  0.1781E-01
    -16.112  0.4224E-02  0.1825E-01
    -16.009  0.5246E-02  0.1879E-01
    -15.906  0.8171E-02  0.1964E-01
    -15.802  0.9703E-02  0.2064E-01
    -15.699  0.9897E-02  0.2166E-01
    -15.596  0.1119E-01  0.2282E-01
    -15.492  0.1311E-01  0.2417E-01
    -15.389  0.1317E-01  0.2553E-01
    -15.286  0.1207E-01  0.2678E-01
    -15.182  0.1171E-01  0.2799E-01
    -15.079  0.1530E-01  0.2957E-01
    -14.976  0.1674E-01  0.3130E-01
    -14.872  0.1250E-01  0.3259E-01
    -14.769  0.8763E-02  0.3350E-01
    -14.666  0.7647E-02  0.3429E-01
    -14.563  0.9154E-02  0.3523E-01
    -14.459  0.9377E-02  0.3620E-01
    -14.356  0.8828E-02  0.3711E-01
    -14.253  0.8622E-02  0.3801E-01
    -14.149  0.1158E-01  0.3920E-01
    -14.046  0.1275E-01  0.4052E-01
    -13.943  0.8262E-02  0.4137E-01
    -13.839  0.5102E-02  0.4190E-01
    -13.736  0.6175E-02  0.4254E-01
    -13.633  0.6777E-02  0.4324E-01
    -13.529  0.6440E-02  0.4390E-01
    -13.426  0.6689E-02  0.4459E-01
    -13.323  0.7360E-02  0.4535E-01
    -13.219  0.8211E-02  0.4620E-01
    -13.116  0.8252E-02  0.4706E-01
    -13.013  0.6554E-02  0.4773E-01
    -12.910  0.7652E-02  0.4852E-01
    -12.806  0.9185E-02  0.4947E-01
    -12.703  0.8327E-02  0.5033E-01
    -12.600  0.9736E-02  0.5134E-01
    -12.496  0.1090E-01  0.5246E-01
    -12.393  0.1165E-01  0.5367E-01
    -12.290  0.1251E-01  0.5496E-01
    -12.186  0.1374E-01  0.5638E-01
    -12.083  0.1272E-01  0.5769E-01
    -11.980  0.1470E-01  0.5921E-01
    -11.876  0.1697E-01  0.6097E-01
    -11.773  0.1652E-01  0.6267E-01
    -11.670  0.1234E-01  0.6395E-01
    -11.566  0.1122E-01  0.6511E-01
    -11.463  0.8443E-02  0.6598E-01
    -11.360  0.4644E-02  0.6646E-01
    -11.257  0.5111E-02  0.6699E-01
    -11.153  0.5764E-02  0.6758E-01
    -11.050  0.4046E-02  0.6800E-01
    -10.947  0.5654E-02  0.6858E-01
    -10.843  0.6285E-02  0.6923E-01
    -10.740  0.6301E-02  0.6989E-01
    -10.637  0.1002E-01  0.7092E-01
    -10.533  0.1513E-01  0.7248E-01
    -10.430  0.1723E-01  0.7426E-01
    -10.327  0.1146E-01  0.7545E-01
    -10.223  0.1229E-01  0.7672E-01
    -10.120  0.1279E-01  0.7804E-01
    -10.017  0.9561E-02  0.7903E-01
     -9.913  0.8454E-02  0.7990E-01
     -9.810  0.9482E-02  0.8088E-01
     -9.707  0.1045E-01  0.8196E-01
     -9.603  0.9447E-02  0.8294E-01
     -9.500  0.9935E-02  0.8396E-01
     -9.397  0.1590E-01  0.8561E-01
     -9.294  0.1719E-01  0.8738E-01
     -9.190  0.1765E-01  0.8920E-01
     -9.087  0.1369E-01  0.9062E-01
     -8.984  0.1301E-01  0.9196E-01
     -8.880  0.1647E-01  0.9366E-01
     -8.777  0.1309E-01  0.9502E-01
     -8.674  0.1456E-01  0.9652E-01
     -8.570  0.1823E-01  0.9840E-01
     -8.467  0.1400E-01  0.9985E-01
     -8.364  0.9917E-02  0.1009E+00
     -8.260  0.1554E-01  0.1025E+00
     -8.157  0.1631E-01  0.1042E+00
     -8.054  0.1367E-01  0.1056E+00
     -7.950  0.1562E-01  0.1072E+00
     -7.847  0.1726E-01  0.1090E+00
     -7.744  0.2043E-01  0.1111E+00
     -7.641  0.1754E-01  0.1129E+00
     -7.537  0.1985E-01  0.1149E+00
     -7.434  0.1895E-01  0.1169E+00
     -7.331  0.1660E-01  0.1186E+00
     -7.227  0.1500E-01  0.1202E+00
     -7.124  0.1563E-01  0.1218E+00
     -7.021  0.2071E-01  0.1239E+00
     -6.917  0.2101E-01  0.1261E+00
     -6.814  0.2112E-01  0.1283E+00
     -6.711  0.2278E-01  0.1306E+00
     -6.607  0.2254E-01  0.1330E+00
     -6.504  0.2550E-01  0.1356E+00
     -6.401  0.2804E-01  0.1385E+00
     -6.297  0.2995E-01  0.1416E+00
     -6.194  0.2248E-01  0.1439E+00
     -6.091  0.1709E-01  0.1457E+00
     -5.987  0.1599E-01  0.1473E+00
     -5.884  0.1584E-01  0.1490E+00
     -5.781  0.1676E-01  0.1507E+00
     -5.678  0.1546E-01  0.1523E+00
     -5.574  0.1482E-01  0.1538E+00
     -5.471  0.1337E-01  0.1552E+00
     -5.368  0.1268E-01  0.1565E+00
     -5.264  0.1526E-01  0.1581E+00
     -5.161  0.1663E-01  0.1598E+00
     -5.058  0.1448E-01  0.1613E+00
     -4.954  0.1491E-01  0.1628E+00
     -4.851  0.1599E-01  0.1645E+00
     -4.748  0.1204E-01  0.1657E+00
     -4.644  0.1385E-01  0.1672E+00
     -4.541  0.1469E-01  0.1687E+00
     -4.438  0.1414E-01  0.1701E+00
     -4.334  0.1469E-01  0.1717E+00
     -4.231  0.1902E-01  0.1736E+00
     -4.128  0.2031E-01  0.1757E+00
     -4.025  0.2310E-01  0.1781E+00
     -3.921  0.2063E-01  0.1802E+00
     -3.818  0.2067E-01  0.1824E+00
     -3.715  0.2478E-01  0.1849E+00
     -3.611  0.3008E-01  0.1880E+00
     -3.508  0.2639E-01  0.1908E+00
     -3.405  0.1710E-01  0.1925E+00
     -3.301  0.1097E-01  0.1937E+00
     -3.198  0.1196E-01  0.1949E+00
     -3.095  0.1584E-01  0.1965E+00
     -2.991  0.1253E-01  0.1978E+00
     -2.888  0.1095E-01  0.1990E+00
     -2.785  0.1150E-01  0.2002E+00
     -2.681  0.1469E-01  0.2017E+00
     -2.578  0.1437E-01  0.2032E+00
     -2.475  0.9562E-02  0.2042E+00
     -2.372  0.9152E-02  0.2051E+00
     -2.268  0.1035E-01  0.2062E+00
     -2.165  0.1189E-01  0.2074E+00
     -2.062  0.1035E-01  0.2085E+00
     -1.958  0.7679E-02  0.2093E+00
     -1.855  0.5624E-02  0.2098E+00
     -1.752  0.9677E-02  0.2108E+00
     -1.648  0.9994E-02  0.2119E+00
     -1.545  0.6327E-02  0.2125E+00
     -1.442  0.6148E-02  0.2132E+00
     -1.338  0.7403E-02  0.2139E+00
     -1.235  0.7288E-02  0.2147E+00
     -1.132  0.7928E-02  0.2155E+00
     -1.028  0.6213E-02  0.2161E+00
     -0.925  0.4667E-02  0.2166E+00
     -0.822  0.3983E-02  0.2170E+00
     -0.718  0.4432E-02  0.2175E+00
     -0.615  0.2759E-02  0.2178E+00
     -0.512  0.2715E-02  0.2181E+00
     -0.409  0.2476E-02  0.2183E+00
     -0.305  0.3172E-02  0.2186E+00
     -0.202  0.2491E-02  0.2189E+00
     -0.099  0.2263E-02  0.2191E+00
      0.005  0.3340E-02  0.2195E+00
      0.108  0.4306E-02  0.2199E+00
      0.211  0.7973E-02  0.2207E+00
      0.315  0.9166E-02  0.2217E+00
      0.418  0.8048E-02  0.2225E+00
      0.521  0.6069E-02  0.2231E+00
      0.625  0.6154E-02  0.2238E+00
      0.728  0.1188E-01  0.2250E+00
      0.831  0.1205E-01  0.2263E+00
      0.935  0.7950E-02  0.2271E+00
      1.038  0.9998E-02  0.2281E+00
      1.141  0.1298E-01  0.2295E+00
      1.244  0.1347E-01  0.2308E+00
      1.348  0.1414E-01  0.2323E+00
      1.451  0.1207E-01  0.2336E+00
      1.554  0.9208E-02  0.2345E+00
      1.658  0.8779E-02  0.2354E+00
      1.761  0.9142E-02  0.2364E+00
      1.864  0.1058E-01  0.2374E+00
      1.968  0.1223E-01  0.2387E+00
      2.071  0.9617E-02  0.2397E+00
      2.174  0.8885E-02  0.2406E+00
      2.278  0.9833E-02  0.2416E+00
      2.381  0.1035E-01  0.2427E+00
      2.484  0.1087E-01  0.2438E+00
      2.588  0.9956E-02  0.2449E+00
      2.691  0.1159E-01  0.2461E+00
      2.794  0.1079E-01  0.2472E+00
      2.898  0.8635E-02  0.2481E+00
      3.001  0.1351E-01  0.2495E+00
      3.104  0.1775E-01  0.2513E+00
      3.207  0.1360E-01  0.2527E+00
      3.311  0.1647E-01  0.2544E+00
      3.414  0.1768E-01  0.2562E+00
      3.517  0.1521E-01  0.2578E+00
      3.621  0.1840E-01  0.2597E+00
      3.724  0.2039E-01  0.2618E+00
      3.827  0.2089E-01  0.2640E+00
      3.931  0.2024E-01  0.2661E+00
      4.034  0.2080E-01  0.2682E+00
      4.137  0.2042E-01  0.2703E+00
      4.241  0.1855E-01  0.2722E+00
      4.344  0.2416E-01  0.2747E+00
      4.447  0.2184E-01  0.2770E+00
      4.551  0.2133E-01  0.2792E+00
      4.654  0.2546E-01  0.2818E+00
      4.757  0.2308E-01  0.2842E+00
      4.860  0.2060E-01  0.2863E+00
      4.964  0.2600E-01  0.2890E+00
      5.067  0.2958E-01  0.2921E+00
      5.170  0.2748E-01  0.2949E+00
      5.274  0.2933E-01  0.2979E+00
      5.377  0.2919E-01  0.3010E+00
      5.480  0.2078E-01  0.3031E+00
      5.584  0.2463E-01  0.3056E+00
      5.687  0.2924E-01  0.3087E+00
      5.790  0.2427E-01  0.3112E+00
      5.894  0.2110E-01  0.3134E+00
      5.997  0.1932E-01  0.3154E+00
      6.100  0.2105E-01  0.3175E+00
      6.204  0.2455E-01  0.3201E+00
      6.307  0.2288E-01  0.3224E+00
      6.410  0.1807E-01  0.3243E+00
      6.513  0.2120E-01  0.3265E+00
      6.617  0.2658E-01  0.3292E+00
      6.720  0.2813E-01  0.3321E+00
      6.823  0.2881E-01  0.3351E+00
      6.927  0.2863E-01  0.3381E+00
      7.030  0.3301E-01  0.3415E+00
      7.133  0.3311E-01  0.3449E+00
      7.237  0.3019E-01  0.3480E+00
      7.340  0.2972E-01  0.3511E+00
      7.443  0.3563E-01  0.3548E+00
      7.547  0.3527E-01  0.3584E+00
      7.650  0.3371E-01  0.3619E+00
      7.753  0.3823E-01  0.3658E+00
      7.857  0.3423E-01  0.3694E+00
      7.960  0.2718E-01  0.3722E+00
      8.063  0.1789E-01  0.3740E+00
      8.167  0.6563E-02  0.3747E+00
      8.270  0.1792E-02  0.3749E+00
      8.373  0.6858E-03  0.3750E+00
      8.476  0.2069E-03  0.3750E+00
      8.580  0.4515E-04  0.3750E+00
      8.683  0.2187E-05  0.3750E+00
      8.786  0.1532E-07  0.3750E+00
      8.890  0.1410E-10  0.3750E+00
      8.993  0.1638E-14  0.3750E+00
      9.096  0.2905E-19  0.3750E+00
      9.200  0.0000E+00  0.3750E+00
      9.303  0.0000E+00  0.3750E+00
      9.406  0.0000E+00  0.3750E+00
      9.510  0.0000E+00  0.3750E+00
      9.613  0.0000E+00  0.3750E+00
      9.716  0.0000E+00  0.3750E+00
      9.820  0.0000E+00  0.3750E+00
