   16   16  256    1
  0.2012733E+02  0.4979000E-09  0.4979000E-09  0.1500000E-08  0.5000000E-15
  1.000000000000000E-004
  CAR 
 Lattice                                 
     56     81     48
 
  0.0000000E+00  0.0000000E+00  0.0000000E+00  0.3460208E-02
      1        -19.765816   1.000000
      2        -15.893902   1.000000
      3        -14.654047   1.000000
      4        -14.649205   1.000000
      5        -14.648819   1.000000
      6        -13.526237   1.000000
      7        -13.525949   1.000000
      8        -13.523359   1.000000
      9        -11.704516   1.000000
     10        -11.516410   1.000000
     11        -11.515931   1.000000
     12         -9.315934   1.000000
     13         -9.315916   1.000000
     14         -8.074529   1.000000
     15         -7.319479   1.000000
     16         -6.804161   1.000000
     17         -6.803738   1.000000
     18         -6.802969   1.000000
     19         -6.553229   1.000000
     20         -3.514922   1.000000
     21         -3.514815   1.000000
     22         -2.849569   1.000000
     23         -2.817533   1.000000
     24         -2.816806   1.000000
     25         -1.526470   1.000000
     26         -1.525772   1.000000
     27         -0.379740   0.944025
     28         -0.372185   0.930914
     29         -0.241056   0.355020
     30          0.941277   0.000000
     31          0.948498   0.000000
     32          1.125712   0.000000
     33          1.133878   0.000000
     34          1.150749   0.000000
     35          1.767156   0.000000
     36          1.776973   0.000000
     37          2.991536   0.000000
     38          3.600367   0.000000
     39          4.481287   0.000000
     40          4.812207   0.000000
     41          6.617820   0.000000
     42          6.619351   0.000000
     43          6.620190   0.000000
     44          7.050138   0.000000
     45          7.664257   0.000000
     46          7.664440   0.000000
     47          7.689345   0.000000
     48          8.410716   0.000000
 
  0.5882353E-01 -0.2524552E-17  0.0000000E+00  0.1384083E-01
      1        -19.745714   1.000000
      2        -15.877770   1.000000
      3        -14.924045   1.000000
      4        -14.719677   1.000000
      5        -14.716512   1.000000
      6        -13.425541   1.000000
      7        -13.423940   1.000000
      8        -13.221868   1.000000
      9        -12.004578   1.000000
     10        -11.532873   1.000000
     11        -11.228049   1.000000
     12         -9.348922   1.000000
     13         -9.273617   1.000000
     14         -8.048858   1.000000
     15         -7.238880   1.000000
     16         -6.867249   1.000000
     17         -6.866413   1.000000
     18         -6.783813   1.000000
     19         -6.528647   1.000000
     20         -3.599182   1.000000
     21         -3.558530   1.000000
     22         -2.963481   1.000000
     23         -2.851048   1.000000
     24         -2.833849   1.000000
     25         -1.753356   1.000000
     26         -1.725522   1.000000
     27         -0.721850   1.000000
     28         -0.322976   0.784277
     29          0.114434   0.000000
     30          0.885220   0.000000
     31          0.967690   0.000000
     32          1.182532   0.000000
     33          1.211023   0.000000
     34          1.294062   0.000000
     35          1.953848   0.000000
     36          1.998334   0.000000
     37          3.024524   0.000000
     38          3.633130   0.000000
     39          4.554559   0.000000
     40          4.844662   0.000000
     41          6.630022   0.000000
     42          6.713631   0.000000
     43          6.714348   0.000000
     44          7.072195   0.000000
     45          7.664258   0.000000
     46          7.722440   0.000000
     47          7.751122   0.000000
     48          8.253124   0.000000
 
 -0.5882353E-01  0.5882353E-01  0.0000000E+00  0.6920415E-02
      1        -19.745714   1.000000
      2        -15.877769   1.000000
      3        -14.924042   1.000000
      4        -14.719430   1.000000
      5        -14.716767   1.000000
      6        -13.425358   1.000000
      7        -13.424088   1.000000
      8        -13.221897   1.000000
      9        -12.004736   1.000000
     10        -11.532486   1.000000
     11        -11.228268   1.000000
     12         -9.348964   1.000000
     13         -9.273590   1.000000
     14         -8.048842   1.000000
     15         -7.238896   1.000000
     16         -6.866954   1.000000
     17         -6.866744   1.000000
     18         -6.783777   1.000000
     19         -6.528642   1.000000
     20         -3.599260   1.000000
     21         -3.558451   1.000000
     22         -2.961550   1.000000
     23         -2.852497   1.000000
     24         -2.834464   1.000000
     25         -1.752151   1.000000
     26         -1.726654   1.000000
     27         -0.724353   1.000000
     28         -0.320048   0.771958
     29          0.114827   0.000000
     30          0.886200   0.000000
     31          0.971488   0.000000
     32          1.179019   0.000000
     33          1.197791   0.000000
     34          1.304930   0.000000
     35          1.959110   0.000000
     36          1.993442   0.000000
     37          3.024399   0.000000
     38          3.633034   0.000000
     39          4.554952   0.000000
     40          4.844559   0.000000
     41          6.630070   0.000000
     42          6.712896   0.000000
     43          6.715033   0.000000
     44          7.072200   0.000000
     45          7.664493   0.000000
     46          7.722294   0.000000
     47          7.750985   0.000000
     48          8.252717   0.000000
 
  0.1176471E+00 -0.5292330E-17  0.0000000E+00  0.1384083E-01
      1        -19.685365   1.000000
      2        -15.829640   1.000000
      3        -15.421778   1.000000
      4        -14.872184   1.000000
      5        -14.869561   1.000000
      6        -13.174033   1.000000
      7        -13.172951   1.000000
      8        -12.634635   1.000000
      9        -12.382017   1.000000
     10        -11.577873   1.000000
     11        -10.898693   1.000000
     12         -9.409929   1.000000
     13         -9.152130   1.000000
     14         -7.973384   1.000000
     15         -7.050849   1.000000
     16         -7.049778   1.000000
     17         -7.027039   1.000000
     18         -6.724476   1.000000
     19         -6.455071   1.000000
     20         -3.844554   1.000000
     21         -3.684485   1.000000
     22         -3.303894   1.000000
     23         -2.896622   1.000000
     24         -2.882663   1.000000
     25         -2.232677   1.000000
     26         -2.157713   1.000000
     27         -1.198173   1.000000
     28         -0.361236   0.907878
     29          0.368525   0.000000
     30          0.997701   0.000000
     31          1.145829   0.000000
     32          1.329042   0.000000
     33          1.420438   0.000000
     34          1.716835   0.000000
     35          2.388380   0.000000
     36          2.454771   0.000000
     37          3.131331   0.000000
     38          3.729447   0.000000
     39          4.752254   0.000000
     40          4.952263   0.000000
     41          6.662460   0.000000
     42          6.991083   0.000000
     43          6.992055   0.000000
     44          7.134007   0.000000
     45          7.671630   0.000000
     46          7.717490   0.000000
     47          7.879517   0.000000
     48          8.007301   0.000000
 
 -0.1176471E+00  0.1176471E+00  0.0000000E+00  0.6920415E-02
      1        -19.685365   1.000000
      2        -15.829634   1.000000
      3        -15.421782   1.000000
      4        -14.871987   1.000000
      5        -14.869764   1.000000
      6        -13.173898   1.000000
      7        -13.173053   1.000000
      8        -12.634659   1.000000
      9        -12.382204   1.000000
     10        -11.577504   1.000000
     11        -10.898827   1.000000
     12         -9.410061   1.000000
     13         -9.152064   1.000000
     14         -7.973335   1.000000
     15         -7.050577   1.000000
     16         -7.050091   1.000000
     17         -7.027091   1.000000
     18         -6.724441   1.000000
     19         -6.455048   1.000000
     20         -3.844628   1.000000
     21         -3.684408   1.000000
     22         -3.302250   1.000000
     23         -2.897974   1.000000
     24         -2.883451   1.000000
     25         -2.231437   1.000000
     26         -2.158847   1.000000
     27         -1.199686   1.000000
     28         -0.360526   0.906206
     29          0.372532   0.000000
     30          0.997323   0.000000
     31          1.149206   0.000000
     32          1.326704   0.000000
     33          1.412076   0.000000
     34          1.722282   0.000000
     35          2.390465   0.000000
     36          2.452345   0.000000
     37          3.130773   0.000000
     38          3.729067   0.000000
     39          4.753834   0.000000
     40          4.951801   0.000000
     41          6.662480   0.000000
     42          6.990350   0.000000
     43          6.992727   0.000000
     44          7.134055   0.000000
     45          7.673466   0.000000
     46          7.714567   0.000000
     47          7.879666   0.000000
     48          8.007164   0.000000
 
  0.1764706E+00 -0.7275752E-17  0.0000000E+00  0.1384083E-01
      1        -19.584884   1.000000
      2        -15.943516   1.000000
      3        -15.749598   1.000000
      4        -15.044604   1.000000
      5        -15.042400   1.000000
      6        -12.839273   1.000000
      7        -12.838667   1.000000
      8        -12.756645   1.000000
      9        -11.965135   1.000000
     10        -11.640357   1.000000
     11        -10.649160   1.000000
     12         -9.410199   1.000000
     13         -8.965209   1.000000
     14         -7.850365   1.000000
     15         -7.337003   1.000000
     16         -7.336148   1.000000
     17         -6.750368   1.000000
     18         -6.626285   1.000000
     19         -6.333367   1.000000
     20         -4.233544   1.000000
     21         -3.880143   1.000000
     22         -3.757931   1.000000
     23         -2.974181   1.000000
     24         -2.963022   1.000000
     25         -2.760406   1.000000
     26         -2.633524   1.000000
     27         -1.740022   1.000000
     28         -0.526665   0.999877
     29          0.318598   0.000000
     30          1.329680   0.000000
     31          1.372457   0.000000
     32          1.672171   0.000000
     33          1.842777   0.000000
     34          2.304462   0.000000
     35          2.919822   0.000000
     36          2.940724   0.000000
     37          3.348770   0.000000
     38          3.888169   0.000000
     39          4.984512   0.000000
     40          5.186170   0.000000
     41          6.714668   0.000000
     42          7.007478   0.000000
     43          7.300369   0.000000
     44          7.433632   0.000000
     45          7.435419   0.000000
     46          7.709947   0.000000
     47          7.916098   0.000000
     48          8.055029   0.000000
 
 -0.1764706E+00  0.1764706E+00  0.0000000E+00  0.6920415E-02
      1        -19.584884   1.000000
      2        -15.943506   1.000000
      3        -15.749603   1.000000
      4        -15.044441   1.000000
      5        -15.042566   1.000000
      6        -12.839138   1.000000
      7        -12.838741   1.000000
      8        -12.756869   1.000000
      9        -11.965160   1.000000
     10        -11.640011   1.000000
     11        -10.649167   1.000000
     12         -9.410489   1.000000
     13         -8.965086   1.000000
     14         -7.850286   1.000000
     15         -7.336750   1.000000
     16         -7.336436   1.000000
     17         -6.750501   1.000000
     18         -6.626250   1.000000
     19         -6.333302   1.000000
     20         -4.233612   1.000000
     21         -3.880070   1.000000
     22         -3.756607   1.000000
     23         -2.975010   1.000000
     24         -2.964912   1.000000
     25         -2.758889   1.000000
     26         -2.634349   1.000000
     27         -1.740883   1.000000
     28         -0.526807   0.999878
     29          0.321964   0.000000
     30          1.331651   0.000000
     31          1.371497   0.000000
     32          1.671042   0.000000
     33          1.840263   0.000000
     34          2.307064   0.000000
     35          2.919958   0.000000
     36          2.939938   0.000000
     37          3.347276   0.000000
     38          3.887261   0.000000
     39          4.986777   0.000000
     40          5.186280   0.000000
     41          6.714637   0.000000
     42          7.006558   0.000000
     43          7.300381   0.000000
     44          7.434306   0.000000
     45          7.434816   0.000000
     46          7.709748   0.000000
     47          7.915040   0.000000
     48          8.055282   0.000000
 
  0.2352941E+00 -0.1058466E-16  0.0000000E+00  0.1384083E-01
      1        -19.444416   1.000000
      2        -16.447922   1.000000
      3        -15.640534   1.000000
      4        -15.205255   1.000000
      5        -15.203374   1.000000
      6        -13.119626   1.000000
      7        -12.456715   1.000000
      8        -12.456054   1.000000
      9        -11.708327   1.000000
     10        -11.255657   1.000000
     11        -10.535144   1.000000
     12         -9.267100   1.000000
     13         -8.730398   1.000000
     14         -7.702063   1.000000
     15         -7.701213   1.000000
     16         -7.680596   1.000000
     17         -6.490264   1.000000
     18         -6.481517   1.000000
     19         -6.165626   1.000000
     20         -4.740854   1.000000
     21         -4.253639   1.000000
     22         -4.128926   1.000000
     23         -3.371424   1.000000
     24         -3.098615   1.000000
     25         -3.010693   1.000000
     26         -2.993479   1.000000
     27         -2.295382   1.000000
     28         -0.720076   1.000000
     29          0.200592   0.000000
     30          1.577091   0.000000
     31          1.590602   0.000000
     32          2.222850   0.000000
     33          2.403117   0.000000
     34          2.985696   0.000000
     35          3.281401   0.000000
     36          3.545055   0.000000
     37          3.718304   0.000000
     38          4.117717   0.000000
     39          5.203577   0.000000
     40          5.515770   0.000000
     41          6.303858   0.000000
     42          6.783209   0.000000
     43          7.365693   0.000000
     44          7.537320   0.000000
     45          7.712105   0.000000
     46          7.953854   0.000000
     47          8.005390   0.000000
     48          8.016521   0.000000
 
 -0.2352941E+00  0.2352941E+00  0.0000000E+00  0.6920415E-02
      1        -19.444416   1.000000
      2        -16.447921   1.000000
      3        -15.640525   1.000000
      4        -15.205111   1.000000
      5        -15.203517   1.000000
      6        -13.119819   1.000000
      7        -12.456641   1.000000
      8        -12.456106   1.000000
      9        -11.708003   1.000000
     10        -11.255681   1.000000
     11        -10.535025   1.000000
     12         -9.267557   1.000000
     13         -8.730201   1.000000
     14         -7.701840   1.000000
     15         -7.701471   1.000000
     16         -7.680491   1.000000
     17         -6.490209   1.000000
     18         -6.481810   1.000000
     19         -6.165472   1.000000
     20         -4.740918   1.000000
     21         -4.252592   1.000000
     22         -4.128858   1.000000
     23         -3.371647   1.000000
     24         -3.100897   1.000000
     25         -3.010246   1.000000
     26         -2.993343   1.000000
     27         -2.295902   1.000000
     28         -0.720364   1.000000
     29          0.202852   0.000000
     30          1.579208   0.000000
     31          1.588936   0.000000
     32          2.223227   0.000000
     33          2.403506   0.000000
     34          2.986334   0.000000
     35          3.281720   0.000000
     36          3.543931   0.000000
     37          3.716492   0.000000
     38          4.115765   0.000000
     39          5.205672   0.000000
     40          5.517550   0.000000
     41          6.302869   0.000000
     42          6.783012   0.000000
     43          7.365941   0.000000
     44          7.535653   0.000000
     45          7.712379   0.000000
     46          7.954148   0.000000
     47          8.006125   0.000000
     48          8.016293   0.000000
 
  0.2941176E+00 -0.4546927E-17  0.0000000E+00  0.1384083E-01
      1        -19.264151   1.000000
      2        -16.924725   1.000000
      3        -15.504636   1.000000
      4        -15.340741   1.000000
      5        -15.339349   1.000000
      6        -13.463338   1.000000
      7        -12.047172   1.000000
      8        -12.046246   1.000000
      9        -11.771771   1.000000
     10        -10.536786   1.000000
     11        -10.518549   1.000000
     12         -8.990570   1.000000
     13         -8.467760   1.000000
     14         -8.117884   1.000000
     15         -8.117028   1.000000
     16         -7.464749   1.000000
     17         -6.318164   1.000000
     18         -6.298979   1.000000
     19         -5.955944   1.000000
     20         -5.340372   1.000000
     21         -4.750410   1.000000
     22         -4.412944   1.000000
     23         -3.887516   1.000000
     24         -3.405554   1.000000
     25         -3.135641   1.000000
     26         -3.075463   1.000000
     27         -2.806960   1.000000
     28         -0.894024   1.000000
     29          0.085273   0.000000
     30          1.797698   0.000000
     31          1.804735   0.000000
     32          2.799861   0.000000
     33          3.026111   0.000000
     34          3.570606   0.000000
     35          3.751296   0.000000
     36          4.125367   0.000000
     37          4.164940   0.000000
     38          4.436979   0.000000
     39          5.431732   0.000000
     40          5.560479   0.000000
     41          5.841820   0.000000
     42          6.831883   0.000000
     43          7.009784   0.000000
     44          7.464388   0.000000
     45          7.559004   0.000000
     46          7.635650   0.000000
     47          7.765502   0.000000
     48          7.806076   0.000000
 
 -0.2941176E+00  0.2941176E+00  0.0000000E+00  0.6920415E-02
      1        -19.264151   1.000000
      2        -16.924725   1.000000
      3        -15.504619   1.000000
      4        -15.340589   1.000000
      5        -15.339491   1.000000
      6        -13.463546   1.000000
      7        -12.047128   1.000000
      8        -12.046264   1.000000
      9        -11.771462   1.000000
     10        -10.536571   1.000000
     11        -10.518611   1.000000
     12         -8.991134   1.000000
     13         -8.467483   1.000000
     14         -8.117697   1.000000
     15         -8.117245   1.000000
     16         -7.464618   1.000000
     17         -6.318114   1.000000
     18         -6.299444   1.000000
     19         -5.955673   1.000000
     20         -5.340430   1.000000
     21         -4.749592   1.000000
     22         -4.412881   1.000000
     23         -3.887656   1.000000
     24         -3.406800   1.000000
     25         -3.135826   1.000000
     26         -3.075469   1.000000
     27         -2.807488   1.000000
     28         -0.894269   1.000000
     29          0.086795   0.000000
     30          1.798996   0.000000
     31          1.803866   0.000000
     32          2.801420   0.000000
     33          3.027867   0.000000
     34          3.570743   0.000000
     35          3.750728   0.000000
     36          4.124843   0.000000
     37          4.162988   0.000000
     38          4.433393   0.000000
     39          5.434833   0.000000
     40          5.559173   0.000000
     41          5.844333   0.000000
     42          6.830620   0.000000
     43          7.010303   0.000000
     44          7.464097   0.000000
     45          7.558950   0.000000
     46          7.636258   0.000000
     47          7.765674   0.000000
     48          7.808512   0.000000
 
  0.3529412E+00 -0.3452915E-16  0.0000000E+00  0.1384083E-01
      1        -19.044356   1.000000
      2        -17.369119   1.000000
      3        -15.447222   1.000000
      4        -15.444456   1.000000
      5        -15.346181   1.000000
      6        -13.778612   1.000000
      7        -11.826247   1.000000
      8        -11.629610   1.000000
      9        -11.628702   1.000000
     10        -10.580672   1.000000
     11         -9.765694   1.000000
     12         -8.655778   1.000000
     13         -8.551831   1.000000
     14         -8.551072   1.000000
     15         -8.202985   1.000000
     16         -7.204404   1.000000
     17         -6.266948   1.000000
     18         -6.112077   1.000000
     19         -6.008158   1.000000
     20         -5.719113   1.000000
     21         -5.216959   1.000000
     22         -4.715619   1.000000
     23         -4.349121   1.000000
     24         -3.592883   1.000000
     25         -3.421124   1.000000
     26         -3.139391   1.000000
     27         -3.077678   1.000000
     28         -1.031206   1.000000
     29         -0.009646   0.000134
     30          1.992163   0.000000
     31          1.997440   0.000000
     32          3.332742   0.000000
     33          3.683483   0.000000
     34          3.939959   0.000000
     35          4.435344   0.000000
     36          4.533220   0.000000
     37          4.764673   0.000000
     38          4.813983   0.000000
     39          5.006357   0.000000
     40          5.602084   0.000000
     41          5.932256   0.000000
     42          6.581981   0.000000
     43          6.971250   0.000000
     44          7.057290   0.000000
     45          7.090076   0.000000
     46          7.315688   0.000000
     47          7.594376   0.000000
     48          7.940017   0.000000
 
 -0.3529412E+00  0.3529412E+00  0.0000000E+00  0.6920415E-02
      1        -19.044356   1.000000
      2        -17.369120   1.000000
      3        -15.447150   1.000000
      4        -15.444549   1.000000
      5        -15.346107   1.000000
      6        -13.778842   1.000000
      7        -11.825965   1.000000
      8        -11.629547   1.000000
      9        -11.628720   1.000000
     10        -10.580474   1.000000
     11         -9.765725   1.000000
     12         -8.656351   1.000000
     13         -8.551741   1.000000
     14         -8.551306   1.000000
     15         -8.202559   1.000000
     16         -7.204247   1.000000
     17         -6.267503   1.000000
     18         -6.112038   1.000000
     19         -6.008203   1.000000
     20         -5.718757   1.000000
     21         -5.216336   1.000000
     22         -4.715560   1.000000
     23         -4.349395   1.000000
     24         -3.594674   1.000000
     25         -3.419928   1.000000
     26         -3.139423   1.000000
     27         -3.078669   1.000000
     28         -1.031379   1.000000
     29         -0.008585   0.000126
     30          1.992919   0.000000
     31          1.997219   0.000000
     32          3.334860   0.000000
     33          3.686078   0.000000
     34          3.940372   0.000000
     35          4.433620   0.000000
     36          4.533569   0.000000
     37          4.762120   0.000000
     38          4.809458   0.000000
     39          5.005163   0.000000
     40          5.606662   0.000000
     41          5.932879   0.000000
     42          6.583130   0.000000
     43          6.972622   0.000000
     44          7.056376   0.000000
     45          7.088444   0.000000
     46          7.319224   0.000000
     47          7.594469   0.000000
     48          7.941764   0.000000
 
  0.4117647E+00  0.8812903E-17  0.0000000E+00  0.1384083E-01
      1        -18.785394   1.000000
      2        -17.778668   1.000000
      3        -15.517750   1.000000
      4        -15.515684   1.000000
      5        -15.184961   1.000000
      6        -14.047432   1.000000
      7        -11.862932   1.000000
      8        -11.243188   1.000000
      9        -11.242793   1.000000
     10        -10.625829   1.000000
     11         -9.000694   1.000000
     12         -8.956335   1.000000
     13         -8.955415   1.000000
     14         -8.335541   1.000000
     15         -7.974080   1.000000
     16         -6.904666   1.000000
     17         -6.723506   1.000000
     18         -6.368782   1.000000
     19         -5.874959   1.000000
     20         -5.742056   1.000000
     21         -5.371537   1.000000
     22         -5.023096   1.000000
     23         -4.710664   1.000000
     24         -3.893411   1.000000
     25         -3.580823   1.000000
     26         -3.184683   1.000000
     27         -3.149061   1.000000
     28         -1.124888   1.000000
     29         -0.076225   0.003437
     30          2.139339   0.000000
     31          2.144483   0.000000
     32          3.791332   0.000000
     33          4.311787   0.000000
     34          4.352565   0.000000
     35          4.514170   0.000000
     36          4.829165   0.000000
     37          5.077598   0.000000
     38          5.294661   0.000000
     39          5.328048   0.000000
     40          5.508548   0.000000
     41          6.072665   0.000000
     42          6.289846   0.000000
     43          6.691666   0.000000
     44          6.725648   0.000000
     45          6.734411   0.000000
     46          7.115085   0.000000
     47          7.501762   0.000000
     48          7.518191   0.000000
 
 -0.4117647E+00  0.4117647E+00  0.0000000E+00  0.6920415E-02
      1        -18.785394   1.000000
      2        -17.778669   1.000000
      3        -15.517660   1.000000
      4        -15.515780   1.000000
      5        -15.184857   1.000000
      6        -14.047703   1.000000
      7        -11.862653   1.000000
      8        -11.243022   1.000000
      9        -11.242909   1.000000
     10        -10.625627   1.000000
     11         -9.000723   1.000000
     12         -8.956197   1.000000
     13         -8.955611   1.000000
     14         -8.336276   1.000000
     15         -7.973551   1.000000
     16         -6.904479   1.000000
     17         -6.723558   1.000000
     18         -6.369339   1.000000
     19         -5.874916   1.000000
     20         -5.741574   1.000000
     21         -5.371045   1.000000
     22         -5.023043   1.000000
     23         -4.711099   1.000000
     24         -3.894754   1.000000
     25         -3.579969   1.000000
     26         -3.184733   1.000000
     27         -3.149977   1.000000
     28         -1.125005   1.000000
     29         -0.075436   0.003323
     30          2.139904   0.000000
     31          2.144553   0.000000
     32          3.793437   0.000000
     33          4.311928   0.000000
     34          4.355758   0.000000
     35          4.513855   0.000000
     36          4.829694   0.000000
     37          5.075915   0.000000
     38          5.291882   0.000000
     39          5.321537   0.000000
     40          5.511333   0.000000
     41          6.075496   0.000000
     42          6.294402   0.000000
     43          6.686890   0.000000
     44          6.731904   0.000000
     45          6.732298   0.000000
     46          7.113848   0.000000
     47          7.502977   0.000000
     48          7.514777   0.000000
 
  0.4705882E+00 -0.2116932E-16  0.0000000E+00  0.1384083E-01
      1        -18.487715   1.000000
      2        -18.151862   1.000000
      3        -15.553569   1.000000
      4        -15.551613   1.000000
      5        -15.062294   1.000000
      6        -14.224042   1.000000
      7        -11.882113   1.000000
      8        -10.975507   1.000000
      9        -10.975118   1.000000
     10        -10.651915   1.000000
     11         -9.234907   1.000000
     12         -9.233913   1.000000
     13         -8.233422   1.000000
     14         -8.119752   1.000000
     15         -7.834866   1.000000
     16         -7.469078   1.000000
     17         -6.617717   1.000000
     18         -6.444325   1.000000
     19         -6.129602   1.000000
     20         -5.610609   1.000000
     21         -5.324409   1.000000
     22         -5.161674   1.000000
     23         -4.916463   1.000000
     24         -4.205402   1.000000
     25         -3.570817   1.000000
     26         -3.208180   1.000000
     27         -3.177192   1.000000
     28         -1.172254   1.000000
     29         -0.110385   0.013217
     30          2.219276   0.000000
     31          2.224605   0.000000
     32          4.111088   0.000000
     33          4.285207   0.000000
     34          4.656002   0.000000
     35          4.917201   0.000000
     36          4.956779   0.000000
     37          5.226886   0.000000
     38          5.498548   0.000000
     39          5.606262   0.000000
     40          5.754545   0.000000
     41          6.160150   0.000000
     42          6.215600   0.000000
     43          6.253437   0.000000
     44          6.448972   0.000000
     45          6.765392   0.000000
     46          6.965641   0.000000
     47          7.160604   0.000000
     48          7.181152   0.000000
 
 -0.4705882E+00  0.4705882E+00  0.0000000E+00  0.6920415E-02
      1        -18.487712   1.000000
      2        -18.151867   1.000000
      3        -15.553478   1.000000
      4        -15.551708   1.000000
      5        -15.062134   1.000000
      6        -14.224370   1.000000
      7        -11.881837   1.000000
      8        -10.975340   1.000000