   8   8   1  16
  0.4338553E+02  0.5169000E-09  0.5169000E-09  0.1500000E-08  0.5000000E-15
  1.000000000000000E-004
  CAR 
 BS_HSE06                                
     17.17839950    -24.20453541  301     -4.33210521      1.00000000
    -24.205  0.0000E+00  0.0000E+00
    -24.067  0.0000E+00  0.0000E+00
    -23.929  0.0000E+00  0.0000E+00
    -23.791  0.0000E+00  0.0000E+00
    -23.653  0.0000E+00  0.0000E+00
    -23.515  0.0000E+00  0.0000E+00
    -23.377  0.0000E+00  0.0000E+00
    -23.239  0.0000E+00  0.0000E+00
    -23.101  0.0000E+00  0.0000E+00
    -22.963  0.0000E+00  0.0000E+00
    -22.825  0.4761E-13  0.6568E-14
    -22.687  0.1330E-07  0.1834E-08
    -22.549  0.1125E-03  0.1552E-04
    -22.411  0.3563E-01  0.4930E-02
    -22.273  0.6547E+00  0.9524E-01
    -22.135  0.1661E+01  0.3244E+00
    -21.997  0.1984E+01  0.5981E+00
    -21.860  0.2400E+01  0.9291E+00
    -21.722  0.3507E+01  0.1413E+01
    -21.584  0.3489E+01  0.1894E+01
    -21.446  0.7506E+00  0.1998E+01
    -21.308  0.1713E-01  0.2000E+01
    -21.170  0.1941E-04  0.2000E+01
    -21.032  0.6895E-09  0.2000E+01
    -20.894  0.6015E-15  0.2000E+01
    -20.756  0.0000E+00  0.2000E+01
    -20.618  0.0000E+00  0.2000E+01
    -20.480  0.0000E+00  0.2000E+01
    -20.342  0.7986E-11  0.2000E+01
    -20.204  0.8052E-06  0.2000E+01
    -20.066  0.2275E-02  0.2000E+01
    -19.928  0.2306E+00  0.2032E+01
    -19.790  0.1632E+01  0.2257E+01
    -19.652  0.2682E+01  0.2627E+01
    -19.514  0.2491E+01  0.2971E+01
    -19.377  0.1850E+01  0.3226E+01
    -19.239  0.1616E+01  0.3449E+01
    -19.101  0.1852E+01  0.3704E+01
    -18.963  0.1961E+01  0.3975E+01
    -18.825  0.2130E+01  0.4269E+01
    -18.687  0.2623E+01  0.4631E+01
    -18.549  0.3266E+01  0.5081E+01
    -18.411  0.2556E+01  0.5434E+01
    -18.273  0.1944E+01  0.5702E+01
    -18.135  0.1521E+01  0.5912E+01
    -17.997  0.5982E+00  0.5994E+01
    -17.859  0.4141E-01  0.6000E+01
    -17.721  0.1992E-03  0.6000E+01
    -17.583  0.3607E-07  0.6000E+01
    -17.445  0.1925E-12  0.6000E+01
    -17.307  0.0000E+00  0.6000E+01
    -17.169  0.0000E+00  0.6000E+01
    -17.031  0.0000E+00  0.6000E+01
    -16.894  0.0000E+00  0.6000E+01
    -16.756  0.0000E+00  0.6000E+01
    -16.618  0.4020E-13  0.6000E+01
    -16.480  0.1291E-07  0.6000E+01
    -16.342  0.1105E-03  0.6000E+01
    -16.204  0.3331E-01  0.6005E+01
    -16.066  0.6591E+00  0.6096E+01
    -15.928  0.1733E+01  0.6335E+01
    -15.790  0.2097E+01  0.6624E+01
    -15.652  0.2659E+01  0.6991E+01
    -15.514  0.2945E+01  0.7397E+01
    -15.376  0.2401E+01  0.7728E+01
    -15.238  0.1175E+01  0.7890E+01
    -15.100  0.1555E+01  0.8105E+01
    -14.962  0.1101E+01  0.8256E+01
    -14.824  0.1258E+01  0.8430E+01
    -14.686  0.1048E+01  0.8574E+01
    -14.549  0.1506E+01  0.8782E+01
    -14.411  0.1471E+01  0.8985E+01
    -14.273  0.2152E+01  0.9282E+01
    -14.135  0.1372E+01  0.9471E+01
    -13.997  0.1714E+01  0.9708E+01
    -13.859  0.1269E+01  0.9883E+01
    -13.721  0.1400E+01  0.1008E+02
    -13.583  0.1017E+01  0.1022E+02
    -13.445  0.5824E+00  0.1030E+02
    -13.307  0.5928E+00  0.1038E+02
    -13.169  0.2830E+00  0.1042E+02
    -13.031  0.3698E+00  0.1047E+02
    -12.893  0.8876E+00  0.1059E+02
    -12.755  0.5853E+00  0.1067E+02
    -12.617  0.5491E+00  0.1075E+02
    -12.479  0.1091E+01  0.1090E+02
    -12.341  0.1266E+01  0.1107E+02
    -12.203  0.1113E+01  0.1123E+02
    -12.066  0.1341E+01  0.1141E+02
    -11.928  0.2507E+01  0.1176E+02
    -11.790  0.1539E+01  0.1197E+02
    -11.652  0.1876E+01  0.1223E+02
    -11.514  0.1573E+01  0.1244E+02
    -11.376  0.1496E+01  0.1265E+02
    -11.238  0.1885E+01  0.1291E+02
    -11.100  0.2648E+01  0.1328E+02
    -10.962  0.1962E+01  0.1355E+02
    -10.824  0.1677E+01  0.1378E+02
    -10.686  0.1864E+01  0.1404E+02
    -10.548  0.1695E+01  0.1427E+02
    -10.410  0.2199E+01  0.1457E+02
    -10.272  0.2229E+01  0.1488E+02
    -10.134  0.2439E+01  0.1522E+02
     -9.996  0.1576E+01  0.1543E+02
     -9.858  0.1707E+01  0.1567E+02
     -9.721  0.1744E+01  0.1591E+02
     -9.583  0.1671E+01  0.1614E+02
     -9.445  0.1743E+01  0.1638E+02
     -9.307  0.2399E+01  0.1671E+02
     -9.169  0.2810E+01  0.1710E+02
     -9.031  0.4026E+01  0.1766E+02
     -8.893  0.3003E+01  0.1807E+02
     -8.755  0.2732E+01  0.1845E+02
     -8.617  0.2947E+01  0.1885E+02
     -8.479  0.3850E+01  0.1938E+02
     -8.341  0.3405E+01  0.1985E+02
     -8.203  0.2077E+01  0.2014E+02
     -8.065  0.1420E+01  0.2034E+02
     -7.927  0.1515E+01  0.2054E+02
     -7.789  0.1832E+01  0.2080E+02
     -7.651  0.2804E+01  0.2118E+02
     -7.513  0.5370E+01  0.2192E+02
     -7.375  0.4545E+01  0.2255E+02
     -7.238  0.3372E+01  0.2302E+02
     -7.100  0.2457E+01  0.2336E+02
     -6.962  0.2580E+01  0.2371E+02
     -6.824  0.2784E+01  0.2410E+02
     -6.686  0.2167E+01  0.2440E+02
     -6.548  0.2307E+01  0.2471E+02
     -6.410  0.2317E+01  0.2503E+02
     -6.272  0.2626E+01  0.2540E+02
     -6.134  0.3037E+01  0.2581E+02
     -5.996  0.3093E+01  0.2624E+02
     -5.858  0.3328E+01  0.2670E+02
     -5.720  0.2508E+01  0.2705E+02
     -5.582  0.3171E+01  0.2748E+02
     -5.444  0.2953E+01  0.2789E+02
     -5.306  0.3525E+01  0.2838E+02
     -5.168  0.3872E+01  0.2891E+02
     -5.030  0.3541E+01  0.2940E+02
     -4.892  0.2821E+01  0.2979E+02
     -4.755  0.1223E+01  0.2996E+02
     -4.617  0.3011E+00  0.3000E+02
     -4.479  0.9963E-02  0.3000E+02
     -4.341  0.1663E-04  0.3000E+02
     -4.203  0.9326E-09  0.3000E+02
     -4.065  0.1493E-14  0.3000E+02
     -3.927  0.0000E+00  0.3000E+02
     -3.789  0.0000E+00  0.3000E+02
     -3.651  0.0000E+00  0.3000E+02
     -3.513  0.0000E+00  0.3000E+02
     -3.375  0.9735E-11  0.3000E+02
     -3.237  0.7146E-06  0.3000E+02
     -3.099  0.1436E-02  0.3000E+02
     -2.961  0.1066E+00  0.3001E+02
     -2.823  0.7332E+00  0.3012E+02
     -2.685  0.1455E+01  0.3032E+02
     -2.547  0.1285E+01  0.3049E+02
     -2.410  0.2311E+01  0.3081E+02
     -2.272  0.2154E+01  0.3111E+02
     -2.134  0.1833E+01  0.3136E+02
     -1.996  0.1559E+01  0.3158E+02
     -1.858  0.6976E+00  0.3167E+02
     -1.720  0.8144E+00  0.3179E+02
     -1.582  0.7092E+00  0.3188E+02
     -1.444  0.3404E+00  0.3193E+02
     -1.306  0.2141E+00  0.3196E+02
     -1.168  0.2071E+00  0.3199E+02
     -1.030  0.7586E-01  0.3200E+02
     -0.892  0.2439E-02  0.3200E+02
     -0.754  0.6766E-01  0.3201E+02
     -0.616  0.2104E+00  0.3204E+02
     -0.478  0.1980E+00  0.3207E+02
     -0.340  0.1896E+00  0.3209E+02
     -0.202  0.5344E+00  0.3217E+02
     -0.064  0.5698E+00  0.3224E+02
      0.073  0.3517E+00  0.3229E+02
      0.211  0.1315E+01  0.3247E+02
      0.349  0.2202E+01  0.3278E+02
      0.487  0.2382E+01  0.3311E+02
      0.625  0.2017E+01  0.3338E+02
      0.763  0.1518E+01  0.3359E+02
      0.901  0.1244E+01  0.3377E+02
      1.039  0.1691E+01  0.3400E+02
      1.177  0.2531E+01  0.3435E+02
      1.315  0.2166E+01  0.3465E+02
      1.453  0.1990E+01  0.3492E+02
      1.591  0.1883E+01  0.3518E+02
      1.729  0.1777E+01  0.3543E+02
      1.867  0.1818E+01  0.3568E+02
      2.005  0.2353E+01  0.3600E+02
      2.143  0.2708E+01  0.3638E+02
      2.281  0.3156E+01  0.3681E+02
      2.418  0.3746E+01  0.3733E+02
      2.556  0.4262E+01  0.3792E+02
      2.694  0.3792E+01  0.3844E+02
      2.832  0.3713E+01  0.3895E+02
      2.970  0.3775E+01  0.3947E+02
      3.108  0.4463E+01  0.4009E+02
      3.246  0.2904E+01  0.4049E+02
      3.384  0.4431E+01  0.4110E+02
      3.522  0.3634E+01  0.4160E+02
      3.660  0.3588E+01  0.4209E+02
      3.798  0.3995E+01  0.4265E+02
      3.936  0.3805E+01  0.4317E+02
      4.074  0.3325E+01  0.4363E+02
      4.212  0.4108E+01  0.4420E+02
      4.350  0.3923E+01  0.4474E+02
      4.488  0.4744E+01  0.4539E+02
      4.626  0.3932E+01  0.4593E+02
      4.764  0.4308E+01  0.4653E+02
      4.901  0.4655E+01  0.4717E+02
      5.039  0.5133E+01  0.4788E+02
      5.177  0.5744E+01  0.4867E+02
      5.315  0.5419E+01  0.4942E+02
      5.453  0.5347E+01  0.5016E+02
      5.591  0.5618E+01  0.5093E+02
      5.729  0.6783E+01  0.5187E+02
      5.867  0.6414E+01  0.5275E+02
      6.005  0.6948E+01  0.5371E+02
      6.143  0.7100E+01  0.5469E+02
      6.281  0.6674E+01  0.5561E+02
      6.419  0.6955E+01  0.5657E+02
      6.557  0.7062E+01  0.5754E+02
      6.695  0.7232E+01  0.5854E+02
      6.833  0.7578E+01  0.5959E+02
      6.971  0.7256E+01  0.6059E+02
      7.109  0.6116E+01  0.6143E+02
      7.246  0.6488E+01  0.6233E+02
      7.384  0.7517E+01  0.6336E+02
      7.522  0.7053E+01  0.6434E+02
      7.660  0.7160E+01  0.6532E+02
      7.798  0.6408E+01  0.6621E+02
      7.936  0.7940E+01  0.6730E+02
      8.074  0.8011E+01  0.6841E+02
      8.212  0.6933E+01  0.6936E+02
      8.350  0.7883E+01  0.7045E+02
      8.488  0.8065E+01  0.7156E+02
      8.626  0.9166E+01  0.7283E+02
      8.764  0.7344E+01  0.7384E+02
      8.902  0.7814E+01  0.7492E+02
      9.040  0.5973E+01  0.7574E+02
      9.178  0.5930E+01  0.7656E+02
      9.316  0.8453E+01  0.7773E+02
      9.454  0.9039E+01  0.7897E+02
      9.592  0.8243E+01  0.8011E+02
      9.729  0.6798E+01  0.8105E+02
      9.867  0.6430E+01  0.8194E+02
     10.005  0.7761E+01  0.8301E+02
     10.143  0.8095E+01  0.8412E+02
     10.281  0.6405E+01  0.8501E+02
     10.419  0.4446E+01  0.8562E+02
     10.557  0.5283E+01  0.8635E+02
     10.695  0.6625E+01  0.8726E+02
     10.833  0.6937E+01  0.8822E+02
     10.971  0.6089E+01  0.8906E+02
     11.109  0.6659E+01  0.8998E+02
     11.247  0.6754E+01  0.9091E+02
     11.385  0.6611E+01  0.9182E+02
     11.523  0.5878E+01  0.9263E+02
     11.661  0.5062E+01  0.9333E+02
     11.799  0.3896E+01  0.9387E+02
     11.937  0.3702E+01  0.9438E+02
     12.075  0.3697E+01  0.9489E+02
     12.212  0.2245E+01  0.9520E+02
     12.350  0.1872E+01  0.9546E+02
     12.488  0.1378E+01  0.9565E+02
     12.626  0.9450E+00  0.9578E+02
     12.764  0.7339E+00  0.9588E+02
     12.902  0.4255E+00  0.9594E+02
     13.040  0.1855E+00  0.9596E+02
     13.178  0.2063E-01  0.9597E+02
     13.316  0.1043E-03  0.9597E+02
     13.454  0.1510E-07  0.9597E+02
     13.592  0.5475E-13  0.9597E+02
     13.730  0.0000E+00  0.9597E+02
     13.868  0.0000E+00  0.9597E+02
     14.006  0.0000E+00  0.9597E+02
     14.144  0.0000E+00  0.9597E+02
     14.282  0.0000E+00  0.9597E+02
     14.420  0.0000E+00  0.9597E+02
     14.557  0.0000E+00  0.9597E+02
     14.695  0.0000E+00  0.9597E+02
     14.833  0.6667E-11  0.9597E+02
     14.971  0.5026E-06  0.9597E+02
     15.109  0.9790E-03  0.9597E+02
     15.247  0.5898E-01  0.9597E+02
     15.385  0.1640E+00  0.9600E+02
     15.523  0.2672E-01  0.9600E+02
     15.661  0.1770E-03  0.9600E+02
     15.799  0.3390E-07  0.9600E+02
     15.937  0.1636E-12  0.9600E+02
     16.075  0.0000E+00  0.9600E+02
     16.213  0.0000E+00  0.9600E+02
     16.351  0.0000E+00  0.9600E+02
     16.489  0.0000E+00  0.9600E+02
     16.627  0.0000E+00  0.9600E+02
     16.765  0.0000E+00  0.9600E+02
     16.903  0.0000E+00  0.9600E+02
     17.040  0.0000E+00  0.9600E+02
     17.178  0.0000E+00  0.9600E+02
     17.17839950    -24.20453541  301     -4.33210521      1.00000000
    -24.205  0.0000E+00  0.0000E+00  0.0000E+00  0.0000E+00  0.0000E+00  0.0000E+00  0.0000E+00  0.0000E+00  0.0000E+00
    -24.067  0.0000E+00  0.0000E+00  0.0000E+00  0.0000E+00  0.0000E+00  0.0000E+00  0.0000E+00  0.0000E+00  0.0000E+00
    -23.929  0.0000E+00  0.0000E+00  0.0000E+00  0.0000E+00  0.0000E+00  0.0000E+00  0.0000E+00  0.0000E+00  0.0000E+00
    -23.791  0.0000E+00  0.0000E+00  0.0000E+00  0.0000E+00  0.0000E+00  0.0000E+00  0.0000E+00  0.0000E+00  0.0000E+00
    -23.653  0.0000E+00  0.0000E+00  0.0000E+00  0.0000E+00  0.0000E+00  0.0000E+00  0.0000E+00  0.0000E+00  0.0000E+00
    -23.515  0.0000E+00  0.0000E+00  0.0000E+00  0.0000E+00  0.0000E+00  0.0000E+00  0.0000E+00  0.0000E+00  0.0000E+00
    -23.377  0.0000E+00  0.0000E+00  0.0000E+00  0.0000E+00  0.0000E+00  0.0000E+00  0.0000E+00  0.0000E+00  0.0000E+00
    -23.239  0.0000E+00  0.0000E+00  0.0000E+00  0.0000E+00  0.0000E+00  0.0000E+00  0.0000E+00  0.0000E+00  0.0000E+00
    -23.101  0.0000E+00  0.0000E+00  0.0000E+00  0.0000E+00  0.0000E+00  0.0000E+00  0.0000E+00  0.0000E+00  0.0000E+00
    -22.963  0.0000E+00  0.0000E+00  0.0000E+00  0.0000E+00  0.0000E+00  0.0000E+00  0.0000E+00  0.0000E+00  0.0000E+00
    -22.825  0.1376E-14  0.1432E-17  0.5013E-28  0.1289E-17  0.0000E+00  0.0000E+00  0.0000E+00  0.0000E+00  0.0000E+00
    -22.687  0.3829E-09  0.7155E-12  0.2158E-22  0.6448E-12  0.0000E+00  0.0000E+00  0.0000E+00  0.0000E+00  0.0000E+00
    -22.549  0.3216E-05  0.1090E-07  0.3249E-18  0.9975E-08  0.0000E+00  0.0000E+00  0.0000E+00  0.0000E+00  0.0000E+00
    -22.411  0.1005E-02  0.6320E-05  0.1665E-15  0.5949E-05  0.0000E+00  0.0000E+00  0.0000E+00  0.0000E+00  0.0000E+00
    -22.273  0.1796E-01  0.2214E-03  0.3429E-14  0.2128E-03  0.0000E+00  0.0000E+00  0.0000E+00  0.0000E+00  0.0000E+00
    -22.135  0.4215E-01  0.1251E-02  0.4866E-14  0.1206E-02  0.0000E+00  0.0000E+00  0.0000E+00  0.0000E+00  0.0000E+00
    -21.997  0.4250E-01  0.3013E-02  0.2009E-14  0.2912E-02  0.0000E+00  0.0000E+00  0.0000E+00  0.0000E+00  0.0000E+00
    -21.860  0.3852E-01  0.5950E-02  0.4888E-14  0.5762E-02  0.0000E+00  0.0000E+00  0.0000E+00  0.0000E+00  0.0000E+00
    -21.722  0.3333E-01  0.1249E-01  0.6032E-13  0.1210E-01  0.0000E+00  0.0000E+00  0.0000E+00  0.0000E+00  0.0000E+00
    -21.584  0.1789E-01  0.1483E-01  0.1469E-12  0.1431E-01  0.0000E+00  0.0000E+00  0.0000E+00  0.0000E+00  0.0000E+00
    -21.446  0.2051E-02  0.3455E-02  0.3401E-13  0.3338E-02  0.0000E+00  0.0000E+00  0.0000E+00  0.0000E+00  0.0000E+00
    -21.308  0.2536E-04  0.8187E-04  0.5729E-15  0.7928E-04  0.0000E+00  0.0000E+00  0.0000E+00  0.0000E+00  0.0000E+00
    -21.170  0.1941E-07  0.9405E-07  0.4171E-18  0.9117E-07  0.0000E+00  0.0000E+00  0.0000E+00  0.0000E+00  0.0000E+00
    -21.032  0.5424E-12  0.3359E-11  0.9092E-23  0.3260E-11  0.0000E+00  0.0000E+00  0.0000E+00  0.0000E+00  0.0000E+00
    -20.894  0.3398E-18  0.2946E-17  0.1726E-29  0.2865E-17  0.0000E+00  0.0000E+00  0.0000E+00  0.0000E+00  0.0000E+00
    -20.756  0.0000E+00  0.0000E+00  0.0000E+00  0.0000E+00  0.0000E+00  0.0000E+00  0.0000E+00  0.0000E+00  0.0000E+00
    -20.618  0.0000E+00  0.0000E+00  0.0000E+00  0.0000E+00  0.0000E+00  0.0000E+00  0.0000E+00  0.0000E+00  0.0000E+00
    -20.480  0.0000E+00  0.0000E+00  0.0000E+00  0.0000E+00  0.0000E+00  0.0000E+00  0.0000E+00  0.0000E+00  0.0000E+00
    -20.342  0.4077E-12  0.1841E-13  0.1851E-24  0.1724E-13  0.0000E+00  0.0000E+00  0.0000E+00  0.0000E+00  0.0000E+00
    -20.204  0.4096E-07  0.1862E-08  0.2042E-19  0.1779E-08  0.0000E+00  0.0000E+00  0.0000E+00  0.0000E+00  0.0000E+00
    -20.066  0.1152E-03  0.5300E-05  0.6148E-16  0.5186E-05  0.0000E+00  0.0000E+00  0.0000E+00  0.0000E+00  0.0000E+00
    -19.928  0.1157E-01  0.5518E-03  0.6249E-14  0.5504E-03  0.0000E+00  0.0000E+00  0.0000E+00  0.0000E+00  0.0000E+00
    -19.790  0.7975E-01  0.4293E-02  0.5112E-13  0.4346E-02  0.0000E+00  0.0000E+00  0.0000E+00  0.0000E+00  0.0000E+00
    -19.652  0.1224E+00  0.8529E-02  0.1941E-12  0.8888E-02  0.0000E+00  0.0000E+00  0.0000E+00  0.0000E+00  0.0000E+00
    -19.514  0.1043E+00  0.9238E-02  0.1698E-12  0.9886E-02  0.0000E+00  0.0000E+00  0.0000E+00  0.0000E+00  0.0000E+00
    -19.377  0.6905E-01  0.8002E-02  0.4909E-13  0.8532E-02  0.0000E+00  0.0000E+00  0.0000E+00  0.0000E+00  0.0000E+00
    -19.239  0.5299E-01  0.8681E-02  0.6993E-13  0.8890E-02  0.0000E+00  0.0000E+00  0.0000E+00  0.0000E+00  0.0000E+00
    -19.101  0.5334E-01  0.1159E-01  0.1248E-12  0.1169E-01  0.0000E+00  0.0000E+00  0.0000E+00  0.0000E+00  0.0000E+00
    -18.963  0.4650E-01  0.1456E-01  0.1120E-12  0.1448E-01  0.0000E+00  0.0000E+00  0.0000E+00  0.0000E+00  0.0000E+00
    -18.825  0.3983E-01  0.1800E-01  0.3254E-12  0.1757E-01  0.0000E+00  0.0000E+00  0.0000E+00  0.0000E+00  0.0000E+00
    -18.687  0.3248E-01  0.2546E-01  0.6464E-12  0.2477E-01  0.0000E+00  0.0000E+00  0.0000E+00  0.0000E+00  0.0000E+00
    -18.549  0.2314E-01  0.3381E-01  0.5256E-12  0.3366E-01  0.0000E+00  0.0000E+00  0.0000E+00  0.0000E+00  0.0000E+00
    -18.411  0.1212E-01  0.2581E-01  0.2888E-12  0.2608E-01  0.0000E+00  0.0000E+00  0.0000E+00  0.0000E+00  0.0000E+00
    -18.273  0.5763E-02  0.1802E-01  0.1250E-12  0.1822E-01  0.0000E+00  0.0000E+00  0.0000E+00  0.0000E+00  0.0000E+00
    -18.135  0.2403E-02  0.1250E-01  0.3814E-13  0.1295E-01  0.0000E+00  0.0000E+00  0.0000E+00  0.0000E+00  0.0000E+00
    -17.997  0.3954E-03  0.4547E-02  0.7191E-14  0.4707E-02  0.0000E+00  0.0000E+00  0.0000E+00  0.0000E+00  0.0000E+00
    -17.859  0.1419E-04  0.3109E-03  0.1849E-15  0.3059E-03  0.0000E+00  0.0000E+00  0.0000E+00  0.0000E+00  0.0000E+00
    -17.721  0.4205E-07  0.1504E-05  0.4664E-18  0.1416E-05  0.0000E+00  0.0000E+00  0.0000E+00  0.0000E+00  0.0000E+00
    -17.583  0.5206E-11  0.2744E-09  0.7156E-22  0.2498E-09  0.0000E+00  0.0000E+00  0.0000E+00  0.0000E+00  0.0000E+00
    -17.445  0.1782E-16  0.1474E-14  0.3582E-27  0.1305E-14  0.0000E+00  0.0000E+00  0.0000E+00  0.0000E+00  0.0000E+00
    -17.307  0.0000E+00  0.0000E+00  0.0000E+00  0.0000E+00  0.0000E+00  0.0000E+00  0.0000E+00  0.0000E+00  0.0000E+00
    -17.169  0.0000E+00  0.0000E+00  0.0000E+00  0.0000E+00  0.0000E+00  0.0000E+00  0.0000E+00  0.0000E+00  0.0000E+00
    -17.031  0.0000E+00  0.0000E+00  0.0000E+00  0.0000E+00  0.0000E+00  0.0000E+00  0.0000E+00  0.0000E+00  0.0000E+00
    -16.894  0.0000E+00  0.0000E+00  0.0000E+00  0.0000E+00  0.0000E+00  0.0000E+00  0.0000E+00  0.0000E+00  0.0000E+00
    -16.756  0.0000E+00  0.0000E+00  0.0000E+00  0.0000E+00  0.0000E+00  0.0000E+00  0.0000E+00  0.0000E+00  0.0000E+00
    -16.618  0.3779E-14  0.2102E-16  0.4854E-26  0.1918E-16  0.0000E+00  0.0000E+00  0.0000E+00  0.0000E+00  0.0000E+00
    -16.480  0.1213E-08  0.6997E-11  0.1536E-20  0.6391E-11  0.0000E+00  0.0000E+00  0.0000E+00  0.0000E+00  0.0000E+00
    -16.342  0.1035E-04  0.6695E-07  0.1296E-16  0.6160E-07  0.0000E+00  0.0000E+00  0.0000E+00  0.0000E+00  0.0000E+00
    -16.204  0.3091E-02  0.2683E-04  0.4882E-14  0.2541E-04  0.0000E+00  0.0000E+00  0.0000E+00  0.0000E+00  0.0000E+00
    -16.066  0.5977E-01  0.8345E-03  0.2020E-12  0.8306E-03  0.0000E+00  0.0000E+00  0.0000E+00  0.0000E+00  0.0000E+00
    -15.928  0.1501E+00  0.3980E-02  0.7873E-12  0.4079E-02  0.0000E+00  0.0000E+00  0.0000E+00  0.0000E+00  0.0000E+00
    -15.790  0.1627E+00  0.9257E-02  0.4360E-12  0.9454E-02  0.0000E+00  0.0000E+00  0.0000E+00  0.0000E+00  0.0000E+00
    -15.652  0.1778E+00  0.1896E-01  0.3209E-12  0.1907E-01  0.0000E+00  0.0000E+00  0.0000E+00  0.0000E+00  0.0000E+00
    -15.514  0.1564E+00  0.3212E-01  0.8881E-12  0.3021E-01  0.0000E+00  0.0000E+00  0.0000E+00  0.0000E+00  0.0000E+00
    -15.376  0.1199E+00  0.2590E-01  0.1036E-11  0.2564E-01  0.0000E+00  0.0000E+00  0.0000E+00  0.0000E+00  0.0000E+00
    -15.238  0.4013E-01  0.1647E-01  0.2725E-12  0.1820E-01  0.0000E+00  0.0000E+00  0.0000E+00  0.0000E+00  0.0000E+00
    -15.100  0.6139E-01  0.1880E-01  0.2778E-12  0.2017E-01  0.0000E+00  0.0000E+00  0.0000E+00  0.0000E+00  0.0000E+00
    -14.962  0.2581E-01  0.1849E-01  0.7045E-13  0.1982E-01  0.0000E+00  0.0000E+00  0.0000E+00  0.0000E+00  0.0000E+00
    -14.824  0.3069E-01  0.2050E-01  0.1456E-12  0.2191E-01  0.0000E+00  0.0000E+00  0.0000E+00  0.0000E+00  0.0000E+00
    -14.686  0.2225E-01  0.1768E-01  0.1442E-12  0.1889E-01  0.0000E+00  0.0000E+00  0.0000E+00  0.0000E+00  0.0000E+00
    -14.549  0.2987E-01  0.2581E-01  0.5229E-13  0.2739E-01  0.0000E+00  0.0000E+00  0.0000E+00  0.0000E+00  0.0000E+00
    -14.411  0.4537E-01  0.1905E-01  0.1220E-12  0.2070E-01  0.0000E+00  0.0000E+00  0.0000E+00  0.0000E+00  0.0000E+00
    -14.273  0.6215E-01  0.2913E-01  0.2104E-12  0.3043E-01  0.0000E+00  0.0000E+00  0.0000E+00  0.0000E+00  0.0000E+00
    -14.135  0.6017E-01  0.1477E-01  0.1898E-12  0.1564E-01  0.0000E+00  0.0000E+00  0.0000E+00  0.0000E+00  0.0000E+00
    -13.997  0.6712E-01  0.1982E-01  0.3762E-12  0.2037E-01  0.0000E+00  0.0000E+00  0.0000E+00  0.0000E+00  0.0000E+00
    -13.859  0.4704E-01  0.1508E-01  0.3538E-12  0.1570E-01  0.0000E+00  0.0000E+00  0.0000E+00  0.0000E+00  0.0000E+00
    -13.721  0.5666E-01  0.1590E-01  0.3291E-12  0.1620E-01  0.0000E+00  0.0000E+00  0.0000E+00  0.0000E+00  0.0000E+00
    -13.583  0.3551E-01  0.1213E-01  0.7008E-13  0.1279E-01  0.0000E+00  0.0000E+00  0.0000E+00  0.0000E+00  0.0000E+00
    -13.445  0.3336E-01  0.5632E-02  0.3074E-13  0.5940E-02  0.0000E+00  0.0000E+00  0.0000E+00  0.0000E+00  0.0000E+00
    -13.307  0.5607E-01  0.3663E-02  0.2134E-13  0.3386E-02  0.0000E+00  0.0000E+00  0.0000E+00  0.0000E+00  0.0000E+00
    -13.169  0.2811E-01  0.1691E-02  0.4155E-14  0.1530E-02  0.0000E+00  0.0000E+00  0.0000E+00  0.0000E+00  0.0000E+00
    -13.031  0.3443E-01  0.2731E-02  0.2092E-14  0.2748E-02  0.0000E+00  0.0000E+00  0.0000E+00  0.0000E+00  0.0000E+00
    -12.893  0.9449E-01  0.6247E-02  0.7756E-14  0.5872E-02  0.0000E+00  0.0000E+00  0.0000E+00  0.0000E+00  0.0000E+00
    -12.755  0.7903E-01  0.3496E-02  0.2788E-13  0.3096E-02  0.0000E+00  0.0000E+00  0.0000E+00  0.0000E+00  0.0000E+00
    -12.617  0.7991E-01  0.3975E-02  0.7018E-13  0.3618E-02  0.0000E+00  0.0000E+00  0.0000E+00  0.0000E+00  0.0000E+00
    -12.479  0.1106E+00  0.1109E-01  0.4206E-13  0.1049E-01  0.0000E+00  0.0000E+00  0.0000E+00  0.0000E+00  0.0000E+00
    -12.341  0.1196E+00  0.1783E-01  0.1074E-12  0.1682E-01  0.0000E+00  0.0000E+00  0.0000E+00  0.0000E+00  0.0000E+00
    -12.203  0.7089E-01  0.2318E-01  0.2027E-12  0.2224E-01  0.0000E+00  0.0000E+00  0.0000E+00  0.0000E+00  0.0000E+00
    -12.066  0.7672E-01  0.2686E-01  0.3540E-12  0.2621E-01  0.0000E+00  0.0000E+00  0.0000E+00  0.0000E+00  0.0000E+00
    -11.928  0.1615E+00  0.4710E-01  0.9306E-12  0.4479E-01  0.0000E+00  0.0000E+00  0.0000E+00  0.0000E+00  0.0000E+00
    -11.790  0.7583E-01  0.3224E-01  0.5614E-12  0.3044E-01  0.0000E+00  0.0000E+00  0.0000E+00  0.0000E+00  0.0000E+00
    -11.652  0.7813E-01  0.4197E-01  0.4114E-12  0.3944E-01  0.0000E+00  0.0000E+00  0.0000E+00  0.0000E+00  0.0000E+00
    -11.514  0.1082E+00  0.3006E-01  0.1646E-12  0.2885E-01  0.0000E+00  0.0000E+00  0.0000E+00  0.0000E+00  0.0000E+00
    -11.376  0.1077E+00  0.2024E-01  0.1707E-12  0.1962E-01  0.0000E+00  0.0000E+00  0.0000E+00  0.0000E+00  0.0000E+00
    -11.238  0.1156E+00  0.1695E-01  0.5464E-12  0.1634E-01  0.0000E+00  0.0000E+00  0.0000E+00  0.0000E+00  0.0000E+00
    -11.100  0.1515E+00  0.3279E-01  0.2751E-11  0.3134E-01  0.0000E+00  0.0000E+00  0.0000E+00  0.0000E+00  0.0000E+00
    -10.962  0.1241E+00  0.2692E-01  0.2194E-11  0.2563E-01  0.0000E+00  0.0000E+00  0.0000E+00  0.0000E+00  0.0000E+00
    -10.824  0.9645E-01  0.2035E-01  0.3945E-12  0.1961E-01  0.0000E+00  0.0000E+00  0.0000E+00  0.0000E+00  0.0000E+00
    -10.686  0.8334E-01  0.2268E-01  0.9275E-12  0.2198E-01  0.0000E+00  0.0000E+00  0.0000E+00  0.0000E+00  0.0000E+00
    -10.548  0.9491E-01  0.3357E-01  0.1957E-11  0.3218E-01  0.0000E+00  0.0000E+00  0.0000E+00  0.0000E+00  0.0000E+00
    -10.410  0.8149E-01  0.4086E-01  0.6531E-12  0.3932E-01  0.0000E+00  0.0000E+00  0.0000E+00  0.0000E+00  0.0000E+00
    -10.272  0.9525E-01  0.4242E-01  0.5410E-12  0.4209E-01  0.0000E+00  0.0000E+00  0.0000E+00  0.0000E+00  0.0000E+00
    -10.134  0.9458E-01  0.4635E-01  0.2067E-10  0.4640E-01  0.0000E+00  0.0000E+00  0.0000E+00  0.0000E+00  0.0000E+00
     -9.996  0.4717E-01  0.2178E-01  0.3540E-06  0.2169E-01  0.0000E+00  0.0000E+00  0.0000E+00  0.0000E+00  0.0000E+00
     -9.858  0.5565E-01  0.1892E-01  0.2235E-03  0.1942E-01  0.0000E+00  0.0000E+00  0.0000E+00  0.0000E+00  0.0000E+00
     -9.721  0.5603E-01  0.1718E-01  0.7390E-02  0.1786E-01  0.0000E+00  0.0000E+00  0.0000E+00  0.0000E+00  0.0000E+00
     -9.583  0.4097E-01  0.9774E-02  0.2700E-01  0.1022E-01  0.0000E+00  0.0000E+00  0.0000E+00  0.0000E+00  0.0000E+00
     -9.445  0.3559E-01  0.2214E-01  0.3125E-01  0.2292E-01  0.0000E+00  0.0000E+00  0.0000E+00  0.0000E+00  0.0000E+00
     -9.307  0.5773E-01  0.4964E-01  0.3137E-01  0.4947E-01  0.0000E+00  0.0000E+00  0.0000E+00  0.0000E+00  0.0000E+00
     -9.169  0.6497E-01  0.5734E-01  0.2840E-01  0.5766E-01  0.0000E+00  0.0000E+00  0.0000E+00  0.0000E+00  0.0000E+00
     -9.031  0.1083E+00  0.8628E-01  0.2945E-01  0.8695E-01  0.0000E+00  0.0000E+00  0.0000E+00  0.0000E+00  0.0000E+00
     -8.893  0.7920E-01  0.5336E-01  0.2686E-01  0.5119E-01  0.0000E+00  0.0000E+00  0.0000E+00  0.0000E+00  0.0000E+00
     -8.755  0.5973E-01  0.4522E-01  0.2444E-01  0.4458E-01  0.0000E+00  0.0000E+00  0.0000E+00  0.0000E+00  0.0000E+00
     -8.617  0.2310E-01  0.6211E-01  0.2475E-01  0.5986E-01  0.0000E+00  0.0000E+00  0.0000E+00  0.0000E+00  0.0000E+00
     -8.479  0.1906E-01  0.1066E+00  0.2056E-01  0.1005E+00  0.0000E+00  0.0000E+00  0.0000E+00  0.0000E+00  0.0000E+00
     -8.341  0.3158E-01  0.1034E+00  0.9856E-02  0.9851E-01  0.0000E+00  0.0000E+00  0.0000E+00  0.0000E+00  0.0000E+00
     -8.203  0.2496E-01  0.7998E-01  0.1755E-02  0.7683E-01  0.0000E+00  0.0000E+00  0.0000E+00  0.0000E+00  0.0000E+00
     -8.065  0.2399E-01  0.7518E-01  0.6470E-04  0.7010E-01  0.0000E+00  0.0000E+00  0.0000E+00  0.0000E+00  0.0000E+00
     -7.927  0.1902E-01  0.8355E-01  0.1653E-06  0.7979E-01  0.0000E+00  0.0000E+00  0.0000E+00  0.0000E+00  0.0000E+00
     -7.789  0.1651E-01  0.1018E+00  0.2156E-10  0.9807E-01  0.0000E+00  0.0000E+00  0.0000E+00  0.0000E+00  0.0000E+00
     -7.651  0.1675E-01  0.1639E+00  0.1664E-07  0.1595E+00  0.0000E+00  0.0000E+00  0.0000E+00  0.0000E+00  0.0000E+00
     -7.513  0.2871E-01  0.3111E+00  0.4972E-04  0.3208E+00  0.0000E+00  0.0000E+00  0.0000E+00  0.0000E+00  0.0000E+00
     -7.375  0.2617E-01  0.2428E+00  0.5471E-02  0.2553E+00  0.0000E+00  0.0000E+00  0.0000E+00  0.0000E+00  0.0000E+00
     -7.238  0.1958E-01  0.1222E+00  0.4224E-01  0.1309E+00  0.0000E+00  0.0000E+00  0.0000E+00  0.0000E+00  0.0000E+00
     -7.100  0.1561E-01  0.5632E-01  0.6029E-01  0.6079E-01  0.0000E+00  0.0000E+00  0.0000E+00  0.0000E+00  0.0000E+00
     -6.962  0.1812E-01  0.4801E-01  0.6993E-01  0.4873E-01  0.0000E+00  0.0000E+00  0.0000E+00  0.0000E+00  0.0000E+00
     -6.824  0.1886E-01  0.6073E-01  0.6586E-01  0.6189E-01  0.0000E+00  0.0000E+00  0.0000E+00  0.0000E+00  0.0000E+00
     -6.686  0.1474E-01  0.4972E-01  0.4432E-01  0.5006E-01  0.0000E+00  0.0000E+00  0.0000E+00  0.0000E+00  0.0000E+00
     -6.548  0.1249E-01  0.5961E-01  0.4106E-01  0.6082E-01  0.0000E+00  0.0000E+00  0.0000E+00  0.0000E+00  0.0000E+00
     -6.410  0.1479E-01  0.6941E-01  0.3376E-01  0.6827E-01  0.0000E+00  0.0000E+00  0.0000E+00  0.0000E+00  0.0000E+00
     -6.272  0.1335E-01  0.8817E-01  0.3330E-01  0.8689E-01  0.0000E+00  0.0000E+00  0.0000E+00  0.0000E+00  0.0000E+00
     -6.134  0.1027E-01  0.1014E+00  0.3789E-01  0.1021E+00  0.0000E+00  0.0000E+00  0.0000E+00  0.0000E+00  0.0000E+00
     -5.996  0.9600E-02  0.1207E+00  0.2694E-01  0.1208E+00  0.0000E+00  0.0000E+00  0.0000E+00  0.0000E+00  0.0000E+00
     -5.858  0.7246E-02  0.1045E+00  0.3707E-01  0.1048E+00  0.0000E+00  0.0000E+00  0.0000E+00  0.0000E+00  0.0000E+00
     -5.720  0.5022E-02  0.7165E-01  0.2579E-01  0.7212E-01  0.0000E+00  0.0000E+00  0.0000E+00  0.0000E+00  0.0000E+00
     -5.582  0.5935E-02  0.8819E-01  0.2708E-01  0.8959E-01  0.0000E+00  0.0000E+00  0.0000E+00  0.0000E+00  0.0000E+00
     -5.444  0.3292E-02  0.6433E-01  0.2532E-01  0.6285E-01  0.0000E+00  0.0000E+00  0.0000E+00  0.0000E+00  0.0000E+00
     -5.306  0.3095E-02  0.6663E-01  0.1973E-01  0.6817E-01  0.0000E+00  0.0000E+00  0.0000E+00  0.0000E+00  0.0000E+00
     -5.168  0.2615E-02  0.6412E-01  0.1277E-01  0.6520E-01  0.0000E+00  0.0000E+00  0.0000E+00  0.0000E+00  0.0000E+00
     -5.030  0.1085E-02  0.5313E-01  0.5996E-02  0.5439E-01  0.0000E+00  0.0000E+00  0.0000E+00  0.0000E+00  0.0000E+00
     -4.892  0.1106E-02  0.5835E-01  0.1496E-02  0.5872E-01  0.0000E+00  0.0000E+00  0.0000E+00  0.0000E+00  0.0000E+00
     -4.755  0.3288E-03  0.4579E-01  0.1078E-03  0.4832E-01  0.0000E+00  0.0000E+00  0.0000E+00  0.0000E+00  0.0000E+00
     -4.617  0.6253E-04  0.1528E-01  0.9113E-06  0.1608E-01  0.0000E+00  0.0000E+00  0.0000E+00  0.0000E+00  0.0000E+00
     -4.479  0.1063E-05  0.5124E-03  0.4581E-09  0.5446E-03  0.0000E+00  0.0000E+00  0.0000E+00  0.0000E+00  0.0000E+00
     -4.341  0.6161E-09  0.8538E-06  0.9194E-14  0.9097E-06  0.0000E+00  0.0000E+00  0.0000E+00  0.0000E+00  0.0000E+00
     -4.203  0.1071E-13  0.4796E-10  0.8509E-20  0.5088E-10  0.0000E+00  0.0000E+00  0.0000E+00  0.0000E+00  0.0000E+00
     -4.065  0.3897E-20  0.7671E-16  0.1057E-26  0.8138E-16  0.0000E+00  0.0000E+00  0.0000E+00  0.0000E+00  0.0000E+00
     -3.927  0.0000E+00  0.0000E+00  0.0000E+00  0.0000E+00  0.0000E+00  0.0000E+00  0.0000E+00  0.0000E+00  0.0000E+00
     -3.789  0.0000E+00  0.0000E+00  0.0000E+00  0.0000E+00  0.0000E+00  0.0000E+00  0.0000E+00  0.0000E+00  0.0000E+00
     -3.651  0.0000E+00  0.0000E+00  0.0000E+00  0.0000E+00  0.0000E+00  0.0000E+00  0.0000E+00  0.0000E+00  0.0000E+00
     -3.513  0.0000E+00  0.0000E+00  0.0000E+00  0.0000E+00  0.0000E+00  0.0000E+00  0.0000E+00  0.0000E+00  0.0000E+00
     -3.375  0.1300E-23  0.4566E-23  0.1059E-11  0.4882E-23  0.0000E+00  0.0000E+00  0.0000E+00  0.0000E+00  0.0000E+00
     -3.237  0.1043E-18  0.3485E-18  0.7773E-07  0.3727E-18  0.0000E+00  0.0000E+00  0.0000E+00  0.0000E+00  0.0000E+00
     -3.099  0.3050E-15  0.8377E-15  0.1563E-03  0.8954E-15  0.0000E+00  0.0000E+00  0.0000E+00  0.0000E+00  0.0000E+00
     -2.961  0.1075E-12  0.1767E-12  0.1160E-01  0.1866E-12  0.0000E+00  0.0000E+00  0.0000E+00  0.0000E+00  0.0000E+00
     -2.823  0.5341E-11  0.6607E-11  0.7879E-01  0.6849E-11  0.0000E+00  0.0000E+00  0.0000E+00  0.0000E+00  0.0000E+00
     -2.685  0.2110E-10  0.2089E-10  0.1551E+00  0.2124E-10  0.0000E+00  0.0000E+00  0.0000E+00  0.0000E+00  0.0000E+00