PROCAR lm decomposed
# of k-points:   49         # of bands:   48         # of ions:    8

 k-point     1 :    0.00000000 0.00000000 0.00000000     weight = 0.00346021

band     1 # energy  -22.32349291 # occ.  2.00000000
 
ion      s     py     pz     px    dxy    dyz    dz2    dxz  x2-y2    tot
    1  0.029  0.000  0.000  0.000  0.000  0.000  0.000  0.000  0.000  0.029
    2  0.029  0.000  0.000  0.000  0.000  0.000  0.000  0.000  0.000  0.029
    3  0.093  0.003  0.000  0.001  0.000  0.000  0.000  0.000  0.000  0.097
    4  0.094  0.004  0.000  0.001  0.000  0.000  0.000  0.000  0.000  0.098
    5  0.094  0.000  0.000  0.005  0.000  0.000  0.000  0.000  0.000  0.099
    6  0.094  0.000  0.000  0.005  0.000  0.000  0.000  0.000  0.000  0.099
    7  0.094  0.004  0.000  0.001  0.000  0.000  0.000  0.000  0.000  0.098
    8  0.093  0.003  0.000  0.001  0.000  0.000  0.000  0.000  0.000  0.097
tot    0.620  0.014  0.000  0.014  0.000  0.000  0.000  0.000  0.000  0.647
 
band     2 # energy  -18.11716965 # occ.  2.00000000
 
ion      s     py     pz     px    dxy    dyz    dz2    dxz  x2-y2    tot
    1  0.000  0.001  0.000  0.013  0.000  0.000  0.000  0.000  0.000  0.014
    2  0.000  0.001  0.000  0.013  0.000  0.000  0.000  0.000  0.000  0.014
    3  0.011  0.009  0.000  0.017  0.000  0.000  0.000  0.000  0.000  0.037
    4  0.103  0.011  0.000  0.005  0.000  0.000  0.000  0.000  0.000  0.119
    5  0.181  0.002  0.000  0.005  0.000  0.000  0.000  0.000  0.000  0.189
    6  0.181  0.002  0.000  0.005  0.000  0.000  0.000  0.000  0.000  0.189
    7  0.102  0.011  0.000  0.005  0.000  0.000  0.000  0.000  0.000  0.119
    8  0.011  0.009  0.000  0.017  0.000  0.000  0.000  0.000  0.000  0.037
tot    0.590  0.047  0.000  0.080  0.000  0.000  0.000  0.000  0.000  0.717
 
band     3 # energy  -18.07083455 # occ.  2.00000000
 
ion      s     py     pz     px    dxy    dyz    dz2    dxz  x2-y2    tot
    1  0.000  0.013  0.000  0.001  0.000  0.000  0.000  0.000  0.000  0.014
    2  0.000  0.013  0.000  0.001  0.000  0.000  0.000  0.000  0.000  0.014
    3  0.185  0.002  0.000  0.005  0.000  0.000  0.000  0.000  0.000  0.192
    4  0.094  0.000  0.000  0.017  0.000  0.000  0.000  0.000  0.000  0.111
    5  0.016  0.025  0.000  0.000  0.000  0.000  0.000  0.000  0.000  0.041
    6  0.016  0.025  0.000  0.000  0.000  0.000  0.000  0.000  0.000  0.041
    7  0.094  0.000  0.000  0.017  0.000  0.000  0.000  0.000  0.000  0.111
    8  0.185  0.002  0.000  0.005  0.000  0.000  0.000  0.000  0.000  0.192
tot    0.589  0.081  0.000  0.046  0.000  0.000  0.000  0.000  0.000  0.717
 
band     4 # energy  -15.47498778 # occ.  2.00000000
 
ion      s     py     pz     px    dxy    dyz    dz2    dxz  x2-y2    tot
    1  0.000  0.050  0.000  0.004  0.000  0.000  0.000  0.000  0.000  0.054
    2  0.000  0.050  0.000  0.004  0.000  0.000  0.000  0.000  0.000  0.054
    3  0.092  0.000  0.000  0.008  0.000  0.000  0.000  0.000  0.000  0.100
    4  0.047  0.005  0.000  0.042  0.000  0.000  0.000  0.000  0.000  0.093
    5  0.007  0.081  0.000  0.000  0.000  0.000  0.000  0.000  0.000  0.088
    6  0.007  0.081  0.000  0.000  0.000  0.000  0.000  0.000  0.000  0.088
    7  0.047  0.005  0.000  0.042  0.000  0.000  0.000  0.000  0.000  0.093
    8  0.092  0.000  0.000  0.008  0.000  0.000  0.000  0.000  0.000  0.100
tot    0.292  0.271  0.000  0.108  0.000  0.000  0.000  0.000  0.000  0.672
 
band     5 # energy  -15.46434000 # occ.  2.00000000
 
ion      s     py     pz     px    dxy    dyz    dz2    dxz  x2-y2    tot
    1  0.000  0.004  0.000  0.050  0.000  0.000  0.000  0.000  0.000  0.055
    2  0.000  0.004  0.000  0.050  0.000  0.000  0.000  0.000  0.000  0.055
    3  0.006  0.024  0.000  0.058  0.000  0.000  0.000  0.000  0.000  0.087
    4  0.051  0.019  0.000  0.025  0.000  0.000  0.000  0.000  0.000  0.094
    5  0.090  0.006  0.000  0.003  0.000  0.000  0.000  0.000  0.000  0.100
    6  0.090  0.006  0.000  0.003  0.000  0.000  0.000  0.000  0.000  0.100
    7  0.051  0.019  0.000  0.025  0.000  0.000  0.000  0.000  0.000  0.094
    8  0.006  0.024  0.000  0.058  0.000  0.000  0.000  0.000  0.000  0.087
tot    0.293  0.106  0.000  0.272  0.000  0.000  0.000  0.000  0.000  0.672
 
band     6 # energy  -14.30107172 # occ.  2.00000000
 
ion      s     py     pz     px    dxy    dyz    dz2    dxz  x2-y2    tot
    1  0.123  0.000  0.000  0.000  0.000  0.000  0.000  0.000  0.000  0.123
    2  0.123  0.000  0.000  0.000  0.000  0.000  0.000  0.000  0.000  0.123
    3  0.000  0.047  0.000  0.015  0.000  0.000  0.000  0.000  0.000  0.063
    4  0.000  0.047  0.000  0.015  0.000  0.000  0.000  0.000  0.000  0.063
    5  0.001  0.000  0.000  0.063  0.000  0.000  0.000  0.000  0.000  0.063
    6  0.001  0.000  0.000  0.063  0.000  0.000  0.000  0.000  0.000  0.063
    7  0.000  0.047  0.000  0.015  0.000  0.000  0.000  0.000  0.000  0.063
    8  0.000  0.047  0.000  0.015  0.000  0.000  0.000  0.000  0.000  0.063
tot    0.249  0.189  0.000  0.186  0.000  0.000  0.000  0.000  0.000  0.624
 
band     7 # energy  -12.97562665 # occ.  2.00000000
 
ion      s     py     pz     px    dxy    dyz    dz2    dxz  x2-y2    tot
    1  0.203  0.000  0.000  0.000  0.000  0.000  0.000  0.000  0.000  0.203
    2  0.203  0.000  0.000  0.000  0.000  0.000  0.000  0.000  0.000  0.203
    3  0.030  0.016  0.000  0.005  0.000  0.000  0.000  0.000  0.000  0.051
    4  0.030  0.016  0.000  0.006  0.000  0.000  0.000  0.000  0.000  0.052
    5  0.030  0.000  0.000  0.022  0.000  0.000  0.000  0.000  0.000  0.052
    6  0.030  0.000  0.000  0.022  0.000  0.000  0.000  0.000  0.000  0.052
    7  0.030  0.016  0.000  0.006  0.000  0.000  0.000  0.000  0.000  0.052
    8  0.030  0.016  0.000  0.005  0.000  0.000  0.000  0.000  0.000  0.051
tot    0.586  0.064  0.000  0.066  0.000  0.000  0.000  0.000  0.000  0.716
 
band     8 # energy   -9.75303881 # occ.  2.00000000
 
ion      s     py     pz     px    dxy    dyz    dz2    dxz  x2-y2    tot
    1  0.000  0.000  0.000  0.000  0.000  0.000  0.000  0.000  0.000  0.000
    2  0.000  0.000  0.000  0.000  0.000  0.000  0.000  0.000  0.000  0.000
    3  0.000  0.032  0.000  0.095  0.000  0.000  0.000  0.000  0.000  0.127
    4  0.000  0.033  0.000  0.095  0.000  0.000  0.000  0.000  0.000  0.128
    5  0.000  0.128  0.000  0.000  0.000  0.000  0.000  0.000  0.000  0.128
    6  0.000  0.128  0.000  0.000  0.000  0.000  0.000  0.000  0.000  0.128
    7  0.000  0.033  0.000  0.095  0.000  0.000  0.000  0.000  0.000  0.128
    8  0.000  0.032  0.000  0.095  0.000  0.000  0.000  0.000  0.000  0.127
tot    0.000  0.385  0.000  0.380  0.000  0.000  0.000  0.000  0.000  0.765
 
band     9 # energy   -9.73676503 # occ.  2.00000000
 
ion      s     py     pz     px    dxy    dyz    dz2    dxz  x2-y2    tot
    1  0.000  0.000  0.031  0.000  0.000  0.000  0.000  0.000  0.000  0.031
    2  0.000  0.000  0.031  0.000  0.000  0.000  0.000  0.000  0.000  0.031
    3  0.000  0.000  0.058  0.000  0.000  0.000  0.000  0.000  0.000  0.058
    4  0.000  0.000  0.058  0.000  0.000  0.000  0.000  0.000  0.000  0.058
    5  0.000  0.000  0.059  0.000  0.000  0.000  0.000  0.000  0.000  0.059
    6  0.000  0.000  0.059  0.000  0.000  0.000  0.000  0.000  0.000  0.059
    7  0.000  0.000  0.058  0.000  0.000  0.000  0.000  0.000  0.000  0.058
    8  0.000  0.000  0.058  0.000  0.000  0.000  0.000  0.000  0.000  0.058
tot    0.000  0.000  0.411  0.000  0.000  0.000  0.000  0.000  0.000  0.411
 
band    10 # energy   -7.49707286 # occ.  2.00000000
 
ion      s     py     pz     px    dxy    dyz    dz2    dxz  x2-y2    tot
    1  0.000  0.007  0.000  0.124  0.000  0.000  0.000  0.000  0.000  0.131
    2  0.000  0.007  0.000  0.124  0.000  0.000  0.000  0.000  0.000  0.131
    3  0.000  0.021  0.000  0.001  0.000  0.000  0.000  0.000  0.000  0.022
    4  0.000  0.074  0.000  0.006  0.000  0.000  0.000  0.000  0.000  0.080
    5  0.001  0.000  0.000  0.148  0.000  0.000  0.000  0.000  0.000  0.149
    6  0.001  0.000  0.000  0.148  0.000  0.000  0.000  0.000  0.000  0.149
    7  0.000  0.074  0.000  0.006  0.000  0.000  0.000  0.000  0.000  0.080
    8  0.000  0.021  0.000  0.001  0.000  0.000  0.000  0.000  0.000  0.022
tot    0.002  0.208  0.000  0.556  0.000  0.000  0.000  0.000  0.000  0.766
 
band    11 # energy   -7.47276819 # occ.  2.00000000
 
ion      s     py     pz     px    dxy    dyz    dz2    dxz  x2-y2    tot
    1  0.000  0.124  0.000  0.007  0.000  0.000  0.000  0.000  0.000  0.131
    2  0.000  0.124  0.000  0.007  0.000  0.000  0.000  0.000  0.000  0.131
    3  0.001  0.099  0.000  0.047  0.000  0.000  0.000  0.000  0.000  0.146
    4  0.000  0.045  0.000  0.042  0.000  0.000  0.000  0.000  0.000  0.087
    5  0.000  0.010  0.000  0.009  0.000  0.000  0.000  0.000  0.000  0.018
    6  0.000  0.010  0.000  0.009  0.000  0.000  0.000  0.000  0.000  0.018
    7  0.000  0.045  0.000  0.042  0.000  0.000  0.000  0.000  0.000  0.087
    8  0.001  0.098  0.000  0.047  0.000  0.000  0.000  0.000  0.000  0.146
tot    0.002  0.554  0.000  0.210  0.000  0.000  0.000  0.000  0.000  0.766
 
band    12 # energy   -4.93758610 # occ.  2.00000000
 
ion      s     py     pz     px    dxy    dyz    dz2    dxz  x2-y2    tot
    1  0.000  0.000  0.000  0.000  0.000  0.000  0.000  0.000  0.000  0.000
    2  0.000  0.000  0.000  0.000  0.000  0.000  0.000  0.000  0.000  0.000
    3  0.000  0.000  0.018  0.000  0.000  0.000  0.000  0.000  0.000  0.018
    4  0.000  0.000  0.067  0.000  0.000  0.000  0.000  0.000  0.000  0.067
    5  0.000  0.000  0.155  0.000  0.000  0.000  0.000  0.000  0.000  0.155
    6  0.000  0.000  0.155  0.000  0.000  0.000  0.000  0.000  0.000  0.155
    7  0.000  0.000  0.067  0.000  0.000  0.000  0.000  0.000  0.000  0.067
    8  0.000  0.000  0.018  0.000  0.000  0.000  0.000  0.000  0.000  0.018
tot    0.000  0.000  0.479  0.000  0.000  0.000  0.000  0.000  0.000  0.479
 
band    13 # energy   -4.90173732 # occ.  2.00000000
 
ion      s     py     pz     px    dxy    dyz    dz2    dxz  x2-y2    tot
    1  0.000  0.000  0.000  0.000  0.000  0.000  0.000  0.000  0.000  0.000
    2  0.000  0.000  0.000  0.000  0.000  0.000  0.000  0.000  0.000  0.000
    3  0.000  0.000  0.142  0.000  0.000  0.000  0.000  0.000  0.000  0.142
    4  0.000  0.000  0.092  0.000  0.000  0.000  0.000  0.000  0.000  0.092
    5  0.000  0.000  0.005  0.000  0.000  0.000  0.000  0.000  0.000  0.005
    6  0.000  0.000  0.005  0.000  0.000  0.000  0.000  0.000  0.000  0.005
    7  0.000  0.000  0.092  0.000  0.000  0.000  0.000  0.000  0.000  0.092
    8  0.000  0.000  0.142  0.000  0.000  0.000  0.000  0.000  0.000  0.142
tot    0.000  0.000  0.479  0.000  0.000  0.000  0.000  0.000  0.000  0.479
 
band    14 # energy   -4.74721695 # occ.  2.00000000
 
ion      s     py     pz     px    dxy    dyz    dz2    dxz  x2-y2    tot
    1  0.000  0.079  0.000  0.027  0.000  0.000  0.000  0.000  0.000  0.106
    2  0.000  0.079  0.000  0.027  0.000  0.000  0.000  0.000  0.000  0.106
    3  0.001  0.078  0.000  0.027  0.000  0.000  0.000  0.000  0.000  0.105
    4  0.000  0.073  0.000  0.022  0.000  0.000  0.000  0.000  0.000  0.095
    5  0.000  0.069  0.000  0.026  0.000  0.000  0.000  0.000  0.000  0.095
    6  0.000  0.069  0.000  0.026  0.000  0.000  0.000  0.000  0.000  0.095
    7  0.000  0.073  0.000  0.022  0.000  0.000  0.000  0.000  0.000  0.095
    8  0.001  0.078  0.000  0.027  0.000  0.000  0.000  0.000  0.000  0.105
tot    0.003  0.597  0.000  0.203  0.000  0.000  0.000  0.000  0.000  0.803
 
band    15 # energy   -4.73794776 # occ.  2.00000000
 
ion      s     py     pz     px    dxy    dyz    dz2    dxz  x2-y2    tot
    1  0.000  0.027  0.000  0.079  0.000  0.000  0.000  0.000  0.000  0.106
    2  0.000  0.027  0.000  0.079  0.000  0.000  0.000  0.000  0.000  0.106
    3  0.000  0.023  0.000  0.069  0.000  0.000  0.000  0.000  0.000  0.092
    4  0.001  0.028  0.000  0.073  0.000  0.000  0.000  0.000  0.000  0.102
    5  0.001  0.023  0.000  0.078  0.000  0.000  0.000  0.000  0.000  0.102
    6  0.001  0.023  0.000  0.078  0.000  0.000  0.000  0.000  0.000  0.102
    7  0.001  0.028  0.000  0.073  0.000  0.000  0.000  0.000  0.000  0.102
    8  0.000  0.023  0.000  0.069  0.000  0.000  0.000  0.000  0.000  0.092
tot    0.003  0.203  0.000  0.597  0.000  0.000  0.000  0.000  0.000  0.803
 
band    16 # energy   -1.46302130 # occ.  0.00000000
 
ion      s     py     pz     px    dxy    dyz    dz2    dxz  x2-y2    tot
    1  0.000  0.000  0.172  0.000  0.000  0.000  0.000  0.000  0.000  0.172
    2  0.000  0.000  0.172  0.000  0.000  0.000  0.000  0.000  0.000  0.172
    3  0.000  0.000  0.022  0.000  0.000  0.000  0.000  0.000  0.000  0.022
    4  0.000  0.000  0.022  0.000  0.000  0.000  0.000  0.000  0.000  0.022
    5  0.000  0.000  0.022  0.000  0.000  0.000  0.000  0.000  0.000  0.022
    6  0.000  0.000  0.022  0.000  0.000  0.000  0.000  0.000  0.000  0.022
    7  0.000  0.000  0.022  0.000  0.000  0.000  0.000  0.000  0.000  0.022
    8  0.000  0.000  0.022  0.000  0.000  0.000  0.000  0.000  0.000  0.022
tot    0.000  0.000  0.476  0.000  0.000  0.000  0.000  0.000  0.000  0.476
 
band    17 # energy    0.23063732 # occ.  0.00000000
 
ion      s     py     pz     px    dxy    dyz    dz2    dxz  x2-y2    tot
    1  0.000  0.000  0.000  0.000  0.000  0.000  0.000  0.000  0.000  0.000
    2  0.000  0.000  0.000  0.000  0.000  0.000  0.000  0.000  0.000  0.000
    3  0.000  0.000  0.013  0.000  0.000  0.000  0.000  0.000  0.000  0.013
    4  0.000  0.000  0.060  0.000  0.000  0.000  0.000  0.000  0.000  0.060
    5  0.000  0.000  0.127  0.000  0.000  0.000  0.000  0.000  0.000  0.127
    6  0.000  0.000  0.127  0.000  0.000  0.000  0.000  0.000  0.000  0.127
    7  0.000  0.000  0.060  0.000  0.000  0.000  0.000  0.000  0.000  0.060
    8  0.000  0.000  0.013  0.000  0.000  0.000  0.000  0.000  0.000  0.013
tot    0.000  0.000  0.400  0.000  0.000  0.000  0.000  0.000  0.000  0.400
 
band    18 # energy    0.25127290 # occ.  0.00000000
 
ion      s     py     pz     px    dxy    dyz    dz2    dxz  x2-y2    tot
    1  0.000  0.000  0.000  0.000  0.000  0.000  0.000  0.000  0.000  0.000
    2  0.000  0.000  0.000  0.000  0.000  0.000  0.000  0.000  0.000  0.000
    3  0.000  0.000  0.120  0.000  0.000  0.000  0.000  0.000  0.000  0.120
    4  0.000  0.000  0.073  0.000  0.000  0.000  0.000  0.000  0.000  0.073
    5  0.000  0.000  0.006  0.000  0.000  0.000  0.000  0.000  0.000  0.006
    6  0.000  0.000  0.006  0.000  0.000  0.000  0.000  0.000  0.000  0.006
    7  0.000  0.000  0.073  0.000  0.000  0.000  0.000  0.000  0.000  0.073
    8  0.000  0.000  0.120  0.000  0.000  0.000  0.000  0.000  0.000  0.120
tot    0.000  0.000  0.398  0.000  0.000  0.000  0.000  0.000  0.000  0.398
 
band    19 # energy    0.90909029 # occ.  0.00000000
 
ion      s     py     pz     px    dxy    dyz    dz2    dxz  x2-y2    tot
    1  0.000  0.000  0.106  0.000  0.000  0.000  0.000  0.000  0.000  0.106
    2  0.000  0.000  0.106  0.000  0.000  0.000  0.000  0.000  0.000  0.106
    3  0.000  0.000  0.016  0.000  0.000  0.000  0.000  0.000  0.000  0.016
    4  0.000  0.000  0.016  0.000  0.000  0.000  0.000  0.000  0.000  0.016
    5  0.000  0.000  0.016  0.000  0.000  0.000  0.000  0.000  0.000  0.016
    6  0.000  0.000  0.016  0.000  0.000  0.000  0.000  0.000  0.000  0.016
    7  0.000  0.000  0.016  0.000  0.000  0.000  0.000  0.000  0.000  0.016
    8  0.000  0.000  0.016  0.000  0.000  0.000  0.000  0.000  0.000  0.016
tot    0.000  0.000  0.309  0.000  0.000  0.000  0.000  0.000  0.000  0.309
 
band    20 # energy    0.99110972 # occ.  0.00000000
 
ion      s     py     pz     px    dxy    dyz    dz2    dxz  x2-y2    tot
    1  0.001  0.000  0.000  0.000  0.000  0.000  0.000  0.000  0.000  0.001
    2  0.001  0.000  0.000  0.000  0.000  0.000  0.000  0.000  0.000  0.001
    3  0.003  0.000  0.000  0.000  0.000  0.000  0.000  0.000  0.000  0.003
    4  0.003  0.000  0.000  0.000  0.000  0.000  0.000  0.000  0.000  0.003
    5  0.003  0.000  0.000  0.000  0.000  0.000  0.000  0.000  0.000  0.003
    6  0.003  0.000  0.000  0.000  0.000  0.000  0.000  0.000  0.000  0.003
    7  0.003  0.000  0.000  0.000  0.000  0.000  0.000  0.000  0.000  0.003
    8  0.003  0.000  0.000  0.000  0.000  0.000  0.000  0.000  0.000  0.003
tot    0.017  0.001  0.000  0.001  0.000  0.000  0.000  0.000  0.000  0.019
 
band    21 # energy    2.00827116 # occ.  0.00000000
 
ion      s     py     pz     px    dxy    dyz    dz2    dxz  x2-y2    tot
    1  0.000  0.000  0.040  0.000  0.000  0.000  0.000  0.000  0.000  0.040
    2  0.000  0.000  0.040  0.000  0.000  0.000  0.000  0.000  0.000  0.040
    3  0.000  0.000  0.000  0.000  0.000  0.000  0.000  0.000  0.000  0.000
    4  0.000  0.000  0.000  0.000  0.000  0.000  0.000  0.000  0.000  0.000
    5  0.000  0.000  0.000  0.000  0.000  0.000  0.000  0.000  0.000  0.000
    6  0.000  0.000  0.000  0.000  0.000  0.000  0.000  0.000  0.000  0.000
    7  0.000  0.000  0.000  0.000  0.000  0.000  0.000  0.000  0.000  0.000
    8  0.000  0.000  0.000  0.000  0.000  0.000  0.000  0.000  0.000  0.000
tot    0.000  0.000  0.081  0.000  0.000  0.000  0.000  0.000  0.000  0.081
 
band    22 # energy    2.30199202 # occ.  0.00000000
 
ion      s     py     pz     px    dxy    dyz    dz2    dxz  x2-y2    tot
    1  0.000  0.000  0.000  0.000  0.000  0.000  0.000  0.000  0.000  0.000
    2  0.000  0.000  0.000  0.000  0.000  0.000  0.000  0.000  0.000  0.000
    3  0.001  0.000  0.000  0.000  0.000  0.000  0.000  0.000  0.000  0.001
    4  0.001  0.000  0.000  0.000  0.000  0.000  0.000  0.000  0.000  0.001
    5  0.001  0.000  0.000  0.000  0.000  0.000  0.000  0.000  0.000  0.001
    6  0.001  0.000  0.000  0.000  0.000  0.000  0.000  0.000  0.000  0.001
    7  0.001  0.000  0.000  0.000  0.000  0.000  0.000  0.000  0.000  0.001
    8  0.001  0.000  0.000  0.000  0.000  0.000  0.000  0.000  0.000  0.001
tot    0.008  0.000  0.000  0.000  0.000  0.000  0.000  0.000  0.000  0.009
 
band    23 # energy    4.36117706 # occ.  0.00000000
 
ion      s     py     pz     px    dxy    dyz    dz2    dxz  x2-y2    tot
    1  0.000  0.000  0.013  0.000  0.000  0.000  0.000  0.000  0.000  0.013
    2  0.000  0.000  0.013  0.000  0.000  0.000  0.000  0.000  0.000  0.013
    3  0.000  0.000  0.002  0.000  0.000  0.000  0.000  0.000  0.000  0.002
    4  0.000  0.000  0.002  0.000  0.000  0.000  0.000  0.000  0.000  0.002
    5  0.000  0.000  0.002  0.000  0.000  0.000  0.000  0.000  0.000  0.002
    6  0.000  0.000  0.002  0.000  0.000  0.000  0.000  0.000  0.000  0.002
    7  0.000  0.000  0.002  0.000  0.000  0.000  0.000  0.000  0.000  0.002
    8  0.000  0.000  0.002  0.000  0.000  0.000  0.000  0.000  0.000  0.002
tot    0.000  0.000  0.040  0.000  0.000  0.000  0.000  0.000  0.000  0.040
 
band    24 # energy    4.99305667 # occ.  0.00000000
 
ion      s     py     pz     px    dxy    dyz    dz2    dxz  x2-y2    tot
    1  0.001  0.000  0.000  0.000  0.000  0.000  0.000  0.000  0.000  0.001
    2  0.001  0.000  0.000  0.000  0.000  0.000  0.000  0.000  0.000  0.001
    3  0.004  0.001  0.000  0.000  0.000  0.000  0.000  0.000  0.000  0.005
    4  0.004  0.001  0.000  0.000  0.000  0.000  0.000  0.000  0.000  0.005
    5  0.005  0.000  0.000  0.001  0.000  0.000  0.000  0.000  0.000  0.006
    6  0.005  0.000  0.000  0.001  0.000  0.000  0.000  0.000  0.000  0.006
    7  0.004  0.001  0.000  0.000  0.000  0.000  0.000  0.000  0.000  0.005
    8  0.004  0.001  0.000  0.000  0.000  0.000  0.000  0.000  0.000  0.005
tot    0.029  0.003  0.000  0.003  0.000  0.000  0.000  0.000  0.000  0.035
 
band    25 # energy    5.65241834 # occ.  0.00000000
 
ion      s     py     pz     px    dxy    dyz    dz2    dxz  x2-y2    tot
    1  0.000  0.010  0.000  0.009  0.000  0.000  0.000  0.000  0.000  0.018
    2  0.000  0.010  0.000  0.009  0.000  0.000  0.000  0.000  0.000  0.019
    3  0.055  0.001  0.000  0.003  0.000  0.000  0.000  0.000  0.000  0.059
    4  0.054  0.001  0.000  0.003  0.000  0.000  0.000  0.000  0.000  0.058
    5  0.051  0.004  0.000  0.000  0.000  0.000  0.000  0.000  0.000  0.055
    6  0.051  0.004  0.000  0.000  0.000  0.000  0.000  0.000  0.000  0.055
    7  0.054  0.001  0.000  0.003  0.000  0.000  0.000  0.000  0.000  0.058
    8  0.055  0.001  0.000  0.003  0.000  0.000  0.000  0.000  0.000  0.059
tot    0.321  0.031  0.000  0.029  0.000  0.000  0.000  0.000  0.000  0.380
 
band    26 # energy    5.65283183 # occ.  0.00000000
 
ion      s     py     pz     px    dxy    dyz    dz2    dxz  x2-y2    tot
    1  0.000  0.009  0.000  0.010  0.000  0.000  0.000  0.000  0.000  0.019
    2  0.000  0.009  0.000  0.010  0.000  0.000  0.000  0.000  0.000  0.019
    3  0.050  0.001  0.000  0.003  0.000  0.000  0.000  0.000  0.000  0.055
    4  0.053  0.001  0.000  0.003  0.000  0.000  0.000  0.000  0.000  0.057
    5  0.056  0.004  0.000  0.000  0.000  0.000  0.000  0.000  0.000  0.060
    6  0.056  0.003  0.000  0.000  0.000  0.000  0.000  0.000  0.000  0.060
    7  0.053  0.001  0.000  0.003  0.000  0.000  0.000  0.000  0.000  0.057
    8  0.051  0.001  0.000  0.003  0.000  0.000  0.000  0.000  0.000  0.054
tot    0.320  0.029  0.000  0.031  0.000  0.000  0.000  0.000  0.000  0.380
 
band    27 # energy    6.94717913 # occ.  0.00000000
 
ion      s     py     pz     px    dxy    dyz    dz2    dxz  x2-y2    tot
    1  0.119  0.000  0.000  0.000  0.000  0.000  0.000  0.000  0.000  0.120
    2  0.120  0.000  0.000  0.000  0.000  0.000  0.000  0.000  0.000  0.120
    3  0.012  0.011  0.000  0.005  0.000  0.000  0.000  0.000  0.000  0.028
    4  0.010  0.011  0.000  0.003  0.000  0.000  0.000  0.000  0.000  0.024
    5  0.010  0.000  0.000  0.014  0.000  0.000  0.000  0.000  0.000  0.024
    6  0.010  0.000  0.000  0.017  0.000  0.000  0.000  0.000  0.000  0.027
    7  0.009  0.012  0.000  0.005  0.000  0.000  0.000  0.000  0.000  0.026
    8  0.012  0.012  0.000  0.003  0.000  0.000  0.000  0.000  0.000  0.027
tot    0.301  0.046  0.000  0.047  0.000  0.000  0.000  0.000  0.000  0.395
 
band    28 # energy    8.20646350 # occ.  0.00000000
 
ion      s     py     pz     px    dxy    dyz    dz2    dxz  x2-y2    tot
    1  0.000  0.000  0.000  0.000  0.000  0.000  0.000  0.000  0.000  0.000
    2  0.000  0.000  0.000  0.000  0.000  0.000  0.000  0.000  0.000  0.000
    3  0.006  0.003  0.000  0.001  0.000  0.000  0.000  0.000  0.000  0.010
    4  0.006  0.003  0.000  0.001  0.000  0.000  0.000  0.000  0.000  0.011
    5  0.006  0.000  0.000  0.004  0.000  0.000  0.000  0.000  0.000  0.011
    6  0.007  0.000  0.000  0.004  0.000  0.000  0.000  0.000  0.000  0.011
    7  0.006  0.003  0.000  0.001  0.000  0.000  0.000  0.000  0.000  0.010
    8  0.006  0.003  0.000  0.001  0.000  0.000  0.000  0.000  0.000  0.010
tot    0.039  0.012  0.000  0.012  0.000  0.000  0.000  0.000  0.000  0.063
 
band    29 # energy    8.28325063 # occ.  0.00000000
 
ion      s     py     pz     px    dxy    dyz    dz2    dxz  x2-y2    tot
    1  0.000  0.000  0.000  0.002  0.000  0.000  0.000  0.000  0.000  0.002
    2  0.000  0.000  0.000  0.001  0.000  0.000  0.000  0.000  0.000  0.002
    3  0.001  0.000  0.000  0.002  0.000  0.000  0.000  0.000  0.000  0.004
    4  0.001  0.001  0.000  0.003  0.000  0.000  0.000  0.000  0.000  0.004
    5  0.003  0.000  0.000  0.000  0.000  0.000  0.000  0.000  0.000  0.003
    6  0.003  0.000  0.000  0.000  0.000  0.000  0.000  0.000  0.000  0.003
    7  0.001  0.001  0.000  0.003  0.000  0.000  0.000  0.000  0.000  0.004
    8  0.001  0.000  0.000  0.002  0.000  0.000  0.000  0.000  0.000  0.004
tot    0.009  0.003  0.000  0.013  0.000  0.000  0.000  0.000  0.000  0.024
 
band    30 # energy    8.28709757 # occ.  0.00000000
 
ion      s     py     pz     px    dxy    dyz    dz2    dxz  x2-y2    tot
    1  0.000  0.001  0.000  0.000  0.000  0.000  0.000  0.000  0.000  0.002
    2  0.000  0.001  0.000  0.000  0.000  0.000  0.000  0.000  0.000  0.001
    3  0.002  0.001  0.000  0.001  0.000  0.000  0.000  0.000  0.000  0.004
    4  0.002  0.001  0.000  0.001  0.000  0.000  0.000  0.000  0.000  0.004
    5  0.000  0.004  0.000  0.000  0.000  0.000  0.000  0.000  0.000  0.004
    6  0.000  0.004  0.000  0.000  0.000  0.000  0.000  0.000  0.000  0.005
    7  0.002  0.000  0.000  0.000  0.000  0.000  0.000  0.000  0.000  0.003
    8  0.002  0.000  0.000  0.001  0.000  0.000  0.000  0.000  0.000  0.003
tot    0.009  0.013  0.000  0.003  0.000  0.000  0.000  0.000  0.000  0.025
 
band    31 # energy    8.32102216 # occ.  0.00000000
 
ion      s     py     pz     px    dxy    dyz    dz2    dxz  x2-y2    tot
    1  0.000  0.000  0.005  0.000  0.000  0.000  0.000  0.000  0.000  0.005
    2  0.000  0.000  0.005  0.000  0.000  0.000  0.000  0.000  0.000  0.005
    3  0.000  0.000  0.006  0.000  0.000  0.000  0.000  0.000  0.000  0.006
    4  0.000  0.000  0.007  0.000  0.000  0.000  0.000  0.000  0.000  0.007
    5  0.000  0.000  0.007  0.000  0.000  0.000  0.000  0.000  0.000  0.007
    6  0.000  0.000  0.006  0.000  0.000  0.000  0.000  0.000  0.000  0.006
    7  0.000  0.000  0.007  0.000  0.000  0.000  0.000  0.000  0.000  0.007
    8  0.000  0.000  0.006  0.000  0.000  0.000  0.000  0.000  0.000  0.006
tot    0.000  0.000  0.050  0.000  0.000  0.000  0.000  0.000  0.000  0.050
 
band    32 # energy    8.46129780 # occ.  0.00000000
 
ion      s     py     pz     px    dxy    dyz    dz2    dxz  x2-y2    tot
    1  0.000  0.002  0.000  0.003  0.000  0.000  0.000  0.000  0.000  0.005
    2  0.000  0.002  0.000  0.004  0.000  0.000  0.000  0.000  0.000  0.006
    3  0.000  0.002  0.000  0.000  0.000  0.000  0.000  0.000  0.000  0.002
    4  0.000  0.001  0.000  0.003  0.000  0.000  0.000  0.000  0.000  0.004
    5  0.000  0.001  0.000  0.001  0.000  0.000  0.000  0.000  0.000  0.003
    6  0.000  0.001  0.000  0.001  0.000  0.000  0.000  0.000  0.000  0.002
    7  0.000  0.001  0.000  0.002  0.000  0.000  0.000  0.000  0.000  0.003
    8  0.000  0.001  0.000  0.001  0.000  0.000  0.000  0.000  0.000  0.002
tot    0.001  0.011  0.001  0.015  0.000  0.000  0.000  0.000  0.000  0.028
 
band    33 # energy    8.52057071 # occ.  0.00000000
 
ion      s     py     pz     px    dxy    dyz    dz2    dxz  x2-y2    tot
    1  0.007  0.002  0.000  0.001  0.000  0.000  0.000  0.000  0.000  0.010
    2  0.007  0.002  0.000  0.002  0.000  0.000  0.000  0.000  0.000  0.010
    3  0.001  0.000  0.000  0.001  0.000  0.000  0.000  0.000  0.000  0.002
    4  0.002  0.001  0.000  0.001  0.000  0.000  0.000  0.000  0.000  0.003
    5  0.001  0.001  0.000  0.001  0.000  0.000  0.000  0.000  0.000  0.003
    6  0.001  0.001  0.000  0.000  0.000  0.000  0.000  0.000  0.000  0.003
    7  0.002  0.001  0.000  0.000  0.000  0.000  0.000  0.000  0.000  0.003
    8  0.001  0.000  0.000  0.001  0.000  0.000  0.000  0.000  0.000  0.003
tot    0.021  0.008  0.000  0.008  0.000  0.000  0.000  0.000  0.000  0.038
 
band    34 # energy    8.59266911 # occ.  0.00000000
 
ion      s     py     pz     px    dxy    dyz    dz2    dxz  x2-y2    tot
    1  0.008  0.001  0.000  0.000  0.000  0.000  0.000  0.000  0.000  0.009
    2  0.008  0.001  0.000  0.000  0.000  0.000  0.000  0.000  0.000  0.010
    3  0.003  0.000  0.000  0.001  0.000  0.000  0.000  0.000  0.000  0.004
    4  0.002  0.000  0.000  0.000  0.000  0.000  0.000  0.000  0.000  0.002
    5  0.002  0.001  0.000  0.000  0.000  0.000  0.000  0.000  0.000  0.003
    6  0.002  0.001  0.000  0.000  0.000  0.000  0.000  0.000  0.000  0.003
    7  0.002  0.000  0.000  0.000  0.000  0.000  0.000  0.000  0.000  0.003
    8  0.002  0.000  0.000  0.001  0.000  0.000  0.000  0.000  0.000  0.003
tot    0.028  0.005  0.001  0.003  0.000  0.000  0.000  0.000  0.000  0.036
 
band    35 # energy    9.01688569 # occ.  0.00000000
 
ion      s     py     pz     px    dxy    dyz    dz2    dxz  x2-y2    tot
    1  0.000  0.000  0.000  0.000  0.000  0.000  0.000  0.000  0.000  0.000
    2  0.000  0.000  0.000  0.000  0.000  0.000  0.000  0.000  0.000  0.000
    3  0.000  0.000  0.022  0.000  0.000  0.000  0.000  0.000  0.000  0.022
    4  0.000  0.000  0.002  0.000  0.000  0.000  0.000  0.000  0.000  0.002
    5  0.000  0.000  0.010  0.000  0.000  0.000  0.000  0.000  0.000  0.010
    6  0.000  0.000  0.010  0.000  0.000  0.000  0.000  0.000  0.000  0.010
    7  0.000  0.000  0.002  0.000  0.000  0.000  0.000  0.000  0.000  0.002
    8  0.000  0.000  0.021  0.000  0.000  0.000  0.000  0.000  0.000  0.021
tot    0.000  0.000  0.068  0.000  0.000  0.000  0.000  0.000  0.000  0.068
 
band    36 # energy    9.03240114 # occ.  0.00000000
 
ion      s     py     pz     px    dxy    dyz    dz2    dxz  x2-y2    tot
    1  0.000  0.000  0.000  0.000  0.000  0.000  0.000  0.000  0.000  0.000
    2  0.000  0.000  0.000  0.000  0.000  0.000  0.000  0.000  0.000  0.000
    3  0.000  0.000  0.002  0.000  0.000  0.000  0.000  0.000  0.000  0.002
    4  0.000  0.000  0.022  0.000  0.000  0.000  0.000  0.000  0.000  0.022
    5  0.000  0.000  0.012  0.000  0.000  0.000  0.000  0.000  0.000  0.012
    6  0.000  0.000  0.013  0.000  0.000  0.000  0.000  0.000  0.000  0.013
    7  0.000  0.000  0.017  0.000  0.000  0.000  0.000  0.000  0.000  0.017
    8  0.000  0.000  0.000  0.000  0.000  0.000  0.000  0.000  0.000  0.000
tot    0.000  0.000  0.066  0.000  0.000  0.000  0.000  0.000  0.000  0.067
 
band    37 # energy    9.16418973 # occ.  0.00000000
 
ion      s     py     pz     px    dxy    dyz    dz2    dxz  x2-y2    tot
    1  0.000  0.000  0.000  0.000  0.000  0.000  0.000  0.000  0.000  0.000
    2  0.000  0.000  0.000  0.000  0.000  0.000  0.000  0.000  0.000  0.000
    3  0.000  0.000  0.005  0.000  0.000  0.000  0.000  0.000  0.000  0.005
    4  0.000  0.000  0.003  0.000  0.000  0.000  0.000  0.000  0.000  0.003