   16   16  128    2
  0.2016777E+02  0.4984000E-09  0.4984000E-09  0.1500000E-08  0.5000000E-15
  1.000000000000000E-004
  CAR 
 Lattice                                 
     56     43     48
 
  0.0000000E+00  0.0000000E+00  0.0000000E+00  0.6944444E-02
      1        -19.672379      -19.672379   1.000000   1.000000
      2        -16.034228      -16.034228   1.000000   1.000000
      3        -14.571182      -14.571182   1.000000   1.000000
      4        -14.570193      -14.570193   1.000000   1.000000
      5        -14.568583      -14.568583   1.000000   1.000000
      6        -13.438165      -13.438165   1.000000   1.000000
      7        -13.436242      -13.436242   1.000000   1.000000
      8        -13.434957      -13.434957   1.000000   1.000000
      9        -11.817491      -11.817491   1.000000   1.000000
     10        -11.721479      -11.721479   1.000000   1.000000
     11        -11.720453      -11.720453   1.000000   1.000000
     12         -9.514003       -9.514003   1.000000   1.000000
     13         -9.512752       -9.512752   1.000000   1.000000
     14         -8.007671       -8.007671   1.000000   1.000000
     15         -7.507221       -7.507221   1.000000   1.000000
     16         -6.724929       -6.724929   1.000000   1.000000
     17         -6.724406       -6.724406   1.000000   1.000000
     18         -6.723402       -6.723402   1.000000   1.000000
     19         -6.675470       -6.675470   1.000000   1.000000
     20         -3.444810       -3.444810   1.000000   1.000000
     21         -3.443572       -3.443571   1.000000   1.000000
     22         -2.763642       -2.763642   1.000000   1.000000
     23         -2.751559       -2.751559   1.000000   1.000000
     24         -2.739177       -2.739177   1.000000   1.000000
     25         -1.726478       -1.726478   1.000000   1.000000
     26         -1.722374       -1.722374   1.000000   1.000000
     27         -0.309928       -0.309928   0.912220   0.912220
     28          0.019393        0.019393   0.000479   0.000479
     29          0.065742        0.065742   0.000038   0.000038
     30          0.617767        0.617767   0.000000   0.000000
     31          0.698766        0.698766   0.000000   0.000000
     32          0.900932        0.900932   0.000000   0.000000
     33          0.945845        0.945845   0.000000   0.000000
     34          1.322348        1.322348   0.000000   0.000000
     35          1.447194        1.447194   0.000000   0.000000
     36          1.485352        1.485352   0.000000   0.000000
     37          2.926856        2.926838   0.000000   0.000000
     38          3.574605        3.574595   0.000000   0.000000
     39          4.478489        4.478471   0.000000   0.000000
     40          4.776886        4.776804   0.000000   0.000000
     41          6.655223        6.655223   0.000000   0.000000
     42          6.659248        6.659248   0.000000   0.000000
     43          6.660122        6.660122   0.000000   0.000000
     44          7.026107        7.026026   0.000000   0.000000
     45          7.713781        7.713779   0.000000   0.000000
     46          7.716076        7.716075   0.000000   0.000000
     47          7.719849        7.719827   0.000000   0.000000
     48          8.079496        8.079497   0.000000   0.000000
 
  0.8333333E-01  0.2978158E-17  0.0000000E+00  0.2777778E-01
      1        -19.632087      -19.632087   1.000000   1.000000
      2        -16.001972      -16.001972   1.000000   1.000000
      3        -15.039008      -15.039008   1.000000   1.000000
      4        -14.695122      -14.695122   1.000000   1.000000
      5        -14.692821      -14.692821   1.000000   1.000000
      6        -13.247706      -13.247706   1.000000   1.000000
      7        -13.245036      -13.245036   1.000000   1.000000
      8        -12.907564      -12.907564   1.000000   1.000000
      9        -12.312213      -12.312213   1.000000   1.000000
     10        -11.752598      -11.752598   1.000000   1.000000
     11        -11.252195      -11.252196   1.000000   1.000000
     12         -9.571599       -9.571599   1.000000   1.000000
     13         -9.429708       -9.429708   1.000000   1.000000
     14         -7.955458       -7.955458   1.000000   1.000000
     15         -7.353950       -7.353950   1.000000   1.000000
     16         -6.850271       -6.850271   1.000000   1.000000
     17         -6.849448       -6.849448   1.000000   1.000000
     18         -6.684354       -6.684354   1.000000   1.000000
     19         -6.626498       -6.626498   1.000000   1.000000
     20         -3.612244       -3.612244   1.000000   1.000000
     21         -3.530359       -3.530359   1.000000   1.000000
     22         -3.009140       -3.009140   1.000000   1.000000
     23         -2.790251       -2.790251   1.000000   1.000000
     24         -2.772422       -2.772422   1.000000   1.000000
     25         -2.105291       -2.105291   1.000000   1.000000
     26         -2.051083       -2.051083   1.000000   1.000000
     27         -0.910399       -0.910399   1.000000   1.000000
     28         -0.126267       -0.126267   0.106970   0.106970
     29          0.287521        0.287521   0.000000   0.000000
     30          0.839216        0.839216   0.000000   0.000000
     31          0.910775        0.910775   0.000000   0.000000
     32          1.202265        1.202265   0.000000   0.000000
     33          1.333537        1.333537   0.000000   0.000000
     34          1.434093        1.434093   0.000000   0.000000
     35          1.673597        1.673597   0.000000   0.000000
     36          1.832332        1.832332   0.000000   0.000000
     37          2.984144        2.984126   0.000000   0.000000
     38          3.641944        3.641934   0.000000   0.000000
     39          4.624851        4.624820   0.000000   0.000000
     40          4.852119        4.852051   0.000000   0.000000
     41          6.679981        6.679981   0.000000   0.000000
     42          6.845747        6.845747   0.000000   0.000000
     43          6.848974        6.848974   0.000000   0.000000
     44          7.072637        7.072557   0.000000   0.000000
     45          7.698819        7.698805   0.000000   0.000000
     46          7.755475        7.755471   0.000000   0.000000
     47          7.833847        7.833841   0.000000   0.000000
     48          7.888403        7.888404   0.000000   0.000000
 
 -0.8333333E-01  0.8333333E-01  0.0000000E+00  0.1388889E-01
      1        -19.632087      -19.632087   1.000000   1.000000
      2        -16.001968      -16.001968   1.000000   1.000000
      3        -15.038994      -15.038994   1.000000   1.000000
      4        -14.694121      -14.694121   1.000000   1.000000
      5        -14.693801      -14.693801   1.000000   1.000000
      6        -13.246788      -13.246788   1.000000   1.000000
      7        -13.246276      -13.246277   1.000000   1.000000
      8        -12.907251      -12.907251   1.000000   1.000000
      9        -12.312199      -12.312199   1.000000   1.000000
     10        -11.753303      -11.753303   1.000000   1.000000
     11        -11.251277      -11.251277   1.000000   1.000000
     12         -9.571147       -9.571147   1.000000   1.000000
     13         -9.430620       -9.430620   1.000000   1.000000
     14         -7.955414       -7.955415   1.000000   1.000000
     15         -7.353809       -7.353809   1.000000   1.000000
     16         -6.850323       -6.850323   1.000000   1.000000
     17         -6.848981       -6.848981   1.000000   1.000000
     18         -6.684773       -6.684773   1.000000   1.000000
     19         -6.626494       -6.626494   1.000000   1.000000
     20         -3.611343       -3.611343   1.000000   1.000000
     21         -3.531269       -3.531270   1.000000   1.000000
     22         -3.001701       -3.001701   1.000000   1.000000
     23         -2.787096       -2.787096   1.000000   1.000000
     24         -2.784440       -2.784440   1.000000   1.000000
     25         -2.107589       -2.107589   1.000000   1.000000
     26         -2.049539       -2.049539   1.000000   1.000000
     27         -0.911373       -0.911373   1.000000   1.000000
     28         -0.133895       -0.133895   0.128202   0.128202
     29          0.326930        0.326930   0.000000   0.000000
     30          0.837122        0.837122   0.000000   0.000000
     31          0.919860        0.919860   0.000000   0.000000
     32          1.194588        1.194588   0.000000   0.000000
     33          1.244121        1.244121   0.000000   0.000000
     34          1.454842        1.454842   0.000000   0.000000
     35          1.709993        1.709993   0.000000   0.000000
     36          1.837181        1.837180   0.000000   0.000000
     37          2.984365        2.984347   0.000000   0.000000
     38          3.641724        3.641714   0.000000   0.000000
     39          4.624340        4.624308   0.000000   0.000000
     40          4.851822        4.851754   0.000000   0.000000
     41          6.680687        6.680687   0.000000   0.000000
     42          6.845956        6.845956   0.000000   0.000000
     43          6.848091        6.848091   0.000000   0.000000
     44          7.072493        7.072414   0.000000   0.000000
     45          7.701512        7.701498   0.000000   0.000000
     46          7.748938        7.748934   0.000000   0.000000
     47          7.837335        7.837330   0.000000   0.000000
     48          7.888805        7.888804   0.000000   0.000000
 
  0.1666667E+00  0.2334682E-17  0.0000000E+00  0.2777778E-01
      1        -19.511255      -19.511255   1.000000   1.000000
      2        -15.906517      -15.906517   1.000000   1.000000
      3        -15.770388      -15.770388   1.000000   1.000000
      4        -14.932741      -14.932741   1.000000   1.000000
      5        -14.930110      -14.930110   1.000000   1.000000
      6        -12.848347      -12.848347   1.000000   1.000000
      7        -12.813499      -12.813499   1.000000   1.000000
      8        -12.811642      -12.811642   1.000000   1.000000
      9        -11.997092      -11.997092   1.000000   1.000000
     10        -11.831860      -11.831861   1.000000   1.000000
     11        -10.848061      -10.848061   1.000000   1.000000
     12         -9.611493       -9.611494   1.000000   1.000000
     13         -9.199410       -9.199410   1.000000   1.000000
     14         -7.805738       -7.805738   1.000000   1.000000
     15         -7.203444       -7.203444   1.000000   1.000000
     16         -7.202162       -7.202162   1.000000   1.000000
     17         -6.992852       -6.992852   1.000000   1.000000
     18         -6.566084       -6.566084   1.000000   1.000000
     19         -6.480375       -6.480375   1.000000   1.000000
     20         -4.089018       -4.089018   1.000000   1.000000
     21         -3.771571       -3.771571   1.000000   1.000000
     22         -3.601447       -3.601447   1.000000   1.000000
     23         -2.907039       -2.907039   1.000000   1.000000
     24         -2.860852       -2.860851   1.000000   1.000000
     25         -2.822397       -2.822397   1.000000   1.000000
     26         -2.689064       -2.689064   1.000000   1.000000
     27         -1.749398       -1.749398   1.000000   1.000000
     28         -0.480480       -0.480480   0.999917   0.999917
     29          0.200807        0.200807   0.000000   0.000000
     30          1.335332        1.335332   0.000000   0.000000
     31          1.492993        1.492993   0.000000   0.000000
     32          1.672213        1.672213   0.000000   0.000000
     33          1.848736        1.848736   0.000000   0.000000
     34          2.157703        2.157703   0.000000   0.000000
     35          2.327123        2.327123   0.000000   0.000000
     36          2.611909        2.611909   0.000000   0.000000
     37          3.164139        3.164121   0.000000   0.000000
     38          3.829791        3.829782   0.000000   0.000000
     39          4.908950        4.908865   0.000000   0.000000
     40          5.187840        5.187826   0.000000   0.000000
     41          6.743580        6.743580   0.000000   0.000000
     42          6.926675        6.926673   0.000000   0.000000
     43          7.226069        7.225990   0.000000   0.000000
     44          7.386989        7.386989   0.000000   0.000000
     45          7.390166        7.390165   0.000000   0.000000
     46          7.751976        7.751972   0.000000   0.000000
     47          7.862479        7.862477   0.000000   0.000000
     48          7.985222        7.985201   0.000000   0.000000
 
 -0.1666667E+00  0.1666667E+00  0.0000000E+00  0.1388889E-01
      1        -19.511253      -19.511253   1.000000   1.000000
      2        -15.906531      -15.906531   1.000000   1.000000
      3        -15.770312      -15.770312   1.000000   1.000000
      4        -14.931517      -14.931517   1.000000   1.000000
      5        -14.931360      -14.931360   1.000000   1.000000
      6        -12.847833      -12.847833   1.000000   1.000000
      7        -12.813368      -12.813368   1.000000   1.000000
      8        -12.812670      -12.812670   1.000000   1.000000
      9        -11.996853      -11.996853   1.000000   1.000000
     10        -11.832563      -11.832563   1.000000   1.000000
     11        -10.846151      -10.846151   1.000000   1.000000
     12         -9.612359       -9.612359   1.000000   1.000000
     13         -9.200232       -9.200232   1.000000   1.000000
     14         -7.805619       -7.805619   1.000000   1.000000
     15         -7.203152       -7.203152   1.000000   1.000000
     16         -7.202032       -7.202032   1.000000   1.000000
     17         -6.992472       -6.992472   1.000000   1.000000
     18         -6.566515       -6.566516   1.000000   1.000000
     19         -6.480361       -6.480361   1.000000   1.000000
     20         -4.088205       -4.088205   1.000000   1.000000
     21         -3.772420       -3.772420   1.000000   1.000000
     22         -3.595386       -3.595386   1.000000   1.000000
     23         -2.920243       -2.920243   1.000000   1.000000
     24         -2.875859       -2.875859   1.000000   1.000000
     25         -2.807263       -2.807263   1.000000   1.000000
     26         -2.684924       -2.684924   1.000000   1.000000
     27         -1.751020       -1.751020   1.000000   1.000000
     28         -0.483489       -0.483489   0.999930   0.999930
     29          0.233707        0.233706   0.000000   0.000000
     30          1.369011        1.369011   0.000000   0.000000
     31          1.451772        1.451772   0.000000   0.000000
     32          1.663163        1.663163   0.000000   0.000000
     33          1.797813        1.797813   0.000000   0.000000
     34          2.169240        2.169240   0.000000   0.000000
     35          2.346485        2.346485   0.000000   0.000000
     36          2.623800        2.623799   0.000000   0.000000
     37          3.165048        3.165030   0.000000   0.000000
     38          3.829245        3.829236   0.000000   0.000000
     39          4.908541        4.908456   0.000000   0.000000
     40          5.186126        5.186112   0.000000   0.000000
     41          6.743815        6.743815   0.000000   0.000000
     42          6.922722        6.922720   0.000000   0.000000
     43          7.227771        7.227694   0.000000   0.000000
     44          7.387545        7.387545   0.000000   0.000000
     45          7.388920        7.388920   0.000000   0.000000
     46          7.750135        7.750130   0.000000   0.000000
     47          7.861652        7.861647   0.000000   0.000000
     48          7.982437        7.982420   0.000000   0.000000
 
  0.2500000E+00  0.1280038E-16  0.0000000E+00  0.2777778E-01
      1        -19.310253      -19.310253   1.000000   1.000000
      2        -16.482336      -16.482336   1.000000   1.000000
      3        -15.749868      -15.749868   1.000000   1.000000
      4        -15.157716      -15.157716   1.000000   1.000000
      5        -15.154940      -15.154940   1.000000   1.000000
      6        -13.358545      -13.358545   1.000000   1.000000
      7        -12.273974      -12.273974   1.000000   1.000000
      8        -12.270693      -12.270693   1.000000   1.000000
      9        -11.926122      -11.926122   1.000000   1.000000
     10        -10.992916      -10.992916   1.000000   1.000000
     11        -10.696058      -10.696058   1.000000   1.000000
     12         -9.395065       -9.395065   1.000000   1.000000
     13         -8.867377       -8.867377   1.000000   1.000000
     14         -7.722146       -7.722146   1.000000   1.000000
     15         -7.720546       -7.720546   1.000000   1.000000
     16         -7.562950       -7.562950   1.000000   1.000000
     17         -6.620145       -6.620145   1.000000   1.000000
     18         -6.371900       -6.371900   1.000000   1.000000
     19         -6.241192       -6.241192   1.000000   1.000000
     20         -4.811438       -4.811438   1.000000   1.000000
     21         -4.304038       -4.304038   1.000000   1.000000
     22         -4.124370       -4.124370   1.000000   1.000000
     23         -3.659783       -3.659783   1.000000   1.000000
     24         -3.304199       -3.304199   1.000000   1.000000
     25         -2.984215       -2.984215   1.000000   1.000000
     26         -2.964797       -2.964797   1.000000   1.000000
     27         -2.558866       -2.558866   1.000000   1.000000
     28         -0.800368       -0.800368   1.000000   1.000000
     29          0.044094        0.044094   0.000130   0.000130
     30          1.689314        1.689314   0.000000   0.000000
     31          1.754844        1.754844   0.000000   0.000000
     32          2.524765        2.524765   0.000000   0.000000
     33          2.672676        2.672676   0.000000   0.000000
     34          3.123395        3.123394   0.000000   0.000000
     35          3.173277        3.173277   0.000000   0.000000
     36          3.348950        3.348941   0.000000   0.000000
     37          3.606643        3.606632   0.000000   0.000000
     38          4.128634        4.128626   0.000000   0.000000
     39          5.200502        5.200409   0.000000   0.000000
     40          5.759697        5.759694   0.000000   0.000000
     41          5.917747        5.917747   0.000000   0.000000
     42          6.838424        6.838424   0.000000   0.000000
     43          7.143670        7.143662   0.000000   0.000000
     44          7.466226        7.466154   0.000000   0.000000
     45          7.651100        7.651094   0.000000   0.000000
     46          7.755174        7.755168   0.000000   0.000000
     47          7.909343        7.909343   0.000000   0.000000
     48          8.007982        8.007962   0.000000   0.000000
 
 -0.2500000E+00  0.2500000E+00  0.0000000E+00  0.1388889E-01
      1        -19.310249      -19.310249   1.000000   1.000000
      2        -16.482309      -16.482309   1.000000   1.000000
      3        -15.749795      -15.749795   1.000000   1.000000
      4        -15.156401      -15.156401   1.000000   1.000000
      5        -15.156307      -15.156307   1.000000   1.000000
      6        -13.358705      -13.358705   1.000000   1.000000
      7        -12.272736      -12.272736   1.000000   1.000000
      8        -12.272422      -12.272422   1.000000   1.000000
      9        -11.926712      -11.926712   1.000000   1.000000
     10        -10.992616      -10.992616   1.000000   1.000000
     11        -10.693433      -10.693433   1.000000   1.000000
     12         -9.397143       -9.397143   1.000000   1.000000
     13         -8.868061       -8.868061   1.000000   1.000000
     14         -7.721523       -7.721523   1.000000   1.000000
     15         -7.720707       -7.720706   1.000000   1.000000
     16         -7.562710       -7.562710   1.000000   1.000000
     17         -6.619440       -6.619440   1.000000   1.000000
     18         -6.372363       -6.372363   1.000000   1.000000
     19         -6.241353       -6.241353   1.000000   1.000000
     20         -4.810735       -4.810735   1.000000   1.000000
     21         -4.299471       -4.299471   1.000000   1.000000
     22         -4.125145       -4.125145   1.000000   1.000000
     23         -3.666256       -3.666256   1.000000   1.000000
     24         -3.304866       -3.304866   1.000000   1.000000
     25         -2.986740       -2.986740   1.000000   1.000000
     26         -2.959970       -2.959971   1.000000   1.000000
     27         -2.562308       -2.562308   1.000000   1.000000
     28         -0.801698       -0.801698   1.000000   1.000000
     29          0.065895        0.065894   0.000037   0.000037
     30          1.700747        1.700747   0.000000   0.000000
     31          1.742321        1.742321   0.000000   0.000000
     32          2.517573        2.517573   0.000000   0.000000
     33          2.648635        2.648635   0.000000   0.000000
     34          3.115805        3.115805   0.000000   0.000000
     35          3.182873        3.182873   0.000000   0.000000
     36          3.358560        3.358552   0.000000   0.000000
     37          3.611352        3.611342   0.000000   0.000000
     38          4.127594        4.127586   0.000000   0.000000
     39          5.199630        5.199537   0.000000   0.000000
     40          5.760916        5.760912   0.000000   0.000000
     41          5.908955        5.908955   0.000000   0.000000
     42          6.836930        6.836929   0.000000   0.000000
     43          7.144731        7.144729   0.000000   0.000000
     44          7.465436        7.465353   0.000000   0.000000
     45          7.645504        7.645500   0.000000   0.000000
     46          7.762921        7.762914   0.000000   0.000000
     47          7.909614        7.909614   0.000000   0.000000
     48          8.009945        8.009929   0.000000   0.000000
 
  0.3333333E+00  0.2326607E-16  0.0000000E+00  0.2777778E-01
      1        -19.029659      -19.029659   1.000000   1.000000
      2        -17.135833      -17.135833   1.000000   1.000000
      3        -15.543032      -15.543032   1.000000   1.000000
      4        -15.330037      -15.330037   1.000000   1.000000
      5        -15.327025      -15.327025   1.000000   1.000000
      6        -13.827339      -13.827339   1.000000   1.000000
      7        -12.009590      -12.009590   1.000000   1.000000
      8        -11.687393      -11.687393   1.000000   1.000000
      9        -11.684401      -11.684401   1.000000   1.000000
     10        -10.735108      -10.735108   1.000000   1.000000
     11         -9.939564       -9.939564   1.000000   1.000000
     12         -8.952457       -8.952457   1.000000   1.000000
     13         -8.492174       -8.492174   1.000000   1.000000
     14         -8.325903       -8.325904   1.000000   1.000000
     15         -8.324396       -8.324396   1.000000   1.000000
     16         -7.228893       -7.228893   1.000000   1.000000
     17         -6.445668       -6.445668   1.000000   1.000000
     18         -6.106329       -6.106329   1.000000   1.000000
     19         -5.923371       -5.923371   1.000000   1.000000
     20         -5.706625       -5.706625   1.000000   1.000000
     21         -4.999810       -4.999810   1.000000   1.000000
     22         -4.539546       -4.539546   1.000000   1.000000
     23         -4.376028       -4.376028   1.000000   1.000000
     24         -3.682824       -3.682824   1.000000   1.000000
     25         -3.416961       -3.416961   1.000000   1.000000
     26         -3.062277       -3.062277   1.000000   1.000000
     27         -2.986920       -2.986920   1.000000   1.000000
     28         -1.037627       -1.037627   1.000000   1.000000
     29         -0.100883       -0.100883   0.054601   0.054601
     30          1.993761        1.993761   0.000000   0.000000
     31          2.019621        2.019621   0.000000   0.000000
     32          3.350092        3.350092   0.000000   0.000000
     33          3.574819        3.574819   0.000000   0.000000
     34          3.741902        3.741890   0.000000   0.000000
     35          4.064948        4.064948   0.000000   0.000000
     36          4.196353        4.196348   0.000000   0.000000
     37          4.396769        4.396761   0.000000   0.000000
     38          4.584256        4.584254   0.000000   0.000000
     39          4.996829        4.996829   0.000000   0.000000
     40          5.573479        5.573389   0.000000   0.000000
     41          6.079718        6.079712   0.000000   0.000000
     42          6.556376        6.556364   0.000000   0.000000
     43          6.959840        6.959840   0.000000   0.000000
     44          7.024005        7.024002   0.000000   0.000000
     45          7.159657        7.159648   0.000000   0.000000
     46          7.379808        7.379807   0.000000   0.000000
     47          7.657142        7.657132   0.000000   0.000000
     48          7.803220        7.803144   0.000000   0.000000
 
 -0.3333333E+00  0.3333333E+00  0.0000000E+00  0.1388889E-01
      1        -19.029651      -19.029651   1.000000   1.000000
      2        -17.135807      -17.135807   1.000000   1.000000
      3        -15.542892      -15.542892   1.000000   1.000000
      4        -15.328685      -15.328685   1.000000   1.000000
      5        -15.328444      -15.328444   1.000000   1.000000
      6        -13.827621      -13.827621   1.000000   1.000000
      7        -12.010625      -12.010625   1.000000   1.000000
      8        -11.686279      -11.686279   1.000000   1.000000
      9        -11.685634      -11.685634   1.000000   1.000000
     10        -10.732493      -10.732493   1.000000   1.000000
     11         -9.939265       -9.939265   1.000000   1.000000
     12         -8.955232       -8.955232   1.000000   1.000000
     13         -8.493111       -8.493111   1.000000   1.000000
     14         -8.324729       -8.324729   1.000000   1.000000
     15         -8.324514       -8.324514   1.000000   1.000000
     16         -7.228393       -7.228393   1.000000   1.000000
     17         -6.444216       -6.444216   1.000000   1.000000
     18         -6.106819       -6.106820   1.000000   1.000000
     19         -5.924044       -5.924044   1.000000   1.000000
     20         -5.706067       -5.706066   1.000000   1.000000
     21         -4.996619       -4.996619   1.000000   1.000000
     22         -4.540247       -4.540247   1.000000   1.000000
     23         -4.381728       -4.381728   1.000000   1.000000
     24         -3.680279       -3.680279   1.000000   1.000000
     25         -3.416491       -3.416491   1.000000   1.000000
     26         -3.057215       -3.057215   1.000000   1.000000
     27         -2.994976       -2.994976   1.000000   1.000000
     28         -1.038278       -1.038278   1.000000   1.000000
     29         -0.086022       -0.086022   0.034996   0.034997
     30          1.999974        1.999974   0.000000   0.000000
     31          2.019794        2.019794   0.000000   0.000000
     32          3.347465        3.347464   0.000000   0.000000
     33          3.561315        3.561315   0.000000   0.000000
     34          3.738395        3.738384   0.000000   0.000000
     35          4.067024        4.067024   0.000000   0.000000
     36          4.188023        4.188017   0.000000   0.000000
     37          4.406262        4.406255   0.000000   0.000000
     38          4.581009        4.581006   0.000000   0.000000
     39          4.984261        4.984261   0.000000   0.000000
     40          5.570128        5.570038   0.000000   0.000000
     41          6.086607        6.086600   0.000000   0.000000
     42          6.548910        6.548902   0.000000   0.000000
     43          6.964582        6.964581   0.000000   0.000000
     44          7.021935        7.021932   0.000000   0.000000
     45          7.157928        7.157918   0.000000   0.000000
     46          7.395697        7.395697   0.000000   0.000000
     47          7.655688        7.655679   0.000000   0.000000
     48          7.805493        7.805413   0.000000   0.000000
 
  0.4166667E+00  0.3011013E-16  0.0000000E+00  0.2777778E-01
      1        -18.670348      -18.670349   1.000000   1.000000
      2        -17.721156      -17.721156   1.000000   1.000000
      3        -15.436632      -15.436632   1.000000   1.000000
      4        -15.434523      -15.434523   1.000000   1.000000
      5        -15.313751      -15.313751   1.000000   1.000000
      6        -14.215868      -14.215868   1.000000   1.000000
      7        -12.064396      -12.064396   1.000000   1.000000
      8        -11.136849      -11.136849   1.000000   1.000000
      9        -11.133509      -11.133509   1.000000   1.000000
     10        -10.800189      -10.800189   1.000000   1.000000
     11         -8.902894       -8.902894   1.000000   1.000000
     12         -8.901304       -8.901304   1.000000   1.000000
     13         -8.859528       -8.859528   1.000000   1.000000
     14         -8.493798       -8.493798   1.000000   1.000000
     15         -8.161701       -8.161701   1.000000   1.000000
     16         -6.814154       -6.814154   1.000000   1.000000
     17         -6.710691       -6.710691   1.000000   1.000000
     18         -6.548310       -6.548310   1.000000   1.000000
     19         -5.776638       -5.776638   1.000000   1.000000
     20         -5.746737       -5.746737   1.000000   1.000000
     21         -5.448767       -5.448767   1.000000   1.000000
     22         -4.973367       -4.973367   1.000000   1.000000
     23         -4.913065       -4.913065   1.000000   1.000000