    8    8  128    1
  0.4338553E+02  0.5169000E-09  0.5169000E-09  0.1500000E-08  0.5000000E-15
  1.000000000000000E-004
  CAR 
 Lattice                                 
     30    181     24
 
  0.0000000E+00  0.0000000E+00  0.0000000E+00  0.2770083E-02
      1        -19.884769   1.000000
      2        -15.983178   1.000000
      3        -15.983004   1.000000
      4        -13.641824   1.000000
      5        -13.641771   1.000000
      6        -12.573305   1.000000
      7        -11.250067   1.000000
      8         -8.688688   1.000000
      9         -8.456641   1.000000
     10         -6.304363   1.000000
     11         -6.304179   1.000000
     12         -4.480748   1.000000
     13         -4.480660   1.000000
     14         -3.791969   0.999995
     15         -3.791778   0.999995
     16         -1.963914   0.000000
     17         -0.227784   0.000000
     18         -0.227750   0.000000
     19          0.431761   0.000000
     20          0.841351   0.000000
     21          1.844305   0.000000
     22          2.268544   0.000000
     23          4.234237   0.000000
     24          4.857233   0.000000
 
  0.5263158E-01  0.2144873E-17  0.0000000E+00  0.5540166E-02
      1        -19.873874   1.000000
      2        -16.038053   1.000000
      3        -16.000753   1.000000
      4        -13.656794   1.000000
      5        -13.601674   1.000000
      6        -12.519278   1.000000
      7        -11.184674   1.000000
      8         -8.672194   1.000000
      9         -8.479349   1.000000
     10         -6.354036   1.000000
     11         -6.314010   1.000000
     12         -4.531209   1.000000
     13         -4.489170   1.000000
     14         -3.849270   1.000000
     15         -3.819822   0.999999
     16         -2.056165   0.000000
     17         -0.203793   0.000000
     18         -0.089879   0.000000
     19          0.477968   0.000000
     20          0.862037   0.000000
     21          1.866730   0.000000
     22          2.289339   0.000000
     23          4.254660   0.000000
     24          4.879311   0.000000
 
  0.2144873E-17  0.5263158E-01  0.0000000E+00  0.5540166E-02
      1        -19.873874   1.000000
      2        -16.038015   1.000000
      3        -16.000790   1.000000
      4        -13.656824   1.000000
      5        -13.601644   1.000000
      6        -12.519277   1.000000
      7        -11.184675   1.000000
      8         -8.672194   1.000000
      9         -8.479349   1.000000
     10         -6.354015   1.000000
     11         -6.314031   1.000000
     12         -4.531179   1.000000
     13         -4.489201   1.000000
     14         -3.849306   1.000000
     15         -3.819786   0.999999
     16         -2.056167   0.000000
     17         -0.203764   0.000000
     18         -0.089905   0.000000
     19          0.477967   0.000000
     20          0.862037   0.000000
     21          1.866730   0.000000
     22          2.289339   0.000000
     23          4.254660   0.000000
     24          4.879311   0.000000
 
 -0.5263158E-01  0.5263158E-01  0.0000000E+00  0.5540166E-02
      1        -19.873874   1.000000
      2        -16.038159   1.000000
      3        -16.000648   1.000000
      4        -13.656776   1.000000
      5        -13.601687   1.000000
      6        -12.519285   1.000000
      7        -11.184672   1.000000
      8         -8.672194   1.000000
      9         -8.479350   1.000000
     10         -6.354163   1.000000
     11         -6.313883   1.000000
     12         -4.531252   1.000000
     13         -4.489126   1.000000
     14         -3.849425   1.000000
     15         -3.819666   0.999999
     16         -2.056172   0.000000
     17         -0.203781   0.000000
     18         -0.089874   0.000000
     19          0.477957   0.000000
     20          0.862037   0.000000
     21          1.866730   0.000000
     22          2.289339   0.000000
     23          4.254660   0.000000
     24          4.879309   0.000000
 
  0.1052632E+00  0.4289746E-17  0.0000000E+00  0.5540166E-02
      1        -19.841518   1.000000
      2        -16.188772   1.000000
      3        -16.049341   1.000000
      4        -13.704673   1.000000
      5        -13.486094   1.000000
      6        -12.358623   1.000000
      7        -10.998776   1.000000
      8         -8.622843   1.000000
      9         -8.549496   1.000000
     10         -6.499208   1.000000
     11         -6.337419   1.000000
     12         -4.677805   1.000000
     13         -4.513170   1.000000
     14         -4.018231   1.000000
     15         -3.901041   1.000000
     16         -2.260863   0.000000
     17         -0.133813   0.000000
     18          0.220782   0.000000
     19          0.640288   0.000000
     20          0.923996   0.000000
     21          1.934611   0.000000
     22          2.351665   0.000000
     23          4.315905   0.000000
     24          4.941534   0.000000
 
  0.4289746E-17  0.1052632E+00  0.0000000E+00  0.5540166E-02
      1        -19.841518   1.000000
      2        -16.188736   1.000000
      3        -16.049377   1.000000
      4        -13.704700   1.000000
      5        -13.486066   1.000000
      6        -12.358620   1.000000
      7        -10.998780   1.000000
      8         -8.622843   1.000000
      9         -8.549498   1.000000
     10         -6.499187   1.000000
     11         -6.337437   1.000000
     12         -4.677776   1.000000
     13         -4.513201   1.000000
     14         -4.018265   1.000000
     15         -3.901006   1.000000
     16         -2.260867   0.000000
     17         -0.133784   0.000000
     18          0.220765   0.000000
     19          0.640282   0.000000
     20          0.923996   0.000000
     21          1.934611   0.000000
     22          2.351665   0.000000
     23          4.315905   0.000000
     24          4.941535   0.000000
 
 -0.1052632E+00  0.1052632E+00  0.0000000E+00  0.5540166E-02
      1        -19.841517   1.000000
      2        -16.188875   1.000000
      3        -16.049240   1.000000
      4        -13.704646   1.000000
      5        -13.486102   1.000000
      6        -12.358646   1.000000
      7        -10.998768   1.000000
      8         -8.622842   1.000000
      9         -8.549499   1.000000
     10         -6.499335   1.000000
     11         -6.337289   1.000000
     12         -4.677844   1.000000
     13         -4.513127   1.000000
     14         -4.018380   1.000000
     15         -3.900890   1.000000
     16         -2.260884   0.000000
     17         -0.133800   0.000000
     18          0.220839   0.000000
     19          0.640238   0.000000
     20          0.923996   0.000000
     21          1.934608   0.000000
     22          2.351665   0.000000
     23          4.315905   0.000000
     24          4.941530   0.000000
 
  0.1578947E+00 -0.3161225E-17  0.0000000E+00  0.5540166E-02
      1        -19.788795   1.000000
      2        -16.403597   1.000000
      3        -16.118447   1.000000
      4        -13.781920   1.000000
      5        -13.307069   1.000000
      6        -12.104797   1.000000
      7        -10.714853   1.000000
      8         -8.671518   1.000000
      9         -8.541209   1.000000
     10         -6.728471   1.000000
     11         -6.360168   1.000000
     12         -4.905174   1.000000
     13         -4.549249   1.000000
     14         -4.288618   1.000000
     15         -4.028662   1.000000
     16         -2.482714   0.000000
     17         -0.025152   0.000000
     18          0.509890   0.000000
     19          0.995328   0.000000
     20          1.027004   0.000000
     21          2.050681   0.000000
     22          2.455394   0.000000
     23          4.417808   0.000000
     24          5.037474   0.000000
 
  0.1236970E-16  0.1578947E+00  0.0000000E+00  0.5540166E-02
      1        -19.788796   1.000000
      2        -16.403564   1.000000
      3        -16.118480   1.000000
      4        -13.781945   1.000000
      5        -13.307043   1.000000
      6        -12.104792   1.000000
      7        -10.714859   1.000000
      8         -8.671521   1.000000
      9         -8.541209   1.000000
     10         -6.728451   1.000000
     11         -6.360183   1.000000
     12         -4.905148   1.000000
     13         -4.549279   1.000000
     14         -4.288650   1.000000
     15         -4.028628   1.000000
     16         -2.482718   0.000000
     17         -0.025123   0.000000
     18          0.509885   0.000000
     19          0.995312   0.000000
     20          1.027004   0.000000
     21          2.050682   0.000000
     22          2.455394   0.000000
     23          4.417808   0.000000
     24          5.037475   0.000000
 
 -0.1578947E+00  0.1578947E+00  0.0000000E+00  0.5540166E-02
      1        -19.788793   1.000000
      2        -16.403699   1.000000
      3        -16.118350   1.000000
      4        -13.781887   1.000000
      5        -13.307071   1.000000
      6        -12.104834   1.000000
      7        -10.714838   1.000000
      8         -8.671524   1.000000
      9         -8.541208   1.000000
     10         -6.728600   1.000000
     11         -6.360035   1.000000
     12         -4.905210   1.000000
     13         -4.549207   1.000000
     14         -4.288758   1.000000
     15         -4.028520   1.000000
     16         -2.482745   0.000000
     17         -0.025137   0.000000
     18          0.509983   0.000000
     19          0.995256   0.000000
     20          1.027004   0.000000
     21          2.050674   0.000000
     22          2.455394   0.000000
     23          4.417808   0.000000
     24          5.037472   0.000000
 
  0.2105263E+00  0.2235032E-18  0.0000000E+00  0.5540166E-02
      1        -19.717790   1.000000
      2        -16.650776   1.000000
      3        -16.196332   1.000000
      4        -13.874218   1.000000
      5        -13.079303   1.000000
      6        -11.782722   1.000000
      7        -10.355670   1.000000
      8         -8.847474   1.000000
      9         -8.428441   1.000000
     10         -7.025477   1.000000
     11         -6.366280   1.000000
     12         -5.190891   1.000000
     13         -4.645925   1.000000
     14         -4.592569   1.000000
     15         -4.192038   1.000000
     16         -2.680042   0.000000
     17          0.112114   0.000000
     18          0.738027   0.000000
     19          1.170781   0.000000
     20          1.500222   0.000000
     21          2.225188   0.000000
     22          2.600373   0.000000
     23          4.559937   0.000000
     24          5.160395   0.000000
 
  0.2235032E-18  0.2105263E+00  0.0000000E+00  0.5540166E-02
      1        -19.717791   1.000000
      2        -16.650744   1.000000
      3        -16.196363   1.000000
      4        -13.874240   1.000000
      5        -13.079279   1.000000
      6        -11.782715   1.000000
      7        -10.355680   1.000000
      8         -8.847480   1.000000
      9         -8.428441   1.000000
     10         -7.025458   1.000000
     11         -6.366292   1.000000
     12         -5.190867   1.000000
     13         -4.645954   1.000000
     14         -4.592598   1.000000
     15         -4.192006   1.000000
     16         -2.680045   0.000000
     17          0.112142   0.000000
     18          0.738028   0.000000
     19          1.170781   0.000000
     20          1.500204   0.000000
     21          2.225189   0.000000
     22          2.600373   0.000000
     23          4.559937   0.000000
     24          5.160394   0.000000
 
 -0.2105263E+00  0.2105263E+00  0.0000000E+00  0.5540166E-02
      1        -19.717785   1.000000
      2        -16.650876   1.000000
      3        -16.196240   1.000000
      4        -13.874182   1.000000
      5        -13.079298   1.000000
      6        -11.782768   1.000000
      7        -10.355649   1.000000
      8         -8.847484   1.000000
      9         -8.428438   1.000000
     10         -7.025611   1.000000
     11         -6.366143   1.000000
     12         -5.190924   1.000000
     13         -4.646055   1.000000
     14         -4.592527   1.000000
     15         -4.191907   1.000000
     16         -2.680081   0.000000
     17          0.112130   0.000000
     18          0.738116   0.000000
     19          1.170781   0.000000
     20          1.500175   0.000000
     21          2.225169   0.000000
     22          2.600373   0.000000
     23          4.559937   0.000000
     24          5.160397   0.000000
 
  0.2631579E+00  0.1955091E-17  0.0000000E+00  0.5540166E-02
      1        -19.632038   1.000000
      2        -16.905112   1.000000
      3        -16.273056   1.000000
      4        -13.966778   1.000000
      5        -12.817846   1.000000
      6        -11.415796   1.000000
      7         -9.941181   1.000000
      8         -9.072294   1.000000
      9         -8.286538   1.000000
     10         -7.370721   1.000000
     11         -6.345139   1.000000
     12         -5.510152   1.000000
     13         -5.073558   1.000000
     14         -4.637859   1.000000
     15         -4.378422   1.000000
     16         -2.842167   0.000000
     17          0.264451   0.000000
     18          0.954277   0.000000
     19          1.355068   0.000000
     20          2.015056   0.000000
     21          2.501270   0.000000
     22          2.786473   0.000000
     23          4.740775   0.000000
     24          4.798134   0.000000
 
  0.1955091E-17  0.2631579E+00  0.0000000E+00  0.5540166E-02
      1        -19.632040   1.000000
      2        -16.905081   1.000000
      3        -16.273085   1.000000
      4        -13.966798   1.000000
      5        -12.817823   1.000000
      6        -11.415787   1.000000
      7         -9.941194   1.000000
      8         -9.072303   1.000000
      9         -8.286539   1.000000
     10         -7.370702   1.000000
     11         -6.345147   1.000000
     12         -5.510131   1.000000
     13         -5.073584   1.000000
     14         -4.637888   1.000000
     15         -4.378392   1.000000
     16         -2.842169   0.000000
     17          0.264479   0.000000
     18          0.954280   0.000000
     19          1.355069   0.000000
     20          2.015041   0.000000
     21          2.501269   0.000000
     22          2.786473   0.000000
     23          4.740775   0.000000
     24          4.798134   0.000000
 
 -0.2631579E+00  0.2631579E+00  0.0000000E+00  0.5540166E-02
      1        -19.632029   1.000000
      2        -16.905212   1.000000
      3        -16.272968   1.000000
      4        -13.966742   1.000000
      5        -12.817834   1.000000
      6        -11.415846   1.000000
      7         -9.941151   1.000000
      8         -9.072308   1.000000
      9         -8.286533   1.000000
     10         -7.370863   1.000000
     11         -6.344997   1.000000
     12         -5.510184   1.000000
     13         -5.073677   1.000000
     14         -4.637818   1.000000
     15         -4.378303   1.000000
     16         -2.842211   0.000000
     17          0.264469   0.000000
     18          0.954362   0.000000
     19          1.355068   0.000000
     20          2.015048   0.000000
     21          2.501222   0.000000
     22          2.786473   0.000000
     23          4.740778   0.000000
     24          4.798136   0.000000
 
  0.3157895E+00  0.3309539E-16  0.0000000E+00  0.5540166E-02
      1        -19.537354   1.000000
      2        -17.146626   1.000000
      3        -16.341314   1.000000
      4        -14.049201   1.000000
      5        -12.538827   1.000000
      6        -11.021151   1.000000
      7         -9.493943   1.000000
      8         -9.331224   1.000000
      9         -8.119282   1.000000
     10         -7.738905   1.000000
     11         -6.295273   1.000000
     12         -5.839618   1.000000
     13         -5.554520   1.000000
     14         -4.680244   1.000000
     15         -4.572805   1.000000
     16         -2.968837   0.000000
     17          0.416172   0.000000
     18          1.161978   0.000000
     19          1.579663   0.000000
     20          2.408955   0.000000
     21          2.966795   0.000000
     22          3.013604   0.000000
     23          4.263296   0.000000
     24          4.941337   0.000000
 
  0.3309539E-16  0.3157895E+00  0.0000000E+00  0.5540166E-02
      1        -19.537358   1.000000
      2        -17.146594   1.000000
      3        -16.341341   1.000000
      4        -14.049220   1.000000
      5        -12.538805   1.000000
      6        -11.021140   1.000000
      7         -9.493959   1.000000
      8         -9.331235   1.000000
      9         -8.119283   1.000000
     10         -7.738887   1.000000
     11         -6.295280   1.000000
     12         -5.839598   1.000000
     13         -5.554543   1.000000
     14         -4.680271   1.000000
     15         -4.572776   1.000000
     16         -2.968839   0.000000
     17          0.416200   0.000000
     18          1.161983   0.000000
     19          1.579664   0.000000
     20          2.408946   0.000000
     21          2.966788   0.000000
     22          3.013604   0.000000
     23          4.263297   0.000000
     24          4.941339   0.000000
 
 -0.3157895E+00  0.3157895E+00  0.0000000E+00  0.5540166E-02
      1        -19.537341   1.000000
      2        -17.146728   1.000000
      3        -16.341229   1.000000
      4        -14.049165   1.000000
      5        -12.538807   1.000000
      6        -11.021199   1.000000
      7         -9.493897   1.000000
      8         -9.331243   1.000000
      9         -8.119273   1.000000
     10         -7.739067   1.000000
     11         -6.295125   1.000000
     12         -5.839652   1.000000
     13         -5.554630   1.000000
     14         -4.680203   1.000000
     15         -4.572700   1.000000
     16         -2.968885   0.000000
     17          0.416192   0.000000
     18          1.162063   0.000000
     19          1.579663   0.000000
     20          2.408974   0.000000
     21          2.966728   0.000000
     22          3.013604   0.000000
     23          4.263298   0.000000
     24          4.941363   0.000000
 
  0.3684211E+00  0.3648012E-16  0.0000000E+00  0.5540166E-02
      1        -19.443096   1.000000
      2        -17.357016   1.000000
      3        -16.396113   1.000000
      4        -14.115081   1.000000
      5        -12.263183   1.000000
      6        -10.612182   1.000000
      7         -9.599227   1.000000
      8         -9.068006   1.000000
      9         -8.071678   1.000000
     10         -7.934434   1.000000
     11         -6.224469   1.000000
     12         -6.156818   1.000000
     13         -6.072099   1.000000
     14         -4.757535   1.000000
     15         -4.715767   1.000000
     16         -3.062038   0.000000
     17          0.550922   0.000000
     18          1.346150   0.000000
     19          1.844408   0.000000
     20          2.720111   0.000000
     21          3.281698   0.000000
     22          3.555059   0.000000
     23          3.763529   0.000000
     24          4.662989   0.000000
 
  0.3648012E-16  0.3684211E+00  0.0000000E+00  0.5540166E-02
      1        -19.443102   1.000000
      2        -17.356984   1.000000
      3        -16.396139   1.000000
      4        -14.115099   1.000000
      5        -12.263160   1.000000
      6        -10.612169   1.000000
      7         -9.599240   1.000000
      8         -9.068024   1.000000
      9         -8.071662   1.000000
     10         -7.934437   1.000000
     11         -6.224474   1.000000
     12         -6.156799   1.000000
     13         -6.072118   1.000000
     14         -4.757507   1.000000
     15         -4.715794   1.000000
     16         -3.062039   0.000000
     17          0.550950   0.000000
     18          1.346155   0.000000
     19          1.844409   0.000000
     20          2.720106   0.000000
     21          3.281698   0.000000
     22          3.555051   0.000000
     23          3.763530   0.000000
     24          4.662987   0.000000
 
 -0.3684211E+00  0.3684211E+00  0.0000000E+00  0.5540166E-02
      1        -19.443078   1.000000
      2        -17.357121   1.000000
      3        -16.396031   1.000000
      4        -14.115046   1.000000
      5        -12.263154   1.000000
      6        -10.612225   1.000000
      7         -9.599251   1.000000
      8         -9.067921   1.000000
      9         -8.071885   1.000000
     10         -7.934420   1.000000
     11         -6.224312   1.000000
     12         -6.156856   1.000000
     13         -6.072201   1.000000
     14         -4.757445   1.000000
     15         -4.715727   1.000000
     16         -3.062087   0.000000
     17          0.550944   0.000000
     18          1.346237   0.000000
     19          1.844408   0.000000
     20          2.720129   0.000000
     21          3.281698   0.000000
     22          3.554997   0.000000
     23          3.763530   0.000000
     24          4.663003   0.000000
 
  0.4210526E+00  0.4470063E-18  0.0000000E+00  0.5540166E-02
      1        -19.363484   1.000000
      2        -17.516623   1.000000
      3        -16.434218   1.000000
      4        -14.160679   1.000000
      5        -12.024120   1.000000
      6        -10.206231   1.000000
      7         -9.837307   1.000000
      8         -8.914817   1.000000
      9         -8.109212   1.000000
     10         -7.750744   1.000000
     11         -6.609283   1.000000
     12         -6.433432   1.000000
     13         -6.150291   1.000000
     14         -4.909902   1.000000
     15         -4.741113   1.000000
     16         -3.123393   0.000000
     17          0.652331   0.000000
     18          1.486398   0.000000
     19          2.149157   0.000000
     20          3.031854   0.000000
     21          3.301377   0.000000
     22          3.590705   0.000000
     23          4.018867   0.000000
     24          4.384658   0.000000
 
  0.4470063E-18  0.4210526E+00  0.0000000E+00  0.5540166E-02
      1        -19.363491   1.000000
      2        -17.516590   1.000000
      3        -16.434243   1.000000
      4        -14.160697   1.000000
      5        -12.024095   1.000000
      6        -10.206216   1.000000
      7         -9.837323   1.000000
      8         -8.914824   1.000000
      9         -8.109213   1.000000
     10         -7.750748   1.000000
     11         -6.609299   1.000000
     12         -6.433412   1.000000
     13         -6.150295   1.000000
     14         -4.909874   1.000000
     15         -4.741139   1.000000
     16         -3.123394   0.000000
     17          0.652358   0.000000
     18          1.486403   0.000000
     19          2.149157   0.000000
     20          3.031851   0.000000
     21          3.301378   0.000000
     22          3.590705   0.000000
     23          4.018866   0.000000
     24          4.384649   0.000000
 
 -0.4210526E+00  0.4210526E+00  0.0000000E+00  0.5540166E-02
      1        -19.363460   1.000000
      2        -17.516733   1.000000
      3        -16.434137   1.000000
      4        -14.160644   1.000000
      5        -12.024081   1.000000
      6        -10.206261   1.000000
      7         -9.837339   1.000000
      8         -8.914747   1.000000
      9         -8.109416   1.000000
     10         -7.750721   1.000000
     11         -6.609382   1.000000
     12         -6.433478   1.000000
     13         -6.150123   1.000000
     14         -4.909826   1.000000
     15         -4.741073   1.000000
     16         -3.123443   0.000000
     17          0.652354   0.000000
     18          1.486488   0.000000
     19          2.149157   0.000000
     20          3.031867   0.000000
     21          3.301378   0.000000
     22          3.590705   0.000000
     23          4.018848   0.000000
     24          4.384633   0.000000
 
  0.4736842E+00  0.2828103E-16  0.0000000E+00  0.5540166E-02
      1        -19.316510   1.000000
      2        -17.604312   1.000000
      3        -16.453714   1.000000
      4        -14.183934   1.000000
      5        -11.875714   1.000000
      6         -9.986526   1.000000
      7         -9.861749   1.000000
      8         -9.130529   1.000000
      9         -7.719813   1.000000
     10         -7.617056   1.000000
     11         -7.136859   1.000000
     12         -6.614917   1.000000
     13         -6.099986   1.000000
     14         -4.999820   1.000000
     15         -4.754292   1.000000
     16         -3.153842   0.000002
     17          0.706961   0.000000
     18          1.562808   0.000000
     19          2.493732   0.000000
     20          2.877938   0.000000
     21          3.367404   0.000000
     22          3.735975   0.000000
     23          3.940519   0.000000
     24          4.331056   0.000000
 
  0.2828103E-16  0.4736842E+00  0.0000000E+00  0.5540166E-02
      1        -19.316519   1.000000
      2        -17.604278   1.000000
      3        -16.453739   1.000000
      4        -14.183951   1.000000
      5        -11.875688   1.000000
      6         -9.986545   1.000000
      7         -9.861731   1.000000
      8         -9.130529   1.000000
      9         -7.719832   1.000000
     10         -7.617064   1.000000
     11         -7.136866   1.000000
     12         -6.614894   1.000000
     13         -6.099991   1.000000
     14         -4.999791   1.000000
     15         -4.754319   1.000000
     16         -3.153842   0.000002
     17          0.706988   0.000000
     18          1.562814   0.000000
     19          2.493732   0.000000
     20          2.877938   0.000000
     21          3.367401   0.000000
     22          3.735975   0.000000
     23          3.940518   0.000000
     24          4.331058   0.000000
 
 -0.4736842E+00  0.4736842E+00  0.0000000E+00  0.5540166E-02
      1        -19.316482   1.000000
      2        -17.604425   1.000000
      3        -16.453634   1.000000
      4        -14.183899   1.000000
      5        -11.875668   1.000000
      6         -9.986565   1.000000
      7         -9.861754   1.000000
      8         -9.130554   1.000000
      9         -7.719942   1.000000
     10         -7.617023   1.000000
     11         -7.136962   1.000000
     12         -6.614973   1.000000
     13         -6.099810   1.000000
     14         -4.999754   1.000000
     15         -4.754253   1.000000
     16         -3.153893   0.000002
     17          0.706984   0.000000
     18          1.562901   0.000000
     19          2.493732   0.000000
     20          2.877938   0.000000
     21          3.367407   0.000000
     22          3.735990   0.000000
     23          3.940519   0.000000
     24          4.331056   0.000000
 
  0.5263158E-01  0.5263158E-01  0.0000000E+00  0.5540166E-02
      1        -19.852247   1.000000
      2        -16.137890   1.000000
      3        -16.036990   1.000000
      4        -13.677430   1.000000
      5        -13.535701   1.000000
      6        -12.410427   1.000000
      7        -11.059363   1.000000
      8         -8.639267   1.000000
      9         -8.525900   1.000000
     10         -6.447329   1.000000
     11         -6.334565   1.000000
     12         -4.625748   1.000000
     13         -4.509937   1.000000
     14         -3.960908   1.000000
     15         -3.875971   1.000000
     16         -2.199663   0.000000
     17         -0.173169   0.000000
     18          0.153678   0.000000
     19          0.574855   0.000000
     20          0.903359   0.000000
     21          1.911836   0.000000
     22          2.330899   0.000000
     23          4.295496   0.000000
     24          4.922481   0.000000
 
 -0.5263158E-01  0.1052632E+00  0.0000000E+00  0.5540166E-02
      1        -19.852246   1.000000
      2        -16.138001   1.000000
      3        -16.036880   1.000000
      4        -13.677423   1.000000
      5        -13.535690   1.000000
      6        -12.410448   1.000000
      7        -11.059357   1.000000
      8         -8.639266   1.000000
      9         -8.525902   1.000000
     10         -6.447453   1.000000
     11         -6.334439   1.000000
     12         -4.625795   1.000000
     13         -4.509886   1.000000
     14         -3.961065   1.000000
     15         -3.875814   1.000000
     16         -2.199682   0.000000
     17         -0.173127   0.000000
     18          0.153680   0.000000
     19          0.574831   0.000000
     20          0.903359   0.000000
     21          1.911835   0.000000
     22          2.330899   0.000000
     23          4.295496   0.000000
     24          4.922477   0.000000
 
 -0.1052632E+00  0.5263158E-01  0.0000000E+00  0.5540166E-02
      1        -19.852246   1.000000
      2        -16.138039   1.000000
      3        -16.036842   1.000000
      4        -13.677395   1.000000
      5        -13.535718   1.000000
      6        -12.410451   1.000000
      7        -11.059354   1.000000
      8         -8.639266   1.000000
      9         -8.525901   1.000000
     10         -6.447476   1.000000
     11         -6.334418   1.000000
     12         -4.625825   1.000000
     13         -4.509855   1.000000
     14         -3.961030   1.000000
     15         -3.875850   1.000000
     16         -2.199679   0.000000
     17         -0.173158   0.000000
     18          0.153705   0.000000
     19          0.574832   0.000000
     20          0.903359   0.000000
     21          1.911835   0.000000
     22          2.330899   0.000000
     23          4.295496   0.000000
     24          4.922476   0.000000
 
  0.1052632E+00  0.5263158E-01  0.0000000E+00  0.5540166E-02
      1        -19.809685   1.000000
      2        -16.314178   1.000000
      3        -16.102935   1.000000
      4        -13.720753   1.000000
      5        -13.411649   1.000000
      6        -12.196843   1.000000
      7        -10.826138   1.000000