Lattice                                 
           1
     4.476485    2.584500    0.000000
    -4.476485    2.584500    0.000000
     0.000000    0.000000   15.000000
   B    C 
     2     6
Direct configuration=     1
   0.33835568  0.66919338  0.25000000
   0.67168550  0.33578412  0.25000000
   0.16393418  0.32096121  0.25000000
   0.32344383  0.16194918  0.25000000
   0.16445142  0.84350783  0.25000000
   0.84555675  0.16147694  0.25000000
   0.68650730  0.84304996  0.25000000
   0.84606136  0.68407339  0.25000000
Direct configuration=     2
   0.33826096  0.66913789  0.25000000
   0.67167031  0.33589161  0.25000000
   0.16281400  0.31804955  0.25000000
   0.32052413  0.16045110  0.25000000
   0.16295922  0.84489276  0.25000000
   0.84701511  0.16013919  0.25000000
   0.68957103  0.84455667  0.25000000
   0.84718125  0.68687723  0.25000000
Direct configuration=     3
   0.33832471  0.66917523  0.25000000
   0.67168053  0.33581927  0.25000000
   0.16356788  0.32000911  0.25000000
   0.32248909  0.16145931  0.25000000
   0.16396347  0.84396070  0.25000000
   0.84603363  0.16103950  0.25000000
   0.68750913  0.84354265  0.25000000
   0.84642756  0.68499024  0.25000000
Direct configuration=     4
   0.33832473  0.66917525  0.25000000
   0.67168054  0.33581924  0.25000000
   0.16356812  0.32000972  0.25000000
   0.32248971  0.16145963  0.25000000
   0.16396379  0.84396040  0.25000000
   0.84603332  0.16103978  0.25000000
   0.68750849  0.84354233  0.25000000
   0.84642732  0.68498964  0.25000000
Direct configuration=     5
   0.33835319  0.66917134  0.25000000
   0.67163668  0.33583227  0.25000000
   0.16358212  0.31999688  0.25000000
   0.32253777  0.16135880  0.25000000
   0.16380860  0.84385579  0.25000000
   0.84619374  0.16114554  0.25000000
   0.68746199  0.84363687  0.25000000
   0.84642191  0.68499851  0.25000000
Direct configuration=     6
   0.33834035  0.66917310  0.25000000
   0.67165646  0.33582639  0.25000000
   0.16357580  0.32000267  0.25000000
   0.32251609  0.16140428  0.25000000
   0.16387860  0.84390297  0.25000000
   0.84612138  0.16109784  0.25000000
   0.68748296  0.84359423  0.25000000
   0.84642435  0.68499451  0.25000000
Direct configuration=     7
   0.33833496  0.66916868  0.25000000
   0.67165609  0.33583401  0.25000000
   0.16365866  0.32000112  0.25000000
   0.32250893  0.16133298  0.25000000
   0.16382055  0.84383233  0.25000000
   0.84618098  0.16116841  0.25000000
   0.68749100  0.84366322  0.25000000
   0.84634483  0.68499526  0.25000000
Direct configuration=     8
   0.33832887  0.66916367  0.25000000
   0.67165567  0.33584263  0.25000000
   0.16375251  0.31999936  0.25000000
   0.32250081  0.16125222  0.25000000
   0.16375481  0.84375232  0.25000000
   0.84624847  0.16124834  0.25000000
   0.68750010  0.84374136  0.25000000
   0.84625477  0.68499610  0.25000000
Direct configuration=     9
   0.33833416  0.66916509  0.25000000
   0.67166634  0.33583189  0.25000000
   0.16374607  0.31999990  0.25000000
   0.32249985  0.16125049  0.25000000
   0.16375450  0.84374903  0.25000000
   0.84624398  0.16125073  0.25000000
   0.68749965  0.84374989  0.25000000
   0.84625145  0.68499898  0.25000000
