  15  15   0  16
  0.1913050E+02  0.4700000E-09  0.4700000E-09  0.1500000E-08  0.5000000E-15
  1.000000000000000E-004
  CAR 
 Lattice                                 
     15.86962729    -18.00622442  301      3.43945617      1.00000000
    -18.006  0.0000E+00  0.0000E+00  0.0000E+00  0.0000E+00
    -17.893  0.0000E+00  0.0000E+00  0.0000E+00  0.0000E+00
    -17.780  0.0000E+00  0.0000E+00  0.0000E+00  0.0000E+00
    -17.667  0.0000E+00  0.0000E+00  0.0000E+00  0.0000E+00
    -17.555  0.0000E+00  0.0000E+00  0.0000E+00  0.0000E+00
    -17.442  0.0000E+00  0.0000E+00  0.0000E+00  0.0000E+00
    -17.329  0.0000E+00  0.0000E+00  0.0000E+00  0.0000E+00
    -17.216  0.0000E+00  0.0000E+00  0.0000E+00  0.0000E+00
    -17.103  0.0000E+00  0.0000E+00  0.0000E+00  0.0000E+00
    -16.990  0.3353E-16  0.3353E-16  0.3786E-17  0.3786E-17
    -16.877  0.1742E-11  0.1741E-11  0.1967E-12  0.1966E-12
    -16.764  0.8306E-08  0.8305E-08  0.9381E-09  0.9380E-09
    -16.651  0.4053E-05  0.4053E-05  0.4586E-06  0.4586E-06
    -16.538  0.2310E-03  0.2310E-03  0.2654E-04  0.2654E-04
    -16.425  0.1951E-02  0.1951E-02  0.2468E-03  0.2468E-03
    -16.312  0.4186E-02  0.4186E-02  0.7195E-03  0.7195E-03
    -16.200  0.4535E-02  0.4535E-02  0.1232E-02  0.1232E-02
    -16.087  0.4854E-02  0.4854E-02  0.1780E-02  0.1780E-02
    -15.974  0.4239E-02  0.4239E-02  0.2258E-02  0.2258E-02
    -15.861  0.5399E-02  0.5399E-02  0.2868E-02  0.2868E-02
    -15.748  0.3772E-02  0.3772E-02  0.3294E-02  0.3294E-02
    -15.635  0.5118E-02  0.5118E-02  0.3872E-02  0.3872E-02
    -15.522  0.5389E-02  0.5389E-02  0.4480E-02  0.4480E-02
    -15.409  0.3178E-02  0.3178E-02  0.4839E-02  0.4839E-02
    -15.296  0.5340E-02  0.5340E-02  0.5442E-02  0.5442E-02
    -15.183  0.5828E-02  0.5828E-02  0.6100E-02  0.6100E-02
    -15.070  0.3729E-02  0.3729E-02  0.6521E-02  0.6521E-02
    -14.957  0.3348E-02  0.3348E-02  0.6899E-02  0.6899E-02
    -14.844  0.6761E-02  0.6761E-02  0.7663E-02  0.7663E-02
    -14.732  0.4939E-02  0.4939E-02  0.8221E-02  0.8221E-02
    -14.619  0.3889E-02  0.3889E-02  0.8660E-02  0.8660E-02
    -14.506  0.2985E-02  0.2985E-02  0.8997E-02  0.8997E-02
    -14.393  0.6417E-02  0.6417E-02  0.9721E-02  0.9721E-02
    -14.280  0.6520E-02  0.6520E-02  0.1046E-01  0.1046E-01
    -14.167  0.3346E-02  0.3346E-02  0.1084E-01  0.1084E-01
    -14.054  0.3477E-02  0.3477E-02  0.1123E-01  0.1123E-01
    -13.941  0.4287E-02  0.4287E-02  0.1171E-01  0.1171E-01
    -13.828  0.6749E-02  0.6749E-02  0.1247E-01  0.1247E-01
    -13.715  0.6078E-02  0.6078E-02  0.1316E-01  0.1316E-01
    -13.602  0.4042E-02  0.4042E-02  0.1362E-01  0.1362E-01
    -13.489  0.2177E-02  0.2177E-02  0.1386E-01  0.1386E-01
    -13.377  0.6891E-02  0.6891E-02  0.1464E-01  0.1464E-01
    -13.264  0.1259E-01  0.1259E-01  0.1606E-01  0.1606E-01
    -13.151  0.1335E-01  0.1335E-01  0.1757E-01  0.1757E-01
    -13.038  0.1266E-01  0.1266E-01  0.1900E-01  0.1900E-01
    -12.925  0.1384E-01  0.1384E-01  0.2056E-01  0.2056E-01
    -12.812  0.1662E-01  0.1662E-01  0.2244E-01  0.2244E-01
    -12.699  0.2080E-01  0.2080E-01  0.2479E-01  0.2479E-01
    -12.586  0.1431E-01  0.1431E-01  0.2640E-01  0.2640E-01
    -12.473  0.5276E-02  0.5276E-02  0.2700E-01  0.2700E-01
    -12.360  0.4197E-02  0.4197E-02  0.2747E-01  0.2747E-01
    -12.247  0.3851E-02  0.3851E-02  0.2791E-01  0.2791E-01
    -12.134  0.3713E-02  0.3713E-02  0.2833E-01  0.2833E-01
    -12.021  0.4079E-02  0.4079E-02  0.2879E-01  0.2879E-01
    -11.909  0.8530E-02  0.8530E-02  0.2975E-01  0.2975E-01
    -11.796  0.6984E-02  0.6984E-02  0.3054E-01  0.3054E-01
    -11.683  0.3719E-02  0.3719E-02  0.3096E-01  0.3096E-01
    -11.570  0.3676E-02  0.3676E-02  0.3138E-01  0.3138E-01
    -11.457  0.3682E-02  0.3682E-02  0.3179E-01  0.3179E-01
    -11.344  0.5123E-02  0.5123E-02  0.3237E-01  0.3237E-01
    -11.231  0.7012E-02  0.7012E-02  0.3316E-01  0.3316E-01
    -11.118  0.8400E-02  0.8400E-02  0.3411E-01  0.3411E-01
    -11.005  0.7738E-02  0.7738E-02  0.3498E-01  0.3498E-01
    -10.892  0.1124E-01  0.1124E-01  0.3625E-01  0.3625E-01
    -10.779  0.1503E-01  0.1503E-01  0.3795E-01  0.3795E-01
    -10.666  0.1367E-01  0.1367E-01  0.3949E-01  0.3949E-01
    -10.554  0.1411E-01  0.1411E-01  0.4109E-01  0.4109E-01
    -10.441  0.1518E-01  0.1518E-01  0.4280E-01  0.4280E-01
    -10.328  0.1054E-01  0.1054E-01  0.4399E-01  0.4399E-01
    -10.215  0.7310E-02  0.7310E-02  0.4482E-01  0.4482E-01
    -10.102  0.8590E-02  0.8590E-02  0.4579E-01  0.4579E-01
     -9.989  0.1378E-01  0.1378E-01  0.4734E-01  0.4734E-01
     -9.876  0.1681E-01  0.1681E-01  0.4924E-01  0.4924E-01
     -9.763  0.2293E-01  0.2293E-01  0.5183E-01  0.5183E-01
     -9.650  0.1884E-01  0.1884E-01  0.5396E-01  0.5396E-01
     -9.537  0.1482E-01  0.1482E-01  0.5563E-01  0.5563E-01
     -9.424  0.9846E-02  0.9846E-02  0.5674E-01  0.5674E-01
     -9.311  0.7192E-02  0.7192E-02  0.5756E-01  0.5756E-01
     -9.199  0.7498E-02  0.7498E-02  0.5840E-01  0.5840E-01
     -9.086  0.5385E-02  0.5385E-02  0.5901E-01  0.5901E-01
     -8.973  0.5841E-02  0.5841E-02  0.5967E-01  0.5967E-01
     -8.860  0.7161E-02  0.7161E-02  0.6048E-01  0.6048E-01
     -8.747  0.5909E-02  0.5909E-02  0.6115E-01  0.6115E-01
     -8.634  0.5525E-02  0.5525E-02  0.6177E-01  0.6177E-01
     -8.521  0.3628E-02  0.3628E-02  0.6218E-01  0.6218E-01
     -8.408  0.5805E-02  0.5805E-02  0.6284E-01  0.6284E-01
     -8.295  0.7975E-02  0.7975E-02  0.6374E-01  0.6374E-01
     -8.182  0.3493E-02  0.3493E-02  0.6413E-01  0.6413E-01
     -8.069  0.3402E-02  0.3402E-02  0.6451E-01  0.6451E-01
     -7.956  0.3482E-02  0.3482E-02  0.6491E-01  0.6491E-01
     -7.843  0.6329E-02  0.6329E-02  0.6562E-01  0.6562E-01
     -7.731  0.6301E-02  0.6301E-02  0.6633E-01  0.6633E-01
     -7.618  0.2937E-02  0.2937E-02  0.6667E-01  0.6667E-01
     -7.505  0.2571E-02  0.2571E-02  0.6696E-01  0.6696E-01
     -7.392  0.5558E-02  0.5558E-02  0.6758E-01  0.6758E-01
     -7.279  0.5476E-02  0.5476E-02  0.6820E-01  0.6820E-01
     -7.166  0.6179E-02  0.6179E-02  0.6890E-01  0.6890E-01
     -7.053  0.7835E-02  0.7835E-02  0.6978E-01  0.6978E-01
     -6.940  0.2667E-02  0.2667E-02  0.7009E-01  0.7009E-01
     -6.827  0.3932E-02  0.3932E-02  0.7053E-01  0.7053E-01
     -6.714  0.6522E-02  0.6522E-02  0.7127E-01  0.7127E-01
     -6.601  0.8859E-02  0.8859E-02  0.7227E-01  0.7227E-01
     -6.488  0.1276E-01  0.1276E-01  0.7371E-01  0.7371E-01
     -6.376  0.1414E-01  0.1414E-01  0.7530E-01  0.7530E-01
     -6.263  0.1390E-01  0.1390E-01  0.7687E-01  0.7687E-01
     -6.150  0.1872E-01  0.1872E-01  0.7899E-01  0.7899E-01
     -6.037  0.1781E-01  0.1781E-01  0.8100E-01  0.8100E-01
     -5.924  0.9121E-02  0.9121E-02  0.8203E-01  0.8203E-01
     -5.811  0.5551E-02  0.5551E-02  0.8266E-01  0.8266E-01
     -5.698  0.1703E-01  0.1703E-01  0.8458E-01  0.8458E-01
     -5.585  0.2386E-01  0.2386E-01  0.8727E-01  0.8727E-01
     -5.472  0.1070E-01  0.1070E-01  0.8848E-01  0.8848E-01
     -5.359  0.7616E-02  0.7616E-02  0.8934E-01  0.8934E-01
     -5.246  0.1386E-01  0.1386E-01  0.9091E-01  0.9091E-01
     -5.133  0.1607E-01  0.1607E-01  0.9272E-01  0.9272E-01
     -5.020  0.1274E-01  0.1274E-01  0.9416E-01  0.9416E-01
     -4.908  0.1094E-01  0.1094E-01  0.9540E-01  0.9540E-01
     -4.795  0.1785E-01  0.1785E-01  0.9741E-01  0.9741E-01
     -4.682  0.1839E-01  0.1839E-01  0.9949E-01  0.9949E-01
     -4.569  0.1409E-01  0.1409E-01  0.1011E+00  0.1011E+00
     -4.456  0.1638E-01  0.1638E-01  0.1029E+00  0.1029E+00
     -4.343  0.1902E-01  0.1902E-01  0.1051E+00  0.1051E+00
     -4.230  0.1582E-01  0.1582E-01  0.1069E+00  0.1069E+00
     -4.117  0.1677E-01  0.1677E-01  0.1088E+00  0.1088E+00
     -4.004  0.2401E-01  0.2401E-01  0.1115E+00  0.1115E+00
     -3.891  0.2187E-01  0.2187E-01  0.1139E+00  0.1139E+00
     -3.778  0.1755E-01  0.1755E-01  0.1159E+00  0.1159E+00
     -3.665  0.1866E-01  0.1866E-01  0.1180E+00  0.1180E+00
     -3.553  0.1742E-01  0.1742E-01  0.1200E+00  0.1200E+00
     -3.440  0.1450E-01  0.1450E-01  0.1216E+00  0.1216E+00
     -3.327  0.1506E-01  0.1506E-01  0.1233E+00  0.1233E+00
     -3.214  0.1372E-01  0.1372E-01  0.1249E+00  0.1249E+00
     -3.101  0.1444E-01  0.1444E-01  0.1265E+00  0.1265E+00
     -2.988  0.1636E-01  0.1636E-01  0.1284E+00  0.1284E+00
     -2.875  0.2376E-01  0.2376E-01  0.1310E+00  0.1310E+00
     -2.762  0.1633E-01  0.1633E-01  0.1329E+00  0.1329E+00
     -2.649  0.1051E-01  0.1051E-01  0.1341E+00  0.1341E+00
     -2.536  0.1238E-01  0.1238E-01  0.1355E+00  0.1355E+00
     -2.423  0.1497E-01  0.1497E-01  0.1372E+00  0.1372E+00
     -2.310  0.2170E-01  0.2170E-01  0.1396E+00  0.1396E+00
     -2.197  0.2145E-01  0.2145E-01  0.1420E+00  0.1420E+00
     -2.085  0.2120E-01  0.2120E-01  0.1444E+00  0.1444E+00
     -1.972  0.2730E-01  0.2730E-01  0.1475E+00  0.1475E+00
     -1.859  0.2889E-01  0.2889E-01  0.1508E+00  0.1508E+00
     -1.746  0.1823E-01  0.1823E-01  0.1528E+00  0.1528E+00
     -1.633  0.1485E-01  0.1485E-01  0.1545E+00  0.1545E+00
     -1.520  0.2053E-01  0.2053E-01  0.1568E+00  0.1568E+00
     -1.407  0.3405E-01  0.3405E-01  0.1607E+00  0.1607E+00
     -1.294  0.3422E-01  0.3422E-01  0.1645E+00  0.1645E+00
     -1.181  0.1889E-01  0.1889E-01  0.1667E+00  0.1667E+00
     -1.068  0.1518E-01  0.1518E-01  0.1684E+00  0.1684E+00
     -0.955  0.1453E-01  0.1453E-01  0.1700E+00  0.1700E+00
     -0.842  0.1385E-01  0.1385E-01  0.1716E+00  0.1716E+00
     -0.730  0.1376E-01  0.1376E-01  0.1731E+00  0.1731E+00
     -0.617  0.1088E-01  0.1088E-01  0.1744E+00  0.1744E+00
     -0.504  0.1093E-01  0.1093E-01  0.1756E+00  0.1756E+00
     -0.391  0.8417E-02  0.8417E-02  0.1766E+00  0.1766E+00
     -0.278  0.1676E-01  0.1676E-01  0.1784E+00  0.1784E+00
     -0.165  0.2584E-01  0.2584E-01  0.1814E+00  0.1814E+00
     -0.052  0.2672E-01  0.2672E-01  0.1844E+00  0.1844E+00
      0.061  0.1858E-01  0.1858E-01  0.1865E+00  0.1865E+00
      0.174  0.1480E-01  0.1480E-01  0.1882E+00  0.1882E+00
      0.287  0.1532E-01  0.1532E-01  0.1899E+00  0.1899E+00
      0.400  0.1649E-01  0.1649E-01  0.1917E+00  0.1917E+00
      0.513  0.2187E-01  0.2187E-01  0.1942E+00  0.1942E+00
      0.625  0.1867E-01  0.1867E-01  0.1963E+00  0.1963E+00
      0.738  0.1649E-01  0.1649E-01  0.1982E+00  0.1982E+00
      0.851  0.1160E-01  0.1160E-01  0.1995E+00  0.1995E+00
      0.964  0.1332E-01  0.1332E-01  0.2010E+00  0.2010E+00
      1.077  0.1353E-01  0.1353E-01  0.2025E+00  0.2025E+00
      1.190  0.1180E-01  0.1180E-01  0.2039E+00  0.2039E+00
      1.303  0.1737E-01  0.1737E-01  0.2058E+00  0.2058E+00
      1.416  0.9990E-02  0.9990E-02  0.2069E+00  0.2069E+00
      1.529  0.8034E-02  0.8034E-02  0.2079E+00  0.2079E+00
      1.642  0.7776E-02  0.7776E-02  0.2087E+00  0.2087E+00
      1.755  0.4379E-02  0.4379E-02  0.2092E+00  0.2092E+00
      1.868  0.3026E-02  0.3026E-02  0.2096E+00  0.2096E+00
      1.981  0.1166E-01  0.1166E-01  0.2109E+00  0.2109E+00
      2.093  0.1521E-01  0.1521E-01  0.2126E+00  0.2126E+00
      2.206  0.1068E-01  0.1068E-01  0.2138E+00  0.2138E+00
      2.319  0.8519E-02  0.8519E-02  0.2148E+00  0.2148E+00
      2.432  0.7942E-02  0.7942E-02  0.2157E+00  0.2157E+00
      2.545  0.6479E-02  0.6479E-02  0.2164E+00  0.2164E+00
      2.658  0.3968E-02  0.3968E-02  0.2168E+00  0.2168E+00
      2.771  0.7193E-02  0.7193E-02  0.2177E+00  0.2177E+00
      2.884  0.5102E-02  0.5102E-02  0.2182E+00  0.2182E+00
      2.997  0.2616E-02  0.2616E-02  0.2185E+00  0.2185E+00
      3.110  0.8934E-03  0.8934E-03  0.2186E+00  0.2186E+00
      3.223  0.1046E-03  0.1046E-03  0.2186E+00  0.2186E+00
      3.336  0.1936E-03  0.1936E-03  0.2187E+00  0.2187E+00
      3.448  0.8456E-03  0.8456E-03  0.2188E+00  0.2188E+00
      3.561  0.7475E-03  0.7475E-03  0.2188E+00  0.2188E+00
      3.674  0.1277E-03  0.1277E-03  0.2189E+00  0.2189E+00
      3.787  0.2954E-05  0.2955E-05  0.2189E+00  0.2189E+00
      3.900  0.7938E-05  0.7937E-05  0.2189E+00  0.2189E+00
      4.013  0.3987E-03  0.3987E-03  0.2189E+00  0.2189E+00
      4.126  0.2561E-02  0.2561E-02  0.2192E+00  0.2192E+00
      4.239  0.2511E-02  0.2511E-02  0.2195E+00  0.2195E+00
      4.352  0.1123E-02  0.1123E-02  0.2196E+00  0.2196E+00
      4.465  0.1535E-02  0.1535E-02  0.2198E+00  0.2198E+00
      4.578  0.7183E-03  0.7183E-03  0.2199E+00  0.2199E+00
      4.691  0.5223E-02  0.5223E-02  0.2204E+00  0.2204E+00
      4.804  0.2094E-01  0.2094E-01  0.2228E+00  0.2228E+00
      4.916  0.2040E-01  0.2040E-01  0.2251E+00  0.2251E+00
      5.029  0.1285E-01  0.1285E-01  0.2266E+00  0.2266E+00
      5.142  0.5541E-02  0.5540E-02  0.2272E+00  0.2272E+00
      5.255  0.5631E-02  0.5631E-02  0.2278E+00  0.2278E+00
      5.368  0.6483E-02  0.6483E-02  0.2286E+00  0.2286E+00
      5.481  0.9446E-02  0.9446E-02  0.2296E+00  0.2296E+00
      5.594  0.1574E-01  0.1574E-01  0.2314E+00  0.2314E+00
      5.707  0.1837E-01  0.1837E-01  0.2335E+00  0.2335E+00
      5.820  0.9772E-02  0.9772E-02  0.2346E+00  0.2346E+00
      5.933  0.5263E-02  0.5263E-02  0.2352E+00  0.2352E+00
      6.046  0.8283E-02  0.8283E-02  0.2361E+00  0.2361E+00
      6.159  0.9031E-02  0.9031E-02  0.2371E+00  0.2371E+00
      6.271  0.1117E-01  0.1117E-01  0.2384E+00  0.2384E+00
      6.384  0.1344E-01  0.1344E-01  0.2399E+00  0.2399E+00
      6.497  0.6454E-02  0.6454E-02  0.2406E+00  0.2406E+00
      6.610  0.5807E-02  0.5807E-02  0.2413E+00  0.2413E+00
      6.723  0.6658E-02  0.6658E-02  0.2420E+00  0.2420E+00
      6.836  0.9020E-02  0.9020E-02  0.2431E+00  0.2431E+00
      6.949  0.9657E-02  0.9658E-02  0.2442E+00  0.2442E+00
      7.062  0.8985E-02  0.8984E-02  0.2452E+00  0.2452E+00
      7.175  0.9828E-02  0.9828E-02  0.2463E+00  0.2463E+00
      7.288  0.7408E-02  0.7409E-02  0.2471E+00  0.2471E+00
      7.401  0.9521E-02  0.9519E-02  0.2482E+00  0.2482E+00
      7.514  0.1361E-01  0.1361E-01  0.2497E+00  0.2497E+00
      7.627  0.1875E-01  0.1875E-01  0.2518E+00  0.2518E+00
      7.739  0.1495E-01  0.1496E-01  0.2535E+00  0.2535E+00
      7.852  0.1935E-01  0.1935E-01  0.2557E+00  0.2557E+00
      7.965  0.2191E-01  0.2191E-01  0.2582E+00  0.2582E+00
      8.078  0.1740E-01  0.1740E-01  0.2602E+00  0.2602E+00
      8.191  0.2150E-01  0.2150E-01  0.2626E+00  0.2626E+00
      8.304  0.2194E-01  0.2194E-01  0.2651E+00  0.2651E+00
      8.417  0.2072E-01  0.2072E-01  0.2674E+00  0.2674E+00
      8.530  0.2369E-01  0.2369E-01  0.2701E+00  0.2701E+00
      8.643  0.1420E-01  0.1421E-01  0.2717E+00  0.2717E+00
      8.756  0.8626E-02  0.8627E-02  0.2727E+00  0.2727E+00
      8.869  0.1462E-01  0.1462E-01  0.2743E+00  0.2743E+00
      8.982  0.2005E-01  0.2005E-01  0.2766E+00  0.2766E+00
      9.094  0.2361E-01  0.2361E-01  0.2792E+00  0.2792E+00
      9.207  0.1788E-01  0.1788E-01  0.2813E+00  0.2813E+00
      9.320  0.1919E-01  0.1919E-01  0.2834E+00  0.2834E+00
      9.433  0.1619E-01  0.1619E-01  0.2852E+00  0.2852E+00
      9.546  0.2084E-01  0.2084E-01  0.2876E+00  0.2876E+00
      9.659  0.1202E-01  0.1202E-01  0.2890E+00  0.2890E+00
      9.772  0.8817E-02  0.8816E-02  0.2900E+00  0.2900E+00
      9.885  0.1041E-01  0.1042E-01  0.2911E+00  0.2911E+00
      9.998  0.1213E-01  0.1213E-01  0.2925E+00  0.2925E+00
     10.111  0.1959E-01  0.1959E-01  0.2947E+00  0.2947E+00
     10.224  0.1419E-01  0.1420E-01  0.2963E+00  0.2963E+00
     10.337  0.1182E-01  0.1182E-01  0.2977E+00  0.2977E+00
     10.449  0.1657E-01  0.1657E-01  0.2995E+00  0.2995E+00
     10.562  0.2091E-01  0.2091E-01  0.3019E+00  0.3019E+00
     10.675  0.1394E-01  0.1394E-01  0.3035E+00  0.3035E+00
     10.788  0.1222E-01  0.1222E-01  0.3048E+00  0.3048E+00
     10.901  0.1942E-01  0.1942E-01  0.3070E+00  0.3070E+00
     11.014  0.1740E-01  0.1740E-01  0.3090E+00  0.3090E+00
     11.127  0.1696E-01  0.1696E-01  0.3109E+00  0.3109E+00
     11.240  0.1621E-01  0.1621E-01  0.3127E+00  0.3127E+00
     11.353  0.1197E-01  0.1197E-01  0.3141E+00  0.3141E+00
     11.466  0.1725E-01  0.1725E-01  0.3160E+00  0.3160E+00
     11.579  0.1907E-01  0.1908E-01  0.3182E+00  0.3182E+00
     11.692  0.2379E-01  0.2380E-01  0.3209E+00  0.3209E+00
     11.805  0.2346E-01  0.2346E-01  0.3235E+00  0.3235E+00
     11.917  0.1527E-01  0.1527E-01  0.3253E+00  0.3253E+00
     12.030  0.1976E-01  0.1976E-01  0.3275E+00  0.3275E+00
     12.143  0.2785E-01  0.2786E-01  0.3306E+00  0.3306E+00
     12.256  0.3154E-01  0.3155E-01  0.3342E+00  0.3342E+00
     12.369  0.2953E-01  0.2953E-01  0.3375E+00  0.3375E+00
     12.482  0.2300E-01  0.2300E-01  0.3401E+00  0.3401E+00
     12.595  0.1910E-01  0.1910E-01  0.3423E+00  0.3423E+00
     12.708  0.2109E-01  0.2109E-01  0.3447E+00  0.3447E+00
     12.821  0.2485E-01  0.2485E-01  0.3475E+00  0.3475E+00
     12.934  0.2448E-01  0.2448E-01  0.3502E+00  0.3502E+00
     13.047  0.2888E-01  0.2888E-01  0.3535E+00  0.3535E+00
     13.160  0.2616E-01  0.2617E-01  0.3564E+00  0.3564E+00
     13.272  0.2122E-01  0.2122E-01  0.3588E+00  0.3588E+00
     13.385  0.2111E-01  0.2110E-01  0.3612E+00  0.3612E+00
     13.498  0.1944E-01  0.1944E-01  0.3634E+00  0.3634E+00
     13.611  0.1621E-01  0.1621E-01  0.3653E+00  0.3653E+00
     13.724  0.1551E-01  0.1551E-01  0.3670E+00  0.3670E+00
     13.837  0.1801E-01  0.1801E-01  0.3690E+00  0.3690E+00
     13.950  0.1593E-01  0.1593E-01  0.3708E+00  0.3708E+00
     14.063  0.1047E-01  0.1047E-01  0.3720E+00  0.3720E+00
     14.176  0.8919E-02  0.8920E-02  0.3730E+00  0.3730E+00
     14.289  0.1036E-01  0.1035E-01  0.3742E+00  0.3742E+00
     14.402  0.6290E-02  0.6288E-02  0.3749E+00  0.3749E+00
     14.515  0.8360E-03  0.8359E-03  0.3750E+00  0.3750E+00
     14.628  0.1616E-04  0.1615E-04  0.3750E+00  0.3750E+00
     14.740  0.3530E-07  0.3528E-07  0.3750E+00  0.3750E+00
     14.853  0.7411E-11  0.7403E-11  0.3750E+00  0.3750E+00
     14.966  0.1364E-15  0.1364E-15  0.3750E+00  0.3750E+00
     15.079  0.0000E+00  0.0000E+00  0.3750E+00  0.3750E+00
     15.192  0.0000E+00  0.0000E+00  0.3750E+00  0.3750E+00
     15.305  0.0000E+00  0.0000E+00  0.3750E+00  0.3750E+00
     15.418  0.0000E+00  0.0000E+00  0.3750E+00  0.3750E+00
     15.531  0.0000E+00  0.0000E+00  0.3750E+00  0.3750E+00
     15.644  0.0000E+00  0.0000E+00  0.3750E+00  0.3750E+00
     15.757  0.0000E+00  0.0000E+00  0.3750E+00  0.3750E+00
     15.870  0.0000E+00  0.0000E+00  0.3750E+00  0.3750E+00
