  15  15   1  16
  0.2033749E+02  0.4846000E-09  0.4846000E-09  0.1500000E-08  0.5000000E-15
  1.000000000000000E-004
  CAR 
 BS                                      
     10.40568561    -21.70034155  301     -0.32304730      1.00000000
    -21.700  0.0000E+00  0.0000E+00
    -21.593  0.0000E+00  0.0000E+00
    -21.486  0.0000E+00  0.0000E+00
    -21.379  0.0000E+00  0.0000E+00
    -21.272  0.0000E+00  0.0000E+00
    -21.165  0.0000E+00  0.0000E+00
    -21.058  0.0000E+00  0.0000E+00
    -20.951  0.0000E+00  0.0000E+00
    -20.844  0.0000E+00  0.0000E+00
    -20.737  0.1029E-11  0.1101E-12
    -20.630  0.1869E-07  0.2001E-08
    -20.523  0.3770E-04  0.4036E-05
    -20.416  0.8954E-02  0.9623E-03
    -20.309  0.2809E+00  0.3102E-01
    -20.202  0.1436E+01  0.1847E+00
    -20.095  0.1777E+01  0.3750E+00
    -19.988  0.1210E+01  0.5044E+00
    -19.881  0.9238E+00  0.6033E+00
    -19.774  0.7849E+00  0.6873E+00
    -19.667  0.6963E+00  0.7618E+00
    -19.560  0.6330E+00  0.8295E+00
    -19.453  0.5846E+00  0.8921E+00
    -19.346  0.5461E+00  0.9505E+00
    -19.239  0.5146E+00  0.1006E+01
    -19.132  0.4880E+00  0.1058E+01
    -19.025  0.4653E+00  0.1108E+01
    -18.918  0.4548E+00  0.1156E+01
    -18.811  0.8017E+00  0.1242E+01
    -18.704  0.2798E+01  0.1542E+01
    -18.597  0.3834E+01  0.1952E+01
    -18.490  0.2773E+01  0.2249E+01
    -18.383  0.2158E+01  0.2480E+01
    -18.276  0.1880E+01  0.2681E+01
    -18.169  0.1569E+01  0.2849E+01
    -18.062  0.1190E+01  0.2976E+01
    -17.955  0.1054E+01  0.3089E+01
    -17.848  0.1003E+01  0.3196E+01
    -17.741  0.9629E+00  0.3299E+01
    -17.634  0.9286E+00  0.3399E+01
    -17.527  0.9409E+00  0.3499E+01
    -17.420  0.1583E+01  0.3669E+01
    -17.313  0.2997E+01  0.3990E+01
    -17.205  0.2834E+01  0.4293E+01
    -17.098  0.2279E+01  0.4537E+01
    -16.991  0.2100E+01  0.4762E+01
    -16.884  0.2433E+01  0.5022E+01
    -16.777  0.4358E+01  0.5488E+01
    -16.670  0.5026E+01  0.6026E+01
    -16.563  0.2075E+01  0.6248E+01
    -16.456  0.7997E+00  0.6334E+01
    -16.349  0.7069E+00  0.6409E+01
    -16.242  0.6957E+00  0.6484E+01
    -16.135  0.6863E+00  0.6557E+01
    -16.028  0.6793E+00  0.6630E+01
    -15.921  0.7788E+00  0.6713E+01
    -15.814  0.1735E+01  0.6899E+01
    -15.707  0.2773E+01  0.7196E+01
    -15.600  0.2245E+01  0.7436E+01
    -15.493  0.1793E+01  0.7628E+01
    -15.386  0.1605E+01  0.7800E+01
    -15.279  0.1504E+01  0.7961E+01
    -15.172  0.1453E+01  0.8116E+01
    -15.065  0.1653E+01  0.8293E+01
    -14.958  0.3112E+01  0.8626E+01
    -14.851  0.4467E+01  0.9104E+01
    -14.744  0.4940E+01  0.9633E+01
    -14.637  0.4674E+01  0.1013E+02
    -14.530  0.3326E+01  0.1049E+02
    -14.423  0.2620E+01  0.1077E+02
    -14.316  0.2353E+01  0.1102E+02
    -14.209  0.2231E+01  0.1126E+02
    -14.102  0.2200E+01  0.1150E+02
    -13.995  0.2366E+01  0.1175E+02
    -13.888  0.3821E+01  0.1216E+02
    -13.781  0.6255E+01  0.1283E+02
    -13.674  0.5729E+01  0.1344E+02
    -13.567  0.5396E+01  0.1402E+02
    -13.460  0.5055E+01  0.1456E+02
    -13.353  0.2681E+01  0.1485E+02
    -13.246  0.1696E+01  0.1503E+02
    -13.139  0.1638E+01  0.1520E+02
    -13.032  0.1738E+01  0.1539E+02
    -12.925  0.1855E+01  0.1559E+02
    -12.818  0.1781E+01  0.1578E+02
    -12.711  0.1277E+01  0.1591E+02
    -12.604  0.1042E+01  0.1603E+02
    -12.497  0.1011E+01  0.1613E+02
    -12.390  0.9962E+00  0.1624E+02
    -12.283  0.9828E+00  0.1635E+02
    -12.176  0.9710E+00  0.1645E+02
    -12.069  0.9607E+00  0.1655E+02
    -11.962  0.9519E+00  0.1665E+02
    -11.854  0.9447E+00  0.1676E+02
    -11.747  0.9393E+00  0.1686E+02
    -11.640  0.9362E+00  0.1696E+02
    -11.533  0.9359E+00  0.1706E+02
    -11.426  0.9421E+00  0.1716E+02
    -11.319  0.1049E+01  0.1727E+02
    -11.212  0.1633E+01  0.1744E+02
    -11.105  0.2033E+01  0.1766E+02
    -10.998  0.1962E+01  0.1787E+02
    -10.891  0.1814E+01  0.1807E+02
    -10.784  0.1296E+01  0.1820E+02
    -10.677  0.1580E+01  0.1837E+02
    -10.570  0.2724E+01  0.1867E+02
    -10.463  0.2926E+01  0.1898E+02
    -10.356  0.3259E+01  0.1933E+02
    -10.249  0.3195E+01  0.1967E+02
    -10.142  0.2753E+01  0.1996E+02
    -10.035  0.2033E+01  0.2018E+02
     -9.928  0.2283E+01  0.2043E+02
     -9.821  0.2909E+01  0.2074E+02
     -9.714  0.2820E+01  0.2104E+02
     -9.607  0.3249E+01  0.2139E+02
     -9.500  0.4093E+01  0.2182E+02
     -9.393  0.4956E+01  0.2235E+02
     -9.286  0.4234E+01  0.2281E+02
     -9.179  0.3597E+01  0.2319E+02
     -9.072  0.3509E+01  0.2357E+02
     -8.965  0.3014E+01  0.2389E+02
     -8.858  0.2542E+01  0.2416E+02
     -8.751  0.2454E+01  0.2443E+02
     -8.644  0.2457E+01  0.2469E+02
     -8.537  0.2515E+01  0.2496E+02
     -8.430  0.2982E+01  0.2528E+02
     -8.323  0.4351E+01  0.2574E+02
     -8.216  0.5284E+01  0.2631E+02
     -8.109  0.5456E+01  0.2689E+02
     -8.002  0.4918E+01  0.2742E+02
     -7.895  0.6110E+01  0.2807E+02
     -7.788  0.8811E+01  0.2902E+02
     -7.681  0.6505E+01  0.2971E+02
     -7.574  0.3518E+01  0.3009E+02
     -7.467  0.2326E+01  0.3034E+02
     -7.360  0.2017E+01  0.3055E+02
     -7.253  0.2005E+01  0.3077E+02
     -7.146  0.2753E+01  0.3106E+02
     -7.039  0.5168E+01  0.3161E+02
     -6.932  0.6643E+01  0.3233E+02
     -6.825  0.7261E+01  0.3310E+02
     -6.718  0.5634E+01  0.3371E+02
     -6.611  0.5636E+01  0.3431E+02
     -6.503  0.6255E+01  0.3498E+02
     -6.396  0.5783E+01  0.3560E+02
     -6.289  0.5416E+01  0.3618E+02
     -6.182  0.6156E+01  0.3684E+02
     -6.075  0.5655E+01  0.3744E+02
     -5.968  0.5237E+01  0.3800E+02
     -5.861  0.5375E+01  0.3858E+02
     -5.754  0.4945E+01  0.3911E+02
     -5.647  0.5166E+01  0.3966E+02
     -5.540  0.6449E+01  0.4035E+02
     -5.433  0.8488E+01  0.4126E+02
     -5.326  0.7647E+01  0.4208E+02
     -5.219  0.4785E+01  0.4259E+02
     -5.112  0.2980E+01  0.4291E+02
     -5.005  0.1923E+01  0.4311E+02
     -4.898  0.1708E+01  0.4330E+02
     -4.791  0.1664E+01  0.4347E+02
     -4.684  0.1645E+01  0.4365E+02
     -4.577  0.1644E+01  0.4383E+02
     -4.470  0.1914E+01  0.4403E+02
     -4.363  0.3239E+01  0.4438E+02
     -4.256  0.3750E+01  0.4478E+02
     -4.149  0.3578E+01  0.4516E+02
     -4.042  0.4124E+01  0.4560E+02
     -3.935  0.5567E+01  0.4620E+02
     -3.828  0.5753E+01  0.4681E+02
     -3.721  0.4135E+01  0.4726E+02
     -3.614  0.3812E+01  0.4766E+02
     -3.507  0.4420E+01  0.4814E+02
     -3.400  0.5006E+01  0.4867E+02
     -3.293  0.5683E+01  0.4928E+02
     -3.186  0.6035E+01  0.4993E+02
     -3.079  0.5829E+01  0.5055E+02
     -2.972  0.5827E+01  0.5117E+02
     -2.865  0.6445E+01  0.5186E+02
     -2.758  0.5592E+01  0.5246E+02
     -2.651  0.2939E+01  0.5278E+02
     -2.544  0.1718E+01  0.5296E+02
     -2.437  0.1618E+01  0.5313E+02
     -2.330  0.1376E+01  0.5328E+02
     -2.223  0.9594E+00  0.5338E+02
     -2.116  0.1134E+01  0.5351E+02
     -2.009  0.1651E+01  0.5368E+02
     -1.902  0.2310E+01  0.5393E+02
     -1.795  0.2279E+01  0.5417E+02
     -1.688  0.1711E+01  0.5436E+02
     -1.581  0.1492E+01  0.5452E+02
     -1.474  0.1418E+01  0.5467E+02
     -1.367  0.1393E+01  0.5482E+02
     -1.260  0.1403E+01  0.5497E+02
     -1.152  0.1459E+01  0.5512E+02
     -1.045  0.1619E+01  0.5530E+02
     -0.938  0.2061E+01  0.5552E+02
     -0.831  0.2040E+01  0.5574E+02
     -0.724  0.8619E+00  0.5583E+02
     -0.617  0.4197E+00  0.5587E+02
     -0.510  0.3997E+00  0.5592E+02
     -0.403  0.4232E+00  0.5596E+02
     -0.296  0.4913E+00  0.5601E+02
     -0.189  0.4600E+00  0.5606E+02
     -0.082  0.4115E+00  0.5611E+02
      0.025  0.4075E+00  0.5615E+02
      0.132  0.4098E+00  0.5619E+02
      0.239  0.4139E+00  0.5624E+02
      0.346  0.4200E+00  0.5628E+02
      0.453  0.4291E+00  0.5633E+02
      0.560  0.4489E+00  0.5638E+02
      0.667  0.7172E+00  0.5645E+02
      0.774  0.2027E+01  0.5667E+02
      0.881  0.3044E+01  0.5700E+02
      0.988  0.4334E+01  0.5746E+02
      1.095  0.4557E+01  0.5795E+02
      1.202  0.2365E+01  0.5820E+02
      1.309  0.1787E+01  0.5839E+02
      1.416  0.2276E+01  0.5864E+02
      1.523  0.2697E+01  0.5892E+02
      1.630  0.3871E+01  0.5934E+02
      1.737  0.3670E+01  0.5973E+02
      1.844  0.2745E+01  0.6003E+02
      1.951  0.2406E+01  0.6028E+02
      2.058  0.2440E+01  0.6054E+02
      2.165  0.2734E+01  0.6084E+02
      2.272  0.2667E+01  0.6112E+02
      2.379  0.2586E+01  0.6140E+02
      2.486  0.2740E+01  0.6169E+02
      2.593  0.3230E+01  0.6204E+02
      2.700  0.3064E+01  0.6237E+02
      2.807  0.1953E+01  0.6257E+02
      2.914  0.2292E+01  0.6282E+02
      3.021  0.2652E+01  0.6310E+02
      3.128  0.2158E+01  0.6333E+02
      3.235  0.1883E+01  0.6354E+02
      3.342  0.1770E+01  0.6373E+02
      3.449  0.2119E+01  0.6395E+02
      3.556  0.3782E+01  0.6436E+02
      3.663  0.5324E+01  0.6493E+02
      3.770  0.6201E+01  0.6559E+02
      3.877  0.6117E+01  0.6625E+02
      3.984  0.5578E+01  0.6684E+02
      4.092  0.5413E+01  0.6742E+02
      4.199  0.5540E+01  0.6801E+02
      4.306  0.4464E+01  0.6849E+02
      4.413  0.4026E+01  0.6892E+02
      4.520  0.5285E+01  0.6949E+02
      4.627  0.7170E+01  0.7026E+02
      4.734  0.7610E+01  0.7107E+02
      4.841  0.6024E+01  0.7172E+02
      4.948  0.5349E+01  0.7229E+02
      5.055  0.7288E+01  0.7307E+02
      5.162  0.7666E+01  0.7389E+02
      5.269  0.5491E+01  0.7448E+02
      5.376  0.4220E+01  0.7493E+02
      5.483  0.4124E+01  0.7537E+02
      5.590  0.5233E+01  0.7593E+02
      5.697  0.5841E+01  0.7655E+02
      5.804  0.6226E+01  0.7722E+02
      5.911  0.4943E+01  0.7775E+02
      6.018  0.4428E+01  0.7822E+02
      6.125  0.5596E+01  0.7882E+02
      6.232  0.5553E+01  0.7942E+02
      6.339  0.4377E+01  0.7988E+02
      6.446  0.4486E+01  0.8036E+02
      6.553  0.5572E+01  0.8096E+02
      6.660  0.6609E+01  0.8167E+02
      6.767  0.7817E+01  0.8251E+02
      6.874  0.7998E+01  0.8336E+02
      6.981  0.8440E+01  0.8426E+02
      7.088  0.8835E+01  0.8521E+02
      7.195  0.7539E+01  0.8602E+02
      7.302  0.7284E+01  0.8680E+02
      7.409  0.5385E+01  0.8737E+02
      7.516  0.5198E+01  0.8793E+02
      7.623  0.7931E+01  0.8878E+02
      7.730  0.9009E+01  0.8974E+02
      7.837  0.7559E+01  0.9055E+02
      7.944  0.6853E+01  0.9128E+02
      8.051  0.5826E+01  0.9191E+02
      8.158  0.6006E+01  0.9255E+02
      8.265  0.5671E+01  0.9316E+02
      8.372  0.6657E+01  0.9387E+02
      8.479  0.7391E+01  0.9466E+02
      8.586  0.4926E+01  0.9519E+02
      8.693  0.2752E+01  0.9548E+02
      8.800  0.2112E+01  0.9571E+02
      8.907  0.1879E+01  0.9591E+02
      9.014  0.7560E+00  0.9599E+02
      9.121  0.8884E-01  0.9600E+02
      9.228  0.2105E-02  0.9600E+02
      9.335  0.7555E-05  0.9600E+02
      9.443  0.3464E-08  0.9600E+02
      9.550  0.1844E-12  0.9600E+02
      9.657  0.0000E+00  0.9600E+02
      9.764  0.0000E+00  0.9600E+02
      9.871  0.0000E+00  0.9600E+02
      9.978  0.0000E+00  0.9600E+02
     10.085  0.0000E+00  0.9600E+02
     10.192  0.0000E+00  0.9600E+02
     10.299  0.0000E+00  0.9600E+02
     10.406  0.0000E+00  0.9600E+02
     10.40568561    -21.70034155  301     -0.32304730      1.00000000
    -21.700  0.0000E+00  0.0000E+00  0.0000E+00  0.0000E+00  0.0000E+00  0.0000E+00  0.0000E+00  0.0000E+00  0.0000E+00
    -21.593  0.0000E+00  0.0000E+00  0.0000E+00  0.0000E+00  0.0000E+00  0.0000E+00  0.0000E+00  0.0000E+00  0.0000E+00
    -21.486  0.0000E+00  0.0000E+00  0.0000E+00  0.0000E+00  0.0000E+00  0.0000E+00  0.0000E+00  0.0000E+00  0.0000E+00
    -21.379  0.0000E+00  0.0000E+00  0.0000E+00  0.0000E+00  0.0000E+00  0.0000E+00  0.0000E+00  0.0000E+00  0.0000E+00
    -21.272  0.0000E+00  0.0000E+00  0.0000E+00  0.0000E+00  0.0000E+00  0.0000E+00  0.0000E+00  0.0000E+00  0.0000E+00
    -21.165  0.0000E+00  0.0000E+00  0.0000E+00  0.0000E+00  0.0000E+00  0.0000E+00  0.0000E+00  0.0000E+00  0.0000E+00
    -21.058  0.0000E+00  0.0000E+00  0.0000E+00  0.0000E+00  0.0000E+00  0.0000E+00  0.0000E+00  0.0000E+00  0.0000E+00
    -20.951  0.0000E+00  0.0000E+00  0.0000E+00  0.0000E+00  0.0000E+00  0.0000E+00  0.0000E+00  0.0000E+00  0.0000E+00
    -20.844  0.0000E+00  0.0000E+00  0.0000E+00  0.0000E+00  0.0000E+00  0.0000E+00  0.0000E+00  0.0000E+00  0.0000E+00
    -20.737  0.5410E-16  0.1303E-19  0.2663E-17  0.2011E-20  0.0000E+00  0.0000E+00  0.0000E+00  0.0000E+00  0.0000E+00
    -20.630  0.9828E-12  0.2973E-15  0.4837E-13  0.4587E-16  0.0000E+00  0.0000E+00  0.0000E+00  0.0000E+00  0.0000E+00
    -20.523  0.1982E-08  0.7932E-12  0.9752E-10  0.1223E-12  0.0000E+00  0.0000E+00  0.0000E+00  0.0000E+00  0.0000E+00
    -20.416  0.4708E-06  0.2692E-09  0.2315E-07  0.4149E-10  0.0000E+00  0.0000E+00  0.0000E+00  0.0000E+00  0.0000E+00
    -20.309  0.1477E-04  0.1357E-07  0.7256E-06  0.2091E-08  0.0000E+00  0.0000E+00  0.0000E+00  0.0000E+00  0.0000E+00
    -20.202  0.7556E-04  0.1334E-06  0.3700E-05  0.2057E-07  0.0000E+00  0.0000E+00  0.0000E+00  0.0000E+00  0.0000E+00
    -20.095  0.9363E-04  0.3954E-06  0.4541E-05  0.6099E-07  0.0000E+00  0.0000E+00  0.0000E+00  0.0000E+00  0.0000E+00
    -19.988  0.6397E-04  0.6176E-06  0.3035E-05  0.9521E-07  0.0000E+00  0.0000E+00  0.0000E+00  0.0000E+00  0.0000E+00
    -19.881  0.4915E-04  0.7727E-06  0.2271E-05  0.1191E-06  0.0000E+00  0.0000E+00  0.0000E+00  0.0000E+00  0.0000E+00
    -19.774  0.4207E-04  0.8960E-06  0.1893E-05  0.1382E-06  0.0000E+00  0.0000E+00  0.0000E+00  0.0000E+00  0.0000E+00
    -19.667  0.3766E-04  0.1001E-05  0.1650E-05  0.1545E-06  0.0000E+00  0.0000E+00  0.0000E+00  0.0000E+00  0.0000E+00
    -19.560  0.3461E-04  0.1094E-05  0.1474E-05  0.1688E-06  0.0000E+00  0.0000E+00  0.0000E+00  0.0000E+00  0.0000E+00
    -19.453  0.3238E-04  0.1176E-05  0.1340E-05  0.1812E-06  0.0000E+00  0.0000E+00  0.0000E+00  0.0000E+00  0.0000E+00
    -19.346  0.3071E-04  0.1250E-05  0.1231E-05  0.1924E-06  0.0000E+00  0.0000E+00  0.0000E+00  0.0000E+00  0.0000E+00
    -19.239  0.2945E-04  0.1318E-05  0.1140E-05  0.2025E-06  0.0000E+00  0.0000E+00  0.0000E+00  0.0000E+00  0.0000E+00
    -19.132  0.2851E-04  0.1381E-05  0.1064E-05  0.2116E-06  0.0000E+00  0.0000E+00  0.0000E+00  0.0000E+00  0.0000E+00
    -19.025  0.2785E-04  0.1439E-05  0.9978E-06  0.2202E-06  0.0000E+00  0.0000E+00  0.0000E+00  0.0000E+00  0.0000E+00
    -18.918  0.2811E-04  0.1521E-05  0.9606E-06  0.2374E-06  0.0000E+00  0.0000E+00  0.0000E+00  0.0000E+00  0.0000E+00
    -18.811  0.5336E-04  0.2747E-05  0.1676E-05  0.6460E-06  0.0000E+00  0.0000E+00  0.0000E+00  0.0000E+00  0.0000E+00
    -18.704  0.1898E-03  0.9555E-05  0.5712E-05  0.3033E-05  0.0000E+00  0.0000E+00  0.0000E+00  0.0000E+00  0.0000E+00
    -18.597  0.2599E-03  0.1345E-04  0.7621E-05  0.4675E-05  0.0000E+00  0.0000E+00  0.0000E+00  0.0000E+00  0.0000E+00
    -18.490  0.1946E-03  0.1010E-04  0.5394E-05  0.3877E-05  0.0000E+00  0.0000E+00  0.0000E+00  0.0000E+00  0.0000E+00
    -18.383  0.1603E-03  0.8135E-05  0.4130E-05  0.3443E-05  0.0000E+00  0.0000E+00  0.0000E+00  0.0000E+00  0.0000E+00
    -18.276  0.1488E-03  0.7004E-05  0.3549E-05  0.3613E-05  0.0000E+00  0.0000E+00  0.0000E+00  0.0000E+00  0.0000E+00
    -18.169  0.1295E-03  0.4906E-05  0.2858E-05  0.4434E-05  0.0000E+00  0.0000E+00  0.0000E+00  0.0000E+00  0.0000E+00
    -18.062  0.1051E-03  0.2853E-05  0.2088E-05  0.4592E-05  0.0000E+00  0.0000E+00  0.0000E+00  0.0000E+00  0.0000E+00
    -17.955  0.1040E-03  0.2443E-05  0.1829E-05  0.4379E-05  0.0000E+00  0.0000E+00  0.0000E+00  0.0000E+00  0.0000E+00
    -17.848  0.1113E-03  0.2436E-05  0.1712E-05  0.4240E-05  0.0000E+00  0.0000E+00  0.0000E+00  0.0000E+00  0.0000E+00
    -17.741  0.1230E-03  0.2409E-05  0.1608E-05  0.4133E-05  0.0000E+00  0.0000E+00  0.0000E+00  0.0000E+00  0.0000E+00
    -17.634  0.2106E-03  0.2351E-05  0.1514E-05  0.4045E-05  0.0000E+00  0.0000E+00  0.0000E+00  0.0000E+00  0.0000E+00
    -17.527  0.8424E-02  0.5427E-05  0.1713E-05  0.4459E-05  0.0000E+00  0.0000E+00  0.0000E+00  0.0000E+00  0.0000E+00
    -17.420  0.1373E+00  0.9191E-04  0.6201E-05  0.1780E-04  0.0000E+00  0.0000E+00  0.0000E+00  0.0000E+00  0.0000E+00
    -17.313  0.4165E+00  0.5493E-03  0.1604E-04  0.8859E-04  0.0000E+00  0.0000E+00  0.0000E+00  0.0000E+00  0.0000E+00
    -17.205  0.3959E+00  0.1178E-02  0.1516E-04  0.1857E-03  0.0000E+00  0.0000E+00  0.0000E+00  0.0000E+00  0.0000E+00
    -17.098  0.3007E+00  0.1521E-02  0.1160E-04  0.2377E-03  0.0000E+00  0.0000E+00  0.0000E+00  0.0000E+00  0.0000E+00
    -16.991  0.2796E+00  0.1618E-02  0.1141E-04  0.2552E-03  0.0000E+00  0.0000E+00  0.0000E+00  0.0000E+00  0.0000E+00
    -16.884  0.3750E+00  0.1528E-02  0.1596E-04  0.2401E-03  0.0000E+00  0.0000E+00  0.0000E+00  0.0000E+00  0.0000E+00
    -16.777  0.8584E+00  0.1109E-02  0.3484E-04  0.2386E-03  0.0000E+00  0.0000E+00  0.0000E+00  0.0000E+00  0.0000E+00
    -16.670  0.1043E+01  0.4841E-03  0.4280E-04  0.2032E-03  0.0000E+00  0.0000E+00  0.0000E+00  0.0000E+00  0.0000E+00
    -16.563  0.3311E+00  0.9020E-04  0.1467E-04  0.5717E-04  0.0000E+00  0.0000E+00  0.0000E+00  0.0000E+00  0.0000E+00
    -16.456  0.2047E-01  0.1203E-04  0.2089E-05  0.8334E-05  0.0000E+00  0.0000E+00  0.0000E+00  0.0000E+00  0.0000E+00
    -16.349  0.2733E-03  0.8356E-05  0.1190E-05  0.5717E-05  0.0000E+00  0.0000E+00  0.0000E+00  0.0000E+00  0.0000E+00
    -16.242  0.4339E-04  0.8127E-05  0.1122E-05  0.5672E-05  0.0000E+00  0.0000E+00  0.0000E+00  0.0000E+00  0.0000E+00
    -16.135  0.2404E-04  0.8061E-05  0.1075E-05  0.5729E-05  0.0000E+00  0.0000E+00  0.0000E+00  0.0000E+00  0.0000E+00
    -16.028  0.1446E-04  0.8097E-05  0.1040E-05  0.5867E-05  0.0000E+00  0.0000E+00  0.0000E+00  0.0000E+00  0.0000E+00
    -15.921  0.1087E-04  0.8778E-05  0.1163E-05  0.7713E-05  0.0000E+00  0.0000E+00  0.0000E+00  0.0000E+00  0.0000E+00
    -15.814  0.2156E-04  0.1464E-04  0.2524E-05  0.2341E-04  0.0000E+00  0.0000E+00  0.0000E+00  0.0000E+00  0.0000E+00
    -15.707  0.2742E-04  0.2267E-04  0.3976E-05  0.4137E-04  0.0000E+00  0.0000E+00  0.0000E+00  0.0000E+00  0.0000E+00
    -15.600  0.1073E-04  0.2164E-04  0.3171E-05  0.3429E-04  0.0000E+00  0.0000E+00  0.0000E+00  0.0000E+00  0.0000E+00
    -15.493  0.3298E-05  0.1956E-04  0.2500E-05  0.2784E-04  0.0000E+00  0.0000E+00  0.0000E+00  0.0000E+00  0.0000E+00
    -15.386  0.1704E-05  0.1875E-04  0.2223E-05  0.2558E-04  0.0000E+00  0.0000E+00  0.0000E+00  0.0000E+00  0.0000E+00
    -15.279  0.1202E-05  0.1946E-04  0.2075E-05  0.2512E-04  0.0000E+00  0.0000E+00  0.0000E+00  0.0000E+00  0.0000E+00
    -15.172  0.1731E-05  0.3551E-03  0.1998E-05  0.1373E-03  0.0000E+00  0.0000E+00  0.0000E+00  0.0000E+00  0.0000E+00
    -15.065  0.5620E-04  0.1617E-01  0.1989E-05  0.5421E-02  0.0000E+00  0.0000E+00  0.0000E+00  0.0000E+00  0.0000E+00
    -14.958  0.7442E-03  0.1203E+00  0.2117E-05  0.4018E-01  0.0000E+00  0.0000E+00  0.0000E+00  0.0000E+00  0.0000E+00
    -14.851  0.2873E-02  0.2010E+00  0.2728E-05  0.6565E-01  0.0000E+00  0.0000E+00  0.0000E+00  0.0000E+00  0.0000E+00
    -14.744  0.7193E-02  0.1997E+00  0.4074E-05  0.5040E-01  0.0000E+00  0.0000E+00  0.0000E+00  0.0000E+00  0.0000E+00
    -14.637  0.1300E-01  0.2277E+00  0.3544E-05  0.5804E-01  0.0000E+00  0.0000E+00  0.0000E+00  0.0000E+00  0.0000E+00
    -14.530  0.1442E-01  0.1526E+00  0.2133E-05  0.1009E+00  0.0000E+00  0.0000E+00  0.0000E+00  0.0000E+00  0.0000E+00
    -14.423  0.1452E-01  0.9483E-01  0.1755E-05  0.1179E+00  0.0000E+00  0.0000E+00  0.0000E+00  0.0000E+00  0.0000E+00
    -14.316  0.1467E-01  0.8447E-01  0.1639E-05  0.1154E+00  0.0000E+00  0.0000E+00  0.0000E+00  0.0000E+00  0.0000E+00
    -14.209  0.1459E-01  0.8371E-01  0.1532E-05  0.1158E+00  0.0000E+00  0.0000E+00  0.0000E+00  0.0000E+00  0.0000E+00
    -14.102  0.1424E-01  0.8652E-01  0.1435E-05  0.1219E+00  0.0000E+00  0.0000E+00  0.0000E+00  0.0000E+00  0.0000E+00
    -13.995  0.1363E-01  0.9439E-01  0.1420E-05  0.1394E+00  0.0000E+00  0.0000E+00  0.0000E+00  0.0000E+00  0.0000E+00
    -13.888  0.1304E-01  0.1203E+00  0.1918E-05  0.2069E+00  0.0000E+00  0.0000E+00  0.0000E+00  0.0000E+00  0.0000E+00
    -13.781  0.1222E-01  0.1655E+00  0.2761E-05  0.3248E+00  0.0000E+00  0.0000E+00  0.0000E+00  0.0000E+00  0.0000E+00
    -13.674  0.9408E-02  0.1752E+00  0.2448E-05  0.3166E+00  0.0000E+00  0.0000E+00  0.0000E+00  0.0000E+00  0.0000E+00
    -13.567  0.5932E-02  0.2087E+00  0.1900E-05  0.3473E+00  0.0000E+00  0.0000E+00  0.0000E+00  0.0000E+00  0.0000E+00
    -13.460  0.2416E-02  0.2073E+00  0.1456E-05  0.3400E+00  0.0000E+00  0.0000E+00  0.0000E+00  0.0000E+00  0.0000E+00
    -13.353  0.3898E-03  0.6411E-01  0.1275E-05  0.1027E+00  0.0000E+00  0.0000E+00  0.0000E+00  0.0000E+00  0.0000E+00
    -13.246  0.2851E-04  0.3739E-02  0.1246E-05  0.5927E-02  0.0000E+00  0.0000E+00  0.0000E+00  0.0000E+00  0.0000E+00
    -13.139  0.1012E-04  0.1196E-03  0.1262E-05  0.1759E-03  0.0000E+00  0.0000E+00  0.0000E+00  0.0000E+00  0.0000E+00
    -13.032  0.7678E-05  0.4208E-04  0.1365E-05  0.5938E-04  0.0000E+00  0.0000E+00  0.0000E+00  0.0000E+00  0.0000E+00
    -12.925  0.6451E-05  0.2211E-04  0.1463E-05  0.3171E-04  0.0000E+00  0.0000E+00  0.0000E+00  0.0000E+00  0.0000E+00
    -12.818  0.5555E-05  0.1256E-04  0.1398E-05  0.1864E-04  0.0000E+00  0.0000E+00  0.0000E+00  0.0000E+00  0.0000E+00
    -12.711  0.4581E-05  0.7491E-05  0.9786E-06  0.1122E-04  0.0000E+00  0.0000E+00  0.0000E+00  0.0000E+00  0.0000E+00
    -12.604  0.3981E-05  0.4622E-05  0.7763E-06  0.7227E-05  0.0000E+00  0.0000E+00  0.0000E+00  0.0000E+00  0.0000E+00
    -12.497  0.3643E-05  0.2920E-05  0.7414E-06  0.4979E-05  0.0000E+00  0.0000E+00  0.0000E+00  0.0000E+00  0.0000E+00
    -12.390  0.3383E-05  0.1880E-05  0.7189E-06  0.3550E-05  0.0000E+00  0.0000E+00  0.0000E+00  0.0000E+00  0.0000E+00
    -12.283  0.3172E-05  0.1239E-05  0.6973E-06  0.2606E-05  0.0000E+00  0.0000E+00  0.0000E+00  0.0000E+00  0.0000E+00
    -12.176  0.2999E-05  0.8471E-06  0.6774E-06  0.1969E-05  0.0000E+00  0.0000E+00  0.0000E+00  0.0000E+00  0.0000E+00
    -12.069  0.2857E-05  0.6154E-06  0.6590E-06  0.1535E-05  0.0000E+00  0.0000E+00  0.0000E+00  0.0000E+00  0.0000E+00
    -11.962  0.2740E-05  0.4906E-06  0.6416E-06  0.1239E-05  0.0000E+00  0.0000E+00  0.0000E+00  0.0000E+00  0.0000E+00
    -11.854  0.2646E-05  0.4390E-06  0.6255E-06  0.1040E-05  0.0000E+00  0.0000E+00  0.0000E+00  0.0000E+00  0.0000E+00
    -11.747  0.2576E-05  0.4390E-06  0.6115E-06  0.9129E-06  0.0000E+00  0.0000E+00  0.0000E+00  0.0000E+00  0.0000E+00
    -11.640  0.2533E-05  0.4768E-06  0.5992E-06  0.8411E-06  0.0000E+00  0.0000E+00  0.0000E+00  0.0000E+00  0.0000E+00
    -11.533  0.2522E-05  0.5446E-06  0.5888E-06  0.8158E-06  0.0000E+00  0.0000E+00  0.0000E+00  0.0000E+00  0.0000E+00
    -11.426  0.2558E-05  0.6448E-06  0.5814E-06  0.8384E-06  0.0000E+00  0.0000E+00  0.0000E+00  0.0000E+00  0.0000E+00
    -11.319  0.2669E-05  0.9606E-06  0.5783E-06  0.1078E-05  0.0000E+00  0.0000E+00  0.0000E+00  0.0000E+00  0.0000E+00
    -11.212  0.2926E-05  0.2256E-05  0.5874E-06  0.2207E-05  0.0000E+00  0.0000E+00  0.0000E+00  0.0000E+00  0.0000E+00
    -11.105  0.3574E-05  0.3316E-05  0.6263E-06  0.3091E-05  0.0000E+00  0.0000E+00  0.0000E+00  0.0000E+00  0.0000E+00
    -10.998  0.5447E-05  0.3556E-05  0.7310E-06  0.3406E-05  0.0000E+00  0.0000E+00  0.0000E+00  0.0000E+00  0.0000E+00
    -10.891  0.1546E-04  0.5371E-05  0.7294E-06  0.8824E-05  0.0000E+00  0.0000E+00  0.0000E+00  0.0000E+00  0.0000E+00
    -10.784  0.1093E-02  0.2004E-03  0.5376E-06  0.6156E-03  0.0000E+00  0.0000E+00  0.0000E+00  0.0000E+00  0.0000E+00
    -10.677  0.1934E-01  0.3533E-02  0.1828E-05  0.1096E-01  0.0000E+00  0.0000E+00  0.0000E+00  0.0000E+00  0.0000E+00
    -10.570  0.6406E-01  0.1150E-01  0.5318E-05  0.3563E-01  0.0000E+00  0.0000E+00  0.0000E+00  0.0000E+00  0.0000E+00
    -10.463  0.1089E+00  0.1191E-01  0.9702E-05  0.3563E-01  0.0000E+00  0.0000E+00  0.0000E+00  0.0000E+00  0.0000E+00
    -10.356  0.2157E+00  0.1189E-01  0.2022E-04  0.2792E-01  0.0000E+00  0.0000E+00  0.0000E+00  0.0000E+00  0.0000E+00
    -10.249  0.2187E+00  0.1592E-01  0.2081E-04  0.2638E-01  0.0000E+00  0.0000E+00  0.0000E+00  0.0000E+00  0.0000E+00
    -10.142  0.1634E+00  0.1805E-01  0.1581E-04  0.2466E-01  0.0000E+00  0.0000E+00  0.0000E+00  0.0000E+00  0.0000E+00
    -10.035  0.8386E-01  0.1487E-01  0.8349E-05  0.2309E-01  0.0000E+00  0.0000E+00  0.0000E+00  0.0000E+00  0.0000E+00
     -9.928  0.4905E-01  0.1436E-01  0.5073E-05  0.5906E-01  0.0000E+00  0.0000E+00  0.0000E+00  0.0000E+00  0.0000E+00
     -9.821  0.4211E-01  0.1615E-01  0.4435E-05  0.1035E+00  0.0000E+00  0.0000E+00  0.0000E+00  0.0000E+00  0.0000E+00
     -9.714  0.4051E-01  0.2170E-01  0.4375E-05  0.9399E-01  0.0000E+00  0.0000E+00  0.0000E+00  0.0000E+00  0.0000E+00
     -9.607  0.4651E-01  0.3595E-01  0.5236E-05  0.9808E-01  0.0000E+00  0.0000E+00  0.0000E+00  0.0000E+00  0.0000E+00
     -9.500  0.4595E-01  0.4938E-01  0.5323E-05  0.1062E+00  0.0000E+00  0.0000E+00  0.0000E+00  0.0000E+00  0.0000E+00
     -9.393  0.4002E-01  0.7877E-01  0.4789E-05  0.1059E+00  0.0000E+00  0.0000E+00  0.0000E+00  0.0000E+00  0.0000E+00
     -9.286  0.3559E-01  0.9103E-01  0.4478E-05  0.8651E-01  0.0000E+00  0.0000E+00  0.0000E+00  0.0000E+00  0.0000E+00
     -9.179  0.3215E-01  0.1070E+00  0.4286E-05  0.7428E-01  0.0000E+00  0.0000E+00  0.0000E+00  0.0000E+00  0.0000E+00
     -9.072  0.2864E-01  0.1556E+00  0.4067E-05  0.4835E-01  0.0000E+00  0.0000E+00  0.0000E+00  0.0000E+00  0.0000E+00
     -8.965  0.1957E-01  0.1384E+00  0.3308E-05  0.3087E-01  0.0000E+00  0.0000E+00  0.0000E+00  0.0000E+00  0.0000E+00
     -8.858  0.1228E-01  0.9970E-01  0.2712E-05  0.3004E-01  0.0000E+00  0.0000E+00  0.0000E+00  0.0000E+00  0.0000E+00
     -8.751  0.1060E-01  0.9756E-01  0.2646E-05  0.3168E-01  0.0000E+00  0.0000E+00  0.0000E+00  0.0000E+00  0.0000E+00
     -8.644  0.9750E-02  0.1040E+00  0.3275E-05  0.3398E-01  0.0000E+00  0.0000E+00  0.0000E+00  0.0000E+00  0.0000E+00
     -8.537  0.8892E-02  0.1141E+00  0.1079E-03  0.3737E-01  0.0000E+00  0.0000E+00  0.0000E+00  0.0000E+00  0.0000E+00
     -8.430  0.7963E-02  0.1308E+00  0.2351E-02  0.4286E-01  0.0000E+00  0.0000E+00  0.0000E+00  0.0000E+00  0.0000E+00
     -8.323  0.8660E-02  0.1672E+00  0.9003E-02  0.5480E-01  0.0000E+00  0.0000E+00  0.0000E+00  0.0000E+00  0.0000E+00
     -8.216  0.3290E-01  0.2325E+00  0.9352E-02  0.7677E-01  0.0000E+00  0.0000E+00  0.0000E+00  0.0000E+00  0.0000E+00
     -8.109  0.8148E-01  0.1801E+00  0.6416E-02  0.6204E-01  0.0000E+00  0.0000E+00  0.0000E+00  0.0000E+00  0.0000E+00
     -8.002  0.7496E-01  0.7511E-01  0.5122E-02  0.3082E-01  0.0000E+00  0.0000E+00  0.0000E+00  0.0000E+00  0.0000E+00
     -7.895  0.5989E-01  0.7619E-01  0.4479E-02  0.3311E-01  0.0000E+00  0.0000E+00  0.0000E+00  0.0000E+00  0.0000E+00
     -7.788  0.5415E-01  0.6752E-01  0.4082E-02  0.4983E-01  0.0000E+00  0.0000E+00  0.0000E+00  0.0000E+00  0.0000E+00
     -7.681  0.5112E-01  0.3464E-01  0.3812E-02  0.7334E-01  0.0000E+00  0.0000E+00  0.0000E+00  0.0000E+00  0.0000E+00
     -7.574  0.2692E-01  0.1531E-01  0.3624E-02  0.4472E-01  0.0000E+00  0.0000E+00  0.0000E+00  0.0000E+00  0.0000E+00
     -7.467  0.3289E-02  0.2039E-02  0.3499E-02  0.6278E-02  0.0000E+00  0.0000E+00  0.0000E+00  0.0000E+00  0.0000E+00
     -7.360  0.6748E-04  0.2370E-03  0.3423E-02  0.9914E-03  0.0000E+00  0.0000E+00  0.0000E+00  0.0000E+00  0.0000E+00
     -7.253  0.5396E-05  0.2328E-03  0.3390E-02  0.1056E-02  0.0000E+00  0.0000E+00  0.0000E+00  0.0000E+00  0.0000E+00
     -7.146  0.6075E-05  0.2631E-03  0.3400E-02  0.1198E-02  0.0000E+00  0.0000E+00  0.0000E+00  0.0000E+00  0.0000E+00
     -7.039  0.7622E-05  0.2963E-03  0.3460E-02  0.1326E-02  0.0000E+00  0.0000E+00  0.0000E+00  0.0000E+00  0.0000E+00
     -6.932  0.9471E-05  0.3319E-03  0.3778E-02  0.1447E-02  0.0000E+00  0.0000E+00  0.0000E+00  0.0000E+00  0.0000E+00
     -6.825  0.1486E-04  0.3726E-03  0.1538E-01  0.1569E-02  0.0000E+00  0.0000E+00  0.0000E+00  0.0000E+00  0.0000E+00
     -6.718  0.5741E-04  0.4213E-03  0.1111E+00  0.1701E-02  0.0000E+00  0.0000E+00  0.0000E+00  0.0000E+00  0.0000E+00
     -6.611  0.1949E-03  0.5070E-03  0.2198E+00  0.1871E-02  0.0000E+00  0.0000E+00  0.0000E+00  0.0000E+00  0.0000E+00
     -6.503  0.2314E-03  0.7959E-03  0.1835E+00  0.2124E-02  0.0000E+00  0.0000E+00  0.0000E+00  0.0000E+00  0.0000E+00
     -6.396  0.1666E-03  0.1423E-02  0.1393E+00  0.2513E-02  0.0000E+00  0.0000E+00  0.0000E+00  0.0000E+00  0.0000E+00
     -6.289  0.1842E-03  0.4492E-02  0.1234E+00  0.3853E-02  0.0000E+00  0.0000E+00  0.0000E+00  0.0000E+00  0.0000E+00
     -6.182  0.3308E-03  0.1460E-01  0.1216E+00  0.7845E-02  0.0000E+00  0.0000E+00  0.0000E+00  0.0000E+00  0.0000E+00
     -6.075  0.7789E-03  0.2445E-01  0.1181E+00  0.1150E-01  0.0000E+00  0.0000E+00  0.0000E+00  0.0000E+00  0.0000E+00
     -5.968  0.3432E-02  0.3653E-01  0.1122E+00  0.1352E-01  0.0000E+00  0.0000E+00  0.0000E+00  0.0000E+00  0.0000E+00
     -5.861  0.6249E-02  0.4793E-01  0.1046E+00  0.1561E-01  0.0000E+00  0.0000E+00  0.0000E+00  0.0000E+00  0.0000E+00
     -5.754  0.4864E-02  0.4422E-01  0.8679E-01  0.2404E-01  0.0000E+00  0.0000E+00  0.0000E+00  0.0000E+00  0.0000E+00
     -5.647  0.4399E-02  0.2869E-01  0.1119E+00  0.4617E-01  0.0000E+00  0.0000E+00  0.0000E+00  0.0000E+00  0.0000E+00
     -5.540  0.7161E-02  0.1743E-01  0.2425E+00  0.6366E-01  0.0000E+00  0.0000E+00  0.0000E+00  0.0000E+00  0.0000E+00
     -5.433  0.2400E-01  0.1982E-01  0.3805E+00  0.8061E-01  0.0000E+00  0.0000E+00  0.0000E+00  0.0000E+00  0.0000E+00
     -5.326  0.5802E-01  0.2508E-01  0.2088E+00  0.8776E-01  0.0000E+00  0.0000E+00  0.0000E+00  0.0000E+00  0.0000E+00
     -5.219  0.3435E-01  0.1310E-01  0.1820E+00  0.3479E-01  0.0000E+00  0.0000E+00  0.0000E+00  0.0000E+00  0.0000E+00
     -5.112  0.5505E-02  0.4522E-02  0.1422E+00  0.4410E-02  0.0000E+00  0.0000E+00  0.0000E+00  0.0000E+00  0.0000E+00
     -5.005  0.2281E-02  0.3877E-02  0.2654E-01  0.1924E-02  0.0000E+00  0.0000E+00  0.0000E+00  0.0000E+00  0.0000E+00