       N       E                     dE             d eps       ncg     rms          rms(c)
DAV:   1     0.174071586511E+03    0.17407E+03   -0.24435E+04 36864   0.859E+02
DAV:   2    -0.114596908946E+03   -0.28867E+03   -0.28723E+03 58512   0.143E+02
DAV:   3    -0.124399835578E+03   -0.98029E+01   -0.98023E+01 56640   0.373E+01
DAV:   4    -0.124448246463E+03   -0.48411E-01   -0.48408E-01 61824   0.239E+00
DAV:   5    -0.124448267233E+03   -0.20770E-04   -0.20770E-04 51744   0.577E-02
DAV:   6    -0.124448267349E+03   -0.11616E-06   -0.11619E-06 61104   0.357E-03
   1 F= -.12603956E+03 E0= -.12603844E+03  d E =-.224766E-02
