Lattice                                 
           1
     4.205419    2.428000    0.000000
    -4.205419    2.428000    0.000000
     0.000000    0.000000   15.000000
   B    C 
     4    11
Direct configuration=     1
   0.00415361  0.00267210  0.12034134
   0.35695335  0.00285503  0.09748893
   0.00423858  0.35550699  0.09749256
   0.65142295  0.65006557  0.09747688
   0.32808646  0.32671938  0.10030508
   0.68027775  0.00278085  0.10027562
   0.00416530  0.67883808  0.10026559
   0.08333267  0.41666633  0.33646667
   0.24999967  0.24999933  0.33646667
   0.08333267  0.91666633  0.33646667
   0.24999967  0.74999933  0.33646667
   0.58333267  0.41666633  0.33646667
   0.74999967  0.24999933  0.33646667
   0.58333267  0.91666633  0.33646667
   0.74999967  0.74999933  0.33646667
Direct configuration=     2
   0.00414168  0.00266824  0.11905695
   0.35562702  0.00283138  0.09783234
   0.00413951  0.35438647  0.09789390
   0.65266821  0.65115092  0.09786460
   0.32459187  0.32299101  0.10030171
   0.68415209  0.00285652  0.10032719
   0.00417148  0.68237784  0.10027868
   0.08331701  0.41677828  0.33646377
   0.25017362  0.25025966  0.33656164
   0.08349692  0.91679802  0.33645294
   0.25029908  0.74995762  0.33643713
   0.58328637  0.41664612  0.33642218
   0.74993385  0.25000433  0.33646195
   0.58308995  0.91661445  0.33653765
   0.74953866  0.74977981  0.33648671
Direct configuration=     3
   0.00414768  0.00267018  0.11970267
   0.35629382  0.00284327  0.09765969
   0.00418932  0.35494981  0.09769213
   0.65204217  0.65060527  0.09766968
   0.32634875  0.32486542  0.10030340
   0.68220429  0.00281848  0.10030126
   0.00416837  0.68059825  0.10027210
   0.08332488  0.41672200  0.33646523
   0.25008617  0.25012878  0.33651389
   0.08341434  0.91673182  0.33645984
   0.25014855  0.74997859  0.33645198
   0.58330965  0.41665628  0.33644455
   0.74996694  0.25000182  0.33646432
   0.58321197  0.91664053  0.33650197
   0.74977043  0.74989017  0.33647663
