Lattice                                 
           1
     4.197625    2.423500    0.000000
    -4.197625    2.423500    0.000000
     0.000000    0.000000   15.000000
   B    C 
     4    11
Direct configuration=     1
   0.00415361  0.00267210  0.12034134
   0.35695335  0.00285503  0.09748893
   0.00423858  0.35550699  0.09749256
   0.65142295  0.65006557  0.09747688
   0.32808646  0.32671938  0.10030508
   0.68027775  0.00278085  0.10027562
   0.00416530  0.67883808  0.10026559
   0.11111044  0.38888856  0.33726667
   0.27777744  0.22222156  0.33726667
   0.11111044  0.88888856  0.33726667
   0.27777744  0.72222156  0.33726667
   0.61111044  0.38888856  0.33726667
   0.77777744  0.22222156  0.33726667
   0.61111044  0.88888856  0.33726667
   0.77777744  0.72222156  0.33726667
Direct configuration=     2
   0.00416780  0.00269601  0.11905023
   0.35572057  0.00279204  0.09782409
   0.00418927  0.35450373  0.09788059
   0.65254513  0.65107877  0.09785107
   0.32474367  0.32321483  0.10031287
   0.68388753  0.00279465  0.10032681
   0.00422505  0.68220148  0.10028168
   0.11103912  0.38899148  0.33727987
   0.27791517  0.22234553  0.33735373
   0.11129729  0.88901926  0.33729096
   0.27796857  0.72221856  0.33720535
   0.61107146  0.38883646  0.33720044
   0.77773661  0.22226775  0.33728926
   0.61092658  0.88883921  0.33734265
   0.77741576  0.72207866  0.33728973
Direct configuration=     3
   0.00416078  0.00268418  0.11968928
   0.35633075  0.00282322  0.09765820
   0.00421367  0.35500031  0.09768853
   0.65198969  0.65057727  0.09766586
   0.32639823  0.32494946  0.10030901
   0.68210082  0.00278782  0.10030147
   0.00419547  0.68053672  0.10027372
   0.11107442  0.38894054  0.33727334
   0.27784700  0.22228417  0.33731064
   0.11120481  0.88895457  0.33727894
   0.27787397  0.72222004  0.33723570
   0.61109075  0.38886224  0.33723322
   0.77775682  0.22224489  0.33727808
   0.61101758  0.88886364  0.33730504
   0.77759478  0.72214939  0.33727831
Direct configuration=     4
   0.00417022  0.00272080  0.11852486
   0.35683567  0.00275701  0.09797910
   0.00420948  0.35550343  0.09806337
   0.65155124  0.65000567  0.09802606
   0.32656500  0.32499052  0.10028292
   0.68202542  0.00278322  0.10031740
   0.00424012  0.68041813  0.10025579
   0.11109394  0.38887798  0.33728937
   0.27767623  0.22224783  0.33738487
   0.11097610  0.88885798  0.33730694
   0.27765691  0.72226562  0.33719042
   0.61108943  0.38892481  0.33718663
   0.77773665  0.22222547  0.33729892
   0.61115197  0.88897319  0.33737130
   0.77787117  0.72232680  0.33730137
Direct configuration=     5
   0.00419855  0.00283065  0.11503158
   0.35835043  0.00255838  0.09894181
   0.00419690  0.35701278  0.09918789
   0.65023589  0.64829086  0.09910668
   0.32706532  0.32511370  0.10020465
   0.68179924  0.00276942  0.10036519
   0.00437407  0.68006235  0.10020201
   0.11115250  0.38869029  0.33733749
   0.27716390  0.22213881  0.33760758
   0.11028996  0.88856823  0.33739094
   0.27700573  0.72240234  0.33705459
   0.61108546  0.38911250  0.33704687
   0.77767615  0.22216721  0.33736144
   0.61155512  0.88930187  0.33757009
   0.77870032  0.72285904  0.33737054
Direct configuration=     6
   0.00420496  0.00283475  0.11458907
   0.35848410  0.00254047  0.09903908
   0.00420821  0.35712485  0.09929974
   0.65013544  0.64815166  0.09921448
   0.32717045  0.32518946  0.10022395
   0.68171221  0.00275635  0.10039686
   0.00438548  0.67997073  0.10022400
   0.11109720  0.38878816  0.33734333
   0.27728726  0.22217141  0.33762264
   0.11048416  0.88871889  0.33740049
   0.27717576  0.72239291  0.33705205
   0.61104581  0.38909501  0.33704491
   0.77767388  0.22222128  0.33736740
   0.61138563  0.88921177  0.33758376
   0.77839902  0.72271072  0.33737758
Direct configuration=     7
   0.00422420  0.00284706  0.11326154
   0.35888509  0.00248675  0.09933091
   0.00424215  0.35746108  0.09963528
   0.64983407  0.64773407  0.09953788
   0.32748583  0.32541675  0.10028184
   0.68145111  0.00271713  0.10049188
   0.00441970  0.67969586  0.10028999
   0.11093131  0.38908178  0.33736083
   0.27765731  0.22226922  0.33766782
   0.11106677  0.88917087  0.33742913
   0.27768585  0.72236460  0.33704445
   0.61092686  0.38904255  0.33703901
   0.77766706  0.22238350  0.33738529
   0.61087715  0.88894147  0.33762475
   0.77749509  0.72226574  0.33739873
Direct configuration=     8
   0.00423301  0.00285269  0.11265353
   0.35906875  0.00246215  0.09946457
   0.00425769  0.35761507  0.09978896
   0.64969605  0.64754281  0.09968600
   0.32763027  0.32552084  0.10030835
   0.68133153  0.00269917  0.10053540
   0.00443537  0.67956997  0.10032022
   0.11085533  0.38921626  0.33736885
   0.27782679  0.22231402  0.33768851
   0.11133360  0.88937788  0.33744224
   0.27791948  0.72235163  0.33704097
   0.61087238  0.38901853  0.33703631
   0.77766393  0.22245780  0.33739349
   0.61064426  0.88881767  0.33764353
   0.77708110  0.72206195  0.33740842
Direct configuration=     9
   0.00424983  0.00283401  0.11208047
   0.35907001  0.00245411  0.09954500
   0.00429314  0.35757156  0.09987450
   0.64973588  0.64756026  0.09976987
   0.32772128  0.32560617  0.10038999
   0.68124739  0.00266394  0.10062447
   0.00444264  0.67947847  0.10040385
   0.11085652  0.38920603  0.33737581
   0.27783417  0.22242417  0.33768182
   0.11130294  0.88931951  0.33745101
   0.27792217  0.72237158  0.33706745
   0.61086810  0.38897847  0.33706487
   0.77760923  0.22245548  0.33739764
   0.61063996  0.88885802  0.33763805
   0.77705628  0.72209666  0.33741455
Direct configuration=    10
   0.00430029  0.00277797  0.11036128
   0.35907379  0.00243000  0.09978630
   0.00439949  0.35744100  0.10013114
   0.64985538  0.64761262  0.10002145
   0.32799430  0.32586215  0.10063490
   0.68099496  0.00255824  0.10089167
   0.00446444  0.67920397  0.10065473
   0.11086008  0.38917532  0.33739670
   0.27785631  0.22275463  0.33766174
   0.11121097  0.88914442  0.33747732
   0.27793026  0.72243144  0.33714689
   0.61085525  0.38885829  0.33715057
   0.77744514  0.22244853  0.33741008
   0.61062703  0.88897907  0.33762163
   0.77698185  0.72220079  0.33743294
Direct configuration=    11
   0.00440121  0.00266589  0.10692290
   0.35908136  0.00238178  0.10026891
   0.00461219  0.35717989  0.10064441
   0.65009439  0.64771733  0.10052462
   0.32854034  0.32637410  0.10112473
   0.68049010  0.00234686  0.10142607
   0.00450805  0.67865497  0.10115651
   0.11086721  0.38911391  0.33743848
   0.27790058  0.22341554  0.33762157
   0.11102703  0.88879424  0.33752993
   0.27794645  0.72255115  0.33730577
   0.61082956  0.38861794  0.33732197
   0.77711694  0.22243464  0.33743496
   0.61060117  0.88922116  0.33758878
   0.77683298  0.72240905  0.33746973
Direct configuration=    12
   0.00444287  0.00261974  0.10596885
   0.35910230  0.00237663  0.10041607
   0.00466060  0.35716899  0.10078483
   0.65010199  0.64771220  0.10066684
   0.32856832  0.32638382  0.10125836
   0.68051048  0.00230597  0.10156111
   0.00453178  0.67858575  0.10129205
   0.11078882  0.38916087  0.33744924
   0.27763657  0.22293575  0.33760502
   0.11085320  0.88900719  0.33754127
   0.27766872  0.72250143  0.33736086
   0.61080613  0.38893848  0.33737674
   0.77728340  0.22242863  0.33744435
   0.61072112  0.88928615  0.33757247
   0.77717327  0.72246682  0.33748128
Direct configuration=    13
   0.00447698  0.00258195  0.10518748
   0.35911945  0.00237242  0.10053659
   0.00470024  0.35716007  0.10089983
   0.65010821  0.64770799  0.10078331
   0.32859123  0.32639179  0.10136780
   0.68052717  0.00227249  0.10167171
   0.00455121  0.67852907  0.10140306
   0.11072462  0.38919933  0.33745805
   0.27742034  0.22254281  0.33759146
   0.11071084  0.88918160  0.33755056
   0.27744126  0.72246071  0.33740598
   0.61078695  0.38920101  0.33742160
   0.77741972  0.22242370  0.33745204
   0.61081935  0.88933937  0.33755912
   0.77745197  0.72251414  0.33749075
Direct configuration=    14
   0.00447927  0.00257941  0.10513513
   0.35912059  0.00237213  0.10054466
   0.00470290  0.35715947  0.10090754
   0.65010863  0.64770771  0.10079111
   0.32859276  0.32639232  0.10137513
   0.68052829  0.00227024  0.10167912
   0.00455252  0.67852527  0.10141050
   0.11072032  0.38920191  0.33745864
   0.27740585  0.22251648  0.33759055
   0.11070130  0.88919329  0.33755118
   0.27742602  0.72245798  0.33740901
   0.61078566  0.38921860  0.33742461
   0.77742886  0.22242337  0.33745255
   0.61082593  0.88934294  0.33755822
   0.77747065  0.72251731  0.33749138
Direct configuration=    15
   0.00449421  0.00256002  0.10499786
   0.35920024  0.00237513  0.10059892
   0.00469103  0.35725110  0.10094410
   0.65000753  0.64762315  0.10083309
   0.32848356  0.32626117  0.10137301
   0.68068206  0.00229193  0.10166408
   0.00456985  0.67860594  0.10140750
   0.11073091  0.38919140  0.33746027
   0.27738987  0.22245886  0.33758939
   0.11075712  0.88924566  0.33754990
   0.27742091  0.72252692  0.33742065
   0.61075494  0.38922140  0.33743183
   0.77744900  0.22251861  0.33745815
   0.61077469  0.88921179  0.33755502
   0.77744363  0.72253538  0.33749558
Direct configuration=    16
   0.00452214  0.00252374  0.10474118
   0.35934918  0.00238073  0.10070037
   0.00466883  0.35742243  0.10101246
   0.64981850  0.64746504  0.10091157
   0.32827938  0.32601593  0.10136904
   0.68096957  0.00233248  0.10163597
   0.00460227  0.67875679  0.10140188
   0.11075070  0.38917173  0.33746332
   0.27735999  0.22235112  0.33758723
   0.11086150  0.88934358  0.33754749
   0.27741135  0.72265582  0.33744242
   0.61069749  0.38922663  0.33744533
   0.77748668  0.22269670  0.33746861
   0.61067887  0.88896656  0.33754902
   0.77739311  0.72256916  0.33750344
Direct configuration=    17
   0.00453622  0.00248800  0.10458788
   0.35952676  0.00238190  0.10079124
   0.00464425  0.35755746  0.10106716
   0.64964048  0.64730807  0.10097729
   0.32818793  0.32588723  0.10134795
   0.68111643  0.00237271  0.10158588
   0.00462663  0.67884119  0.10137872
   0.11076427  0.38921191  0.33746720
   0.27740852  0.22248570  0.33758837
   0.11081716  0.88928673  0.33754540
   0.27743850  0.72260956  0.33745450
   0.61069460  0.38920329  0.33745146
   0.77740941  0.22260590  0.33747800
   0.61067869  0.88909603  0.33754902
   0.77735968  0.72254275  0.33750926
Direct configuration=    18
   0.00454835  0.00245723  0.10445590
   0.35967965  0.00238291  0.10086948
   0.00462309  0.35767373  0.10111425
   0.64948722  0.64717293  0.10103387
   0.32810921  0.32577642  0.10132979
   0.68124286  0.00240735  0.10154276
   0.00464760  0.67891386  0.10135878
   0.11077596  0.38924650  0.33747054
   0.27745030  0.22260158  0.33758936
   0.11077899  0.88923778  0.33754360
   0.27746187  0.72256972  0.33746489
   0.61069211  0.38918320  0.33745675
   0.77734288  0.22252772  0.33748609
   0.61067854  0.88920749  0.33754901
   0.77733089  0.72252001  0.33751427
Direct configuration=    19
   0.00454752  0.00243512  0.10438868
   0.35974978  0.00237926  0.10091651
   0.00461869  0.35765700  0.10113682
   0.64946369  0.64714295  0.10106382
   0.32820216  0.32585462  0.10131941
   0.68115450  0.00241429  0.10150942
   0.00465097  0.67885720  0.10134685
   0.11070746  0.38922673  0.33747581
   0.27740133  0.22256880  0.33759233
   0.11074535  0.88925053  0.33754527
   0.27743136  0.72255430  0.33746462
   0.61072241  0.38920662  0.33745758
   0.77738332  0.22253305  0.33749050
   0.61071989  0.88925179  0.33755614
   0.77735113  0.72254619  0.33751558
Direct configuration=    20
   0.00454691  0.00241871  0.10433879
   0.35980182  0.00237655  0.10095141
   0.00461543  0.35764459  0.10115357
   0.64944623  0.64712070  0.10108604
   0.32827115  0.32591265  0.10131171
   0.68108891  0.00241943  0.10148467
   0.00465347  0.67881514  0.10133800
   0.11065662  0.38921205  0.33747973
   0.27736499  0.22254448  0.33759453
   0.11072037  0.88925999  0.33754652
   0.27740871  0.72254286  0.33746442
   0.61074489  0.38922401  0.33745820
   0.77741333  0.22253700  0.33749378
   0.61075057  0.88928467  0.33756143
   0.77736616  0.72256562  0.33751654
Direct configuration=    21
   0.00455496  0.00240312  0.10426878
   0.35977183  0.00237473  0.10099001
   0.00462180  0.35756576  0.10116671
   0.64951224  0.64717036  0.10110687
   0.32833770  0.32596746  0.10131085
   0.68103457  0.00241238  0.10145688
   0.00465476  0.67875760  0.10133535
   0.11069306  0.38922345  0.33748652
   0.27737334  0.22254889  0.33759955
   0.11074739  0.88927600  0.33755005
   0.27740982  0.72259266  0.33746148
   0.61070739  0.38921863  0.33745812
   0.77738854  0.22258287  0.33749843
   0.61070004  0.88921198  0.33757214
   0.77734211  0.72257257  0.33751760
Direct configuration=    22
   0.00456000  0.00239335  0.10422491
   0.35975303  0.00237360  0.10101419
   0.00462580  0.35751635  0.10117494
   0.64955361  0.64720148  0.10111992
   0.32837941  0.32600181  0.10131032
   0.68100052  0.00240796  0.10143947
   0.00465556  0.67872154  0.10133369
   0.11071590  0.38923059  0.33749078
   0.27737858  0.22255165  0.33760269
   0.11076432  0.88928604  0.33755226
   0.27741051  0.72262386  0.33745965
   0.61068389  0.38921526  0.33745807
   0.77737301  0.22261161  0.33750134
   0.61066837  0.88916642  0.33757885
   0.77732704  0.72257693  0.33751826
Direct configuration=    23
   0.00458084  0.00238410  0.10413666
   0.35966853  0.00237215  0.10104640
   0.00464096  0.35743254  0.10118116
   0.64965366  0.64727804  0.10113394
   0.32838094  0.32598790  0.10132061
   0.68102895  0.00239043  0.10141860
   0.00466134  0.67869418  0.10134187
   0.11072297  0.38926668  0.33749805
   0.27738504  0.22257400  0.33761005
   0.11074324  0.88929544  0.33755664
   0.27740444  0.72261000  0.33745792
   0.61066309  0.38923522  0.33745817
   0.77734230  0.22258234  0.33750777
   0.61065409  0.88921246  0.33759058
   0.77731915  0.72256295  0.33752091
Direct configuration=    24
   0.00459774  0.00237660  0.10406511
   0.35960001  0.00237098  0.10107252
   0.00465325  0.35736459  0.10118621
   0.64973478  0.64734012  0.10114530
   0.32838218  0.32597662  0.10132896
   0.68105201  0.00237622  0.10140168
   0.00466603  0.67867200  0.10134851
   0.11072870  0.38929594  0.33750394
   0.27739029  0.22259212  0.33761603
   0.11072615  0.88930306  0.33756019
   0.27739952  0.72259876  0.33745652
   0.61064623  0.38925141  0.33745826
   0.77731740  0.22255861  0.33751298
   0.61064251  0.88924980  0.33760009
   0.77731275  0.72255161  0.33752305
Direct configuration=    25
   0.00462383  0.00236917  0.10394920
   0.35958243  0.00236058  0.10109635
   0.00467589  0.35734357  0.10118741
   0.64977499  0.64734460  0.10115322
   0.32837494  0.32594305  0.10135090
   0.68109450  0.00235056  0.10139047
   0.00468083  0.67865823  0.10136827
   0.11064753  0.38926092  0.33751094
   0.27733829  0.22260524  0.33762568
   0.11069387  0.88929873  0.33756500
   0.27737143  0.72261206  0.33746003
   0.61067310  0.38925002  0.33746053
   0.77734315  0.22259598  0.33752220
   0.61067160  0.88928174  0.33761012
   0.77730317  0.72260399  0.33752902
Direct configuration=    26
   0.00464291  0.00236374  0.10386446
   0.35956957  0.00235298  0.10111378
   0.00469243  0.35732821  0.10118828
   0.64980439  0.64734787  0.10115900
   0.32836964  0.32591850  0.10136694
   0.68112557  0.00233181  0.10138227
   0.00469165  0.67864817  0.10138271
   0.11058819  0.38923531  0.33751606
   0.27730027  0.22261483  0.33763273
   0.11067027  0.88929556  0.33756851
   0.27735089  0.72262178  0.33746260
   0.61069275  0.38924901  0.33746219
   0.77736198  0.22262331  0.33752895
   0.61069287  0.88930509  0.33761745
   0.77729617  0.72264228  0.33753338
Direct configuration=    27
   0.00465590  0.00235723  0.10378771
   0.35960264  0.00234139  0.10112524
   0.00470676  0.35734021  0.10118954
   0.64979631  0.64731416  0.10116326
   0.32838068  0.32590897  0.10138135
   0.68113389  0.00231613  0.10137863
   0.00470348  0.67863932  0.10139601
   0.11058154  0.38924742  0.33752021
   0.27729073  0.22261845  0.33763846
   0.11066518  0.88931034  0.33757182
   0.27734252  0.72263387  0.33746692
   0.61067960  0.38926006  0.33746516
   0.77735085  0.22263640  0.33753480
   0.61067655  0.88930539  0.33762228
   0.77728293  0.72264909  0.33753793
Direct configuration=    28
   0.00469487  0.00233770  0.10355747
   0.35970184  0.00230664  0.10115965
   0.00474974  0.35737623  0.10119331
   0.64977207  0.64721301  0.10117604
   0.32841379  0.32588036  0.10142457
   0.68115886  0.00226909  0.10136768
   0.00473895  0.67861279  0.10143592
   0.11056159  0.38928374  0.33753265
   0.27726209  0.22262932  0.33765566
   0.11064989  0.88935468  0.33758175
   0.27731742  0.72267015  0.33747987
   0.61064015  0.38929323  0.33747409
   0.77731744  0.22267569  0.33755236
   0.61062761  0.88930629  0.33763678
   0.77724322  0.72266952  0.33755155
Direct configuration=    29
   0.00477280  0.00229864  0.10309698
   0.35990025  0.00223713  0.10122846
   0.00483571  0.35744825  0.10120085
   0.64972359  0.64701072  0.10120160
   0.32848000  0.32582316  0.10151101
   0.68120881  0.00217503  0.10134579
   0.00480990  0.67855973  0.10151573
   0.11052169  0.38935639  0.33755752
   0.27720483  0.22265105  0.33769005
   0.11061932  0.88944336  0.33760160
   0.27726723  0.72274269  0.33750577
   0.61056125  0.38935956  0.33749194
   0.77725064  0.22275428  0.33758747
   0.61052973  0.88930809  0.33766577
   0.77716380  0.72271037  0.33757880
Direct configuration=    30
   0.00478393  0.00226434  0.10293353
   0.35996130  0.00219920  0.10125483
   0.00485543  0.35742419  0.10123068
   0.64973749  0.64697134  0.10123014
   0.32852079  0.32579984  0.10151390
   0.68122881  0.00216045  0.10133674
   0.00484160  0.67855742  0.10151824
   0.11056067  0.38941649  0.33756903
   0.27722629  0.22274401  0.33769525
   0.11054768  0.88941614  0.33761387
   0.27723071  0.72273031  0.33751931
   0.61049789  0.38938492  0.33750924
   0.77716615  0.22268737  0.33759433
   0.61051197  0.88941581  0.33767303
   0.77717883  0.72270664  0.33758723
Direct configuration=    31
   0.00478651  0.00225640  0.10289571
   0.35997542  0.00219043  0.10126093
   0.00485999  0.35741862  0.10123758
   0.64974071  0.64696223  0.10123674
   0.32853022  0.32579444  0.10151457
   0.68123344  0.00215707  0.10133464
   0.00484894  0.67855689  0.10151882
   0.11056970  0.38943039  0.33757169
   0.27723126  0.22276552  0.33769645
   0.11053110  0.88940984  0.33761671
   0.27722225  0.72272745  0.33752244
   0.61048323  0.38939078  0.33751324
   0.77714660  0.22267188  0.33759591
   0.61050786  0.88944074  0.33767471
   0.77718231  0.72270578  0.33758918
Direct configuration=    32
   0.00479600  0.00222552  0.10277101
   0.35999939  0.00215962  0.10128136
   0.00487262  0.35738048  0.10127327
   0.64977016  0.64695261  0.10126761
   0.32856345  0.32576995  0.10150300
   0.68125894  0.00215311  0.10132819
   0.00487720  0.67855034  0.10150802
   0.11054659  0.38944144  0.33758123
   0.27721067  0.22279548  0.33769835
   0.11050756  0.88941874  0.33762805
   0.27719998  0.72274580  0.33753482
   0.61046562  0.38940165  0.33753042
   0.77712596  0.22269051  0.33759936
   0.61049337  0.88946415  0.33767889
   0.77716205  0.72272904  0.33759574
Direct configuration=    33
   0.00482448  0.00213290  0.10239694
   0.36007129  0.00206721  0.10134265
   0.00491051  0.35726607  0.10138032
   0.64985851  0.64692374  0.10136020
   0.32866312  0.32569647  0.10146830
   0.68133542  0.00214121  0.10130882
   0.00496200  0.67853071  0.10147562
   0.11047729  0.38947457  0.33760987
   0.27714891  0.22288536  0.33770405
   0.11043692  0.88944546  0.33766207
   0.27713315  0.72280084  0.33757198
   0.61041280  0.38943425  0.33758195
   0.77706402  0.22274641  0.33760971
   0.61044988  0.88953440  0.33769142
   0.77710126  0.72279884  0.33761543
Direct configuration=    34
   0.00488144  0.00194765  0.10164879
   0.36021510  0.00188239  0.10146524
   0.00498630  0.35703724  0.10159442
   0.65003520  0.64686601  0.10154540
   0.32886246  0.32554951  0.10139889
   0.68148839  0.00211742  0.10127009
   0.00513159  0.67849145  0.10141082
   0.11033867  0.38954084  0.33766713
   0.27702538  0.22306513  0.33771545
   0.11029565  0.88949889  0.33773012
   0.27699951  0.72291094  0.33764630
   0.61030715  0.38949946  0.33768502
   0.77694015  0.22285819  0.33763040
   0.61036290  0.88967490  0.33771647
   0.77697967  0.72293843  0.33765479
Direct configuration=    35
   0.00485282  0.00204075  0.10202478
   0.36014283  0.00197527  0.10140363
   0.00494821  0.35715224  0.10148682
   0.64994640  0.64689502  0.10145233
   0.32876228  0.32562337  0.10143377
   0.68141151  0.00212937  0.10128956
   0.00504636  0.67851118  0.10144338
   0.11040833  0.38950754  0.33763835
   0.27708746  0.22297479  0.33770972
   0.11036665  0.88947204  0.33769592
   0.27706667  0.72285561  0.33760895
   0.61036024  0.38946669  0.33763322
   0.77700241  0.22280201  0.33762000
   0.61040662  0.88960429  0.33770388
   0.77704078  0.72286827  0.33763501
Direct configuration=    36
   0.00489597  0.00202033  0.10186463
   0.36014664  0.00195191  0.10142321
   0.00497850  0.35713221  0.10152790
   0.64997517  0.64687209  0.10148676
   0.32879334  0.32558948  0.10142107
   0.68145391  0.00211260  0.10129183
   0.00508254  0.67845715  0.10143220
   0.11035116  0.38953722  0.33764738
   0.27703598  0.22291557  0.33771865
   0.11037647  0.88956016  0.33770750
   0.27705444  0.72289142  0.33762484
   0.61034689  0.38951597  0.33764829
   0.77701220  0.22286887  0.33762874
   0.61035639  0.88956966  0.33770916
   0.77698996  0.72288381  0.33764716
Direct configuration=    37
   0.00493407  0.00200229  0.10172321
   0.36015000  0.00193128  0.10144050
   0.00500524  0.35711452  0.10156417
   0.65000058  0.64685183  0.10151717
   0.32882076  0.32555955  0.10140984
   0.68149135  0.00209779  0.10129384
   0.00511448  0.67840943  0.10142233
   0.11030068  0.38956343  0.33765536
   0.27699052  0.22286328  0.33772652
   0.11038515  0.88963797  0.33771773
   0.27704364  0.72292305  0.33763888
   0.61033510  0.38955949  0.33766160
   0.77702085  0.22292791  0.33763646
   0.61031203  0.88953908  0.33771383
   0.77694509  0.72289752  0.33765789
Direct configuration=    38
   0.00497384  0.00200820  0.10166010
   0.36014412  0.00193659  0.10143978
   0.00503271  0.35712722  0.10157104
   0.65000524  0.64683064  0.10152186
   0.32882222  0.32554982  0.10141107
   0.68150681  0.00207228  0.10130875
   0.00512384  0.67835987  0.10142458
   0.11030498  0.38958125  0.33765560
   0.27698425  0.22287542  0.33773761
   0.11036776  0.88964265  0.33771881
   0.27702944  0.72293583  0.33764339
   0.61031491  0.38957391  0.33765854
   0.77699853  0.22292802  0.33764474
   0.61029734  0.88955026  0.33771725
   0.77694356  0.72290647  0.33766621
Direct configuration=    39
   0.00509313  0.00202592  0.10147077
   0.36012647  0.00195254  0.10143762
   0.00511512  0.35716532  0.10159166
   0.65001924  0.64676705  0.10153595
   0.32882661  0.32552063  0.10141474
   0.68155317  0.00199573  0.10135347
   0.00515190  0.67821120  0.10143135
   0.11031786  0.38963473  0.33765633
   0.27696545  0.22291186  0.33777086
   0.11031558  0.88965668  0.33772205
   0.27698685  0.72297417  0.33765694
   0.61025433  0.38961715  0.33764936
   0.77693159  0.22292834  0.33766959
   0.61025325  0.88958381  0.33772749
   0.77693900  0.72293329  0.33769117
Direct configuration=    40
   0.00511473  0.00200412  0.10137742
   0.36017409  0.00194727  0.10143181
   0.00515502  0.35713674  0.10159270
   0.65005124  0.64674504  0.10153529
   0.32883879  0.32552117  0.10142067
   0.68154987  0.00194091  0.10138653
   0.00515481  0.67820755  0.10143913
   0.11027385  0.38962650  0.33765953
   0.27694243  0.22296342  0.33778816
   0.11029518  0.88965555  0.33772565
   0.27696621  0.72298400  0.33765749
   0.61025092  0.38960946  0.33764289
   0.77692255  0.22295491  0.33768136
   0.61025391  0.88962023  0.33773938
   0.77690596  0.72296157  0.33770132
Direct configuration=    41
   0.00513413  0.00198454  0.10129357
   0.36021686  0.00194254  0.10142659
   0.00519086  0.35711107  0.10159364
   0.65007998  0.64672527  0.10153470
   0.32884972  0.32552166  0.10142599
   0.68154690  0.00189168  0.10141622
   0.00515742  0.67820427  0.10144613
   0.11023432  0.38961910  0.33766240
   0.27692175  0.22300973  0.33780370
   0.11027686  0.88965452  0.33772889
   0.27694768  0.72299283  0.33765798
   0.61024785  0.38960255  0.33763708
   0.77691444  0.22297878  0.33769193
   0.61025450  0.88965294  0.33775006
   0.77687628  0.72298697  0.33771044
Direct configuration=    42
   0.00512304  0.00194007  0.10121572
   0.36028425  0.00191797  0.10142570
   0.00521053  0.35706078  0.10159217
   0.65012157  0.64671576  0.10153393
   0.32887507  0.32551976  0.10142806
   0.68154721  0.00185354  0.10144422
   0.00516665  0.67823808  0.10144977
   0.11021271  0.38966138  0.33767184
   0.27690129  0.22297825  0.33781190
   0.11026895  0.88971192  0.33773745
   0.27693996  0.72300138  0.33765312
   0.61022473  0.38964724  0.33763813
   0.77690350  0.22299126  0.33769702
   0.61021606  0.88965964  0.33776717
   0.77685405  0.72298144  0.33771314
Direct configuration=    43
   0.00512314  0.00194048  0.10121645
   0.36028362  0.00191820  0.10142571
   0.00521034  0.35706125  0.10159218
   0.65012118  0.64671584  0.10153394
   0.32887483  0.32551978  0.10142804
   0.68154721  0.00185390  0.10144395
   0.00516657  0.67823776  0.10144973
   0.11021291  0.38966099  0.33767175
   0.27690148  0.22297854  0.33781182
   0.11026902  0.88971138  0.33773737
   0.27694004  0.72300130  0.33765317
   0.61022494  0.38964682  0.33763812
   0.77690360  0.22299115  0.33769697
   0.61021642  0.88965957  0.33776701
   0.77685426  0.72298149  0.33771312
Direct configuration=    44
   0.00512228  0.00192070  0.10118806
   0.36029710  0.00189767  0.10143216
   0.00520821  0.35705018  0.10159268
   0.65013250  0.64670918  0.10153662
   0.32889341  0.32550456  0.10142314
   0.68156943  0.00185571  0.10144977
   0.00518648  0.67823580  0.10144538
   0.11022586  0.38967331  0.33767996
   0.27689328  0.22298530  0.33780926
   0.11025525  0.88971102  0.33774403
   0.27692422  0.72302734  0.33765020
   0.61020409  0.38965871  0.33764493
   0.77688013  0.22300034  0.33769607
   0.61019989  0.88965022  0.33777657
   0.77685743  0.72299839  0.33771050
Direct configuration=    45
   0.00512161  0.00190505  0.10116559
   0.36030778  0.00188142  0.10143727
   0.00520651  0.35704143  0.10159308
   0.65014146  0.64670390  0.10153874
   0.32890811  0.32549251  0.10141926
   0.68158701  0.00185715  0.10145438
   0.00520224  0.67823424  0.10144193
   0.11023610  0.38968306  0.33768646
   0.27688680  0.22299066  0.33780724
   0.11024435  0.88971074  0.33774931
   0.27691170  0.72304795  0.33764785
   0.61018759  0.38966812  0.33765031
   0.77686156  0.22300762  0.33769536
   0.61018681  0.88964281  0.33778413
   0.77685994  0.72301177  0.33770843
Direct configuration=    46
   0.00513227  0.00189557  0.10114319
   0.36030990  0.00186394  0.10144542
   0.00520644  0.35703589  0.10159434
   0.65014621  0.64669269  0.10154242
   0.32892385  0.32547245  0.10141273
   0.68161138  0.00186351  0.10145590
   0.00522509  0.67822045  0.10143579
   0.11021773  0.38968843  0.33769232
   0.27687585  0.22300529  0.33780530
   0.11023317  0.88971854  0.33775352
   0.27690146  0.72305035  0.33764830
   0.61018180  0.38967415  0.33765637
   0.77685560  0.22301553  0.33769612
   0.61018226  0.88966154  0.33779000
   0.77684654  0.72302010  0.33770762
Direct configuration=    47
   0.00515841  0.00187234  0.10108827
   0.36031513  0.00182107  0.10146541
   0.00520625  0.35702233  0.10159741
   0.65015787  0.64666518  0.10155145
   0.32896245  0.32542324  0.10139672
   0.68167113  0.00187911  0.10145962
   0.00528112  0.67818661  0.10142071
   0.11017267  0.38970160  0.33770671
   0.27684900  0.22304119  0.33780056
   0.11020577  0.88973768  0.33776385
   0.27687637  0.72305624  0.33764940
   0.61016761  0.38968895  0.33767123
   0.77684099  0.22303491  0.33769798
   0.61017110  0.88970746  0.33780439
   0.77681369  0.72304051  0.33770562
Direct configuration=    48
   0.00518373  0.00186537  0.10105908
   0.36032958  0.00180300  0.10147601
   0.00522408  0.35699840  0.10159928
   0.65017291  0.64664735  0.10155641
   0.32897866  0.32539997  0.10138865
   0.68168550  0.00187132  0.10145833
   0.00530216  0.67817378  0.10141295
   0.11014934  0.38971937  0.33770763
   0.27683364  0.22304526  0.33780437
   0.11019821  0.88976526  0.33776293
   0.27686924  0.72306647  0.33765840
   0.61015443  0.38970504  0.33767397
   0.77683079  0.22305240  0.33770551
   0.61014840  0.88971853  0.33780412
   0.77678891  0.72304694  0.33771169
Direct configuration=    49
   0.00523580  0.00185104  0.10099904
   0.36035930  0.00176581  0.10149781
   0.00526074  0.35694918  0.10160313
   0.65020385  0.64661066  0.10156659
   0.32901201  0.32535211  0.10137205
   0.68171505  0.00185529  0.10145569
   0.00534542  0.67814740  0.10139701
   0.11010135  0.38975591  0.33770951
   0.27680204  0.22305363  0.33781221
   0.11018265  0.88982198  0.33776103
   0.27685458  0.72308751  0.33767691
   0.61012731  0.38973813  0.33767960
   0.77680979  0.22308836  0.33772102
   0.61010172  0.88974129  0.33780357
   0.77673794  0.72306016  0.33772416
Direct configuration=    50
   0.00524827  0.00184295  0.10098165
   0.36037086  0.00175610  0.10150272
   0.00527443  0.35693567  0.10160386
   0.65021709  0.64660181  0.10156881
   0.32902279  0.32534278  0.10136851
   0.68172248  0.00184413  0.10145479
   0.00535402  0.67813871  0.10139358
   0.11009723  0.38976294  0.33770968
   0.27679253  0.22306629  0.33781512
   0.11017019  0.88982411  0.33776041
   0.27684135  0.72310013  0.33768245
   0.61011574  0.38974544  0.33768082