   7   7   0  16
  0.4099393E+02  0.4700000E-09  0.4700000E-09  0.1500000E-08  0.5000000E-15
  1.000000000000000E-004
  CAR 
 Borophene                               
     14.77170924    -21.36514606  301     -2.44976086      1.00000000
    -21.365  0.0000E+00  0.0000E+00
    -21.245  0.0000E+00  0.0000E+00
    -21.124  0.0000E+00  0.0000E+00
    -21.004  0.0000E+00  0.0000E+00
    -20.883  0.0000E+00  0.0000E+00
    -20.763  0.0000E+00  0.0000E+00
    -20.642  0.0000E+00  0.0000E+00
    -20.522  0.0000E+00  0.0000E+00
    -20.401  0.0000E+00  0.0000E+00
    -20.281  0.2048E-17  0.2467E-18
    -20.161  0.4561E-12  0.5494E-13
    -20.040  0.7063E-08  0.8509E-09
    -19.920  0.7690E-05  0.9271E-06
    -19.799  0.6836E-03  0.8327E-04
    -19.679  0.7052E-02  0.9327E-03
    -19.558  0.1585E-01  0.2842E-02
    -19.438  0.1889E-01  0.5118E-02
    -19.317  0.2177E-01  0.7740E-02
    -19.197  0.2811E-01  0.1113E-01
    -19.076  0.4025E-01  0.1597E-01
    -18.956  0.2866E-01  0.1943E-01
    -18.836  0.4648E-02  0.1999E-01
    -18.715  0.1070E-03  0.2000E-01
    -18.595  0.2310E-06  0.2000E-01
    -18.474  0.3761E-10  0.2000E-01
    -18.354  0.4132E-15  0.2000E-01
    -18.233  0.0000E+00  0.2000E-01
    -18.113  0.0000E+00  0.2000E-01
    -17.992  0.0000E+00  0.2000E-01
    -17.872  0.0000E+00  0.2000E-01
    -17.751  0.0000E+00  0.2000E-01
    -17.631  0.4877E-14  0.2000E-01
    -17.511  0.2280E-09  0.2000E-01
    -17.390  0.6906E-06  0.2000E-01
    -17.270  0.1659E-03  0.2002E-01
    -17.149  0.4391E-02  0.2055E-01
    -17.029  0.1879E-01  0.2281E-01
    -16.908  0.2921E-01  0.2633E-01
    -16.788  0.2816E-01  0.2972E-01
    -16.667  0.1970E-01  0.3210E-01
    -16.547  0.1442E-01  0.3383E-01
    -16.426  0.1977E-01  0.3621E-01
    -16.306  0.1526E-01  0.3805E-01
    -16.186  0.2100E-01  0.4058E-01
    -16.065  0.2372E-01  0.4344E-01
    -15.945  0.2604E-01  0.4658E-01
    -15.824  0.3922E-01  0.5130E-01
    -15.704  0.3177E-01  0.5513E-01
    -15.583  0.2485E-01  0.5812E-01
    -15.463  0.1341E-01  0.5974E-01
    -15.342  0.2144E-02  0.5999E-01
    -15.222  0.5206E-04  0.6000E-01
    -15.101  0.1140E-06  0.6000E-01
    -14.981  0.1768E-10  0.6000E-01
    -14.861  0.1756E-15  0.6000E-01
    -14.740  0.0000E+00  0.6000E-01
    -14.620  0.0000E+00  0.6000E-01
    -14.499  0.0000E+00  0.6000E-01
    -14.379  0.0000E+00  0.6000E-01
    -14.258  0.0000E+00  0.6000E-01
    -14.138  0.0000E+00  0.6000E-01
    -14.017  0.0000E+00  0.6000E-01
    -13.897  0.0000E+00  0.6000E-01
    -13.776  0.0000E+00  0.6000E-01
    -13.656  0.0000E+00  0.6000E-01
    -13.535  0.0000E+00  0.6000E-01
    -13.415  0.0000E+00  0.6000E-01
    -13.295  0.5594E-16  0.6000E-01
    -13.174  0.7047E-11  0.6000E-01
    -13.054  0.5465E-07  0.6000E-01
    -12.933  0.2903E-04  0.6000E-01
    -12.813  0.1288E-02  0.6016E-01
    -12.692  0.7289E-02  0.6104E-01
    -12.572  0.1726E-01  0.6312E-01
    -12.451  0.2315E-01  0.6590E-01
    -12.331  0.2049E-01  0.6837E-01
    -12.210  0.2371E-01  0.7123E-01
    -12.090  0.2851E-01  0.7466E-01
    -11.970  0.1659E-01  0.7666E-01
    -11.849  0.6280E-02  0.7742E-01
    -11.729  0.2000E-01  0.7983E-01
    -11.608  0.2780E-01  0.8318E-01
    -11.488  0.9997E-02  0.8438E-01
    -11.367  0.1135E-01  0.8575E-01
    -11.247  0.2700E-01  0.8900E-01
    -11.126  0.1882E-01  0.9127E-01
    -11.006  0.1062E-01  0.9254E-01
    -10.885  0.1593E-01  0.9446E-01
    -10.765  0.2584E-01  0.9758E-01
    -10.645  0.2474E-01  0.1006E+00
    -10.524  0.9178E-02  0.1017E+00
    -10.404  0.9335E-02  0.1028E+00
    -10.283  0.2517E-01  0.1058E+00
    -10.163  0.1795E-01  0.1080E+00
    -10.042  0.5500E-02  0.1086E+00
     -9.922  0.1357E-01  0.1103E+00
     -9.801  0.2808E-01  0.1137E+00
     -9.681  0.2606E-01  0.1168E+00
     -9.560  0.2257E-01  0.1195E+00
     -9.440  0.1048E-01  0.1208E+00
     -9.320  0.1544E-02  0.1210E+00
     -9.199  0.9223E-03  0.1211E+00
     -9.079  0.6514E-02  0.1219E+00
     -8.958  0.1222E-01  0.1233E+00
     -8.838  0.1389E-01  0.1250E+00
     -8.717  0.1125E-01  0.1264E+00
     -8.597  0.1069E-01  0.1277E+00
     -8.476  0.1640E-01  0.1296E+00
     -8.356  0.1956E-01  0.1320E+00
     -8.235  0.1312E-01  0.1336E+00
     -8.115  0.2147E-01  0.1361E+00
     -7.995  0.2398E-01  0.1390E+00
     -7.874  0.4348E-01  0.1443E+00
     -7.754  0.5227E-01  0.1506E+00
     -7.633  0.3560E-01  0.1549E+00
     -7.513  0.1824E-01  0.1571E+00
     -7.392  0.2338E-01  0.1599E+00
     -7.272  0.4349E-01  0.1651E+00
     -7.151  0.4303E-01  0.1703E+00
     -7.031  0.1079E-01  0.1716E+00
     -6.910  0.4341E-02  0.1721E+00
     -6.790  0.2448E-02  0.1724E+00
     -6.669  0.6704E-02  0.1732E+00
     -6.549  0.1058E-01  0.1745E+00
     -6.429  0.3143E-02  0.1749E+00
     -6.308  0.5464E-02  0.1755E+00
     -6.188  0.2219E-01  0.1782E+00
     -6.067  0.3907E-01  0.1829E+00
     -5.947  0.4753E-01  0.1886E+00
     -5.826  0.4240E-01  0.1937E+00
     -5.706  0.3614E-01  0.1981E+00
     -5.585  0.2252E-01  0.2008E+00
     -5.465  0.1975E-01  0.2032E+00
     -5.344  0.1687E-01  0.2052E+00
     -5.224  0.2499E-01  0.2082E+00
     -5.104  0.2138E-01  0.2108E+00
     -4.983  0.1230E-01  0.2123E+00
     -4.863  0.1877E-01  0.2145E+00
     -4.742  0.1763E-01  0.2167E+00
     -4.622  0.2156E-01  0.2193E+00
     -4.501  0.1465E-01  0.2210E+00
     -4.381  0.1123E-01  0.2224E+00
     -4.260  0.1018E-01  0.2236E+00
     -4.140  0.2374E-01  0.2265E+00
     -4.019  0.1998E-01  0.2289E+00
     -3.899  0.1636E-01  0.2308E+00
     -3.779  0.1345E-01  0.2325E+00
     -3.658  0.1085E-01  0.2338E+00
     -3.538  0.1595E-01  0.2357E+00
     -3.417  0.5955E-02  0.2364E+00
     -3.297  0.5918E-02  0.2371E+00
     -3.176  0.9001E-02  0.2382E+00
     -3.056  0.6475E-02  0.2390E+00
     -2.935  0.5319E-02  0.2396E+00
     -2.815  0.2495E-02  0.2399E+00
     -2.694  0.5526E-03  0.2400E+00
     -2.574  0.1786E-04  0.2400E+00
     -2.454  0.4292E-07  0.2400E+00
     -2.333  0.6485E-11  0.2400E+00
     -2.213  0.5812E-16  0.2400E+00
     -2.092  0.0000E+00  0.2400E+00
     -1.972  0.0000E+00  0.2400E+00
     -1.851  0.0000E+00  0.2400E+00
     -1.731  0.1100E-14  0.2400E+00
     -1.610  0.8036E-10  0.2400E+00
     -1.490  0.3693E-06  0.2400E+00
     -1.369  0.1167E-03  0.2400E+00
     -1.249  0.3092E-02  0.2404E+00
     -1.129  0.1051E-01  0.2417E+00
     -1.008  0.1386E-01  0.2433E+00
     -0.888  0.3062E-01  0.2470E+00
     -0.767  0.3386E-01  0.2511E+00
     -0.647  0.1173E-01  0.2525E+00
     -0.526  0.6824E-02  0.2533E+00
     -0.406  0.1219E-01  0.2548E+00
     -0.285  0.2595E-01  0.2579E+00
     -0.165  0.1432E-01  0.2596E+00
     -0.044  0.7314E-02  0.2605E+00
      0.076  0.6471E-02  0.2613E+00
      0.197  0.1430E-01  0.2630E+00
      0.317  0.1643E-01  0.2650E+00
      0.437  0.1531E-01  0.2668E+00
      0.558  0.6360E-02  0.2676E+00
      0.678  0.5996E-02  0.2683E+00
      0.799  0.1164E-01  0.2697E+00
      0.919  0.1826E-01  0.2719E+00
      1.040  0.1448E-01  0.2737E+00
      1.160  0.7530E-02  0.2746E+00
      1.281  0.1418E-01  0.2763E+00
      1.401  0.2254E-01  0.2790E+00
      1.522  0.1373E-01  0.2807E+00
      1.642  0.2239E-01  0.2834E+00
      1.762  0.2628E-01  0.2865E+00
      1.883  0.2376E-01  0.2894E+00
      2.003  0.3987E-01  0.2942E+00
      2.124  0.3671E-01  0.2986E+00
      2.244  0.2047E-01  0.3011E+00
      2.365  0.2691E-01  0.3043E+00
      2.485  0.3066E-01  0.3080E+00
      2.606  0.3636E-01  0.3124E+00
      2.726  0.3789E-01  0.3170E+00
      2.847  0.4071E-01  0.3219E+00
      2.967  0.5962E-01  0.3290E+00
      3.087  0.6415E-01  0.3368E+00
      3.208  0.7280E-01  0.3455E+00
      3.328  0.6657E-01  0.3536E+00
      3.449  0.5660E-01  0.3604E+00
      3.569  0.6348E-01  0.3680E+00
      3.690  0.3901E-01  0.3727E+00
      3.810  0.2900E-01  0.3762E+00
      3.931  0.4372E-01  0.3815E+00
      4.051  0.4272E-01  0.3866E+00
      4.172  0.4743E-01  0.3923E+00
      4.292  0.5283E-01  0.3987E+00
      4.412  0.5523E-01  0.4054E+00
      4.533  0.5728E-01  0.4123E+00
      4.653  0.6293E-01  0.4198E+00
      4.774  0.6250E-01  0.4274E+00
      4.894  0.6101E-01  0.4347E+00
      5.015  0.6615E-01  0.4427E+00
      5.135  0.5585E-01  0.4494E+00
      5.256  0.4173E-01  0.4544E+00
      5.376  0.5938E-01  0.4616E+00
      5.497  0.5839E-01  0.4686E+00
      5.617  0.3796E-01  0.4732E+00
      5.737  0.4969E-01  0.4792E+00
      5.858  0.7615E-01  0.4884E+00
      5.978  0.7281E-01  0.4971E+00
      6.099  0.6138E-01  0.5045E+00
      6.219  0.4916E-01  0.5104E+00
      6.340  0.6600E-01  0.5184E+00
      6.460  0.5760E-01  0.5253E+00
      6.581  0.5431E-01  0.5319E+00
      6.701  0.7289E-01  0.5407E+00
      6.822  0.6496E-01  0.5485E+00
      6.942  0.6142E-01  0.5559E+00
      7.063  0.5017E-01  0.5619E+00
      7.183  0.5073E-01  0.5680E+00
      7.303  0.6907E-01  0.5763E+00
      7.424  0.6836E-01  0.5846E+00
      7.544  0.6395E-01  0.5923E+00
      7.665  0.5888E-01  0.5994E+00
      7.785  0.5243E-01  0.6057E+00
      7.906  0.3627E-01  0.6101E+00
      8.026  0.5013E-01  0.6161E+00
      8.147  0.7631E-01  0.6253E+00
      8.267  0.6606E-01  0.6332E+00
      8.388  0.4778E-01  0.6390E+00
      8.508  0.5049E-01  0.6451E+00
      8.628  0.6217E-01  0.6526E+00
      8.749  0.7709E-01  0.6619E+00
      8.869  0.1144E+00  0.6756E+00
      8.990  0.8071E-01  0.6854E+00
      9.110  0.7152E-01  0.6940E+00
      9.231  0.6966E-01  0.7024E+00
      9.351  0.6376E-01  0.7100E+00
      9.472  0.7707E-01  0.7193E+00
      9.592  0.6703E-01  0.7274E+00
      9.713  0.5326E-01  0.7338E+00
      9.833  0.5447E-01  0.7404E+00
      9.953  0.7303E-01  0.7492E+00
     10.074  0.4890E-01  0.7551E+00
     10.194  0.5581E-01  0.7618E+00
     10.315  0.7995E-01  0.7714E+00
     10.435  0.8774E-01  0.7820E+00
     10.556  0.8894E-01  0.7927E+00
     10.676  0.7023E-01  0.8012E+00
     10.797  0.6366E-01  0.8088E+00
     10.917  0.7098E-01  0.8174E+00
     11.038  0.6763E-01  0.8255E+00
     11.158  0.5663E-01  0.8323E+00
     11.278  0.5929E-01  0.8395E+00
     11.399  0.7355E-01  0.8483E+00
     11.519  0.8772E-01  0.8589E+00
     11.640  0.7362E-01  0.8678E+00
     11.760  0.8823E-01  0.8784E+00
     11.881  0.7108E-01  0.8870E+00
     12.001  0.5317E-01  0.8934E+00
     12.122  0.6332E-01  0.9010E+00
     12.242  0.7682E-01  0.9103E+00
     12.363  0.7168E-01  0.9189E+00
     12.483  0.6415E-01  0.9266E+00
     12.603  0.6789E-01  0.9348E+00
     12.724  0.6205E-01  0.9423E+00
     12.844  0.5406E-01  0.9488E+00
     12.965  0.4183E-01  0.9538E+00
     13.085  0.3560E-01  0.9581E+00
     13.206  0.1417E-01  0.9598E+00
     13.326  0.1470E-02  0.9600E+00
     13.447  0.2134E-04  0.9600E+00
     13.567  0.2571E-07  0.9600E+00
     13.688  0.2039E-11  0.9600E+00
     13.808  0.9473E-17  0.9600E+00
     13.929  0.0000E+00  0.9600E+00
     14.049  0.0000E+00  0.9600E+00
     14.169  0.0000E+00  0.9600E+00
     14.290  0.0000E+00  0.9600E+00
     14.410  0.0000E+00  0.9600E+00
     14.531  0.0000E+00  0.9600E+00
     14.651  0.0000E+00  0.9600E+00
     14.772  0.0000E+00  0.9600E+00
