       N       E                     dE             d eps       ncg     rms          rms(c)
DAV:   1     0.188683904821E+03    0.18868E+03   -0.25398E+04  3648   0.863E+02
DAV:   2    -0.118428011806E+03   -0.30711E+03   -0.30614E+03  5808   0.158E+02
DAV:   3    -0.127888407792E+03   -0.94604E+01   -0.94450E+01  5952   0.368E+01
DAV:   4    -0.127930483600E+03   -0.42076E-01   -0.42070E-01  6000   0.214E+00
DAV:   5    -0.127930516337E+03   -0.32737E-04   -0.32737E-04  5568   0.651E-02    0.227E+01
DAV:   6    -0.946017869984E+02    0.33329E+02   -0.57222E+01  4656   0.216E+01    0.124E+01
DAV:   7    -0.105804116617E+03   -0.11202E+02   -0.14239E+01  5568   0.112E+01    0.670E+00
DAV:   8    -0.111514564244E+03   -0.57104E+01   -0.49079E+00  5520   0.637E+00    0.375E+00
DAV:   9    -0.116816109705E+03   -0.53015E+01   -0.28417E+00  4416   0.472E+00    0.252E+00
DAV:  10    -0.120932078808E+03   -0.41160E+01   -0.31489E+00  5520   0.467E+00    0.135E+00
DAV:  11    -0.122784108900E+03   -0.18520E+01   -0.14382E+00  5232   0.283E+00    0.818E-01
DAV:  12    -0.123761453805E+03   -0.97734E+00   -0.78900E-01  5664   0.193E+00    0.399E-01
DAV:  13    -0.124062972849E+03   -0.30152E+00   -0.18291E-01  5328   0.954E-01    0.193E-01
DAV:  14    -0.124118637093E+03   -0.55664E-01   -0.30271E-02  4416   0.403E-01    0.108E-01
DAV:  15    -0.124142008443E+03   -0.23371E-01   -0.14318E-02  4320   0.292E-01    0.577E-02
DAV:  16    -0.124143560450E+03   -0.15520E-02   -0.21699E-03  4272   0.177E-01    0.372E-02
DAV:  17    -0.124144167372E+03   -0.60692E-03   -0.77632E-04  3984   0.952E-02    0.150E-02
DAV:  18    -0.124144189643E+03   -0.22272E-04   -0.14966E-04  3840   0.444E-02    0.845E-03
DAV:  19    -0.124144237612E+03   -0.47969E-04   -0.37986E-05  3840   0.272E-02    0.505E-03
DAV:  20    -0.124144261103E+03   -0.23491E-04   -0.19635E-05  3840   0.182E-02    0.357E-03
DAV:  21    -0.124144310308E+03   -0.49205E-04   -0.15323E-05  3744   0.157E-02    0.232E-03
DAV:  22    -0.124144334734E+03   -0.24426E-04   -0.51600E-06  4416   0.914E-03    0.136E-03
DAV:  23    -0.124144339001E+03   -0.42677E-05   -0.16092E-06  4848   0.499E-03    0.612E-04
DAV:  24    -0.124144341927E+03   -0.29254E-05   -0.32064E-07  5280   0.211E-03    0.330E-04
DAV:  25    -0.124144343314E+03   -0.13876E-05   -0.16710E-07  4272   0.146E-03    0.174E-04
DAV:  26    -0.124144343629E+03   -0.31435E-06   -0.73727E-08  5808   0.110E-03
   1 F= -.12563313E+03 E0= -.12563010E+03  d E =-.125633E+03  mag=     0.0000
       N       E                     dE             d eps       ncg     rms          rms(c)
DAV:   1    -0.124148099050E+03   -0.37557E-02   -0.64528E-01  3744   0.197E+00    0.271E-01
DAV:   2    -0.124144888567E+03    0.32105E-02   -0.15534E-02  5568   0.298E-01    0.119E-01
DAV:   3    -0.124144380336E+03    0.50823E-03   -0.24396E-03  5184   0.105E-01    0.330E-02
DAV:   4    -0.124144361868E+03    0.18468E-04   -0.18948E-04  5328   0.328E-02    0.118E-02
DAV:   5    -0.124144361461E+03    0.40752E-06   -0.10181E-05  5328   0.804E-03    0.375E-03
DAV:   6    -0.124144362621E+03   -0.11604E-05   -0.24963E-06  3984   0.365E-03    0.141E-03
DAV:   7    -0.124144363860E+03   -0.12386E-05   -0.22784E-07  4512   0.119E-03    0.672E-04
DAV:   8    -0.124144365870E+03   -0.20100E-05   -0.12260E-07  4032   0.663E-04    0.338E-04
DAV:   9    -0.124144367312E+03   -0.14423E-05   -0.90506E-08  4512   0.520E-04    0.208E-04
DAV:  10    -0.124144367952E+03   -0.63982E-06   -0.47253E-08  4416   0.396E-04
   2 F= -.12563340E+03 E0= -.12563037E+03  d E =-.261878E-03  mag=    -0.0000
       N       E                     dE             d eps       ncg     rms          rms(c)
DAV:   1    -0.124147310214E+03   -0.29429E-02   -0.15181E-01  3744   0.957E-01    0.131E-01
DAV:   2    -0.124146565562E+03    0.74465E-03   -0.36759E-03  5616   0.145E-01    0.578E-02
DAV:   3    -0.124146446723E+03    0.11884E-03   -0.58848E-04  6096   0.513E-02    0.158E-02
DAV:   4    -0.124146442633E+03    0.40897E-05   -0.40702E-05  5280   0.153E-02    0.576E-03
DAV:   5    -0.124146442702E+03   -0.69606E-07   -0.23982E-06  6144   0.392E-03
   3 F= -.12563536E+03 E0= -.12563234E+03  d E =-.222230E-02  mag=     0.0000
       N       E                     dE             d eps       ncg     rms          rms(c)
DAV:   1    -0.124146442038E+03    0.59441E-06   -0.38555E-06  4464   0.537E-03    0.104E-03
DAV:   2    -0.124146442106E+03   -0.67988E-07   -0.17983E-07  4800   0.931E-04
   4 F= -.12563536E+03 E0= -.12563234E+03  d E =-.222243E-02  mag=     0.0000
       N       E                     dE             d eps       ncg     rms          rms(c)
DAV:   1    -0.124146442562E+03   -0.52368E-06   -0.12107E-06  4224   0.263E-03    0.379E-04
DAV:   2    -0.124146442634E+03   -0.72248E-07   -0.33238E-08  4848   0.499E-04
   5 F= -.12563536E+03 E0= -.12563234E+03  d E =-.222267E-02  mag=     0.0000
       N       E                     dE             d eps       ncg     rms          rms(c)
DAV:   1    -0.124146442939E+03   -0.37697E-06   -0.50030E-07  4464   0.178E-03    0.308E-04
DAV:   2    -0.124146442981E+03   -0.41775E-07   -0.14335E-08  5232   0.314E-04
   6 F= -.12563536E+03 E0= -.12563234E+03  d E =-.222280E-02  mag=     0.0000
       N       E                     dE             d eps       ncg     rms          rms(c)
DAV:   1    -0.124146443141E+03   -0.20188E-06   -0.11400E-07  4512   0.875E-04    0.171E-04
DAV:   2    -0.124146443163E+03   -0.22411E-07   -0.34584E-09  5616   0.176E-04
   7 F= -.12563536E+03 E0= -.12563234E+03  d E =-.222287E-02  mag=     0.0000
       N       E                     dE             d eps       ncg     rms          rms(c)
DAV:   1    -0.124146449252E+03   -0.61106E-05   -0.42569E-03  3744   0.241E-01    0.116E-02
DAV:   2    -0.124146448315E+03    0.93634E-06   -0.48922E-05  4032   0.274E-02    0.712E-03
DAV:   3    -0.124146447676E+03    0.63959E-06   -0.63376E-06  4416   0.863E-03
   8 F= -.12563540E+03 E0= -.12563239E+03  d E =-.473720E-04  mag=    -0.0000
       N       E                     dE             d eps       ncg     rms          rms(c)
DAV:   1    -0.124146474232E+03   -0.25917E-04   -0.38448E-02  3648   0.723E-01    0.354E-02
DAV:   2    -0.124146465516E+03    0.87158E-05   -0.44185E-04  4224   0.826E-02    0.217E-02
DAV:   3    -0.124146459865E+03    0.56509E-05   -0.57680E-05  4608   0.260E-02    0.527E-03
DAV:   4    -0.124146460260E+03   -0.39530E-06   -0.69424E-06  4128   0.915E-03
   9 F= -.12563555E+03 E0= -.12563253E+03  d E =-.188617E-03  mag=    -0.0000
       N       E                     dE             d eps       ncg     rms          rms(c)
DAV:   1    -0.124146537419E+03   -0.77554E-04   -0.15336E-01  3648   0.144E+00    0.696E-02
DAV:   2    -0.124146506154E+03    0.31264E-04   -0.17689E-03  4032   0.165E-01    0.427E-02
DAV:   3    -0.124146479751E+03    0.26404E-04   -0.22790E-04  4896   0.516E-02    0.105E-02
DAV:   4    -0.124146480947E+03   -0.11967E-05   -0.26232E-05  4512   0.178E-02    0.447E-03
DAV:   5    -0.124146481580E+03   -0.63254E-06   -0.13285E-06  4032   0.401E-03
  10 F= -.12563582E+03 E0= -.12563281E+03  d E =-.468074E-03  mag=     0.0000
       N       E                     dE             d eps       ncg     rms          rms(c)
DAV:   1    -0.124146733462E+03   -0.25251E-03   -0.61325E-01  3648   0.289E+00    0.139E-01
DAV:   2    -0.124146617320E+03    0.11614E-03   -0.70992E-03  4320   0.330E-01    0.855E-02
DAV:   3    -0.124146508268E+03    0.10905E-03   -0.91320E-04  4848   0.103E-01    0.210E-02
DAV:   4    -0.124146510869E+03   -0.26008E-05   -0.10167E-04  5184   0.352E-02    0.898E-03
DAV:   5    -0.124146509961E+03    0.90775E-06   -0.51517E-06  4320   0.764E-03
  11 F= -.12563637E+03 E0= -.12563335E+03  d E =-.101640E-02  mag=    -0.0000
       N       E                     dE             d eps       ncg     rms          rms(c)
DAV:   1    -0.124147435586E+03   -0.92472E-03   -0.24534E+00  3648   0.578E+00    0.278E-01
DAV:   2    -0.124146955920E+03    0.47967E-03   -0.28359E-02  4128   0.660E-01    0.171E-01
DAV:   3    -0.124146527996E+03    0.42792E-03   -0.36608E-03  4704   0.207E-01    0.416E-02
DAV:   4    -0.124146536148E+03   -0.81514E-05   -0.41285E-04  5664   0.716E-02    0.179E-02
DAV:   5    -0.124146532907E+03    0.32407E-05   -0.22995E-05  4368   0.178E-02    0.362E-03
DAV:   6    -0.124146532943E+03   -0.35714E-07   -0.98018E-06  3744   0.133E-02
  12 F= -.12563745E+03 E0= -.12563443E+03  d E =-.209247E-02  mag=     0.0000
       N       E                     dE             d eps       ncg     rms          rms(c)
DAV:   1    -0.124150015322E+03   -0.34824E-02   -0.98059E+00  3648   0.115E+01    0.557E-01
DAV:   2    -0.124148253578E+03    0.17617E-02   -0.11372E-01  4560   0.132E+00    0.341E-01
DAV:   3    -0.124146417664E+03    0.18359E-02   -0.14574E-02  5520   0.407E-01    0.822E-02
DAV:   4    -0.124146427762E+03   -0.10098E-04   -0.15061E-03  5376   0.140E-01    0.365E-02
DAV:   5    -0.124146403598E+03    0.24164E-04   -0.89277E-05  4704   0.350E-02    0.718E-03
DAV:   6    -0.124146401868E+03    0.17302E-05   -0.35822E-05  3744   0.251E-02    0.454E-03
DAV:   7    -0.124146402463E+03   -0.59553E-06   -0.16541E-05  3936   0.177E-02    0.234E-03
DAV:   8    -0.124146417176E+03   -0.14713E-04   -0.96659E-06  4848   0.125E-02    0.191E-03
DAV:   9    -0.124146426880E+03   -0.97044E-05   -0.82943E-06  4800   0.126E-02    0.102E-03
DAV:  10    -0.124146436696E+03   -0.98157E-05   -0.10456E-05  4704   0.141E-02    0.548E-04
DAV:  11    -0.124146439728E+03   -0.30322E-05   -0.41131E-06  4464   0.864E-03    0.547E-04
DAV:  12    -0.124146443853E+03   -0.41256E-05   -0.64187E-07  4128   0.234E-03    0.244E-04
DAV:  13    -0.124146444540E+03   -0.68659E-06   -0.10726E-07  5232   0.983E-04
  13 F= -.12563952E+03 E0= -.12563650E+03  d E =-.416407E-02  mag=     0.0000
       N       E                     dE             d eps       ncg     rms          rms(c)
DAV:   1    -0.124158862151E+03   -0.12418E-01   -0.39155E+01  3648   0.231E+01    0.111E+00
DAV:   2    -0.124152681326E+03    0.61808E-02   -0.46015E-01  3936   0.266E+00    0.686E-01
DAV:   3    -0.124145465420E+03    0.72159E-02   -0.59293E-02  6048   0.826E-01    0.168E-01
DAV:   4    -0.124145502440E+03   -0.37020E-04   -0.53741E-03  5568   0.263E-01    0.751E-02
DAV:   5    -0.124145409262E+03    0.93178E-04   -0.28732E-04  4800   0.522E-02    0.145E-02
DAV:   6    -0.124145397234E+03    0.12028E-04   -0.63681E-05  5472   0.212E-02    0.695E-03
DAV:   7    -0.124145416695E+03   -0.19461E-04   -0.96190E-06  4944   0.856E-03    0.411E-03
DAV:   8    -0.124145434169E+03   -0.17474E-04   -0.24022E-06  4752   0.371E-03    0.357E-03
DAV:   9    -0.124145455115E+03   -0.20946E-04   -0.20584E-06  4800   0.288E-03    0.141E-03
DAV:  10    -0.124145475101E+03   -0.19986E-04   -0.22585E-06  4752   0.289E-03    0.107E-03
DAV:  11    -0.124145484670E+03   -0.95685E-05   -0.11106E-06  4320   0.270E-03    0.608E-04
DAV:  12    -0.124145490537E+03   -0.58666E-05   -0.89237E-07  4656   0.254E-03    0.238E-04
DAV:  13    -0.124145491806E+03   -0.12694E-05   -0.25471E-07  4752   0.172E-03    0.900E-05
DAV:  14    -0.124145491865E+03   -0.59270E-07   -0.68438E-08  5856   0.110E-03
  14 F= -.12564311E+03 E0= -.12564009E+03  d E =-.775663E-02  mag=     0.0000
       N       E                     dE             d eps       ncg     rms          rms(c)
DAV:   1    -0.124186661019E+03   -0.41169E-01   -0.15576E+02  3648   0.460E+01    0.221E+00
DAV:   2    -0.124169578666E+03    0.17082E-01   -0.19026E+00  4032   0.547E+00    0.137E+00
DAV:   3    -0.124140877025E+03    0.28702E-01   -0.23054E-01  6144   0.162E+00    0.354E-01
DAV:   4    -0.124141072287E+03   -0.19526E-03   -0.19830E-02  5472   0.504E-01    0.155E-01
DAV:   5    -0.124140600633E+03    0.47165E-03   -0.12713E-03  5664   0.102E-01    0.310E-02
DAV:   6    -0.124140553021E+03    0.47612E-04   -0.22190E-04  5088   0.395E-02    0.144E-02
DAV:   7    -0.124140607064E+03   -0.54043E-04   -0.46196E-05  4416   0.186E-02    0.831E-03
DAV:   8    -0.124140648156E+03   -0.41092E-04   -0.78318E-06  4752   0.687E-03    0.744E-03
DAV:   9    -0.124140700798E+03   -0.52643E-04   -0.76408E-06  5040   0.594E-03    0.274E-03
DAV:  10    -0.124140741276E+03   -0.40478E-04   -0.50538E-06  4608   0.457E-03    0.188E-03
DAV:  11    -0.124140761180E+03   -0.19904E-04   -0.20590E-06  4944   0.309E-03    0.138E-03
DAV:  12    -0.124140774103E+03   -0.12923E-04   -0.16968E-06  4560   0.265E-03    0.537E-04
DAV:  13    -0.124140779137E+03   -0.50343E-05   -0.56112E-07  4944   0.168E-03    0.189E-04
DAV:  14    -0.124140780447E+03   -0.13097E-05   -0.14366E-07  4320   0.115E-03    0.953E-05
DAV:  15    -0.124140780656E+03   -0.20933E-06   -0.43622E-08  6048   0.824E-04
  15 F= -.12564847E+03 E0= -.12564545E+03  d E =-.131115E-01  mag=    -0.0000
       N       E                     dE             d eps       ncg     rms          rms(c)
DAV:   1    -0.124215418842E+03   -0.74638E-01   -0.60958E+02  3648   0.906E+01    0.433E+00
DAV:   2    -0.124236630552E+03   -0.21212E-01   -0.83063E+00  3840   0.117E+01    0.277E+00
DAV:   3    -0.124119244197E+03    0.11739E+00   -0.80914E-01  6240   0.309E+00    0.867E-01
DAV:   4    -0.124121305001E+03   -0.20608E-02   -0.66452E-02  5664   0.943E-01    0.317E-01
DAV:   5    -0.124119600433E+03    0.17046E-02   -0.67625E-03  5760   0.207E-01    0.559E-02
DAV:   6    -0.124119427906E+03    0.17253E-03   -0.62037E-04  5952   0.696E-02    0.280E-02
DAV:   7    -0.124119582204E+03   -0.15430E-03   -0.24767E-04  4224   0.442E-02    0.156E-02
DAV:   8    -0.124119713943E+03   -0.13174E-03   -0.42185E-05  4224   0.154E-02    0.122E-02
DAV:   9    -0.124119810352E+03   -0.96409E-04   -0.18769E-05  4992   0.109E-02    0.530E-03
DAV:  10    -0.124119867554E+03   -0.57201E-04   -0.81790E-06  5040   0.675E-03    0.399E-03
DAV:  11    -0.124119917358E+03   -0.49804E-04   -0.10470E-05  4896   0.662E-03    0.218E-03
DAV:  12    -0.124119931065E+03   -0.13708E-04   -0.18812E-06  4848   0.351E-03    0.702E-04
DAV:  13    -0.124119935261E+03   -0.41954E-05   -0.49876E-07  5568   0.273E-03    0.354E-04
DAV:  14    -0.124119937923E+03   -0.26621E-05   -0.31204E-07  4416   0.215E-03    0.175E-04
DAV:  15    -0.124119939446E+03   -0.15236E-05   -0.17914E-07  4560   0.133E-03    0.678E-05
DAV:  16    -0.124119939605E+03   -0.15859E-06   -0.22576E-08  6096   0.616E-04
  16 F= -.12565235E+03 E0= -.12564931E+03  d E =-.169926E-01  mag=    -0.0000
       N       E                     dE             d eps       ncg     rms          rms(c)
DAV:   1    -0.124119938593E+03    0.85359E-06   -0.62949E-06  5136   0.925E-03    0.446E-04
DAV:   2    -0.124119938594E+03   -0.85447E-09   -0.72404E-08  6480   0.106E-03
  17 F= -.12565235E+03 E0= -.12564931E+03  d E =-.182272E-05  mag=    -0.0000
       N       E                     dE             d eps       ncg     rms          rms(c)
DAV:   1    -0.124119935458E+03    0.31352E-05   -0.55649E-05  4656   0.276E-02    0.138E-03
DAV:   2    -0.124119935437E+03    0.20921E-07   -0.58039E-07  5904   0.296E-03
  18 F= -.12565236E+03 E0= -.12564932E+03  d E =-.716832E-05  mag=    -0.0000
       N       E                     dE             d eps       ncg     rms          rms(c)
DAV:   1    -0.124119929184E+03    0.62731E-05   -0.22085E-04  3936   0.551E-02    0.280E-03
DAV:   2    -0.124119929107E+03    0.77124E-07   -0.23870E-06  4320   0.610E-03
  19 F= -.12565237E+03 E0= -.12564933E+03  d E =-.178463E-04  mag=    -0.0000
       N       E                     dE             d eps       ncg     rms          rms(c)
DAV:   1    -0.124119916727E+03    0.12458E-04   -0.88424E-04  3696   0.110E-01    0.559E-03
DAV:   2    -0.124119916450E+03    0.27616E-06   -0.98769E-06  4224   0.125E-02
  20 F= -.12565239E+03 E0= -.12564935E+03  d E =-.392064E-04  mag=    -0.0000
       N       E                     dE             d eps       ncg     rms          rms(c)
DAV:   1    -0.124119892238E+03    0.24489E-04   -0.35371E-03  3648   0.220E-01    0.112E-02
DAV:   2    -0.124119891197E+03    0.10408E-05   -0.39623E-05  4128   0.250E-02    0.693E-03
DAV:   3    -0.124119890894E+03    0.30260E-06   -0.51968E-06  4416   0.786E-03
  21 F= -.12565243E+03 E0= -.12564939E+03  d E =-.817298E-04  mag=    -0.0000
       N       E                     dE             d eps       ncg     rms          rms(c)
DAV:   1    -0.124119845273E+03    0.45924E-04   -0.14551E-02  3648   0.445E-01    0.219E-02
DAV:   2    -0.124119841303E+03    0.39704E-05   -0.16624E-04  3936   0.510E-02    0.135E-02
DAV:   3    -0.124119839534E+03    0.17695E-05   -0.21551E-05  4512   0.159E-02    0.331E-03
DAV:   4    -0.124119839853E+03   -0.31913E-06   -0.29586E-06  3648   0.595E-03
  22 F= -.12565252E+03 E0= -.12564948E+03  d E =-.167033E-03  mag=     0.0000
       N       E                     dE             d eps       ncg     rms          rms(c)
DAV:   1    -0.124119758977E+03    0.80556E-04   -0.57915E-02  3648   0.888E-01    0.428E-02
DAV:   2    -0.124119744899E+03    0.14079E-04   -0.66567E-04  3792   0.102E-01    0.263E-02
DAV:   3    -0.124119736088E+03    0.88106E-05   -0.87519E-05  5040   0.320E-02    0.646E-03
DAV:   4    -0.124119737056E+03   -0.96783E-06   -0.10302E-05  3840   0.116E-02    0.276E-03
DAV:   5    -0.124119737584E+03   -0.52827E-06   -0.13410E-06  3648   0.497E-03
  23 F= -.12565269E+03 E0= -.12564965E+03  d E =-.337886E-03  mag=     0.0000
       N       E                     dE             d eps       ncg     rms          rms(c)
DAV:   1    -0.124119617134E+03    0.11992E-03   -0.23155E-01  3648   0.177E+00    0.855E-02
DAV:   2    -0.124119568494E+03    0.48639E-04   -0.26615E-03  3648   0.203E-01    0.526E-02
DAV:   3    -0.124119528668E+03    0.39826E-04   -0.35614E-04  4800   0.650E-02    0.128E-02
DAV:   4    -0.124119530405E+03   -0.17378E-05   -0.41467E-05  4896   0.227E-02    0.551E-03
DAV:   5    -0.124119531396E+03   -0.99084E-06   -0.34888E-06  3648   0.771E-03
  24 F= -.12565303E+03 E0= -.12564999E+03  d E =-.680096E-03  mag=     0.0000
       N       E                     dE             d eps       ncg     rms          rms(c)
DAV:   1    -0.124119452064E+03    0.78342E-04   -0.92615E-01  3648   0.355E+00    0.171E-01
DAV:   2    -0.124119271882E+03    0.18018E-03   -0.10660E-02  3648   0.407E-01    0.105E-01
DAV:   3    -0.124119108035E+03    0.16385E-03   -0.13992E-03  4032   0.130E-01    0.261E-02
DAV:   4    -0.124119113891E+03   -0.58563E-05   -0.18554E-04  6000   0.464E-02    0.108E-02
DAV:   5    -0.124119113984E+03   -0.93147E-07   -0.84808E-06  4080   0.108E-02
  25 F= -.12565372E+03 E0= -.12565068E+03  d E =-.136816E-02  mag=    -0.0000
       N       E                     dE             d eps       ncg     rms          rms(c)
DAV:   1    -0.124119625676E+03   -0.51178E-03   -0.37047E+00  3648   0.710E+00    0.342E-01
DAV:   2    -0.124118914529E+03    0.71115E-03   -0.42765E-02  4032   0.813E-01    0.210E-01
DAV:   3    -0.124118261233E+03    0.65330E-03   -0.55224E-03  4560   0.253E-01    0.512E-02
DAV:   4    -0.124118271840E+03   -0.10607E-04   -0.63217E-04  5856   0.882E-02    0.221E-02
DAV:   5    -0.124118268450E+03    0.33896E-05   -0.36201E-05  4368   0.225E-02    0.444E-03
DAV:   6    -0.124118268068E+03    0.38229E-06   -0.21781E-05  4512   0.194E-02    0.275E-03
DAV:   7    -0.124118267673E+03    0.39455E-06   -0.10188E-05  4080   0.136E-02    0.146E-03
DAV:   8    -0.124118272977E+03   -0.53042E-05   -0.32308E-06  4704   0.733E-03    0.117E-03
DAV:   9    -0.124118277523E+03   -0.45461E-05   -0.13781E-06  4992   0.494E-03    0.656E-04
DAV:  10    -0.124118282186E+03   -0.46630E-05   -0.11284E-06  4752   0.419E-03    0.369E-04
DAV:  11    -0.124118285335E+03   -0.31482E-05   -0.44082E-07  4704   0.227E-03    0.367E-04
DAV:  12    -0.124118286784E+03   -0.14493E-05   -0.11176E-07  4896   0.944E-04    0.173E-04
DAV:  13    -0.124118287674E+03   -0.89017E-06   -0.70043E-08  4560   0.507E-04
  26 F= -.12565514E+03 E0= -.12565210E+03  d E =-.278768E-02  mag=     0.0000
       N       E                     dE             d eps       ncg     rms          rms(c)
DAV:   1    -0.124121817954E+03   -0.35312E-02   -0.14800E+01  3648   0.142E+01    0.683E-01
DAV:   2    -0.124119092045E+03    0.27259E-02   -0.17200E-01  3648   0.163E+00    0.421E-01
DAV:   3    -0.124116512421E+03    0.25796E-02   -0.23018E-02  5904   0.516E-01    0.102E-01
DAV:   4    -0.124116551713E+03   -0.39292E-04   -0.21687E-03  5760   0.164E-01    0.456E-02
DAV:   5    -0.124116520256E+03    0.31456E-04   -0.10723E-04  4800   0.328E-02    0.885E-03
DAV:   6    -0.124116516571E+03    0.36853E-05   -0.25187E-05  5616   0.134E-02    0.413E-03
DAV:   7    -0.124116524853E+03   -0.82819E-05   -0.29591E-06  4128   0.501E-03    0.262E-03
DAV:   8    -0.124116532076E+03   -0.72230E-05   -0.67534E-07  4752   0.217E-03    0.214E-03
DAV:   9    -0.124116543105E+03   -0.11029E-04   -0.99829E-07  4752   0.202E-03    0.692E-04
DAV:  10    -0.124116551922E+03   -0.88170E-05   -0.87581E-07  4752   0.163E-03    0.791E-04
DAV:  11    -0.124116555817E+03   -0.38954E-05   -0.25421E-07  4752   0.975E-04    0.486E-04
DAV:  12    -0.124116558436E+03   -0.26195E-05   -0.17859E-07  4512   0.770E-04    0.154E-04
DAV:  13    -0.124116559747E+03   -0.13102E-05   -0.10065E-07  4848   0.507E-04    0.555E-05
DAV:  14    -0.124116559897E+03   -0.15053E-06   -0.76751E-09  5520   0.232E-04
  27 F= -.12565804E+03 E0= -.12565500E+03  d E =-.569524E-02  mag=    -0.0000
       N       E                     dE             d eps       ncg     rms          rms(c)
DAV:   1    -0.124132386151E+03   -0.15826E-01   -0.59069E+01  3648   0.283E+01    0.136E+00
DAV:   2    -0.124123113902E+03    0.92722E-02   -0.70028E-01  3840   0.331E+00    0.844E-01
DAV:   3    -0.124112732181E+03    0.10382E-01   -0.90787E-02  5856   0.102E+00    0.208E-01
DAV:   4    -0.124112840198E+03   -0.10802E-03   -0.83330E-03  6144   0.321E-01    0.939E-02
DAV:   5    -0.124112725475E+03    0.11472E-03   -0.43588E-04  5664   0.645E-02    0.193E-02
DAV:   6    -0.124112711151E+03    0.14325E-04   -0.95934E-05  5760   0.262E-02    0.838E-03
DAV:   7    -0.124112740901E+03   -0.29751E-04   -0.13809E-05  4224   0.108E-02    0.490E-03
DAV:   8    -0.124112762741E+03   -0.21840E-04   -0.22951E-06  4800   0.360E-03    0.406E-03
DAV:   9    -0.124112789474E+03   -0.26732E-04   -0.33276E-06  4800   0.372E-03    0.141E-03
DAV:  10    -0.124112808334E+03   -0.18860E-04   -0.22953E-06  4848   0.279E-03    0.124E-03
DAV:  11    -0.124112818273E+03   -0.99387E-05   -0.11090E-06  4848   0.199E-03    0.607E-04
DAV:  12    -0.124112822914E+03   -0.46409E-05   -0.42804E-07  4992   0.142E-03    0.197E-04
DAV:  13    -0.124112824004E+03   -0.10908E-05   -0.67197E-08  5376   0.832E-04    0.993E-05
DAV:  14    -0.124112824870E+03   -0.86532E-06   -0.54450E-08  4752   0.482E-04
  28 F= -.12566418E+03 E0= -.12566113E+03  d E =-.118345E-01  mag=    -0.0000
       N       E                     dE             d eps       ncg     rms          rms(c)
DAV:   1    -0.124166785783E+03   -0.53962E-01   -0.23430E+02  3648   0.564E+01    0.270E+00
DAV:   2    -0.124146584762E+03    0.20201E-01   -0.29286E+00  3936   0.684E+00    0.170E+00
DAV:   3    -0.124103773584E+03    0.42811E-01   -0.34031E-01  5952   0.198E+00    0.461E-01
DAV:   4    -0.124104593948E+03   -0.82036E-03   -0.29039E-02  5952   0.605E-01    0.195E-01
DAV:   5    -0.124103981399E+03    0.61255E-03   -0.20806E-03  6048   0.123E-01    0.396E-02
DAV:   6    -0.124103931129E+03    0.50270E-04   -0.30747E-04  5376   0.485E-02    0.174E-02
DAV:   7    -0.124104026121E+03   -0.94993E-04   -0.82830E-05  4224   0.270E-02    0.108E-02
DAV:   8    -0.124104088625E+03   -0.62503E-04   -0.11276E-05  4944   0.888E-03    0.746E-03
DAV:   9    -0.124104140354E+03   -0.51730E-04   -0.75438E-06  4848   0.626E-03    0.307E-03
DAV:  10    -0.124104177970E+03   -0.37616E-04   -0.56480E-06  5136   0.475E-03    0.228E-03
DAV:  11    -0.124104201181E+03   -0.23210E-04   -0.37090E-06  5376   0.367E-03    0.159E-03
DAV:  12    -0.124104209065E+03   -0.78844E-05   -0.86415E-07  5280   0.207E-03    0.379E-04
DAV:  13    -0.124104211236E+03   -0.21704E-05   -0.11267E-07  4992   0.967E-04    0.226E-04
DAV:  14    -0.124104212508E+03   -0.12722E-05   -0.56790E-08  5088   0.604E-04    0.111E-04
DAV:  15    -0.124104213502E+03   -0.99409E-06   -0.69839E-08  4512   0.474E-04
  29 F= -.12567798E+03 E0= -.12567489E+03  d E =-.256269E-01  mag=     0.0000
       N       E                     dE             d eps       ncg     rms          rms(c)
DAV:   1    -0.124152515266E+03   -0.48303E-01   -0.90669E+02  3648   0.110E+02    0.527E+00
DAV:   2    -0.124263094291E+03   -0.11058E+00   -0.13247E+01  4320   0.149E+01    0.340E+00
DAV:   3    -0.124082509556E+03    0.18058E+00   -0.10714E+00  6096   0.354E+00    0.118E+00
DAV:   4    -0.124082720182E+03   -0.21063E-03   -0.10216E-01  6000   0.117E+00    0.376E-01
DAV:   5    -0.124080320112E+03    0.24001E-02   -0.11718E-02  5856   0.275E-01    0.638E-02
DAV:   6    -0.124080143310E+03    0.17680E-03   -0.74326E-04  6336   0.803E-02    0.312E-02
DAV:   7    -0.124080369244E+03   -0.22593E-03   -0.31263E-04  4416   0.518E-02    0.183E-02
DAV:   8    -0.124080519419E+03   -0.15018E-03   -0.56501E-05  4128   0.181E-02    0.139E-02
DAV:   9    -0.124080624207E+03   -0.10479E-03   -0.25465E-05  4752   0.127E-02    0.698E-03
DAV:  10    -0.124080693856E+03   -0.69649E-04   -0.13975E-05  4752   0.870E-03    0.550E-03
DAV:  11    -0.124080737885E+03   -0.44029E-04   -0.11961E-05  5088   0.729E-03    0.267E-03
DAV:  12    -0.124080749149E+03   -0.11264E-04   -0.12769E-06  6528   0.296E-03    0.136E-03
DAV:  13    -0.124080757433E+03   -0.82837E-05   -0.84960E-07  5568   0.213E-03    0.686E-04
DAV:  14    -0.124080760415E+03   -0.29827E-05   -0.14568E-07  5328   0.878E-04    0.323E-04
DAV:  15    -0.124080761991E+03   -0.15753E-05   -0.80004E-08  4608   0.578E-04    0.118E-04
DAV:  16    -0.124080762454E+03   -0.46376E-06   -0.15245E-08  5808   0.243E-04
  30 F= -.12571206E+03 E0= -.12570888E+03  d E =-.597109E-01  mag=    -0.0000
       N       E                     dE             d eps       ncg     rms          rms(c)
DAV:   1    -0.122434041015E+03    0.16467E+01   -0.31781E+03  3648   0.198E+02    0.104E+01
DAV:   2    -0.124722617220E+03   -0.22886E+01   -0.65519E+01  3648   0.344E+01    0.671E+00
DAV:   3    -0.124114408279E+03    0.60821E+00   -0.28966E+00  6432   0.625E+00    0.371E+00
DAV:   4    -0.123964299698E+03    0.15011E+00   -0.82840E-01  5904   0.309E+00    0.692E-01
DAV:   5    -0.123962580735E+03    0.17190E-02   -0.40735E-02  4896   0.705E-01    0.258E-01
DAV:   6    -0.123959488698E+03    0.30920E-02   -0.10607E-02  6432   0.281E-01    0.751E-02
DAV:   7    -0.123959260310E+03    0.22839E-03   -0.12912E-03  4800   0.111E-01    0.367E-02
DAV:   8    -0.123959607274E+03   -0.34696E-03   -0.52551E-04  5088   0.574E-02    0.299E-02
DAV:   9    -0.123959772896E+03   -0.16562E-03   -0.99987E-05  4944   0.261E-02    0.176E-02
DAV:  10    -0.123959888934E+03   -0.11604E-03   -0.75404E-05  4656   0.236E-02    0.167E-02
DAV:  11    -0.123959935224E+03   -0.46290E-04   -0.29664E-05  4896   0.133E-02    0.541E-03
DAV:  12    -0.123959955792E+03   -0.20568E-04   -0.85816E-06  5136   0.746E-03    0.454E-03
DAV:  13    -0.123959964196E+03   -0.84038E-05   -0.11261E-06  4992   0.323E-03    0.258E-03
DAV:  14    -0.123959969914E+03   -0.57181E-05   -0.58680E-07  5904   0.214E-03    0.794E-04
DAV:  15    -0.123959972737E+03   -0.28236E-05   -0.20121E-07  5136   0.107E-03    0.336E-04
DAV:  16    -0.123959973898E+03   -0.11609E-05   -0.60497E-08  5376   0.566E-04    0.222E-04
DAV:  17    -0.123959974487E+03   -0.58846E-06   -0.26504E-08  5376   0.319E-04
  31 F= -.12577321E+03 E0= -.12577026E+03  d E =-.120856E+00  mag=     0.0000
       N       E                     dE             d eps       ncg     rms          rms(c)
DAV:   1    -0.123969298390E+03   -0.93245E-02   -0.17968E+02  3648   0.497E+01    0.238E+00
DAV:   2    -0.123947204918E+03    0.22093E-01   -0.22407E+00  5088   0.596E+00    0.147E+00
DAV:   3    -0.123915340086E+03    0.31865E-01   -0.23157E-01  6576   0.162E+00    0.408E-01
DAV:   4    -0.123915248469E+03    0.91617E-04   -0.21543E-02  5952   0.525E-01    0.159E-01
DAV:   5    -0.123914796970E+03    0.45150E-03   -0.15040E-03  6720   0.115E-01    0.325E-02
DAV:   6    -0.123914756100E+03    0.40871E-04   -0.20269E-04  4416   0.431E-02    0.145E-02
DAV:   7    -0.123914812138E+03   -0.56038E-04   -0.69213E-05  5184   0.259E-02    0.878E-03
DAV:   8    -0.123914855023E+03   -0.42886E-04   -0.12504E-05  4800   0.979E-03    0.752E-03
DAV:   9    -0.123914893183E+03   -0.38160E-04   -0.65666E-06  5280   0.643E-03    0.333E-03
DAV:  10    -0.123914928051E+03   -0.34868E-04   -0.71931E-06  5184   0.567E-03    0.194E-03
DAV:  11    -0.123914940718E+03   -0.12667E-04   -0.17727E-06  5472   0.276E-03    0.147E-03
DAV:  12    -0.123914948348E+03   -0.76296E-05   -0.12637E-06  5616   0.231E-03    0.802E-04
DAV:  13    -0.123914950457E+03   -0.21090E-05   -0.17046E-07  6000   0.941E-04    0.352E-04
DAV:  14    -0.123914951708E+03   -0.12508E-05   -0.10535E-07  5664   0.684E-04    0.195E-04
DAV:  15    -0.123914952045E+03   -0.33719E-06   -0.14588E-08  5808   0.283E-04
  32 F= -.12578117E+03 E0= -.12577824E+03  d E =-.796327E-02  mag=    -0.0000
       N       E                     dE             d eps       ncg     rms          rms(c)
DAV:   1    -0.123925308678E+03   -0.10357E-01   -0.42680E+00  3648   0.767E+00    0.369E-01
DAV:   2    -0.123924391889E+03    0.91679E-03   -0.49861E-02  5376   0.880E-01    0.224E-01
DAV:   3    -0.123923656186E+03    0.73570E-03   -0.58675E-03  5520   0.258E-01    0.572E-02
DAV:   4    -0.123923676614E+03   -0.20428E-04   -0.65974E-04  5184   0.907E-02    0.237E-02
DAV:   5    -0.123923675485E+03    0.11293E-05   -0.30391E-05  5280   0.194E-02    0.481E-03
DAV:   6    -0.123923674520E+03    0.96502E-06   -0.49637E-06  5664   0.680E-03
  33 F= -.12578148E+03 E0= -.12577856E+03  d E =-.827596E-02  mag=    -0.0000
       N       E                     dE             d eps       ncg     rms          rms(c)
DAV:   1    -0.123942648645E+03   -0.18973E-01   -0.16526E-01  3648   0.158E+00    0.719E-02
DAV:   2    -0.123942647985E+03    0.65943E-06   -0.22110E-03  6528   0.189E-01    0.463E-02
DAV:   3    -0.123942621926E+03    0.26059E-04   -0.24562E-04  5376   0.552E-02    0.166E-02
DAV:   4    -0.123942623001E+03   -0.10745E-05   -0.49846E-05  5088   0.244E-02    0.104E-02
DAV:   5    -0.123942624506E+03   -0.15051E-05   -0.22363E-06  6048   0.615E-03    0.375E-03
DAV:   6    -0.123942626039E+03   -0.15329E-05   -0.95555E-07  5904   0.328E-03    0.147E-03
DAV:   7    -0.123942627135E+03   -0.10968E-05   -0.10431E-07  6144   0.117E-03    0.810E-04
DAV:   8    -0.123942628839E+03   -0.17035E-05   -0.88974E-08  5376   0.821E-04    0.528E-04
DAV:   9    -0.123942630663E+03   -0.18243E-05   -0.75643E-08  5856   0.770E-04    0.497E-04
DAV:  10    -0.123942632574E+03   -0.19106E-05   -0.74629E-08  4944   0.570E-04    0.153E-04
DAV:  11    -0.123942633224E+03   -0.65066E-06   -0.14015E-08  6432   0.218E-04
  34 F= -.12579916E+03 E0= -.12579624E+03  d E =-.176807E-01  mag=     0.0000
       N       E                     dE             d eps       ncg     rms          rms(c)
DAV:   1    -0.123990617395E+03   -0.47985E-01   -0.14864E+00  3648   0.474E+00    0.215E-01
DAV:   2    -0.123990628170E+03   -0.10774E-04   -0.19855E-02  6624   0.566E-01    0.139E-01
DAV:   3    -0.123990394128E+03    0.23404E-03   -0.21619E-03  5520   0.164E-01    0.496E-02
DAV:   4    -0.123990391789E+03    0.23390E-05   -0.43987E-04  5088   0.727E-02    0.312E-02
DAV:   5    -0.123990393398E+03   -0.16094E-05   -0.18185E-05  4896   0.179E-02    0.116E-02
DAV:   6    -0.123990393135E+03    0.26345E-06   -0.84714E-06  6144   0.987E-03
  35 F= -.12584303E+03 E0= -.12584010E+03  d E =-.615523E-01  mag=    -0.0000
       N       E                     dE             d eps       ncg     rms          rms(c)
DAV:   1    -0.124045397182E+03   -0.55004E-01   -0.59506E+00  3648   0.949E+00    0.433E-01
DAV:   2    -0.124045471910E+03   -0.74728E-04   -0.80053E-02  6816   0.114E+00    0.279E-01
DAV:   3    -0.124044456478E+03    0.10154E-02   -0.87078E-03  5856   0.329E-01    0.100E-01
DAV:   4    -0.124044430461E+03    0.26017E-04   -0.17211E-03  4704   0.145E-01    0.628E-02
DAV:   5    -0.124044435490E+03   -0.50293E-05   -0.80502E-05  5280   0.378E-02    0.225E-02
DAV:   6    -0.124044434073E+03    0.14173E-05   -0.35405E-05  5472   0.202E-02    0.773E-03
DAV:   7    -0.124044435213E+03   -0.11403E-05   -0.34079E-06  6048   0.725E-03    0.413E-03
DAV:   8    -0.124044438340E+03   -0.31264E-05   -0.17452E-06  5712   0.454E-03    0.135E-03
DAV:   9    -0.124044440729E+03   -0.23890E-05   -0.22067E-07  6144   0.167E-03    0.159E-03
DAV:  10    -0.124044443930E+03   -0.32007E-05   -0.12825E-07  5472   0.914E-04    0.787E-04
DAV:  11    -0.124044448729E+03   -0.47999E-05   -0.34200E-07  5856   0.135E-03    0.441E-04
DAV:  12    -0.124044450036E+03   -0.13070E-05   -0.18573E-08  5664   0.351E-04    0.253E-04
DAV:  13    -0.124044452123E+03   -0.20863E-05   -0.61244E-08  5088   0.423E-04    0.969E-05
DAV:  14    -0.124044452483E+03   -0.36065E-06   -0.51985E-09  6048   0.156E-04
  36 F= -.12588909E+03 E0= -.12588615E+03  d E =-.107608E+00  mag=    -0.0000
       N       E                     dE             d eps       ncg     rms          rms(c)
DAV:   1    -0.124049952029E+03   -0.54999E-02   -0.60418E-01  3648   0.303E+00    0.138E-01
DAV:   2    -0.124049946398E+03    0.56307E-05   -0.82233E-03  6000   0.365E-01    0.895E-02
DAV:   3    -0.124049855601E+03    0.90797E-04   -0.94514E-04  6144   0.109E-01    0.332E-02
DAV:   4    -0.124049853821E+03    0.17800E-05   -0.18568E-04  4704   0.477E-02    0.211E-02
DAV:   5    -0.124049855691E+03   -0.18700E-05   -0.87887E-06  5136   0.126E-02    0.716E-03
DAV:   6    -0.124049855652E+03    0.39142E-07   -0.35172E-06  5232   0.647E-03
  37 F= -.12589188E+03 E0= -.12588894E+03  d E =-.110402E+00  mag=     0.0000
       N       E                     dE             d eps       ncg     rms          rms(c)
DAV:   1    -0.124049804426E+03    0.51264E-04   -0.23794E-04  4320   0.604E-02    0.339E-03
DAV:   2    -0.124049804513E+03   -0.86437E-07   -0.35776E-06  6288   0.751E-03
  38 F= -.12589188E+03 E0= -.12588894E+03  d E =-.110403E+00  mag=     0.0000
       N       E                     dE             d eps       ncg     rms          rms(c)
DAV:   1    -0.124050557462E+03   -0.75304E-03   -0.55567E-03  3648   0.289E-01    0.137E-02
DAV:   2    -0.124050556455E+03    0.10067E-05   -0.52717E-05  6432   0.296E-02    0.790E-03
DAV:   3    -0.124050556158E+03    0.29680E-06   -0.53502E-06  3744   0.814E-03
  39 F= -.12589259E+03 E0= -.12588965E+03  d E =-.702100E-03  mag=     0.0000
       N       E                     dE             d eps       ncg     rms          rms(c)
DAV:   1    -0.124052608367E+03   -0.20519E-02   -0.49938E-02  3648   0.867E-01    0.417E-02
DAV:   2    -0.124052597789E+03    0.10577E-04   -0.46015E-04  6720   0.877E-02    0.241E-02
DAV:   3    -0.124052592597E+03    0.51925E-05   -0.48371E-05  4224   0.244E-02    0.653E-03
DAV:   4    -0.124052593460E+03   -0.86341E-06   -0.61223E-06  5376   0.916E-03
  40 F= -.12589448E+03 E0= -.12589153E+03  d E =-.259126E-02  mag=     0.0000
       N       E                     dE             d eps       ncg     rms          rms(c)
DAV:   1    -0.124055754400E+03   -0.31618E-02   -0.19970E-01  3648   0.173E+00    0.829E-02
DAV:   2    -0.124055719019E+03    0.35380E-04   -0.18343E-03  7104   0.175E-01    0.478E-02
DAV:   3    -0.124055690440E+03    0.28580E-04   -0.19153E-04  4800   0.484E-02    0.130E-02
DAV:   4    -0.124055692864E+03   -0.24248E-05   -0.23695E-05  5664   0.180E-02    0.553E-03
DAV:   5    -0.124055693776E+03   -0.91114E-06   -0.65113E-07  5040   0.331E-03
  41 F= -.12589728E+03 E0= -.12589434E+03  d E =-.539653E-02  mag=     0.0000
       N       E                     dE             d eps       ncg     rms          rms(c)
DAV:   1    -0.124058272623E+03   -0.25798E-02   -0.79908E-01  3648   0.346E+00    0.166E-01
DAV:   2    -0.124058125874E+03    0.14675E-03   -0.72959E-03  7296   0.349E-01    0.955E-02
DAV:   3    -0.124058003065E+03    0.12281E-03   -0.77555E-04  4704   0.970E-02    0.256E-02
DAV:   4    -0.124058009505E+03   -0.64396E-05   -0.94348E-05  5856   0.361E-02    0.110E-02
DAV:   5    -0.124058012092E+03   -0.25871E-05   -0.25657E-06  5184   0.661E-03    0.444E-03
DAV:   6    -0.124058012686E+03   -0.59460E-06   -0.82938E-07  5184   0.311E-03
  42 F= -.12589901E+03 E0= -.12589609E+03  d E =-.712951E-02  mag=    -0.0000
       N       E                     dE             d eps       ncg     rms          rms(c)
DAV:   1    -0.124059232067E+03   -0.12200E-02   -0.30906E-02  3648   0.689E-01    0.317E-02
DAV:   2    -0.124059233116E+03   -0.10490E-05   -0.28647E-04  6864   0.688E-02    0.195E-02
DAV:   3    -0.124059230170E+03    0.29459E-05   -0.31128E-05  3840   0.195E-02    0.577E-03
DAV:   4    -0.124059230624E+03   -0.45428E-06   -0.57441E-06  6096   0.809E-03
  43 F= -.12590016E+03 E0= -.12589723E+03  d E =-.114376E-02  mag=    -0.0000
       N       E                     dE             d eps       ncg     rms          rms(c)
DAV:   1    -0.124061568569E+03   -0.23384E-02   -0.27800E-01  3648   0.207E+00    0.953E-02
DAV:   2    -0.124061586490E+03   -0.17921E-04   -0.25707E-03  7296   0.206E-01    0.586E-02
DAV:   3    -0.124061551625E+03    0.34865E-04   -0.27218E-04  4704   0.575E-02    0.173E-02
DAV:   4    -0.124061552883E+03   -0.12581E-05   -0.48548E-05  5664   0.236E-02    0.869E-03
DAV:   5    -0.124061554355E+03   -0.14717E-05   -0.16303E-06  4704   0.533E-03    0.355E-03
DAV:   6    -0.124061554595E+03   -0.23960E-06   -0.38980E-07  4992   0.216E-03
  44 F= -.12590226E+03 E0= -.12589933E+03  d E =-.324335E-02  mag=     0.0000
       N       E                     dE             d eps       ncg     rms          rms(c)
DAV:   1    -0.124060301246E+03    0.12531E-02   -0.11123E+00  3648   0.413E+00    0.190E-01
DAV:   2    -0.124060378575E+03   -0.77329E-04   -0.10280E-02  7296   0.412E-01    0.116E-01
DAV:   3    -0.124060232829E+03    0.14575E-03   -0.10618E-03  4704   0.114E-01    0.342E-02
DAV:   4    -0.124060234902E+03   -0.20725E-05   -0.18729E-04  6288   0.463E-02    0.170E-02
DAV:   5    -0.124060239380E+03   -0.44781E-05   -0.56918E-06  5184   0.100E-02    0.709E-03
DAV:   6    -0.124060239992E+03   -0.61177E-06   -0.14585E-06  5472   0.417E-03
  45 F= -.12590049E+03 E0= -.12589757E+03  d E =-.147190E-02  mag=     0.0000
       N       E                     dE             d eps       ncg     rms          rms(c)
DAV:   1    -0.124062022013E+03   -0.17826E-02   -0.57972E-01  3648   0.298E+00    0.137E-01
DAV:   2    -0.124062054465E+03   -0.32452E-04   -0.52887E-03  7296   0.296E-01    0.839E-02
DAV:   3    -0.124061983553E+03    0.70912E-04   -0.58245E-04  5184   0.835E-02    0.248E-02
DAV:   4    -0.124061983774E+03   -0.22109E-06   -0.10199E-04  5760   0.339E-02    0.125E-02
DAV:   5    -0.124061986577E+03   -0.28027E-05   -0.37249E-06  4608   0.807E-03    0.498E-03
DAV:   6    -0.124061987015E+03   -0.43851E-06   -0.84218E-07  5376   0.319E-03
  46 F= -.12590256E+03 E0= -.12589964E+03  d E =-.354992E-02  mag=    -0.0000
       N       E                     dE             d eps       ncg     rms          rms(c)
DAV:   1    -0.124062659419E+03   -0.67284E-03   -0.87577E-03  3648   0.314E-01    0.284E-02
DAV:   2    -0.124062631532E+03    0.27887E-04   -0.18037E-04  6912   0.440E-02    0.136E-02
DAV:   3    -0.124062625948E+03    0.55836E-05   -0.26232E-05  4704   0.143E-02    0.372E-03
DAV:   4    -0.124062625868E+03    0.80767E-07   -0.23362E-06  5664   0.509E-03
  47 F= -.12590322E+03 E0= -.12590030E+03  d E =-.659188E-03  mag=    -0.0000
       N       E                     dE             d eps       ncg     rms          rms(c)
DAV:   1    -0.124063863026E+03   -0.12371E-02   -0.78815E-02  3744   0.942E-01    0.854E-02
DAV:   2    -0.124063611461E+03    0.25157E-03   -0.16023E-03  6816   0.131E-01    0.405E-02
DAV:   3    -0.124063562877E+03    0.48584E-04   -0.23059E-04  5280   0.425E-02    0.113E-02
DAV:   4    -0.124063561969E+03    0.90753E-06   -0.19750E-05  6144   0.148E-02    0.439E-03
DAV:   5    -0.124063562054E+03   -0.84431E-07   -0.57628E-07  4032   0.294E-03
  48 F= -.12590422E+03 E0= -.12590132E+03  d E =-.165541E-02  mag=    -0.0000
       N       E                     dE             d eps       ncg     rms          rms(c)
DAV:   1    -0.124063583144E+03   -0.21175E-04   -0.23454E-03  3840   0.162E-01    0.146E-02
DAV:   2    -0.124063575821E+03    0.73231E-05   -0.47775E-05  6192   0.225E-02    0.696E-03
DAV:   3    -0.124063574427E+03    0.13939E-05   -0.71663E-06  4704   0.757E-03    0.199E-03
DAV:   4    -0.124063574456E+03   -0.28830E-07   -0.63403E-07  4608   0.271E-03
  49 F= -.12590424E+03 E0= -.12590135E+03  d E =-.167799E-02  mag=    -0.0000
       N       E                     dE             d eps       ncg     rms          rms(c)
DAV:   1    -0.124064180306E+03   -0.60588E-03   -0.18330E-02  3648   0.537E-01    0.271E-02
DAV:   2    -0.124064173250E+03    0.70561E-05   -0.17686E-04  5472   0.529E-02    0.153E-02
DAV:   3    -0.124064171383E+03    0.18675E-05   -0.16881E-05  4176   0.144E-02    0.489E-03
DAV:   4    -0.124064171708E+03   -0.32487E-06   -0.23841E-06  4512   0.543E-03
  50 F= -.12590488E+03 E0= -.12590199E+03  d E =-.637617E-03  mag=     0.0000
       N       E                     dE             d eps       ncg     rms          rms(c)
DAV:   1    -0.124065384679E+03   -0.12133E-02   -0.16499E-01  3648   0.161E+00    0.813E-02
DAV:   2    -0.124065325634E+03    0.59045E-04   -0.15888E-03  5568   0.158E-01    0.457E-02
DAV:   3    -0.124065305388E+03    0.20246E-04   -0.15059E-04  4944   0.427E-02    0.147E-02
DAV:   4    -0.124065306912E+03   -0.15242E-05   -0.20325E-05  4800   0.158E-02    0.493E-03
DAV:   5    -0.124065307521E+03   -0.60857E-06   -0.84754E-07  5472   0.379E-03
  51 F= -.12590614E+03 E0= -.12590326E+03  d E =-.189516E-02  mag=     0.0000
       N       E                     dE             d eps       ncg     rms          rms(c)
DAV:   1    -0.124064917027E+03    0.38989E-03   -0.66049E-01  3648   0.322E+00    0.162E-01
DAV:   2    -0.124064694694E+03    0.22233E-03   -0.63884E-03  6240   0.316E-01    0.912E-02
DAV:   3    -0.124064599690E+03    0.95003E-04   -0.56209E-04  5280   0.822E-02    0.289E-02
DAV:   4    -0.124064603593E+03   -0.39028E-05   -0.77148E-05  5616   0.309E-02    0.948E-03
DAV:   5    -0.124064605363E+03   -0.17700E-05   -0.27145E-06  4608   0.688E-03    0.387E-03
DAV:   6    -0.124064605408E+03   -0.44495E-07   -0.73452E-07  4752   0.351E-03
  52 F= -.12590568E+03 E0= -.12590284E+03  d E =-.143962E-02  mag=     0.0000
       N       E                     dE             d eps       ncg     rms          rms(c)
DAV:   1    -0.124065624726E+03   -0.10194E-02   -0.25081E-01  3648   0.199E+00    0.998E-02
DAV:   2    -0.124065536425E+03    0.88302E-04   -0.24148E-03  5472   0.195E-01    0.562E-02
DAV:   3    -0.124065502679E+03    0.33746E-04   -0.23131E-04  5616   0.528E-02    0.179E-02
DAV:   4    -0.124065505033E+03   -0.23538E-05   -0.30194E-05  5328   0.192E-02    0.604E-03
DAV:   5    -0.124065506074E+03   -0.10411E-05   -0.11635E-06  4512   0.452E-03    0.236E-03
DAV:   6    -0.124065506215E+03   -0.14143E-06   -0.28476E-07  5040   0.224E-03
  53 F= -.12590643E+03 E0= -.12590357E+03  d E =-.218807E-02  mag=     0.0000
       N       E                     dE             d eps       ncg     rms          rms(c)
DAV:   1    -0.124065981603E+03   -0.47553E-03   -0.14351E-02  3648   0.472E-01    0.241E-02
DAV:   2    -0.124065975609E+03    0.59932E-05   -0.12525E-04  5760   0.451E-02    0.138E-02
DAV:   3    -0.124065973674E+03    0.19349E-05   -0.17157E-05  3744   0.137E-02    0.386E-03
DAV:   4    -0.124065973825E+03   -0.15032E-06   -0.22333E-06  4992   0.540E-03
  54 F= -.12590693E+03 E0= -.12590407E+03  d E =-.504248E-03  mag=     0.0000
       N       E                     dE             d eps       ncg     rms          rms(c)
DAV:   1    -0.124066868235E+03   -0.89456E-03   -0.12911E-01  3648   0.142E+00    0.725E-02
DAV:   2    -0.124066819781E+03    0.48453E-04   -0.11192E-03  7200   0.134E-01    0.417E-02
DAV:   3    -0.124066797526E+03    0.22255E-04   -0.14721E-04  4608   0.395E-02    0.113E-02
DAV:   4    -0.124066798075E+03   -0.54862E-06   -0.17805E-05  5088   0.153E-02    0.480E-03
DAV:   5    -0.124066798559E+03   -0.48384E-06   -0.67259E-07  5520   0.345E-03
  55 F= -.12590787E+03 E0= -.12590500E+03  d E =-.143913E-02  mag=    -0.0000
       N       E                     dE             d eps       ncg     rms          rms(c)
DAV:   1    -0.124066160765E+03    0.63731E-03   -0.51632E-01  3648   0.283E+00    0.144E-01
DAV:   2    -0.124065975378E+03    0.18539E-03   -0.44310E-03  7296   0.268E-01    0.832E-02
DAV:   3    -0.124065882104E+03    0.93274E-04   -0.60049E-04  4608   0.796E-02    0.222E-02
DAV:   4    -0.124065882600E+03   -0.49626E-06   -0.71585E-05  5664   0.308E-02    0.964E-03
DAV:   5    -0.124065884045E+03   -0.14451E-05   -0.24909E-06  5472   0.671E-03    0.404E-03
DAV:   6    -0.124065884548E+03   -0.50296E-06   -0.74620E-07  5472   0.356E-03
  56 F= -.12590717E+03 E0= -.12590430E+03  d E =-.744540E-03  mag=     0.0000
       N       E                     dE             d eps       ncg     rms          rms(c)
DAV:   1    -0.124067018136E+03   -0.11341E-02   -0.25472E-01  3648   0.199E+00    0.101E-01
DAV:   2    -0.124066925470E+03    0.92666E-04   -0.21961E-03  6816   0.189E-01    0.585E-02
DAV:   3    -0.124066880916E+03    0.44554E-04   -0.29429E-04  5136   0.560E-02    0.157E-02
DAV:   4    -0.124066882016E+03   -0.11007E-05   -0.35111E-05  5472   0.217E-02    0.675E-03
DAV:   5    -0.124066882991E+03   -0.97508E-06   -0.13466E-06  5424   0.521E-03
  57 F= -.12590802E+03 E0= -.12590515E+03  d E =-.158894E-02  mag=     0.0000
       N       E                     dE             d eps       ncg     rms          rms(c)
DAV:   1    -0.124067007925E+03   -0.12591E-03   -0.45672E-03  4896   0.273E-01    0.162E-02
DAV:   2    -0.124067002500E+03    0.54248E-05   -0.58838E-05  5424   0.305E-02    0.820E-03
DAV:   3    -0.124067001818E+03    0.68192E-06   -0.61559E-06  4992   0.938E-03
  58 F= -.12590818E+03 E0= -.12590530E+03  d E =-.155901E-03  mag=     0.0000
       N       E                     dE             d eps       ncg     rms          rms(c)
DAV:   1    -0.124067074517E+03   -0.72017E-04   -0.17682E-02  3744   0.539E-01    0.317E-02
DAV:   2    -0.124067058407E+03    0.16110E-04   -0.24494E-04  6528   0.632E-02    0.171E-02
DAV:   3    -0.124067055062E+03    0.33448E-05   -0.27222E-05  4560   0.191E-02    0.649E-03
DAV:   4    -0.124067055097E+03   -0.34480E-07   -0.50536E-06  3840   0.931E-03
  59 F= -.12590830E+03 E0= -.12590543E+03  d E =-.281458E-03  mag=    -0.0000
       N       E                     dE             d eps       ncg     rms          rms(c)
DAV:   1    -0.124067161917E+03   -0.10686E-03   -0.73588E-03  3840   0.342E-01    0.152E-02
DAV:   2    -0.124067160773E+03    0.11442E-05   -0.46038E-05  4224   0.283E-02    0.916E-03
DAV:   3    -0.124067160797E+03   -0.23820E-07   -0.73680E-06  4032   0.104E-02
  60 F= -.12590847E+03 E0= -.12590560E+03  d E =-.167593E-03  mag=     0.0000
       N       E                     dE             d eps       ncg     rms          rms(c)
DAV:   1    -0.124067309015E+03   -0.14824E-03   -0.66375E-02  3648   0.103E+00    0.459E-02
DAV:   2    -0.124067301764E+03    0.72511E-05   -0.42117E-04  5472   0.845E-02    0.275E-02
DAV:   3    -0.124067297298E+03    0.44658E-05   -0.60175E-05  4560   0.267E-02    0.554E-03
DAV:   4    -0.124067297832E+03   -0.53419E-06   -0.76643E-06  3984   0.127E-02
  61 F= -.12590879E+03 E0= -.12590593E+03  d E =-.490835E-03  mag=    -0.0000
       N       E                     dE             d eps       ncg     rms          rms(c)
DAV:   1    -0.124066812181E+03    0.48512E-03   -0.26528E-01  3648   0.205E+00    0.914E-02
DAV:   2    -0.124066786410E+03    0.25771E-04   -0.16702E-03  5808   0.168E-01    0.547E-02
DAV:   3    -0.124066762307E+03    0.24102E-04   -0.23596E-04  5040   0.518E-02    0.110E-02
DAV:   4    -0.124066764085E+03   -0.17776E-05   -0.25857E-05  4752   0.224E-02    0.510E-03
DAV:   5    -0.124066764821E+03   -0.73569E-06   -0.54342E-06  3984   0.118E-02
  62 F= -.12590863E+03 E0= -.12590579E+03  d E =-.332696E-03  mag=     0.0000
       N       E                     dE             d eps       ncg     rms          rms(c)
DAV:   1    -0.124067256186E+03   -0.49210E-03   -0.11184E-01  3648   0.133E+00    0.591E-02
DAV:   2    -0.124067241896E+03    0.14291E-04   -0.71588E-04  5424   0.110E-01    0.354E-02
DAV:   3    -0.124067233483E+03    0.84125E-05   -0.10163E-04  4368   0.343E-02    0.703E-03
DAV:   4    -0.124067234366E+03   -0.88314E-06   -0.12019E-05  4512   0.155E-02    0.329E-03
DAV:   5    -0.124067234840E+03   -0.47381E-06   -0.30832E-06  4512   0.882E-03
  63 F= -.12590886E+03 E0= -.12590600E+03  d E =-.558860E-03  mag=     0.0000
       N       E                     dE             d eps       ncg     rms          rms(c)
DAV:   1    -0.124067189356E+03    0.45010E-04   -0.23824E-03  3792   0.199E-01    0.108E-02
DAV:   2    -0.124067186984E+03    0.23722E-05   -0.31574E-05  4704   0.229E-02    0.604E-03
DAV:   3    -0.124067186440E+03    0.54377E-06   -0.53358E-06  4848   0.860E-03
  64 F= -.12590889E+03 E0= -.12590604E+03  d E =-.269160E-04  mag=    -0.0000
       N       E                     dE             d eps       ncg     rms          rms(c)
DAV:   1    -0.124067163981E+03    0.23003E-04   -0.26449E-04  3648   0.664E-02    0.417E-03
DAV:   2    -0.124067163666E+03    0.31581E-06   -0.39601E-06  3744   0.888E-03
  65 F= -.12590889E+03 E0= -.12590604E+03  d E =-.289359E-04  mag=    -0.0000
       N       E                     dE             d eps       ncg     rms          rms(c)
DAV:   1    -0.124067091303E+03    0.72678E-04   -0.18300E-03  3648   0.174E-01    0.805E-03
DAV:   2    -0.124067090949E+03    0.35412E-06   -0.19695E-05  4656   0.192E-02    0.506E-03
DAV:   3    -0.124067091068E+03   -0.11886E-06   -0.36605E-06  4944   0.831E-03
  66 F= -.12590891E+03 E0= -.12590606E+03  d E =-.177565E-04  mag=     0.0000
       N       E                     dE             d eps       ncg     rms          rms(c)
DAV:   1    -0.124067046994E+03    0.43956E-04   -0.50134E-04  3696   0.909E-02    0.454E-03
DAV:   2    -0.124067046875E+03    0.11865E-06   -0.58473E-06  3840   0.111E-02
  67 F= -.12590891E+03 E0= -.12590607E+03  d E =-.202889E-04  mag=     0.0000
       N       E                     dE             d eps       ncg     rms          rms(c)
DAV:   1    -0.124066951215E+03    0.95779E-04   -0.18660E-03  3936   0.169E-01    0.854E-03
DAV:   2    -0.124066950223E+03    0.99192E-06   -0.19737E-05  3840   0.188E-02    0.510E-03
DAV:   3    -0.124066950459E+03   -0.23660E-06   -0.37789E-06  4608   0.838E-03
  68 F= -.12590893E+03 E0= -.12590609E+03  d E =-.175441E-04  mag=    -0.0000
       N       E                     dE             d eps       ncg     rms          rms(c)
DAV:   1    -0.124066778593E+03    0.17163E-03   -0.50872E-03  3648   0.278E-01    0.137E-02
DAV:   2    -0.124066776463E+03    0.21301E-05   -0.52667E-05  3840   0.305E-02    0.825E-03
DAV:   3    -0.124066776582E+03   -0.11999E-06   -0.88666E-06  4608   0.121E-02
  69 F= -.12590894E+03 E0= -.12590610E+03  d E =-.305607E-04  mag=     0.0000
       N       E                     dE             d eps       ncg     rms          rms(c)
DAV:   1    -0.124066622810E+03    0.15365E-03   -0.32105E-03  3648   0.217E-01    0.107E-02
DAV:   2    -0.124066621442E+03    0.13689E-05   -0.33052E-05  3888   0.253E-02    0.656E-03
DAV:   3    -0.124066622350E+03   -0.90867E-06   -0.76275E-06  4560   0.125E-02
  70 F= -.12590896E+03 E0= -.12590613E+03  d E =-.216741E-04  mag=    -0.0000
       N       E                     dE             d eps       ncg     rms          rms(c)
DAV:   1    -0.124066141456E+03    0.47999E-03   -0.28734E-02  3648   0.647E-01    0.315E-02
DAV:   2    -0.124066132149E+03    0.93069E-05   -0.27259E-04  4176   0.686E-02    0.189E-02
DAV:   3    -0.124066130355E+03    0.17935E-05   -0.45709E-05  4992   0.256E-02    0.458E-03
DAV:   4    -0.124066131273E+03   -0.91749E-06   -0.12850E-05  3744   0.176E-02    0.231E-03
DAV:   5    -0.124066129598E+03    0.16747E-05   -0.60443E-06  3840   0.119E-02    0.114E-03
DAV:   6    -0.124066128771E+03    0.82704E-06   -0.13118E-06  4656   0.545E-03
  71 F= -.12590900E+03 E0= -.12590618E+03  d E =-.561325E-04  mag=     0.0000
       N       E                     dE             d eps       ncg     rms          rms(c)
DAV:   1    -0.124065909435E+03    0.22016E-03   -0.51897E-03  3648   0.275E-01    0.132E-02
DAV:   2    -0.124065907574E+03    0.18614E-05   -0.48581E-05  4176   0.283E-02    0.789E-03
DAV:   3    -0.124065907040E+03    0.53392E-06   -0.74307E-06  4128   0.929E-03
  72 F= -.12590900E+03 E0= -.12590619E+03  d E =-.591299E-04  mag=    -0.0000
       N       E                     dE             d eps       ncg     rms          rms(c)
DAV:   1    -0.124065837161E+03    0.70413E-04   -0.58792E-04  3744   0.924E-02    0.495E-03
DAV:   2    -0.124065837040E+03    0.12082E-06   -0.60971E-06  5712   0.100E-02
  73 F= -.12590901E+03 E0= -.12590620E+03  d E =-.766763E-05  mag=    -0.0000
       N       E                     dE             d eps       ncg     rms          rms(c)
DAV:   1    -0.124065623469E+03    0.21369E-03   -0.50722E-03  3648   0.273E-01    0.136E-02
DAV:   2    -0.124065621874E+03    0.15955E-05   -0.50925E-05  3936   0.289E-02    0.830E-03
DAV:   3    -0.124065621402E+03    0.47200E-06   -0.74928E-06  4272   0.957E-03
  74 F= -.12590902E+03 E0= -.12590623E+03  d E =-.251062E-04  mag=    -0.0000
       N       E                     dE             d eps       ncg     rms          rms(c)
DAV:   1    -0.124065176980E+03    0.44489E-03   -0.20691E-02  3648   0.549E-01    0.271E-02
DAV:   2    -0.124065170216E+03    0.67647E-05   -0.20901E-04  4176   0.584E-02    0.164E-02
DAV:   3    -0.124065167844E+03    0.23722E-05   -0.30675E-05  4800   0.191E-02    0.428E-03
DAV:   4    -0.124065168104E+03   -0.26079E-06   -0.43911E-06  4368   0.771E-03
  75 F= -.12590904E+03 E0= -.12590626E+03  d E =-.381557E-04  mag=     0.0000
       N       E                     dE             d eps       ncg     rms          rms(c)
DAV:   1    -0.124065066691E+03    0.10115E-03   -0.11488E-03  3744   0.128E-01    0.635E-03
DAV:   2    -0.124065066482E+03    0.20847E-06   -0.12510E-05  3936   0.145E-02    0.385E-03
DAV:   3    -0.124065066407E+03    0.75253E-07   -0.16604E-06  3984   0.505E-03
  76 F= -.12590905E+03 E0= -.12590628E+03  d E =-.122345E-04  mag=     0.0000
       N       E                     dE             d eps       ncg     rms          rms(c)
DAV:   1    -0.124064759151E+03    0.30733E-03   -0.10348E-02  3648   0.386E-01    0.189E-02
DAV:   2    -0.124064755834E+03    0.33177E-05   -0.10761E-04  4320   0.419E-02    0.113E-02
DAV:   3    -0.124064754674E+03    0.11595E-05   -0.13950E-05  4320   0.132E-02    0.291E-03
DAV:   4    -0.124064754878E+03   -0.20393E-06   -0.24151E-06  4080   0.663E-03
  77 F= -.12590908E+03 E0= -.12590632E+03  d E =-.426205E-04  mag=     0.0000
       N       E                     dE             d eps       ncg     rms          rms(c)
DAV:   1    -0.124064120699E+03    0.63397E-03   -0.41304E-02  3648   0.770E-01    0.376E-02
DAV:   2    -0.124064107577E+03    0.13122E-04   -0.42848E-04  4272   0.833E-02    0.224E-02
DAV:   3    -0.124064102387E+03    0.51903E-05   -0.55325E-05  4560   0.258E-02    0.570E-03
DAV:   4    -0.124064102857E+03   -0.47005E-06   -0.81431E-06  4944   0.112E-02
  78 F= -.12590911E+03 E0= -.12590638E+03  d E =-.750510E-04  mag=    -0.0000
       N       E                     dE             d eps       ncg     rms          rms(c)
DAV:   1    -0.124063926760E+03    0.17563E-03   -0.39940E-03  3744   0.239E-01    0.119E-02
DAV:   2    -0.124063925432E+03    0.13287E-05   -0.44641E-05  4032   0.278E-02    0.705E-03
DAV:   3    -0.124063925382E+03    0.49306E-07   -0.68084E-06  4272   0.110E-02
  79 F= -.12590914E+03 E0= -.12590641E+03  d E =-.266432E-04  mag=    -0.0000
       N       E                     dE             d eps       ncg     rms          rms(c)
DAV:   1    -0.124063374912E+03    0.55052E-03   -0.35918E-02  3648   0.718E-01    0.362E-02
DAV:   2    -0.124063360712E+03    0.14201E-04   -0.38010E-04  4800   0.787E-02    0.210E-02
DAV:   3    -0.124063356193E+03    0.45188E-05   -0.49589E-05  4368   0.255E-02    0.549E-03
DAV:   4    -0.124063357181E+03   -0.98782E-06   -0.10257E-05  4080   0.149E-02    0.225E-03
DAV:   5    -0.124063356735E+03    0.44598E-06   -0.43848E-06  3840   0.101E-02
  80 F= -.12590918E+03 E0= -.12590647E+03  d E =-.708007E-04  mag=     0.0000
       N       E                     dE             d eps       ncg     rms          rms(c)
DAV:   1    -0.124063179852E+03    0.17733E-03   -0.30920E-03  4032   0.211E-01    0.104E-02
DAV:   2    -0.124063178725E+03    0.11272E-05   -0.32561E-05  5280   0.228E-02    0.602E-03
DAV:   3    -0.124063178339E+03    0.38589E-06   -0.39285E-06  4080   0.684E-03
  81 F= -.12590918E+03 E0= -.12590648E+03  d E =-.722448E-04  mag=     0.0000
       N       E                     dE             d eps       ncg     rms          rms(c)
DAV:   1    -0.124062853459E+03    0.32527E-03   -0.11423E-02  3648   0.405E-01    0.196E-02
DAV:   2    -0.124062850402E+03    0.30568E-05   -0.11142E-04  4656   0.425E-02    0.116E-02
DAV:   3    -0.124062849260E+03    0.11422E-05   -0.14105E-05  4080   0.131E-02    0.287E-03
DAV:   4    -0.124062849477E+03   -0.21764E-06   -0.22158E-06  4224   0.573E-03
  82 F= -.12590921E+03 E0= -.12590652E+03  d E =-.225210E-04  mag=     0.0000
       N       E                     dE             d eps       ncg     rms          rms(c)
DAV:   1    -0.124062241880E+03    0.60738E-03   -0.37125E-02  3648   0.730E-01    0.349E-02
DAV:   2    -0.124062232184E+03    0.96961E-05   -0.36450E-04  4464   0.769E-02    0.206E-02
DAV:   3    -0.124062227682E+03    0.45020E-05   -0.46342E-05  4512   0.237E-02    0.511E-03
DAV:   4    -0.124062228175E+03   -0.49323E-06   -0.68662E-06  4560   0.104E-02
  83 F= -.12590922E+03 E0= -.12590655E+03  d E =-.360621E-04  mag=     0.0000
       N       E                     dE             d eps       ncg     rms          rms(c)
DAV:   1    -0.124061971531E+03    0.25615E-03   -0.70304E-03  3648   0.317E-01    0.155E-02
DAV:   2    -0.124061969760E+03    0.17709E-05   -0.80677E-05  4128   0.366E-02    0.928E-03
DAV:   3    -0.124061969145E+03    0.61547E-06   -0.97911E-06  4368   0.125E-02
  84 F= -.12590924E+03 E0= -.12590658E+03  d E =-.224491E-04  mag=     0.0000
       N       E                     dE             d eps       ncg     rms          rms(c)
DAV:   1    -0.124061627671E+03    0.34209E-03   -0.11500E-02  3648   0.405E-01    0.203E-02
DAV:   2    -0.124061624190E+03    0.34808E-05   -0.12982E-04  4704   0.465E-02    0.121E-02
DAV:   3    -0.124061623410E+03    0.77999E-06   -0.15896E-05  4320   0.160E-02    0.341E-03
DAV:   4    -0.124061623910E+03   -0.50014E-06   -0.57725E-06  4272   0.118E-02
  85 F= -.12590926E+03 E0= -.12590661E+03  d E =-.368340E-04  mag=    -0.0000
       N       E                     dE             d eps       ncg     rms          rms(c)
DAV:   1    -0.124061391640E+03    0.23177E-03   -0.67278E-03  3648   0.311E-01    0.151E-02
DAV:   2    -0.124061389946E+03    0.16933E-05   -0.69412E-05  4752   0.345E-02    0.897E-03
DAV:   3    -0.124061389579E+03    0.36778E-06   -0.91774E-06  4320   0.122E-02
  86 F= -.12590928E+03 E0= -.12590665E+03  d E =-.280332E-04  mag=     0.0000
       N       E                     dE             d eps       ncg     rms          rms(c)
DAV:   1    -0.124061004629E+03    0.38532E-03   -0.16933E-02  3648   0.493E-01    0.242E-02
DAV:   2    -0.124061000018E+03    0.46105E-05   -0.17094E-04  4656   0.538E-02    0.143E-02
DAV:   3    -0.124060998835E+03    0.11830E-05   -0.22530E-05  4320   0.186E-02    0.372E-03
DAV:   4    -0.124060999385E+03   -0.54923E-06   -0.69136E-06  4032   0.129E-02
  87 F= -.12590931E+03 E0= -.12590670E+03  d E =-.534901E-04  mag=     0.0000
       N       E                     dE             d eps       ncg     rms          rms(c)
DAV:   1    -0.124060897213E+03    0.10162E-03   -0.10237E-03  3648   0.122E-01    0.612E-03
DAV:   2    -0.124060896848E+03    0.36474E-06   -0.12398E-05  4416   0.159E-02    0.370E-03
DAV:   3    -0.124060897344E+03   -0.49589E-06   -0.29377E-06  4128   0.831E-03
  88 F= -.12590931E+03 E0= -.12590670E+03  d E =-.535302E-04  mag=    -0.0000
       N       E                     dE             d eps       ncg     rms          rms(c)
DAV:   1    -0.124060609704E+03    0.28714E-03   -0.98041E-03  3648   0.373E-01    0.176E-02
DAV:   2    -0.124060607760E+03    0.19445E-05   -0.89796E-05  4992   0.394E-02    0.105E-02
DAV:   3    -0.124060607310E+03    0.44956E-06   -0.12710E-05  4320   0.141E-02    0.255E-03
DAV:   4    -0.124060607638E+03   -0.32830E-06   -0.44091E-06  3648   0.104E-02
  89 F= -.12590933E+03 E0= -.12590673E+03  d E =-.215512E-04  mag=    -0.0000
       N       E                     dE             d eps       ncg     rms          rms(c)
DAV:   1    -0.124060048631E+03    0.55868E-03   -0.34402E-02  3648   0.699E-01    0.330E-02
DAV:   2    -0.124060041590E+03    0.70415E-05   -0.30988E-04  4800   0.718E-02    0.196E-02
DAV:   3    -0.124060038051E+03    0.35385E-05   -0.40625E-05  4368   0.226E-02    0.459E-03
DAV:   4    -0.124060038393E+03   -0.34191E-06   -0.70660E-06  4512   0.113E-02
  90 F= -.12590935E+03 E0= -.12590676E+03  d E =-.358977E-04  mag=    -0.0000
       N       E                     dE             d eps       ncg     rms          rms(c)
DAV:   1    -0.124059793577E+03    0.24447E-03   -0.76106E-03  3648   0.332E-01    0.165E-02
DAV:   2    -0.124059791180E+03    0.23971E-05   -0.85668E-05  4272   0.379E-02    0.965E-03
DAV:   3    -0.124059790685E+03    0.49485E-06   -0.97581E-06  4320   0.129E-02
  91 F= -.12590936E+03 E0= -.12590679E+03  d E =-.155365E-04  mag=     0.0000
       N       E                     dE             d eps       ncg     rms          rms(c)
DAV:   1    -0.124059772125E+03    0.19054E-04   -0.46114E-05  4128   0.274E-02    0.217E-03
DAV:   2    -0.124059771728E+03    0.39714E-06   -0.24300E-06  3888   0.792E-03
  92 F= -.12590936E+03 E0= -.12590679E+03  d E =-.155821E-04  mag=     0.0000
       N       E                     dE             d eps       ncg     rms          rms(c)
DAV:   1    -0.124059733691E+03    0.38435E-04   -0.16021E-04  3648   0.490E-02    0.286E-03
DAV:   2    -0.124059733514E+03    0.17602E-06   -0.29239E-06  4128   0.836E-03
  93 F= -.12590936E+03 E0= -.12590679E+03  d E =-.156290E-04  mag=    -0.0000
       N       E                     dE             d eps       ncg     rms          rms(c)
DAV:   1    -0.124059598250E+03    0.13544E-03   -0.27277E-03  3648   0.202E-01    0.971E-03
DAV:   2    -0.124059597534E+03    0.71550E-06   -0.25801E-05  4464   0.218E-02    0.580E-03
DAV:   3    -0.124059597836E+03   -0.30166E-06   -0.45839E-06  4080   0.965E-03
  94 F= -.12590937E+03 E0= -.12590681E+03  d E =-.985312E-05  mag=    -0.0000
       N       E                     dE             d eps       ncg     rms          rms(c)
DAV:   1    -0.124059531918E+03    0.65617E-04   -0.60038E-04  3648   0.950E-02    0.469E-03
DAV:   2    -0.124059531501E+03    0.41616E-06   -0.72772E-06  4272   0.129E-02
  95 F= -.12590937E+03 E0= -.12590681E+03  d E =-.110316E-04  mag=    -0.0000
       N       E                     dE             d eps       ncg     rms          rms(c)
DAV:   1    -0.124059395344E+03    0.13657E-03   -0.23265E-03  3840   0.187E-01    0.919E-03
DAV:   2    -0.124059394220E+03    0.11241E-05   -0.22976E-05  3936   0.216E-02    0.554E-03
DAV:   3    -0.124059395690E+03   -0.14700E-05   -0.63747E-06  3936   0.122E-02    0.156E-03
DAV:   4    -0.124059394837E+03    0.85309E-06   -0.54683E-06  3696   0.115E-02
  96 F= -.12590937E+03 E0= -.12590682E+03  d E =-.943253E-05  mag=     0.0000
       N       E                     dE             d eps       ncg     rms          rms(c)
DAV:   1    -0.124059502323E+03   -0.10663E-03   -0.14302E-03  4848   0.146E-01    0.662E-03
DAV:   2    -0.124059501945E+03    0.37822E-06   -0.11659E-05  5472   0.138E-02    0.384E-03
DAV:   3    -0.124059501924E+03    0.21058E-07   -0.15843E-06  4656   0.469E-03
  97 F= -.12590937E+03 E0= -.12590681E+03  d E =-.113154E-04  mag=     0.0000
       N       E                     dE             d eps       ncg     rms          rms(c)
DAV:   1    -0.124059463191E+03    0.38753E-04   -0.51019E-04  3648   0.893E-02    0.399E-03
DAV:   2    -0.124059463032E+03    0.15895E-06   -0.49641E-06  3840   0.952E-03
  98 F= -.12590938E+03 E0= -.12590682E+03  d E =-.342491E-05  mag=     0.0000
       N       E                     dE             d eps       ncg     rms          rms(c)
DAV:   1    -0.124059440065E+03    0.23126E-04   -0.14998E-04  3792   0.490E-02    0.278E-03
DAV:   2    -0.124059439988E+03    0.77211E-07   -0.15020E-06  4896   0.565E-03
  99 F= -.12590938E+03 E0= -.12590682E+03  d E =-.383279E-05  mag=    -0.0000
       N       E                     dE             d eps       ncg     rms          rms(c)
DAV:   1    -0.124059417159E+03    0.22906E-04   -0.36625E-04  3648   0.751E-02    0.417E-03
DAV:   2    -0.124059416787E+03    0.37265E-06   -0.50137E-06  3840   0.952E-03
 100 F= -.12590938E+03 E0= -.12590682E+03  d E =-.164191E-05  mag=    -0.0000
       N       E                     dE             d eps       ncg     rms          rms(c)
DAV:   1    -0.124059413340E+03    0.38199E-05   -0.68424E-06  3744   0.114E-02    0.128E-03
DAV:   2    -0.124059413282E+03    0.57835E-07   -0.47454E-07  4512   0.343E-03
 101 F= -.12590938E+03 E0= -.12590682E+03  d E =-.167227E-05  mag=     0.0000
       N       E                     dE             d eps       ncg     rms          rms(c)
DAV:   1    -0.124059400379E+03    0.12961E-04   -0.23136E-04  3840   0.609E-02    0.273E-03
DAV:   2    -0.124059400219E+03    0.15995E-06   -0.22587E-06  3840   0.728E-03
 102 F= -.12590938E+03 E0= -.12590682E+03  d E =-.913819E-06  mag=     0.0000
       N       E                     dE             d eps       ncg     rms          rms(c)
DAV:   1    -0.124059399233E+03    0.11453E-05   -0.25655E-06  3840   0.795E-03    0.720E-04
DAV:   2    -0.124059399024E+03    0.20893E-06   -0.10152E-06  3840   0.483E-03
 103 F= -.12590938E+03 E0= -.12590682E+03  d E =-.103920E-05  mag=     0.0000
       N       E                     dE             d eps       ncg     rms          rms(c)
DAV:   1    -0.124059400085E+03   -0.85159E-06   -0.26629E-05  4848   0.202E-02    0.158E-03
DAV:   2    -0.124059400004E+03    0.80354E-07   -0.81004E-07  5568   0.360E-03
 104 F= -.12590938E+03 E0= -.12590682E+03  d E =-.819472E-07  mag=     0.0000
       N       E                     dE             d eps       ncg     rms          rms(c)
DAV:   1    -0.124059399919E+03    0.16543E-06   -0.51313E-07  3792   0.290E-03    0.276E-04
DAV:   2    -0.124059399921E+03   -0.11087E-08   -0.74730E-08  4512   0.134E-03
 105 F= -.12590938E+03 E0= -.12590682E+03  d E =-.912068E-07  mag=     0.0000
       N       E                     dE             d eps       ncg     rms          rms(c)
DAV:   1    -0.124059402426E+03   -0.25062E-05   -0.13966E-05  3936   0.145E-02    0.660E-04
DAV:   2    -0.124059402426E+03   -0.30559E-09   -0.11177E-07  4608   0.155E-03
 106 F= -.12590938E+03 E0= -.12590682E+03  d E =-.203703E-06  mag=     0.0000
       N       E                     dE             d eps       ncg     rms          rms(c)
DAV:   1    -0.124059409733E+03   -0.73073E-05   -0.12431E-04  3744   0.433E-02    0.196E-03
DAV:   2    -0.124059409706E+03    0.26753E-07   -0.85939E-07  3840   0.405E-03
 107 F= -.12590938E+03 E0= -.12590683E+03  d E =-.580077E-06  mag=     0.0000
       N       E                     dE             d eps       ncg     rms          rms(c)
DAV:   1    -0.124059423391E+03   -0.13658E-04   -0.49499E-04  3792   0.865E-02    0.393E-03
DAV:   2    -0.124059423302E+03    0.89013E-07   -0.32628E-06  3840   0.781E-03
 108 F= -.12590938E+03 E0= -.12590683E+03  d E =-.367230E-06  mag=     0.0000
       N       E                     dE             d eps       ncg     rms          rms(c)
DAV:   1    -0.124059416181E+03    0.72093E-05   -0.15725E-04  3840   0.483E-02    0.195E-03
DAV:   2    -0.124059416137E+03    0.44656E-07   -0.13902E-06  3648   0.543E-03
 109 F= -.12590938E+03 E0= -.12590683E+03  d E =-.711725E-06  mag=     0.0000
       N       E                     dE             d eps       ncg     rms          rms(c)
DAV:   1    -0.124059419221E+03   -0.30398E-05   -0.13628E-05  4224   0.133E-02    0.803E-04
DAV:   2    -0.124059419154E+03    0.67463E-07   -0.55508E-07  3792   0.351E-03
 110 F= -.12590938E+03 E0= -.12590683E+03  d E =-.224587E-06  mag=     0.0000
       N       E                     dE             d eps       ncg     rms          rms(c)
DAV:   1    -0.124059424776E+03   -0.55546E-05   -0.46628E-05  3840   0.244E-02    0.180E-03
DAV:   2    -0.124059424682E+03    0.94009E-07   -0.90835E-07  4032   0.374E-03
 111 F= -.12590938E+03 E0= -.12590683E+03  d E =-.303964E-06  mag=     0.0000
       N       E                     dE             d eps       ncg     rms          rms(c)
DAV:   1    -0.124059428679E+03   -0.39029E-05   -0.11455E-05  3840   0.121E-02    0.846E-04
DAV:   2    -0.124059428661E+03    0.17290E-07   -0.21199E-07  3744   0.223E-03
 112 F= -.12590938E+03 E0= -.12590683E+03  d E =-.191346E-06  mag=     0.0000
       N       E                     dE             d eps       ncg     rms          rms(c)
DAV:   1    -0.124059440614E+03   -0.11935E-04   -0.10438E-04  3984   0.355E-02    0.191E-03
DAV:   2    -0.124059440566E+03    0.47519E-07   -0.86785E-07  3840   0.413E-03
 113 F= -.12590938E+03 E0= -.12590683E+03  d E =-.735717E-06  mag=     0.0000
       N       E                     dE             d eps       ncg     rms          rms(c)
DAV:   1    -0.124059464249E+03   -0.23636E-04   -0.41535E-04  3984   0.708E-02    0.376E-03
DAV:   2    -0.124059464101E+03    0.14784E-06   -0.30046E-06  3744   0.741E-03
 114 F= -.12590938E+03 E0= -.12590684E+03  d E =-.154577E-05  mag=     0.0000
       N       E                     dE             d eps       ncg     rms          rms(c)
DAV:   1    -0.124059510454E+03   -0.46205E-04   -0.16600E-03  3648   0.142E-01    0.745E-03
DAV:   2    -0.124059510090E+03    0.36419E-06   -0.11888E-05  3648   0.144E-02    0.440E-03
DAV:   3    -0.124059510914E+03   -0.82358E-06   -0.32210E-06  4032   0.791E-03
 115 F= -.12590938E+03 E0= -.12590685E+03  d E =-.291628E-05  mag=    -0.0000
       N       E                     dE             d eps       ncg     rms          rms(c)
DAV:   1    -0.124059495813E+03    0.14277E-04   -0.17518E-04  3648   0.465E-02    0.228E-03
DAV:   2    -0.124059495514E+03    0.29885E-06   -0.23288E-06  3840   0.710E-03
 116 F= -.12590938E+03 E0= -.12590684E+03  d E =-.213193E-05  mag=    -0.0000
       N       E                     dE             d eps       ncg     rms          rms(c)
DAV:   1    -0.124059500619E+03   -0.48054E-05   -0.19843E-05  3744   0.157E-02    0.803E-04
DAV:   2    -0.124059500285E+03    0.33369E-06   -0.15900E-06  3648   0.605E-03
 117 F= -.12590938E+03 E0= -.12590684E+03  d E =-.346963E-06  mag=    -0.0000
       N       E                     dE             d eps       ncg     rms          rms(c)
DAV:   1    -0.124059514074E+03   -0.13455E-04   -0.15425E-04  4176   0.418E-02    0.276E-03
DAV:   2    -0.124059513916E+03    0.15757E-06   -0.17881E-06  4656   0.496E-03
 118 F= -.12590938E+03 E0= -.12590685E+03  d E =-.707539E-06  mag=    -0.0000
       N       E                     dE             d eps       ncg     rms          rms(c)
DAV:   1    -0.124059540345E+03   -0.26272E-04   -0.60796E-04  3648   0.827E-02    0.552E-03
DAV:   2    -0.124059539874E+03    0.47145E-06   -0.66801E-06  3936   0.925E-03
 119 F= -.12590938E+03 E0= -.12590685E+03  d E =-.125059E-06  mag=    -0.0000
       N       E                     dE             d eps       ncg     rms          rms(c)
DAV:   1    -0.124059525198E+03    0.15147E-04   -0.22013E-04  3648   0.491E-02    0.242E-03
DAV:   2    -0.124059525080E+03    0.11787E-06   -0.28721E-06  3840   0.622E-03
 120 F= -.12590938E+03 E0= -.12590685E+03  d E =-.747929E-06  mag=     0.0000
       N       E                     dE             d eps       ncg     rms          rms(c)
DAV:   1    -0.124059520007E+03    0.51915E-05   -0.21726E-05  3648   0.160E-02    0.136E-03
DAV:   2    -0.124059519962E+03    0.44818E-07   -0.34546E-07  3744   0.250E-03
 121 F= -.12590938E+03 E0= -.12590685E+03  d E =-.754735E-06  mag=     0.0000
       N       E                     dE             d eps       ncg     rms          rms(c)
DAV:   1    -0.124059518890E+03    0.11163E-05   -0.10228E-06  3792   0.395E-03    0.394E-04
DAV:   2    -0.124059518869E+03    0.21520E-07   -0.17023E-07  3648   0.197E-03
 122 F= -.12590938E+03 E0= -.12590685E+03  d E =-.757108E-06  mag=    -0.0000
       N       E                     dE             d eps       ncg     rms          rms(c)
DAV:   1    -0.124059521483E+03   -0.25927E-05   -0.61536E-06  3744   0.942E-03    0.381E-04
DAV:   2    -0.124059521476E+03    0.72059E-08   -0.93160E-08  4080   0.147E-03
 123 F= -.12590938E+03 E0= -.12590685E+03  d E =-.135706E-06  mag=    -0.0000
       N       E                     dE             d eps       ncg     rms          rms(c)
DAV:   1    -0.124059529247E+03   -0.77642E-05   -0.53982E-05  3648   0.275E-02    0.137E-03
DAV:   2    -0.124059529224E+03    0.22793E-07   -0.42209E-07  3744   0.279E-03
 124 F= -.12590938E+03 E0= -.12590685E+03  d E =-.470725E-06  mag=    -0.0000
       N       E                     dE             d eps       ncg     rms          rms(c)
DAV:   1    -0.124059544332E+03   -0.15084E-04   -0.21414E-04  3696   0.549E-02    0.270E-03
DAV:   2    -0.124059544274E+03    0.57261E-07   -0.15316E-06  3648   0.520E-03
 125 F= -.12590938E+03 E0= -.12590685E+03  d E =-.694686E-06  mag=     0.0000
       N       E                     dE             d eps       ncg     rms          rms(c)
DAV:   1    -0.124059552516E+03   -0.81846E-05   -0.39728E-05  4032   0.228E-02    0.144E-03
DAV:   2    -0.124059552471E+03    0.44862E-07   -0.54826E-07  3696   0.334E-03
 126 F= -.12590938E+03 E0= -.12590686E+03  d E =-.265519E-06  mag=    -0.0000
       N       E                     dE             d eps       ncg     rms          rms(c)
DAV:   1    -0.124059565488E+03   -0.12971E-04   -0.10621E-04  3696   0.369E-02    0.221E-03
DAV:   2    -0.124059565407E+03    0.81062E-07   -0.11750E-06  3696   0.466E-03
 127 F= -.12590938E+03 E0= -.12590686E+03  d E =-.395247E-06  mag=    -0.0000
       N       E                     dE             d eps       ncg     rms          rms(c)
DAV:   1    -0.124059573688E+03   -0.82007E-05   -0.37426E-05  3696   0.224E-02    0.141E-03
DAV:   2    -0.124059573616E+03    0.71967E-07   -0.68277E-07  3648   0.403E-03
 128 F= -.12590939E+03 E0= -.12590686E+03  d E =-.259835E-06  mag=    -0.0000
