Lattice                                 
           1
     4.113621    2.375000    0.000000
    -4.113621    2.375000    0.000000
     0.000000    0.000000   15.000000
   B    C 
     4    11
Direct configuration=     1
   0.00415361  0.00267210  0.12034134
   0.35695335  0.00285503  0.09748893
   0.00423858  0.35550699  0.09749256
   0.65142295  0.65006557  0.09747688
   0.32808646  0.32671938  0.10030508
   0.68027775  0.00278085  0.10027562
   0.00416530  0.67883808  0.10026559
   0.11111044  0.38888856  0.33726667
   0.27777744  0.22222156  0.33726667
   0.11111044  0.88888856  0.33726667
   0.27777744  0.72222156  0.33726667
   0.61111044  0.38888856  0.33726667
   0.77777744  0.22222156  0.33726667
   0.61111044  0.88888856  0.33726667
   0.77777744  0.72222156  0.33726667
Direct configuration=     2
   0.00417598  0.00271935  0.11978603
   0.35643248  0.00278127  0.09762782
   0.00417934  0.35520541  0.09768106
   0.65183543  0.65036639  0.09765217
   0.32680737  0.32527744  0.10029078
   0.68181102  0.00279774  0.10030084
   0.00422926  0.68013934  0.10025608
   0.11104696  0.38899662  0.33727323
   0.27793625  0.22237334  0.33734030
   0.11129795  0.88899524  0.33727807
   0.27796379  0.72221627  0.33720056
   0.61106547  0.38883475  0.33719618
   0.77772731  0.22225402  0.33728335
   0.61092892  0.88885445  0.33733368
   0.77741202  0.72206683  0.33727918
Direct configuration=     3
   0.00416378  0.00269359  0.12008880
   0.35671647  0.00282148  0.09755209
   0.00421164  0.35536984  0.09757829
   0.65161054  0.65020237  0.09755660
   0.32750477  0.32606362  0.10029858
   0.68097504  0.00278853  0.10028709
   0.00419439  0.67942986  0.10026126
   0.11108157  0.38893770  0.33726965
   0.27784967  0.22229058  0.33730015
   0.11119572  0.88893707  0.33727185
   0.27786219  0.72221915  0.33723660
   0.61108999  0.38886408  0.33723461
   0.77775464  0.22223632  0.33727425
   0.61102789  0.88887304  0.33729714
   0.77761126  0.72215119  0.33727236
Direct configuration=     4
   0.00418352  0.00274034  0.11950836
   0.35700505  0.00273616  0.09770414
   0.00419789  0.35566811  0.09778776
   0.65138622  0.64983308  0.09775047
   0.32753473  0.32595775  0.10026870
   0.68104314  0.00278229  0.10030150
   0.00424432  0.67945925  0.10023737
   0.11107847  0.38887604  0.33727857
   0.27767403  0.22225414  0.33737459
   0.11097466  0.88886027  0.33728640
   0.27766697  0.72225449  0.33717107
   0.61110303  0.38891859  0.33716692
   0.77774164  0.22222761  0.33729125
   0.61115434  0.88898327  0.33736660
   0.77786153  0.72232705  0.33728563
Direct configuration=     5
   0.00420649  0.00279471  0.11883322
   0.35734071  0.00263692  0.09788099
   0.00418191  0.35601504  0.09803140
   0.65112530  0.64940354  0.09797596
   0.32756958  0.32583461  0.10023395
   0.68112235  0.00277503  0.10031825
   0.00430241  0.67949343  0.10020958
   0.11107487  0.38880432  0.33728894
   0.27746975  0.22221175  0.33746118
   0.11071754  0.88877093  0.33730333
   0.27743990  0.72229560  0.33709484
   0.61111820  0.38898200  0.33708820
   0.77772652  0.22221747  0.33731103
   0.61130141  0.88911149  0.33744740
   0.77815262  0.72253161  0.33730107
Direct configuration=     6
   0.00421271  0.00280217  0.11867495
   0.35741613  0.00261784  0.09791834
   0.00418620  0.35608069  0.09808246
   0.65107347  0.64931825  0.09802326
   0.32761559  0.32585334  0.10023131
   0.68109254  0.00276728  0.10032677
   0.00431309  0.67945990  0.10020851
   0.11106221  0.38883516  0.33729139
   0.27749623  0.22221913  0.33747690
   0.11076043  0.88881273  0.33730721
   0.27747096  0.72230287  0.33708179
   0.61109729  0.38898729  0.33707511
   0.77772120  0.22223540  0.33731483
   0.61125285  0.88908796  0.33746237
   0.77807866  0.72249842  0.33730415
Direct configuration=     7
   0.00423138  0.00282457  0.11820012
   0.35764237  0.00256060  0.09803037
   0.00419907  0.35627765  0.09823564
   0.65091800  0.64906236  0.09816515
   0.32775363  0.32590955  0.10022338
   0.68100310  0.00274402  0.10035230
   0.00434513  0.67935929  0.10020531
   0.11102423  0.38892766  0.33729872
   0.27757566  0.22224128  0.33752407
   0.11088910  0.88893814  0.33731887
   0.27756414  0.72232470  0.33704263
   0.61103458  0.38900319  0.33703585
   0.77770523  0.22228919  0.33732622
   0.61110718  0.88901739  0.33750730
   0.77785676  0.72239886  0.33731341
Direct configuration=     8
   0.00426873  0.00286935  0.11725046
   0.35809485  0.00244611  0.09825443
   0.00422482  0.35667156  0.09854200
   0.65060706  0.64855059  0.09844892
   0.32802970  0.32602196  0.10020751
   0.68082422  0.00269752  0.10040337
   0.00440921  0.67915808  0.10019891
   0.11094826  0.38911266  0.33731339
   0.27773452  0.22228558  0.33761841
   0.11114645  0.88918896  0.33734219
   0.27775049  0.72236836  0.33696431
   0.61090914  0.38903498  0.33695734
   0.77767330  0.22239675  0.33734901
   0.61081582  0.88887623  0.33759714
   0.77741298  0.72219974  0.33733193
Direct configuration=     9
   0.00426151  0.00286070  0.11743394
   0.35800743  0.00246823  0.09821114
   0.00421984  0.35659546  0.09848281
   0.65066713  0.64864946  0.09839410
   0.32797636  0.32600024  0.10021058
   0.68085878  0.00270651  0.10039351
   0.00439683  0.67919696  0.10020014
   0.11096294  0.38907692  0.33731056
   0.27770383  0.22227702  0.33760018
   0.11109673  0.88914050  0.33733768
   0.27771448  0.72235993  0.33697944
   0.61093338  0.38902884  0.33697251
   0.77767947  0.22237597  0.33734461
   0.61087211  0.88890350  0.33757978
   0.77749872  0.72223821  0.33732835
Direct configuration=    10
   0.00427440  0.00284471  0.11723890
   0.35799766  0.00246394  0.09823952
   0.00424961  0.35655553  0.09851812
   0.65070396  0.64867444  0.09842733
   0.32803398  0.32605653  0.10023276
   0.68080541  0.00267834  0.10042470
   0.00440202  0.67913340  0.10022347
   0.11096290  0.38907425  0.33731323
   0.27770851  0.22235644  0.33759931
   0.11107294  0.88910235  0.33734122
   0.27771632  0.72236651  0.33698509
   0.61093281  0.38900145  0.33697988
   0.77763810  0.22236842  0.33734568
   0.61087131  0.88894288  0.33758011
   0.77747962  0.72225925  0.33733001
Direct configuration=    11
   0.00431305  0.00279676  0.11665379
   0.35796834  0.00245107  0.09832467
   0.00433891  0.35643575  0.09862406
   0.65081446  0.64874938  0.09852704
   0.32820681  0.32622541  0.10029929
   0.68064528  0.00259385  0.10051828
   0.00441757  0.67894272  0.10029346
   0.11096279  0.38906626  0.33732124
   0.27772254  0.22259469  0.33759669
   0.11100159  0.88898790  0.33735184
   0.27772184  0.72238626  0.33700204
   0.61093112  0.38891927  0.33700199
   0.77751401  0.22234575  0.33734889
   0.61086890  0.88906101  0.33758109
   0.77742234  0.72232237  0.33733496
Direct configuration=    12
   0.00439035  0.00270086  0.11548357
   0.35790970  0.00242532  0.09849495
   0.00451752  0.35619618  0.09883593
   0.65103545  0.64889925  0.09872646
   0.32855247  0.32656317  0.10043236
   0.68032502  0.00242487  0.10070544
   0.00444868  0.67856137  0.10043344
   0.11096258  0.38905028  0.33733727
   0.27775061  0.22307120  0.33759145
   0.11085888  0.88875899  0.33737307
   0.27773288  0.72242576  0.33703595
   0.61092773  0.38875491  0.33704620
   0.77726582  0.22230041  0.33735531
   0.61086408  0.88929726  0.33758306
   0.77730777  0.72244861  0.33734487
Direct configuration=    13
   0.00435057  0.00275021  0.11608572
   0.35793988  0.00243857  0.09840733
   0.00442562  0.35631945  0.09872691
   0.65092174  0.64882213  0.09862385
   0.32837461  0.32638938  0.10036389
   0.68048981  0.00251182  0.10060913
   0.00443268  0.67875760  0.10036141
   0.11096269  0.38905850  0.33732902
   0.27773617  0.22282601  0.33759414
   0.11093231  0.88887678  0.33736215
   0.27772720  0.72240543  0.33701850
   0.61092947  0.38883948  0.33702345
   0.77739353  0.22232374  0.33735200
   0.61086656  0.88917569  0.33758205
   0.77736672  0.72238365  0.33733977
Direct configuration=    14
   0.00437247  0.00271647  0.11583802
   0.35792453  0.00244188  0.09843914
   0.00446401  0.35626981  0.09876001
   0.65095981  0.64885761  0.09865650
   0.32842686  0.32644131  0.10040182
   0.68045370  0.00248034  0.10065468
   0.00444198  0.67868457  0.10040016
   0.11091225  0.38907711  0.33733154
   0.27767566  0.22271390  0.33758251
   0.11090889  0.88895446  0.33736558
   0.27767774  0.72240229  0.33703870
   0.61091744  0.38892011  0.33704532
   0.77744079  0.22234600  0.33735215
   0.61087003  0.88918047  0.33757177
   0.77740339  0.72239211  0.33734143
Direct configuration=    15
   0.00442556  0.00263467  0.11523748
   0.35788731  0.00244992  0.09851626
   0.00455711  0.35614945  0.09884027
   0.65105211  0.64894365  0.09873566
   0.32855353  0.32656721  0.10049379
   0.68036615  0.00240403  0.10076509
   0.00446454  0.67850751  0.10049409
   0.11078996  0.38912222  0.33733764
   0.27752896  0.22244209  0.33755430
   0.11085209  0.88914282  0.33737391
   0.27755783  0.72239465  0.33708768
   0.61088827  0.38911561  0.33709835
   0.77755537  0.22239996  0.33735252
   0.61087845  0.88919204  0.33754684
   0.77749229  0.72241262  0.33734544
Direct configuration=    16
   0.00443820  0.00261007  0.11515320
   0.35795228  0.00245668  0.09852982
   0.00455781  0.35619858  0.09884354
   0.65098792  0.64888396  0.09874208
   0.32854602  0.32654446  0.10051148
   0.68040207  0.00241344  0.10077911
   0.00447573  0.67850112  0.10051130
   0.11081842  0.38912454  0.33733728
   0.27752394  0.22243223  0.33754011
   0.11087417  0.88915574  0.33737339
   0.27754462  0.72244143  0.33710921
   0.61085868  0.38911880  0.33711852
   0.77754200  0.22244487  0.33735209
   0.61084639  0.88912475  0.33753161
   0.77748131  0.72242776  0.33734659
Direct configuration=    17
   0.00446605  0.00255586  0.11496744
   0.35809546  0.00247157  0.09855971
   0.00455936  0.35630688  0.09885076
   0.65084645  0.64875241  0.09875621
   0.32852947  0.32649433  0.10055046
   0.68048122  0.00243420  0.10080999
   0.00450038  0.67848703  0.10054923
   0.11088115  0.38912963  0.33733649
   0.27751287  0.22241051  0.33750885
   0.11092283  0.88918424  0.33737225
   0.27751548  0.72254452  0.33715667
   0.61079345  0.38912584  0.33716298
   0.77751251  0.22254386  0.33735113
   0.61077575  0.88897642  0.33749802
   0.77745711  0.72246114  0.33734913
Direct configuration=    18
   0.00448019  0.00251408  0.11486118
   0.35824722  0.00247934  0.09858484
   0.00454986  0.35640329  0.09885090
   0.65071493  0.64862216  0.09876402
   0.32850384  0.32643453  0.10057312
   0.68055494  0.00246167  0.10081983
   0.00451975  0.67850470  0.10057075
   0.11087072  0.38915777  0.33733532
   0.27752147  0.22246642  0.33748325
   0.11088162  0.88917120  0.33737065
   0.27751856  0.72251611  0.33719549
   0.61078704  0.38913049  0.33719852
   0.77747526  0.22249991  0.33735034
   0.61077406  0.88906119  0.33746992
   0.77745010  0.72245560  0.33735120
Direct configuration=    19
   0.00449365  0.00247427  0.11475994
   0.35839183  0.00248674  0.09860878
   0.00454081  0.35649514  0.09885104
   0.65058963  0.64849806  0.09877146
   0.32847943  0.32637755  0.10059471
   0.68062518  0.00248785  0.10082920
   0.00453820  0.67852154  0.10059125
   0.11086079  0.38918458  0.33733420
   0.27752966  0.22251968  0.33745885
   0.11084235  0.88915878  0.33736913
   0.27752149  0.72248904  0.33723247
   0.61078092  0.38913491  0.33723238
   0.77743976  0.22245804  0.33734959
   0.61077244  0.88914195  0.33744315
   0.77744341  0.72245032  0.33735318
Direct configuration=    20
   0.00449195  0.00246220  0.11473357
   0.35842830  0.00248072  0.09862623
   0.00454036  0.35648023  0.09885305
   0.65058982  0.64848412  0.09877822
   0.32848093  0.32636371  0.10059552
   0.68063585  0.00248978  0.10081889
   0.00454275  0.67853434  0.10059157
   0.11078673  0.38916075  0.33733463
   0.27749461  0.22250390  0.33745190
   0.11084110  0.88917825  0.33736961
   0.27751304  0.72248588  0.33724372
   0.61081118  0.38913999  0.33724305
   0.77747874  0.22248669  0.33734936
   0.61079424  0.88915964  0.33743599
   0.77741996  0.72246824  0.33735401
Direct configuration=    21
   0.00449155  0.00245932  0.11472728
   0.35843699  0.00247929  0.09863039
   0.00454025  0.35647668  0.09885353
   0.65058987  0.64848080  0.09877983
   0.32848129  0.32636041  0.10059572
   0.68063840  0.00249023  0.10081644
   0.00454384  0.67853739  0.10059164
   0.11076907  0.38915508  0.33733473
   0.27748625  0.22250014  0.33745025
   0.11084080  0.88918289  0.33736973
   0.27751102  0.72248513  0.33724640
   0.61081839  0.38914120  0.33724560
   0.77748803  0.22249352  0.33734930
   0.61079944  0.88916386  0.33743429
   0.77741437  0.72247251  0.33735420
Direct configuration=    22
   0.00449331  0.00245336  0.11471109
   0.35844192  0.00247018  0.09864902
   0.00454441  0.35644705  0.09885610
   0.65061598  0.64848725  0.09878731
   0.32849479  0.32635768  0.10059293
   0.68063981  0.00248433  0.10080063
   0.00454900  0.67853367  0.10058836
   0.11077229  0.38916294  0.33733571
   0.27748190  0.22250808  0.33744698
   0.11083564  0.88918745  0.33737095
   0.27750338  0.72249811  0.33725271
   0.61080589  0.38914610  0.33725187
   0.77747573  0.22250229  0.33734934
   0.61078711  0.88916035  0.33743134
   0.77740837  0.72247960  0.33735500
Direct configuration=    23
   0.00449860  0.00243548  0.11466250
   0.35845672  0.00244285  0.09870490
   0.00455690  0.35635815  0.09886380
   0.65069432  0.64850661  0.09880973
   0.32853531  0.32634949  0.10058455
   0.68064405  0.00246661  0.10075321
   0.00456449  0.67852252  0.10057851
   0.11078194  0.38918654  0.33733866
   0.27746885  0.22253191  0.33743719
   0.11082016  0.88920115  0.33737462
   0.27748046  0.72253705  0.33727164
   0.61076840  0.38916077  0.33727071
   0.77743884  0.22252862  0.33734946
   0.61075013  0.88914982  0.33742249
   0.77739038  0.72250088  0.33735737
Direct configuration=    24
   0.00451493  0.00243136  0.11464386
   0.35845194  0.00243255  0.09872316
   0.00456806  0.35635707  0.09886448
   0.65070743  0.64849650  0.09881564
   0.32855925  0.32634961  0.10058391
   0.68065161  0.00245357  0.10073677
   0.00457755  0.67849001  0.10057717
   0.11077213  0.38920597  0.33734000
   0.27746188  0.22253943  0.33743652
   0.11080158  0.88921347  0.33737645
   0.27747048  0.72253137  0.33727591
   0.61075721  0.38917708  0.33727477
   0.77742676  0.22252025  0.33735012
   0.61074237  0.88917962  0.33742185
   0.77738637  0.72250058  0.33735871
Direct configuration=    25
   0.00452897  0.00242781  0.11462783
   0.35844782  0.00242369  0.09873887
   0.00457766  0.35635614  0.09886506
   0.65071871  0.64848781  0.09882073
   0.32857985  0.32634972  0.10058336
   0.68065811  0.00244235  0.10072263
   0.00458879  0.67846205  0.10057603
   0.11076370  0.38922268  0.33734116
   0.27745589  0.22254590  0.33743594
   0.11078560  0.88922407  0.33737802
   0.27746190  0.72252647  0.33727958
   0.61074758  0.38919111  0.33727827
   0.77741637  0.22251304  0.33735070
   0.61073569  0.88920526  0.33742130
   0.77738293  0.72250033  0.33735985
Direct configuration=    26
   0.00455183  0.00242339  0.11460952
   0.35845102  0.00241261  0.09874893
   0.00459386  0.35637297  0.09886250
   0.65071709  0.64846291  0.09882175
   0.32859933  0.32634323  0.10058706
   0.68067104  0.00242482  0.10071176
   0.00460574  0.67842977  0.10057918
   0.11074129  0.38922205  0.33734274
   0.27743990  0.22256007  0.33743907
   0.11077748  0.88923066  0.33738022
   0.27745106  0.72254026  0.33728023
   0.61074398  0.38919383  0.33727846
   0.77741162  0.22253294  0.33735224
   0.61072925  0.88921180  0.33742395
   0.77736507  0.72251715  0.33736172
Direct configuration=    27
   0.00458584  0.00241681  0.11458227
   0.35845580  0.00239612  0.09876389
   0.00461798  0.35639802  0.09885869
   0.65071468  0.64842584  0.09882327
   0.32862832  0.32633356  0.10059257
   0.68069030  0.00239872  0.10069559
   0.00463096  0.67838172  0.10058386
   0.11070795  0.38922112  0.33734510
   0.27741610  0.22258116  0.33744373
   0.11076539  0.88924046  0.33738349
   0.27743493  0.72256077  0.33728120
   0.61073862  0.38919787  0.33727875
   0.77740454  0.22256256  0.33735453
   0.61071967  0.88922154  0.33742789
   0.77733847  0.72254219  0.33736450
Direct configuration=    28
   0.00460014  0.00240895  0.11456569
   0.35847360  0.00238398  0.09876858
   0.00463282  0.35639755  0.09885563
   0.65071830  0.64840643  0.09882236
   0.32863756  0.32632142  0.10059752
   0.68070183  0.00238384  0.10068915
   0.00464382  0.67837392  0.10058860
   0.11070051  0.38923202  0.33734660
   0.27740677  0.22258906  0.33744768
   0.11075654  0.88925107  0.33738551
   0.27742515  0.72257198  0.33728057
   0.61072599  0.38920810  0.33727771
   0.77739264  0.22257255  0.33735616
   0.61070639  0.88922710  0.33743128
   0.77732748  0.72255048  0.33736629
Direct configuration=    29
   0.00464305  0.00238538  0.11451595
   0.35852700  0.00234757  0.09878266
   0.00467734  0.35639613  0.09884646
   0.65072915  0.64834822  0.09881960
   0.32866529  0.32628498  0.10061236
   0.68073645  0.00233921  0.10066984
   0.00468239  0.67835053  0.10060283
   0.11067821  0.38926473  0.33735108
   0.27737879  0.22261275  0.33745953
   0.11072997  0.88928289  0.33739158
   0.27739584  0.72260564  0.33727868
   0.61068809  0.38923878  0.33727460
   0.77735695  0.22260251  0.33736105
   0.61066657  0.88924378  0.33744147
   0.77729448  0.72257535  0.33737164
Direct configuration=    30
   0.00472886  0.00233824  0.11441647
   0.35863379  0.00227474  0.09881081
   0.00476637  0.35639330  0.09882813
   0.65075084  0.64823178  0.09881410
   0.32872074  0.32621211  0.10064204
   0.68080567  0.00224995  0.10063122
   0.00475954  0.67830374  0.10063127
   0.11063359  0.38933015  0.33736005
   0.27732281  0.22266014  0.33748322
   0.11067683  0.88934652  0.33740373
   0.27733720  0.72267296  0.33727491
   0.61061231  0.38930015  0.33726839
   0.77728557  0.22266244  0.33737081
   0.61058692  0.88927714  0.33746184
   0.77722850  0.72262509  0.33738235
Direct configuration=    31
   0.00473277  0.00229873  0.11437548
   0.35870332  0.00224111  0.09881245
   0.00479061  0.35632085  0.09882598
   0.65080146  0.64821915  0.09881281
   0.32875283  0.32618879  0.10065102
   0.68083379  0.00222928  0.10062283
   0.00478025  0.67830194  0.10064058
   0.11059402  0.38935763  0.33736439
   0.27728738  0.22269078  0.33749098
   0.11061982  0.88936273  0.33740883
   0.27729542  0.72267061  0.33727509
   0.61059143  0.38933167  0.33726880
   0.77725977  0.22266118  0.33737462
   0.61058251  0.88935194  0.33746905
   0.77722419  0.72265205  0.33738642
Direct configuration=    32
   0.00473360  0.00229038  0.11436682
   0.35871802  0.00223401  0.09881279
   0.00479573  0.35630555  0.09882553
   0.65081216  0.64821648  0.09881253
   0.32875961  0.32618386  0.10065292
   0.68083974  0.00222491  0.10062106
   0.00478462  0.67830156  0.10064255
   0.11058566  0.38936344  0.33736531
   0.27727989  0.22269725  0.33749262
   0.11060777  0.88936615  0.33740990
   0.27728659  0.72267011  0.33727512
   0.61058702  0.38933833  0.33726889
   0.77725431  0.22266092  0.33737542
   0.61058157  0.88936775  0.33747057
   0.77722327  0.72265775  0.33738728
Direct configuration=    33
   0.00473801  0.00224766  0.11433563
   0.35876100  0.00220912  0.09880592
   0.00480984  0.35623511  0.09883012
   0.65086616  0.64821640  0.09881345
   0.32880339  0.32617074  0.10065480
   0.68086808  0.00221853  0.10062022
   0.00480373  0.67827502  0.10064515
   0.11055219  0.38937481  0.33736943
   0.27725203  0.22272671  0.33749632
   0.11059221  0.88938682  0.33741399
   0.27726507  0.72270266  0.33727807
   0.61056620  0.38935087  0.33727300
   0.77723302  0.22270032  0.33737842
   0.61055400  0.88937667  0.33747443
   0.77718462  0.72268701  0.33739038
Direct configuration=    34
   0.00474168  0.00221212  0.11430967
   0.35879676  0.00218841  0.09880020
   0.00482158  0.35617650  0.09883394
   0.65091109  0.64821633  0.09881422
   0.32883982  0.32615982  0.10065636
   0.68089166  0.00221322  0.10061953
   0.00481962  0.67825294  0.10064731
   0.11052434  0.38938427  0.33737286
   0.27722885  0.22275122  0.33749940
   0.11057926  0.88940402  0.33741739
   0.27724717  0.72272974  0.33728051
   0.61054889  0.38936130  0.33727642
   0.77721531  0.22273310  0.33738091
   0.61053107  0.88938409  0.33747764
   0.77715247  0.72271135  0.33739296
Direct configuration=    35
   0.00476365  0.00218451  0.11428917
   0.35881118  0.00217334  0.09879338
   0.00483666  0.35615025  0.09883968
   0.65093728  0.64820304  0.09881592
   0.32887444  0.32614689  0.10065473
   0.68091541  0.00220629  0.10062074
   0.00484121  0.67821457  0.10064618
   0.11051015  0.38940776  0.33737583
   0.27721289  0.22276351  0.33750111
   0.11056477  0.88942739  0.33742010
   0.27723102  0.72274956  0.33728395
   0.61052450  0.38938277  0.33728071
   0.77719290  0.22275037  0.33738319
   0.61050395  0.88939456  0.33747938
   0.77712954  0.72272365  0.33739525
Direct configuration=    36
   0.00482958  0.00210166  0.11422766
   0.35885443  0.00212814  0.09877293
   0.00488191  0.35607147  0.09885689
   0.65101586  0.64816317  0.09882103
   0.32897830  0.32610810  0.10064983
   0.68098667  0.00218550  0.10062439
   0.00490600  0.67809944  0.10064278
   0.11046755  0.38947820  0.33738475
   0.27716503  0.22280037  0.33750622
   0.11052131  0.88949750  0.33742824
   0.27718256  0.72280902  0.33729426
   0.61045133  0.38944717  0.33729358
   0.77712566  0.22280218  0.33739002
   0.61042259  0.88942596  0.33748462
   0.77706078  0.72276056  0.33740213
Direct configuration=    37
   0.00496144  0.00193598  0.11410463
   0.35894095  0.00203773  0.09873203
   0.00497240  0.35591392  0.09889132
   0.65117302  0.64808344  0.09883123
   0.32918602  0.32603051  0.10064004
   0.68112917  0.00214390  0.10063169
   0.00503556  0.67786919  0.10063598
   0.11038237  0.38961909  0.33740259
   0.27706930  0.22287409  0.33751644
   0.11043437  0.88963774  0.33744452
   0.27708564  0.72292793  0.33731489
   0.61030501  0.38957598  0.33731930
   0.77699117  0.22290580  0.33740369
   0.61025988  0.88948876  0.33749509
   0.77692326  0.72283439  0.33741587
Direct configuration=    38
   0.00487869  0.00203997  0.11418185
   0.35888665  0.00209447  0.09875770
   0.00491561  0.35601281  0.09886971
   0.65107438  0.64813348  0.09882483
   0.32905565  0.32607921  0.10064619
   0.68103973  0.00217001  0.10062711
   0.00495424  0.67801370  0.10064025
   0.11043583  0.38953066  0.33739139
   0.27712938  0.22282782  0.33751002
   0.11048893  0.88954972  0.33743430
   0.27714647  0.72285330  0.33730194
   0.61039685  0.38949514  0.33730316
   0.77707558  0.22284076  0.33739511
   0.61036200  0.88944934  0.33748852
   0.77700957  0.72278805  0.33740724
Direct configuration=    39
   0.00491282  0.00201557  0.11416146
   0.35890597  0.00207708  0.09875104
   0.00494038  0.35599845  0.09887638
   0.65109158  0.64810559  0.09882718
   0.32908265  0.32605580  0.10064247
   0.68106443  0.00215310  0.10062865
   0.00498189  0.67798234  0.10063706
   0.11041247  0.38954669  0.33739438
   0.27710369  0.22285156  0.33751182
   0.11045671  0.88956133  0.33743693
   0.27711789  0.72286840  0.33730622
   0.61037767  0.38951366  0.33730788
   0.77705362  0.22285504  0.33739788
   0.61034966  0.88948046  0.33749001
   0.77699814  0.72281337  0.33740996
Direct configuration=    40
   0.00501524  0.00194236  0.11410032
   0.35896393  0.00202491  0.09873106
   0.00501470  0.35595537  0.09889638
   0.65114316  0.64802190  0.09883423
   0.32916367  0.32598560  0.10063131
   0.68113852  0.00210237  0.10063328
   0.00506482  0.67788827  0.10062749
   0.11034236  0.38959476  0.33740336
   0.27702660  0.22292277  0.33751721
   0.11036002  0.88959617  0.33744480
   0.27703217  0.72291372  0.33731904
   0.61032015  0.38956925  0.33732207
   0.77698773  0.22289787  0.33740618
   0.61031262  0.88957383  0.33749448
   0.77696385  0.72288931  0.33741813
Direct configuration=    41
   0.00522007  0.00179595  0.11397803
   0.35907986  0.00192056  0.09869110
   0.00516334  0.35586921  0.09893638
   0.65124633  0.64785454  0.09884832
   0.32932571  0.32584518  0.10060899
   0.68128671  0.00200090  0.10064252
   0.00523068  0.67770011  0.10060836
   0.11020215  0.38969092  0.33742131
   0.27687244  0.22306519  0.33752800
   0.11016666  0.88966583  0.33746055
   0.27686071  0.72300437  0.33734468
   0.61020511  0.38968042  0.33735043
   0.77685597  0.22298354  0.33742279
   0.61023855  0.88976055  0.33750341
   0.77689526  0.72304119  0.33743446
Direct configuration=    42
   0.00509016  0.00188881  0.11405559
   0.35900634  0.00198674  0.09871645
   0.00506907  0.35592385  0.09891101
   0.65118090  0.64796068  0.09883938
   0.32922294  0.32593423  0.10062315
   0.68119273  0.00206525  0.10063666
   0.00512548  0.67781944  0.10062050
   0.11029108  0.38962994  0.33740993
   0.27697022  0.22297486  0.33752116
   0.11028930  0.88962165  0.33745056
   0.27696945  0.72294688  0.33732842
   0.61027807  0.38960991  0.33733244
   0.77693954  0.22292921  0.33741226
   0.61028553  0.88964213  0.33749775
   0.77693876  0.72294486  0.33742410
Direct configuration=    43
   0.00515085  0.00184853  0.11402009
   0.35907503  0.00194478  0.09870719
   0.00513075  0.35590059  0.09892244
   0.65120637  0.64789327  0.09884425
   0.32925342  0.32587793  0.10061296
   0.68123633  0.00200971  0.10063933
   0.00517880  0.67779778  0.10061137
   0.11023564  0.38966013  0.33741517
   0.27692396  0.22301502  0.33752524
   0.11025306  0.88966251  0.33745511
   0.27693038  0.72298652  0.33733680
   0.61024196  0.38964262  0.33734064
   0.77690461  0.22297775  0.33741821
   0.61024319  0.88967669  0.33750069
   0.77688521  0.72298462  0.33742984
Direct configuration=    44
   0.00533293  0.00172770  0.11391362
   0.35928112  0.00181893  0.09867944
   0.00531580  0.35583081  0.09895672
   0.65128278  0.64769101  0.09885886
   0.32934486  0.32570901  0.10058240
   0.68136715  0.00184307  0.10064734
   0.00533874  0.67773281  0.10058399
   0.11006935  0.38975073  0.33743090
   0.27678518  0.22313548  0.33753749
   0.11014434  0.88978509  0.33746876
   0.27681315  0.72310545  0.33736194
   0.61013361  0.38974074  0.33736524
   0.77679982  0.22312336  0.33743607
   0.61011619  0.88978038  0.33750953
   0.77672455  0.72310388  0.33744706
Direct configuration=    45
   0.00542113  0.00166917  0.11386204
   0.35938095  0.00175796  0.09866600
   0.00540544  0.35579701  0.09897332
   0.65131979  0.64759303  0.09886594
   0.32938915  0.32562718  0.10056759
   0.68143051  0.00176235  0.10065122
   0.00541622  0.67770133  0.10057073
   0.10998880  0.38979462  0.33743851
   0.27671795  0.22319383  0.33754342
   0.11009167  0.88984447  0.33747537
   0.27675636  0.72316305  0.33737411
   0.61008112  0.38978827  0.33737715
   0.77674906  0.22319389  0.33744472
   0.61005467  0.88983061  0.33751382
   0.77664673  0.72316166  0.33745540
Direct configuration=    46
   0.00547349  0.00161590  0.11382034
   0.35948037  0.00169584  0.09865911
   0.00548073  0.35576187  0.09898310
   0.65136510  0.64751737  0.09887086
   0.32944116  0.32557274  0.10055410
   0.68149075  0.00168289  0.10065444
   0.00547771  0.67766392  0.10055828
   0.10995595  0.38986699  0.33744507
   0.27667598  0.22323569  0.33754948
   0.11003924  0.88990327  0.33748127
   0.27670575  0.72321183  0.33738330
   0.61000934  0.38984975  0.33738591
   0.77667844  0.22322794  0.33745233
   0.60998353  0.88987657  0.33751904
   0.77659203  0.72319587  0.33746268
Direct configuration=    47
   0.00556626  0.00152154  0.11374649
   0.35965650  0.00158580  0.09864691
   0.00561411  0.35569963  0.09900044
   0.65144536  0.64738334  0.09887958
   0.32953329  0.32547628  0.10053020
   0.68159745  0.00154211  0.10066014
   0.00558665  0.67759765  0.10053623
   0.10989775  0.38999520  0.33745669
   0.27660162  0.22330983  0.33756023
   0.10994635  0.89000744  0.33749172
   0.27661610  0.72329824  0.33739958
   0.60988218  0.38995867  0.33740144
   0.77655334  0.22328826  0.33746582
   0.60985749  0.88995799  0.33752829
   0.77649513  0.72325647  0.33747558
Direct configuration=    48
   0.00559076  0.00147932  0.11371928
   0.35971435  0.00153051  0.09864893
   0.00566155  0.35566482  0.09899907
   0.65150353  0.64734357  0.09888006
   0.32960138  0.32545457  0.10052112
   0.68165002  0.00148490  0.10066230
   0.00563098  0.67753426  0.10052720
   0.10986535  0.39003061  0.33746186
   0.27655375  0.22335228  0.33756610
   0.10988955  0.89003271  0.33749680
   0.27656069  0.72334480  0.33740379
   0.60983488  0.38999702  0.33740568
   0.77650310  0.22332573  0.33747131
   0.60982031  0.88999506  0.33753506
   0.77646935  0.72330830  0.33748078
Direct configuration=    49
   0.00565488  0.00136886  0.11364809
   0.35986571  0.00138587  0.09865421
   0.00578566  0.35557373  0.09899549
   0.65165573  0.64723955  0.09888131
   0.32977951  0.32539777  0.10049736
   0.68178756  0.00133521  0.10066795
   0.00574697  0.67736841  0.10050358
   0.10978059  0.39012326  0.33747540
   0.27642851  0.22346331  0.33758146
   0.10974095  0.89009882  0.33751008
   0.27641574  0.72346661  0.33741481
   0.60971116  0.39009736  0.33741678
   0.77637167  0.22342376  0.33748566
   0.60972301  0.89009204  0.33755276
   0.77640192  0.72344387  0.33749440
Direct configuration=    50
   0.00569414  0.00133455  0.11362572
   0.35990017  0.00133535  0.09865939
   0.00582838  0.35553288  0.09898941
   0.65171576  0.64720415  0.09887946
   0.32984057  0.32536675  0.10049072
   0.68183121  0.00129152  0.10066941
   0.00579284  0.67731293  0.10049659
   0.10972604  0.39015504  0.33748013
   0.27638302  0.22349559  0.33758725
   0.10970456  0.89014200  0.33751492
   0.27637771  0.72349990  0.33741744
   0.60967746  0.39013326  0.33741956