  16  16   0   0
  0.2021636E+02  0.4990000E-09  0.4990000E-09  0.1500000E-08  0.5000000E-15
  1.000000000000000E-004
  CAR 
 Lattice                                 
      9.92880102    -21.45694924  301     -0.88201808      1.00000000
    -21.457  0.0000E+00  0.0000E+00  0.0000E+00  0.0000E+00
    -21.352  0.0000E+00  0.0000E+00  0.0000E+00  0.0000E+00
    -21.248  0.0000E+00  0.0000E+00  0.0000E+00  0.0000E+00
    -21.143  0.0000E+00  0.0000E+00  0.0000E+00  0.0000E+00
    -21.038  0.0000E+00  0.0000E+00  0.0000E+00  0.0000E+00
    -20.934  0.0000E+00  0.0000E+00  0.0000E+00  0.0000E+00
    -20.829  0.0000E+00  0.0000E+00  0.0000E+00  0.0000E+00
    -20.725  0.0000E+00  0.0000E+00  0.0000E+00  0.0000E+00
    -20.620  0.2879E-19  0.2879E-19  0.3012E-20  0.3012E-20
    -20.515  0.1961E-14  0.1961E-14  0.2051E-15  0.2051E-15
    -20.411  0.2351E-10  0.2351E-10  0.2460E-11  0.2460E-11
    -20.306  0.3712E-07  0.3712E-07  0.3885E-08  0.3885E-08
    -20.202  0.8385E-05  0.8385E-05  0.8811E-06  0.8811E-06
    -20.097  0.3000E-03  0.3000E-03  0.3227E-04  0.3227E-04
    -19.992  0.2084E-02  0.2084E-02  0.2503E-03  0.2503E-03
    -19.888  0.4336E-02  0.4336E-02  0.7039E-03  0.7039E-03
    -19.783  0.4798E-02  0.4798E-02  0.1206E-02  0.1206E-02
    -19.678  0.5100E-02  0.5100E-02  0.1740E-02  0.1740E-02
    -19.574  0.4505E-02  0.4505E-02  0.2211E-02  0.2211E-02
    -19.469  0.5612E-02  0.5612E-02  0.2798E-02  0.2798E-02
    -19.365  0.4214E-02  0.4214E-02  0.3239E-02  0.3239E-02
    -19.260  0.5019E-02  0.5019E-02  0.3764E-02  0.3764E-02
    -19.155  0.5954E-02  0.5954E-02  0.4387E-02  0.4387E-02
    -19.051  0.3604E-02  0.3604E-02  0.4764E-02  0.4764E-02
    -18.946  0.4992E-02  0.4992E-02  0.5286E-02  0.5286E-02
    -18.841  0.6336E-02  0.6336E-02  0.5949E-02  0.5949E-02
    -18.737  0.4611E-02  0.4611E-02  0.6431E-02  0.6431E-02
    -18.632  0.3098E-02  0.3098E-02  0.6755E-02  0.6755E-02
    -18.528  0.6328E-02  0.6328E-02  0.7418E-02  0.7418E-02
    -18.423  0.6260E-02  0.6260E-02  0.8072E-02  0.8072E-02
    -18.318  0.4235E-02  0.4235E-02  0.8516E-02  0.8516E-02
    -18.214  0.3372E-02  0.3372E-02  0.8868E-02  0.8868E-02
    -18.109  0.5706E-02  0.5706E-02  0.9465E-02  0.9465E-02
    -18.005  0.1095E-01  0.1095E-01  0.1061E-01  0.1061E-01
    -17.900  0.1106E-01  0.1106E-01  0.1177E-01  0.1177E-01
    -17.795  0.1044E-01  0.1044E-01  0.1286E-01  0.1286E-01
    -17.691  0.1217E-01  0.1217E-01  0.1413E-01  0.1413E-01
    -17.586  0.1484E-01  0.1484E-01  0.1569E-01  0.1569E-01
    -17.481  0.1875E-01  0.1875E-01  0.1765E-01  0.1765E-01
    -17.377  0.2037E-01  0.2037E-01  0.1978E-01  0.1978E-01
    -17.272  0.1392E-01  0.1392E-01  0.2124E-01  0.2124E-01
    -17.168  0.5814E-02  0.5814E-02  0.2184E-01  0.2184E-01
    -17.063  0.6837E-02  0.6837E-02  0.2256E-01  0.2256E-01
    -16.958  0.6945E-02  0.6945E-02  0.2329E-01  0.2329E-01
    -16.854  0.5769E-02  0.5769E-02  0.2389E-01  0.2389E-01
    -16.749  0.4706E-02  0.4706E-02  0.2438E-01  0.2438E-01
    -16.644  0.3374E-02  0.3374E-02  0.2474E-01  0.2474E-01
    -16.540  0.2707E-02  0.2707E-02  0.2502E-01  0.2502E-01
    -16.435  0.8273E-02  0.8273E-02  0.2588E-01  0.2588E-01
    -16.331  0.7584E-02  0.7584E-02  0.2668E-01  0.2668E-01
    -16.226  0.4803E-02  0.4803E-02  0.2718E-01  0.2718E-01
    -16.121  0.4283E-02  0.4283E-02  0.2763E-01  0.2763E-01
    -16.017  0.4304E-02  0.4304E-02  0.2808E-01  0.2808E-01
    -15.912  0.3440E-02  0.3440E-02  0.2844E-01  0.2844E-01
    -15.808  0.6130E-02  0.6130E-02  0.2908E-01  0.2908E-01
    -15.703  0.1161E-01  0.1161E-01  0.3029E-01  0.3029E-01
    -15.598  0.1286E-01  0.1286E-01  0.3164E-01  0.3164E-01
    -15.494  0.1457E-01  0.1457E-01  0.3316E-01  0.3316E-01
    -15.389  0.1541E-01  0.1541E-01  0.3478E-01  0.3478E-01
    -15.284  0.1251E-01  0.1251E-01  0.3608E-01  0.3608E-01
    -15.180  0.1214E-01  0.1214E-01  0.3735E-01  0.3735E-01
    -15.075  0.1579E-01  0.1579E-01  0.3901E-01  0.3901E-01
    -14.971  0.1693E-01  0.1693E-01  0.4078E-01  0.4078E-01
    -14.866  0.1351E-01  0.1351E-01  0.4219E-01  0.4219E-01
    -14.761  0.1230E-01  0.1230E-01  0.4348E-01  0.4348E-01
    -14.657  0.8911E-02  0.8911E-02  0.4441E-01  0.4441E-01
    -14.552  0.1109E-01  0.1109E-01  0.4557E-01  0.4557E-01
    -14.447  0.1767E-01  0.1767E-01  0.4742E-01  0.4742E-01
    -14.343  0.1839E-01  0.1839E-01  0.4934E-01  0.4934E-01
    -14.238  0.1231E-01  0.1231E-01  0.5063E-01  0.5063E-01
    -14.134  0.8726E-02  0.8726E-02  0.5154E-01  0.5154E-01
    -14.029  0.7426E-02  0.7426E-02  0.5232E-01  0.5232E-01
    -13.924  0.7899E-02  0.7899E-02  0.5315E-01  0.5315E-01
    -13.820  0.8943E-02  0.8943E-02  0.5408E-01  0.5408E-01
    -13.715  0.6869E-02  0.6869E-02  0.5480E-01  0.5480E-01
    -13.611  0.5222E-02  0.5222E-02  0.5535E-01  0.5535E-01
    -13.506  0.4207E-02  0.4207E-02  0.5579E-01  0.5579E-01
    -13.401  0.5344E-02  0.5344E-02  0.5635E-01  0.5635E-01
    -13.297  0.5361E-02  0.5361E-02  0.5691E-01  0.5691E-01
    -13.192  0.5966E-02  0.5966E-02  0.5753E-01  0.5753E-01
    -13.087  0.7565E-02  0.7565E-02  0.5832E-01  0.5832E-01
    -12.983  0.6329E-02  0.6329E-02  0.5899E-01  0.5899E-01
    -12.878  0.8071E-02  0.8071E-02  0.5983E-01  0.5983E-01
    -12.774  0.7638E-02  0.7638E-02  0.6063E-01  0.6063E-01
    -12.669  0.5328E-02  0.5328E-02  0.6119E-01  0.6119E-01
    -12.564  0.6664E-02  0.6664E-02  0.6188E-01  0.6188E-01
    -12.460  0.3172E-02  0.3172E-02  0.6222E-01  0.6222E-01
    -12.355  0.6651E-02  0.6651E-02  0.6291E-01  0.6291E-01
    -12.250  0.8858E-02  0.8858E-02  0.6384E-01  0.6384E-01
    -12.146  0.5754E-02  0.5754E-02  0.6444E-01  0.6444E-01
    -12.041  0.8648E-02  0.8648E-02  0.6534E-01  0.6534E-01
    -11.937  0.1383E-01  0.1383E-01  0.6679E-01  0.6679E-01
    -11.832  0.1681E-01  0.1681E-01  0.6855E-01  0.6855E-01
    -11.727  0.1492E-01  0.1492E-01  0.7011E-01  0.7011E-01
    -11.623  0.1354E-01  0.1354E-01  0.7153E-01  0.7153E-01
    -11.518  0.1549E-01  0.1549E-01  0.7315E-01  0.7315E-01
    -11.414  0.1337E-01  0.1337E-01  0.7455E-01  0.7455E-01
    -11.309  0.7994E-02  0.7994E-02  0.7538E-01  0.7538E-01
    -11.204  0.9362E-02  0.9362E-02  0.7636E-01  0.7636E-01
    -11.100  0.1246E-01  0.1246E-01  0.7767E-01  0.7767E-01
    -10.995  0.1054E-01  0.1054E-01  0.7877E-01  0.7877E-01
    -10.890  0.6110E-02  0.6110E-02  0.7941E-01  0.7941E-01
    -10.786  0.1011E-01  0.1011E-01  0.8047E-01  0.8047E-01
    -10.681  0.1507E-01  0.1507E-01  0.8204E-01  0.8204E-01
    -10.577  0.1513E-01  0.1513E-01  0.8363E-01  0.8363E-01
    -10.472  0.7424E-02  0.7424E-02  0.8440E-01  0.8440E-01
    -10.367  0.5751E-02  0.5751E-02  0.8500E-01  0.8500E-01
    -10.263  0.1573E-01  0.1573E-01  0.8665E-01  0.8665E-01
    -10.158  0.1929E-01  0.1929E-01  0.8867E-01  0.8867E-01
    -10.053  0.1258E-01  0.1258E-01  0.8998E-01  0.8998E-01
     -9.949  0.8432E-02  0.8432E-02  0.9087E-01  0.9087E-01
     -9.844  0.6068E-02  0.6068E-02  0.9150E-01  0.9150E-01
     -9.740  0.9808E-02  0.9808E-02  0.9253E-01  0.9253E-01
     -9.635  0.1382E-01  0.1382E-01  0.9397E-01  0.9397E-01
     -9.530  0.1271E-01  0.1271E-01  0.9530E-01  0.9530E-01
     -9.426  0.8506E-02  0.8506E-02  0.9619E-01  0.9619E-01
     -9.321  0.7397E-02  0.7397E-02  0.9697E-01  0.9697E-01
     -9.217  0.1097E-01  0.1097E-01  0.9811E-01  0.9811E-01
     -9.112  0.5579E-02  0.5579E-02  0.9870E-01  0.9870E-01
     -9.007  0.2916E-02  0.2916E-02  0.9900E-01  0.9900E-01
     -8.903  0.1076E-01  0.1076E-01  0.1001E+00  0.1001E+00
     -8.798  0.1670E-01  0.1670E-01  0.1019E+00  0.1019E+00
     -8.693  0.1785E-01  0.1785E-01  0.1037E+00  0.1037E+00
     -8.589  0.1031E-01  0.1031E-01  0.1048E+00  0.1048E+00
     -8.484  0.8294E-02  0.8294E-02  0.1057E+00  0.1057E+00
     -8.380  0.9420E-02  0.9420E-02  0.1067E+00  0.1067E+00
     -8.275  0.1398E-01  0.1398E-01  0.1081E+00  0.1081E+00
     -8.170  0.2560E-01  0.2560E-01  0.1108E+00  0.1108E+00
     -8.066  0.2462E-01  0.2462E-01  0.1134E+00  0.1134E+00
     -7.961  0.1744E-01  0.1744E-01  0.1152E+00  0.1152E+00
     -7.856  0.1333E-01  0.1333E-01  0.1166E+00  0.1166E+00
     -7.752  0.1252E-01  0.1252E-01  0.1179E+00  0.1179E+00
     -7.647  0.2290E-01  0.2290E-01  0.1203E+00  0.1203E+00
     -7.543  0.2514E-01  0.2514E-01  0.1229E+00  0.1229E+00
     -7.438  0.2106E-01  0.2106E-01  0.1251E+00  0.1251E+00
     -7.333  0.2277E-01  0.2277E-01  0.1275E+00  0.1275E+00
     -7.229  0.2306E-01  0.2306E-01  0.1299E+00  0.1299E+00
     -7.124  0.2209E-01  0.2209E-01  0.1323E+00  0.1323E+00
     -7.020  0.2654E-01  0.2654E-01  0.1350E+00  0.1350E+00
     -6.915  0.2687E-01  0.2687E-01  0.1378E+00  0.1378E+00
     -6.810  0.1636E-01  0.1636E-01  0.1396E+00  0.1396E+00
     -6.706  0.1939E-01  0.1939E-01  0.1416E+00  0.1416E+00
     -6.601  0.2865E-01  0.2865E-01  0.1446E+00  0.1446E+00
     -6.496  0.2833E-01  0.2833E-01  0.1475E+00  0.1475E+00
     -6.392  0.2334E-01  0.2334E-01  0.1500E+00  0.1500E+00
     -6.287  0.2105E-01  0.2105E-01  0.1522E+00  0.1522E+00
     -6.183  0.2329E-01  0.2329E-01  0.1546E+00  0.1546E+00
     -6.078  0.2308E-01  0.2308E-01  0.1570E+00  0.1570E+00
     -5.973  0.1792E-01  0.1792E-01  0.1589E+00  0.1589E+00
     -5.869  0.1814E-01  0.1814E-01  0.1608E+00  0.1608E+00
     -5.764  0.2170E-01  0.2170E-01  0.1631E+00  0.1631E+00
     -5.659  0.2066E-01  0.2066E-01  0.1652E+00  0.1652E+00
     -5.555  0.2170E-01  0.2170E-01  0.1675E+00  0.1675E+00
     -5.450  0.2222E-01  0.2222E-01  0.1698E+00  0.1698E+00
     -5.346  0.2504E-01  0.2504E-01  0.1725E+00  0.1725E+00
     -5.241  0.2619E-01  0.2619E-01  0.1752E+00  0.1752E+00
     -5.136  0.2142E-01  0.2142E-01  0.1774E+00  0.1774E+00
     -5.032  0.9783E-02  0.9783E-02  0.1785E+00  0.1785E+00
     -4.927  0.1180E-01  0.1180E-01  0.1797E+00  0.1797E+00
     -4.823  0.1919E-01  0.1919E-01  0.1817E+00  0.1817E+00
     -4.718  0.1964E-01  0.1964E-01  0.1838E+00  0.1838E+00
     -4.613  0.1523E-01  0.1523E-01  0.1854E+00  0.1854E+00
     -4.509  0.1545E-01  0.1545E-01  0.1870E+00  0.1870E+00
     -4.404  0.1868E-01  0.1868E-01  0.1889E+00  0.1889E+00
     -4.299  0.2120E-01  0.2120E-01  0.1911E+00  0.1911E+00
     -4.195  0.2448E-01  0.2448E-01  0.1937E+00  0.1937E+00
     -4.090  0.3150E-01  0.3150E-01  0.1970E+00  0.1970E+00
     -3.986  0.3763E-01  0.3763E-01  0.2009E+00  0.2009E+00
     -3.881  0.3269E-01  0.3269E-01  0.2044E+00  0.2044E+00
     -3.776  0.2009E-01  0.2009E-01  0.2065E+00  0.2065E+00
     -3.672  0.1603E-01  0.1603E-01  0.2081E+00  0.2081E+00
     -3.567  0.1746E-01  0.1746E-01  0.2100E+00  0.2100E+00
     -3.462  0.1566E-01  0.1566E-01  0.2116E+00  0.2116E+00
     -3.358  0.1953E-01  0.1953E-01  0.2136E+00  0.2136E+00
     -3.253  0.1717E-01  0.1717E-01  0.2154E+00  0.2154E+00
     -3.149  0.1606E-01  0.1606E-01  0.2171E+00  0.2171E+00
     -3.044  0.1498E-01  0.1498E-01  0.2187E+00  0.2187E+00
     -2.939  0.1573E-01  0.1573E-01  0.2203E+00  0.2203E+00
     -2.835  0.2447E-01  0.2447E-01  0.2229E+00  0.2229E+00
     -2.730  0.1885E-01  0.1885E-01  0.2249E+00  0.2249E+00
     -2.625  0.1204E-01  0.1204E-01  0.2261E+00  0.2261E+00
     -2.521  0.1811E-01  0.1811E-01  0.2280E+00  0.2280E+00
     -2.416  0.2171E-01  0.2171E-01  0.2303E+00  0.2303E+00
     -2.312  0.2145E-01  0.2145E-01  0.2325E+00  0.2325E+00
     -2.207  0.1837E-01  0.1837E-01  0.2345E+00  0.2345E+00
     -2.102  0.1721E-01  0.1721E-01  0.2363E+00  0.2363E+00
     -1.998  0.1354E-01  0.1354E-01  0.2377E+00  0.2377E+00
     -1.893  0.4016E-02  0.4016E-02  0.2381E+00  0.2381E+00
     -1.789  0.3712E-02  0.3712E-02  0.2385E+00  0.2385E+00
     -1.684  0.7121E-02  0.7121E-02  0.2392E+00  0.2392E+00
     -1.579  0.5960E-02  0.5960E-02  0.2399E+00  0.2399E+00
     -1.475  0.5970E-02  0.5970E-02  0.2405E+00  0.2405E+00
     -1.370  0.6540E-02  0.6540E-02  0.2412E+00  0.2412E+00
     -1.265  0.4484E-02  0.4484E-02  0.2416E+00  0.2416E+00
     -1.161  0.3101E-02  0.3101E-02  0.2420E+00  0.2420E+00
     -1.056  0.1070E-02  0.1070E-02  0.2421E+00  0.2421E+00
     -0.952  0.2845E-03  0.2845E-03  0.2421E+00  0.2421E+00
     -0.847  0.1817E-02  0.1817E-02  0.2423E+00  0.2423E+00
     -0.742  0.4039E-02  0.4039E-02  0.2427E+00  0.2427E+00
     -0.638  0.4102E-02  0.4102E-02  0.2431E+00  0.2431E+00
     -0.533  0.8376E-02  0.8376E-02  0.2440E+00  0.2440E+00
     -0.428  0.1091E-01  0.1091E-01  0.2452E+00  0.2452E+00
     -0.324  0.8494E-02  0.8494E-02  0.2460E+00  0.2460E+00
     -0.219  0.1065E-01  0.1065E-01  0.2472E+00  0.2472E+00
     -0.115  0.1230E-01  0.1230E-01  0.2484E+00  0.2484E+00
     -0.010  0.9059E-02  0.9059E-02  0.2494E+00  0.2494E+00
      0.095  0.4174E-02  0.4174E-02  0.2498E+00  0.2498E+00
      0.199  0.1339E-02  0.1339E-02  0.2500E+00  0.2500E+00
      0.304  0.4124E-03  0.4124E-03  0.2500E+00  0.2500E+00
      0.408  0.2178E-02  0.2178E-02  0.2502E+00  0.2502E+00
      0.513  0.7770E-02  0.7770E-02  0.2511E+00  0.2511E+00
      0.618  0.1033E-01  0.1033E-01  0.2521E+00  0.2521E+00
      0.722  0.5707E-02  0.5707E-02  0.2527E+00  0.2527E+00
      0.827  0.3433E-02  0.3433E-02  0.2531E+00  0.2531E+00
      0.932  0.8623E-02  0.8623E-02  0.2540E+00  0.2540E+00
      1.036  0.1204E-01  0.1204E-01  0.2553E+00  0.2553E+00
      1.141  0.1270E-01  0.1270E-01  0.2566E+00  0.2566E+00
      1.245  0.9869E-02  0.9869E-02  0.2576E+00  0.2576E+00
      1.350  0.4110E-02  0.4110E-02  0.2580E+00  0.2580E+00
      1.455  0.5093E-02  0.5093E-02  0.2586E+00  0.2586E+00
      1.559  0.5063E-02  0.5063E-02  0.2591E+00  0.2591E+00
      1.664  0.4769E-02  0.4769E-02  0.2596E+00  0.2596E+00
      1.769  0.6839E-02  0.6839E-02  0.2603E+00  0.2603E+00
      1.873  0.1068E-01  0.1068E-01  0.2614E+00  0.2614E+00
      1.978  0.9018E-02  0.9018E-02  0.2624E+00  0.2624E+00
      2.082  0.3249E-02  0.3249E-02  0.2627E+00  0.2627E+00
      2.187  0.2554E-02  0.2554E-02  0.2630E+00  0.2630E+00
      2.292  0.9424E-02  0.9424E-02  0.2640E+00  0.2640E+00
      2.396  0.1742E-01  0.1742E-01  0.2658E+00  0.2658E+00
      2.501  0.1302E-01  0.1302E-01  0.2672E+00  0.2672E+00
      2.605  0.1072E-01  0.1072E-01  0.2683E+00  0.2683E+00
      2.710  0.1094E-01  0.1094E-01  0.2694E+00  0.2694E+00
      2.815  0.1152E-01  0.1152E-01  0.2706E+00  0.2706E+00
      2.919  0.1232E-01  0.1232E-01  0.2719E+00  0.2719E+00
      3.024  0.9781E-02  0.9781E-02  0.2729E+00  0.2729E+00
      3.129  0.9271E-02  0.9271E-02  0.2739E+00  0.2739E+00
      3.233  0.1286E-01  0.1286E-01  0.2753E+00  0.2753E+00
      3.338  0.1282E-01  0.1282E-01  0.2766E+00  0.2766E+00
      3.442  0.1241E-01  0.1241E-01  0.2779E+00  0.2779E+00
      3.547  0.1160E-01  0.1160E-01  0.2791E+00  0.2791E+00
      3.652  0.1170E-01  0.1170E-01  0.2803E+00  0.2803E+00
      3.756  0.9939E-02  0.9939E-02  0.2814E+00  0.2814E+00
      3.861  0.1033E-01  0.1033E-01  0.2825E+00  0.2825E+00
      3.966  0.1362E-01  0.1362E-01  0.2839E+00  0.2839E+00
      4.070  0.1601E-01  0.1601E-01  0.2856E+00  0.2856E+00
      4.175  0.1407E-01  0.1407E-01  0.2870E+00  0.2870E+00
      4.279  0.1147E-01  0.1147E-01  0.2882E+00  0.2882E+00
      4.384  0.1165E-01  0.1165E-01  0.2894E+00  0.2894E+00
      4.489  0.2160E-01  0.2160E-01  0.2917E+00  0.2917E+00
      4.593  0.2003E-01  0.2003E-01  0.2938E+00  0.2938E+00
      4.698  0.8190E-02  0.8190E-02  0.2947E+00  0.2947E+00
      4.802  0.9382E-02  0.9383E-02  0.2956E+00  0.2956E+00
      4.907  0.2053E-01  0.2053E-01  0.2978E+00  0.2978E+00
      5.012  0.2264E-01  0.2264E-01  0.3002E+00  0.3002E+00
      5.116  0.1655E-01  0.1655E-01  0.3019E+00  0.3019E+00
      5.221  0.1314E-01  0.1314E-01  0.3033E+00  0.3033E+00
      5.326  0.1635E-01  0.1635E-01  0.3050E+00  0.3050E+00
      5.430  0.1616E-01  0.1616E-01  0.3067E+00  0.3067E+00
      5.535  0.1930E-01  0.1930E-01  0.3087E+00  0.3087E+00
      5.639  0.2286E-01  0.2286E-01  0.3111E+00  0.3111E+00
      5.744  0.1455E-01  0.1455E-01  0.3126E+00  0.3126E+00
      5.849  0.9994E-02  0.9994E-02  0.3136E+00  0.3136E+00
      5.953  0.1415E-01  0.1415E-01  0.3151E+00  0.3151E+00
      6.058  0.1650E-01  0.1650E-01  0.3168E+00  0.3168E+00
      6.163  0.1663E-01  0.1663E-01  0.3186E+00  0.3186E+00
      6.267  0.2582E-01  0.2582E-01  0.3213E+00  0.3213E+00
      6.372  0.2592E-01  0.2592E-01  0.3240E+00  0.3240E+00
      6.476  0.2523E-01  0.2523E-01  0.3266E+00  0.3266E+00
      6.581  0.2097E-01  0.2097E-01  0.3288E+00  0.3288E+00
      6.686  0.1933E-01  0.1933E-01  0.3309E+00  0.3309E+00
      6.790  0.1980E-01  0.1980E-01  0.3329E+00  0.3329E+00
      6.895  0.2323E-01  0.2322E-01  0.3354E+00  0.3354E+00
      6.999  0.3111E-01  0.3110E-01  0.3386E+00  0.3386E+00
      7.104  0.3158E-01  0.3158E-01  0.3419E+00  0.3419E+00
      7.209  0.2991E-01  0.2991E-01  0.3450E+00  0.3450E+00
      7.313  0.3335E-01  0.3335E-01  0.3485E+00  0.3485E+00
      7.418  0.3838E-01  0.3838E-01  0.3525E+00  0.3525E+00
      7.523  0.3009E-01  0.3009E-01  0.3557E+00  0.3557E+00
      7.627  0.2892E-01  0.2892E-01  0.3587E+00  0.3587E+00
      7.732  0.3472E-01  0.3472E-01  0.3624E+00  0.3624E+00
      7.836  0.4032E-01  0.4032E-01  0.3666E+00  0.3666E+00
      7.941  0.3376E-01  0.3376E-01  0.3701E+00  0.3701E+00
      8.046  0.2176E-01  0.2176E-01  0.3724E+00  0.3724E+00
      8.150  0.1205E-01  0.1205E-01  0.3736E+00  0.3736E+00
      8.255  0.6356E-02  0.6355E-02  0.3743E+00  0.3743E+00
      8.360  0.2110E-02  0.2110E-02  0.3745E+00  0.3745E+00
      8.464  0.2053E-02  0.2053E-02  0.3747E+00  0.3747E+00
      8.569  0.2039E-02  0.2039E-02  0.3750E+00  0.3750E+00
      8.673  0.4149E-03  0.4148E-03  0.3750E+00  0.3750E+00
      8.778  0.1487E-04  0.1487E-04  0.3750E+00  0.3750E+00
      8.883  0.8148E-07  0.8146E-07  0.3750E+00  0.3750E+00
      8.987  0.5987E-10  0.5985E-10  0.3750E+00  0.3750E+00
      9.092  0.5434E-14  0.5432E-14  0.3750E+00  0.3750E+00
      9.196  0.0000E+00  0.0000E+00  0.3750E+00  0.3750E+00
      9.301  0.0000E+00  0.0000E+00  0.3750E+00  0.3750E+00
      9.406  0.0000E+00  0.0000E+00  0.3750E+00  0.3750E+00
      9.510  0.0000E+00  0.0000E+00  0.3750E+00  0.3750E+00
      9.615  0.0000E+00  0.0000E+00  0.3750E+00  0.3750E+00
      9.720  0.0000E+00  0.0000E+00  0.3750E+00  0.3750E+00
      9.824  0.0000E+00  0.0000E+00  0.3750E+00  0.3750E+00
      9.929  0.0000E+00  0.0000E+00  0.3750E+00  0.3750E+00
