    8    8    1    1
  0.4142730E+02  0.5051000E-09  0.5051000E-09  0.1500000E-08  0.5000000E-15
  1.000000000000000E-004
  CAR 
 PDOS                                    
     24     36     48
 
  0.0000000E+00  0.0000000E+00  0.0000000E+00  0.8264463E-02
      1        -17.891275   1.000000
      2        -13.732959   1.000000
      3        -13.651765   1.000000
      4        -13.651746   1.000000
      5        -11.485610   1.000000
      6        -11.485587   1.000000
      7         -9.414841   1.000000
      8         -8.731990   1.000000
      9         -3.831485   1.000000
     10         -3.831481   1.000000
     11         -2.296298   1.000000
     12         -1.733470   0.000000
     13         -1.733451   0.000000
     14         -1.513314   0.000000
     15         -1.513303   0.000000
     16         -1.258649   0.000000
     17         -1.258628   0.000000
     18          0.780888   0.000000
     19          1.627528   0.000000
     20          2.377248   0.000000
     21          2.516707   0.000000
     22          4.393978   0.000000
     23          4.949157   0.000000
     24          5.695411   0.000000
     25          6.353772   0.000000
     26          6.353777   0.000000
     27          6.590197   0.000000
     28          7.518360   0.000000
     29          7.518368   0.000000
     30          8.047547   0.000000
     31          8.351419   0.000000
     32          8.603649   0.000000
     33          9.010813   0.000000
     34          9.103627   0.000000
     35          9.315225   0.000000
     36          9.360594   0.000000
     37          9.360596   0.000000
     38          9.384235   0.000000
     39          9.435349   0.000000
     40          9.435359   0.000000
     41          9.500311   0.000000
     42          9.534875   0.000000
     43          9.534884   0.000000
     44          9.569641   0.000000
     45          9.569644   0.000000
     46         10.340699   0.000000
     47         10.344641   0.000000
     48         10.413264   0.000000
 
  0.9090909E-01  0.8961934E-17  0.0000000E+00  0.3305785E-01
      1        -17.853664   1.000000
      2        -14.277162   1.000000
      3        -13.689746   1.000000
      4        -13.138826   1.000000
      5        -11.540540   1.000000
      6        -11.386642   1.000000
      7         -9.241462   1.000000
      8         -8.674575   1.000000
      9         -4.263161   1.000000
     10         -4.196661   1.000000
     11         -3.024255   1.000000
     12         -2.128845   0.542266
     13         -1.670686   0.000000
     14         -1.113760   0.000000
     15         -1.047288   0.000000
     16         -0.751465   0.000000
     17         -0.644400   0.000000
     18          0.842870   0.000000
     19          1.728436   0.000000
     20          2.441178   0.000000
     21          2.689102   0.000000
     22          4.457291   0.000000
     23          5.009093   0.000000
     24          5.302916   0.000000
     25          6.059930   0.000000
     26          6.215159   0.000000
     27          6.435273   0.000000
     28          7.117103   0.000000
     29          7.401796   0.000000
     30          7.828544   0.000000
     31          8.197798   0.000000
     32          8.414674   0.000000
     33          8.584225   0.000000
     34          8.678327   0.000000
     35          8.841032   0.000000
     36          8.864917   0.000000
     37          8.915222   0.000000
     38          9.134630   0.000000
     39          9.222445   0.000000
     40          9.583174   0.000000
     41          9.773885   0.000000
     42          9.819248   0.000000
     43          9.992961   0.000000
     44         10.107161   0.000000
     45         10.122807   0.000000
     46         10.313308   0.000000
     47         10.388378   0.000000
     48         10.638438   0.000000
 
 -0.9090909E-01  0.9090909E-01  0.0000000E+00  0.1652893E-01
      1        -17.853664   1.000000
      2        -14.277174   1.000000
      3        -13.689732   1.000000
      4        -13.138825   1.000000
      5        -11.540529   1.000000
      6        -11.386658   1.000000
      7         -9.241462   1.000000
      8         -8.674575   1.000000
      9         -4.263163   1.000000
     10         -4.196659   1.000000
     11         -3.024265   1.000000
     12         -2.128841   0.542258
     13         -1.670666   0.000000
     14         -1.113767   0.000000
     15         -1.047281   0.000000
     16         -0.751471   0.000000
     17         -0.644409   0.000000
     18          0.842870   0.000000
     19          1.728437   0.000000
     20          2.441178   0.000000
     21          2.689102   0.000000
     22          4.457291   0.000000
     23          5.009093   0.000000
     24          5.302919   0.000000
     25          6.059935   0.000000
     26          6.215155   0.000000
     27          6.435268   0.000000
     28          7.117108   0.000000
     29          7.401790   0.000000
     30          7.828544   0.000000
     31          8.197797   0.000000
     32          8.414675   0.000000
     33          8.584227   0.000000
     34          8.678326   0.000000
     35          8.841025   0.000000
     36          8.864914   0.000000
     37          8.915225   0.000000
     38          9.134643   0.000000
     39          9.222442   0.000000
     40          9.583168   0.000000
     41          9.773876   0.000000
     42          9.819250   0.000000
     43          9.992954   0.000000
     44         10.107155   0.000000
     45         10.122820   0.000000
     46         10.313310   0.000000
     47         10.388381   0.000000
     48         10.638436   0.000000
 
  0.1818182E+00  0.1306959E-17  0.0000000E+00  0.3305785E-01
      1        -17.742128   1.000000
      2        -14.850835   1.000000
      3        -13.781163   1.000000
      4        -12.732722   1.000000
      5        -11.539624   1.000000
      6        -11.117235   1.000000
      7         -8.847778   1.000000
      8         -8.503514   1.000000
      9         -5.088687   1.000000
     10         -4.888455   1.000000
     11         -3.990982   1.000000
     12         -2.583994   1.003702
     13         -1.836179   0.000000
     14         -0.302247   0.000000
     15         -0.122565   0.000000
     16          0.037443   0.000000
     17          0.383011   0.000000
     18          1.028651   0.000000
     19          1.984831   0.000000
     20          2.632860   0.000000
     21          3.173313   0.000000
     22          4.332046   0.000000
     23          4.645123   0.000000
     24          5.178006   0.000000
     25          5.421869   0.000000
     26          5.859635   0.000000
     27          5.883011   0.000000
     28          6.707703   0.000000
     29          6.993040   0.000000
     30          7.141527   0.000000
     31          7.214393   0.000000
     32          7.536746   0.000000
     33          8.347914   0.000000
     34          8.404523   0.000000
     35          8.588021   0.000000
     36          8.637942   0.000000
     37          8.829002   0.000000
     38          8.918492   0.000000
     39          9.375932   0.000000
     40          9.418033   0.000000
     41          9.447462   0.000000
     42          9.634768   0.000000
     43         10.152683   0.000000
     44         10.424835   0.000000
     45         10.472428   0.000000
     46         10.472972   0.000000
     47         10.930490   0.000000
     48         11.024750   0.000000
 
 -0.1818182E+00  0.1818182E+00  0.0000000E+00  0.1652893E-01
      1        -17.742126   1.000000
      2        -14.850851   1.000000
      3        -13.781151   1.000000
      4        -12.732704   1.000000
      5        -11.539627   1.000000
      6        -11.117250   1.000000
      7         -8.847779   1.000000
      8         -8.503513   1.000000
      9         -5.088687   1.000000
     10         -4.888452   1.000000
     11         -3.990993   1.000000
     12         -2.583992   1.003703
     13         -1.836157   0.000000
     14         -0.302252   0.000000
     15         -0.122557   0.000000
     16          0.037440   0.000000
     17          0.382997   0.000000
     18          1.028651   0.000000
     19          1.984832   0.000000
     20          2.632860   0.000000
     21          3.173315   0.000000
     22          4.332053   0.000000
     23          4.645123   0.000000
     24          5.178006   0.000000
     25          5.421869   0.000000
     26          5.859630   0.000000
     27          5.883012   0.000000
     28          6.707703   0.000000
     29          6.993040   0.000000
     30          7.141522   0.000000
     31          7.214393   0.000000
     32          7.536748   0.000000
     33          8.347913   0.000000
     34          8.404525   0.000000
     35          8.588022   0.000000
     36          8.637926   0.000000
     37          8.829013   0.000000
     38          8.918501   0.000000
     39          9.375919   0.000000
     40          9.418037   0.000000
     41          9.447461   0.000000
     42          9.634760   0.000000
     43         10.152688   0.000000
     44         10.424828   0.000000
     45         10.472432   0.000000
     46         10.472971   0.000000
     47         10.930534   0.000000
     48         11.024742   0.000000
 
  0.2727273E+00  0.2680703E-17  0.0000000E+00  0.3305785E-01
      1        -17.561800   1.000000
      2        -15.392523   1.000000
      3        -13.883931   1.000000
      4        -12.625897   1.000000
      5        -11.227381   1.000000
      6        -10.738252   1.000000
      7         -8.483149   1.000000
      8         -8.223671   1.000000
      9         -5.935511   1.000000
     10         -5.499404   1.000000
     11         -4.899917   1.000000
     12         -2.935514   1.000000
     13         -2.034550   0.006151
     14          0.578599   0.000000
     15          0.879006   0.000000
     16          0.939926   0.000000
     17          1.337819   0.000000
     18          1.415014   0.000000
     19          2.355520   0.000000
     20          2.951753   0.000000
     21          3.231905   0.000000
     22          3.812311   0.000000
     23          4.608410   0.000000
     24          4.948388   0.000000
     25          5.142563   0.000000
     26          5.379496   0.000000
     27          5.505676   0.000000
     28          5.903995   0.000000
     29          6.313696   0.000000
     30          6.375335   0.000000
     31          6.633886   0.000000
     32          6.873095   0.000000
     33          7.941337   0.000000
     34          8.020812   0.000000
     35          8.383062   0.000000
     36          8.439886   0.000000
     37          8.543306   0.000000
     38          8.794303   0.000000
     39          8.859533   0.000000
     40          9.282410   0.000000
     41          9.557873   0.000000
     42          9.737561   0.000000
     43         10.046892   0.000000
     44         10.376723   0.000000
     45         10.551077   0.000000
     46         11.049521   0.000000
     47         11.165590   0.000000
     48         11.167772   0.000000
 
 -0.2727273E+00  0.2727273E+00  0.0000000E+00  0.1652893E-01
      1        -17.561797   1.000000
      2        -15.392542   1.000000
      3        -13.883921   1.000000
      4        -12.625865   1.000000
      5        -11.227395   1.000000
      6        -10.738266   1.000000
      7         -8.483155   1.000000
      8         -8.223669   1.000000
      9         -5.935510   1.000000
     10         -5.499397   1.000000
     11         -4.899930   1.000000
     12         -2.935513   1.000000
     13         -2.034529   0.006146
     14          0.578595   0.000000
     15          0.879015   0.000000
     16          0.939924   0.000000
     17          1.337819   0.000000
     18          1.415001   0.000000
     19          2.355522   0.000000
     20          2.951754   0.000000
     21          3.231913   0.000000
     22          3.812314   0.000000
     23          4.608409   0.000000
     24          4.948388   0.000000
     25          5.142567   0.000000
     26          5.379487   0.000000
     27          5.505675   0.000000
     28          5.903995   0.000000
     29          6.313695   0.000000
     30          6.375333   0.000000
     31          6.633888   0.000000
     32          6.873090   0.000000
     33          7.941336   0.000000
     34          8.020814   0.000000
     35          8.383060   0.000000
     36          8.439863   0.000000
     37          8.543328   0.000000
     38          8.794304   0.000000
     39          8.859535   0.000000
     40          9.282410   0.000000
     41          9.557859   0.000000
     42          9.737559   0.000000
     43         10.046884   0.000000
     44         10.376734   0.000000
     45         10.551093   0.000000
     46         11.049571   0.000000
     47         11.166397   0.000000
     48         11.205515   0.000000
 
  0.3636364E+00  0.3440721E-16  0.0000000E+00  0.3305785E-01
      1        -17.328117   1.000000
      2        -15.874175   1.000000
      3        -13.966323   1.000000
      4        -12.683123   1.000000
      5        -10.720111   1.000000
      6        -10.330857   1.000000
      7         -8.405481   1.000000
      8         -7.851133   1.000000
      9         -6.663072   1.000000
     10         -5.796990   1.000000
     11         -5.701707   1.000000
     12         -3.172121   1.000000
     13         -2.192321   0.226182
     14          1.377372   0.000000
     15          1.771438   0.000000
     16          1.809986   0.000000
     17          1.935384   0.000000
     18          2.320435   0.000000
     19          2.376083   0.000000
     20          2.846939   0.000000
     21          3.393221   0.000000
     22          3.782988   0.000000
     23          4.289680   0.000000
     24          4.489833   0.000000
     25          4.840310   0.000000
     26          4.932156   0.000000
     27          5.251119   0.000000
     28          5.367446   0.000000
     29          5.499293   0.000000
     30          5.909727   0.000000
     31          6.438361   0.000000
     32          6.670601   0.000000
     33          7.430931   0.000000
     34          7.670377   0.000000
     35          7.764730   0.000000
     36          7.954444   0.000000
     37          8.283195   0.000000
     38          8.324414   0.000000
     39          9.187090   0.000000
     40          9.792276   0.000000
     41          9.831326   0.000000
     42          9.893935   0.000000
     43         10.142907   0.000000
     44         10.296783   0.000000
     45         10.494070   0.000000
     46         10.805996   0.000000
     47         10.993334   0.000000
     48         11.694031   0.000000
 
 -0.3636364E+00  0.3636364E+00  0.0000000E+00  0.1652893E-01
      1        -17.328109   1.000000
      2        -15.874199   1.000000
      3        -13.966314   1.000000
      4        -12.683090   1.000000
      5        -10.720125   1.000000
      6        -10.330871   1.000000
      7         -8.405496   1.000000
      8         -7.851128   1.000000
      9         -6.663070   1.000000
     10         -5.796976   1.000000
     11         -5.701723   1.000000
     12         -3.172121   1.000000
     13         -2.192302   0.226118
     14          1.377368   0.000000
     15          1.771438   0.000000
     16          1.810000   0.000000
     17          1.935382   0.000000
     18          2.320444   0.000000
     19          2.376071   0.000000
     20          2.846940   0.000000
     21          3.393222   0.000000
     22          3.782986   0.000000
     23          4.289681   0.000000
     24          4.489837   0.000000
     25          4.840296   0.000000
     26          4.932157   0.000000
     27          5.251118   0.000000
     28          5.367445   0.000000
     29          5.499293   0.000000
     30          5.909725   0.000000
     31          6.438362   0.000000
     32          6.670596   0.000000
     33          7.430931   0.000000
     34          7.670375   0.000000
     35          7.764732   0.000000
     36          7.954442   0.000000
     37          8.283172   0.000000
     38          8.324437   0.000000
     39          9.187094   0.000000
     40          9.792274   0.000000
     41          9.831316   0.000000
     42          9.893921   0.000000
     43         10.142906   0.000000
     44         10.296799   0.000000
     45         10.494077   0.000000
     46         10.805981   0.000000
     47         10.993294   0.000000
     48         11.673024   0.000000
 
  0.4545455E+00  0.1916404E-16  0.0000000E+00  0.3305785E-01
      1        -17.103445   1.000000
      2        -16.225008   1.000000
      3        -14.011107   1.000000
      4        -12.736841   1.000000
      5        -10.292053   1.000000
      6        -10.032645   1.000000
      7         -8.588270   1.000000
      8         -7.466064   1.000000
      9         -7.122608   1.000000
     10         -6.303858   1.000000
     11         -5.813944   1.000000
     12         -3.290914   1.000000
     13         -2.277396   0.548317
     14          1.664883   0.000000
     15          2.072343   0.000000
     16          2.328769   0.000000
     17          2.491622   0.000000
     18          3.004339   0.000000
     19          3.013947   0.000000
     20          3.156183   0.000000
     21          3.438805   0.000000
     22          3.932841   0.000000
     23          4.036617   0.000000
     24          4.092043   0.000000
     25          4.128195   0.000000
     26          4.303662   0.000000
     27          4.369917   0.000000
     28          4.681875   0.000000
     29          5.921128   0.000000
     30          6.224151   0.000000
     31          6.564224   0.000000
     32          6.566642   0.000000
     33          6.615050   0.000000
     34          7.215249   0.000000
     35          7.551430   0.000000
     36          7.636613   0.000000
     37          8.175447   0.000000
     38          8.210820   0.000000
     39          9.486801   0.000000
     40          9.988900   0.000000
     41         10.169486   0.000000
     42         10.252909   0.000000
     43         10.326665   0.000000
     44         10.458335   0.000000
     45         10.513627   0.000000
     46         10.650440   0.000000
     47         10.857717   0.000000
     48         11.261695   0.000000
 
 -0.4545455E+00  0.4545455E+00  0.0000000E+00  0.1652893E-01
      1        -17.103427   1.000000
      2        -16.225042   1.000000
      3        -14.011098   1.000000
      4        -12.736809   1.000000
      5        -10.292063   1.000000
      6        -10.032661   1.000000
      7         -8.588292   1.000000
      8         -7.466052   1.000000
      9         -7.122604   1.000000
     10         -6.303881   1.000000
     11         -5.813926   1.000000
     12         -3.290913   1.000000
     13         -2.277377   0.548265
     14          1.664886   0.000000
     15          2.072346   0.000000
     16          2.328769   0.000000
     17          2.491646   0.000000
     18          3.004338   0.000000
     19          3.013946   0.000000
     20          3.156173   0.000000
     21          3.438805   0.000000
     22          3.932843   0.000000
     23          4.036617   0.000000
     24          4.092042   0.000000
     25          4.128193   0.000000
     26          4.303660   0.000000
     27          4.369892   0.000000
     28          4.681876   0.000000
     29          5.921128   0.000000
     30          6.224150   0.000000
     31          6.564219   0.000000
     32          6.566643   0.000000
     33          6.615051   0.000000
     34          7.215249   0.000000
     35          7.551429   0.000000
     36          7.636615   0.000000
     37          8.175422   0.000000
     38          8.210844   0.000000
     39          9.486805   0.000000
     40          9.988887   0.000000
     41         10.169501   0.000000
     42         10.252898   0.000000
     43         10.326660   0.000000
     44         10.458325   0.000000
     45         10.513633   0.000000
     46         10.650440   0.000000
     47         10.857685   0.000000
     48         11.261952   0.000000
 
  0.9090909E-01  0.9090909E-01  0.0000000E+00  0.1652893E-01
      1        -17.779041   1.000000
      2        -14.693347   1.000000
      3        -13.779197   1.000000
      4        -12.777169   1.000000
      5        -11.606740   1.000000
      6        -11.179638   1.000000
      7         -8.961818   1.000000
      8         -8.560294   1.000000
      9         -4.881549   1.000000
     10         -4.669356   1.000000
     11         -3.698653   1.000000
     12         -2.672666   1.077356
     13         -1.431878   0.000000
     14         -0.617458   0.000000
     15         -0.577118   0.000000
     16         -0.307400   0.000000
     17          0.310317   0.000000
     18          0.966735   0.000000
     19          1.903219   0.000000
     20          2.568988   0.000000
     21          3.016671   0.000000
     22          4.582860   0.000000
     23          4.704813   0.000000
     24          5.122270   0.000000
     25          5.394715   0.000000
     26          5.806443   0.000000
     27          6.416756   0.000000
     28          6.693803   0.000000
     29          7.316743   0.000000
     30          7.405844   0.000000
     31          7.612974   0.000000
     32          7.646336   0.000000
     33          8.121877   0.000000
     34          8.137075   0.000000
     35          8.531775   0.000000
     36          8.829893   0.000000
     37          9.224863   0.000000
     38          9.299811   0.000000
     39          9.410137   0.000000
     40          9.570595   0.000000
     41          9.736633   0.000000
     42          9.741497   0.000000
     43          9.862843   0.000000
     44         10.040801   0.000000
     45         10.144759   0.000000
     46         10.517976   0.000000
     47         10.610268   0.000000
     48         11.024082   0.000000
 
 -0.9090909E-01  0.1818182E+00  0.0000000E+00  0.3305785E-01
      1        -17.779040   1.000000
      2        -14.693362   1.000000
      3        -13.779182   1.000000
      4        -12.777163   1.000000
      5        -11.606728   1.000000
      6        -11.179659   1.000000
      7         -8.961819   1.000000
      8         -8.560293   1.000000
      9         -4.881549   1.000000
     10         -4.669354   1.000000
     11         -3.698667   1.000000
     12         -2.672651   1.077356
     13         -1.431876   0.000000
     14         -0.617466   0.000000
     15         -0.577107   0.000000
     16         -0.307392   0.000000
     17          0.310299   0.000000
     18          0.966736   0.000000
     19          1.903220   0.000000
     20          2.568988   0.000000
     21          3.016673   0.000000
     22          4.582860   0.000000
     23          4.704816   0.000000
     24          5.122271   0.000000
     25          5.394719   0.000000
     26          5.806441   0.000000
     27          6.416758   0.000000
     28          6.693795   0.000000
     29          7.316741   0.000000
     30          7.405844   0.000000
     31          7.612973   0.000000
     32          7.646336   0.000000
     33          8.121887   0.000000
     34          8.137064   0.000000
     35          8.531776   0.000000
     36          8.829893   0.000000
     37          9.224866   0.000000
     38          9.299805   0.000000
     39          9.410135   0.000000
     40          9.570599   0.000000
     41          9.736626   0.000000
     42          9.741500   0.000000
     43          9.862840   0.000000
     44         10.040794   0.000000
     45         10.144769   0.000000
     46         10.517951   0.000000
     47         10.610292   0.000000
     48         11.024159   0.000000
 
  0.1818182E+00  0.9090909E-01  0.0000000E+00  0.3305785E-01
      1        -17.632630   1.000000
      2        -15.191434   1.000000
      3        -13.923857   1.000000
      4        -12.472836   1.000000
      5        -11.537832   1.000000
      6        -10.816963   1.000000
      7         -8.597733   1.000000
      8         -8.334365   1.000000
      9         -5.651680   1.000000
     10         -5.278331   1.000000
     11         -4.523982   1.000000
     12         -3.169323   1.000000
     13         -1.433213   0.000000
     14          0.040024   0.000000
     15          0.058208   0.000000
     16          0.730851   0.000000
     17          1.214037   0.000000
     18          1.387167   0.000000
     19          2.206637   0.000000
     20          2.824332   0.000000
     21          3.570680   0.000000
     22          3.744889   0.000000
     23          4.594496   0.000000
     24          4.827935   0.000000
     25          5.133418   0.000000
     26          5.375915   0.000000
     27          5.861255   0.000000
     28          6.468148   0.000000
     29          6.608673   0.000000
     30          6.656215   0.000000
     31          6.994038   0.000000
     32          7.180680   0.000000
     33          7.373545   0.000000
     34          7.748887   0.000000
     35          8.753542   0.000000
     36          8.940048   0.000000
     37          9.081538   0.000000
     38          9.181406   0.000000
     39          9.211267   0.000000
     40          9.221067   0.000000
     41          9.592519   0.000000
     42          9.635409   0.000000
     43          9.727788   0.000000
     44          9.954640   0.000000
     45         10.233760   0.000000
     46         10.435389   0.000000
     47         11.075464   0.000000
     48         11.178441   0.000000
 
 -0.9090909E-01  0.2727273E+00  0.0000000E+00  0.3305785E-01
      1        -17.632629   1.000000
      2        -15.191446   1.000000
      3        -13.923846   1.000000
      4        -12.472833   1.000000
      5        -11.537817   1.000000
      6        -10.816984   1.000000
      7         -8.597738   1.000000
      8         -8.334364   1.000000
      9         -5.651673   1.000000
     10         -5.278331   1.000000
     11         -4.523992   1.000000
     12         -3.169312   1.000000
     13         -1.433216   0.000000
     14          0.040038   0.000000
     15          0.058200   0.000000
     16          0.730859   0.000000
     17          1.214037   0.000000
     18          1.387151   0.000000
     19          2.206638   0.000000
     20          2.824332   0.000000
     21          3.570682   0.000000
     22          3.744889   0.000000
     23          4.594503   0.000000
     24          4.827935   0.000000
     25          5.133417   0.000000
     26          5.375916   0.000000
     27          5.861255   0.000000
     28          6.468150   0.000000
     29          6.608664   0.000000
     30          6.656213   0.000000
     31          6.994042   0.000000
     32          7.180680   0.000000
     33          7.373541   0.000000
     34          7.748887   0.000000
     35          8.753542   0.000000
     36          8.940045   0.000000
     37          9.081548   0.000000
     38          9.181398   0.000000
     39          9.211272   0.000000
     40          9.221066   0.000000
     41          9.592519   0.000000
     42          9.635411   0.000000
     43          9.727785   0.000000
     44          9.954642   0.000000
     45         10.233754   0.000000
     46         10.435382   0.000000
     47         11.075459   0.000000
     48         11.178357   0.000000
 
 -0.2727273E+00  0.1818182E+00  0.0000000E+00  0.3305785E-01
      1        -17.632628   1.000000
      2        -15.191454   1.000000
      3        -13.923841   1.000000
      4        -12.472814   1.000000
      5        -11.537832   1.000000
      6        -10.816987   1.000000
      7         -8.597739   1.000000
      8         -8.334364   1.000000
      9         -5.651674   1.000000
     10         -5.278328   1.000000
     11         -4.523998   1.000000
     12         -3.169310   1.000000
     13         -1.433202   0.000000
     14          0.040027   0.000000
     15          0.058201   0.000000
     16          0.730860   0.000000
     17          1.214037   0.000000
     18          1.387149   0.000000
     19          2.206639   0.000000
     20          2.824332   0.000000
     21          3.570684   0.000000
     22          3.744896   0.000000
     23          4.594498   0.000000
     24          4.827935   0.000000
     25          5.133416   0.000000
     26          5.375914   0.000000
     27          5.861257   0.000000
     28          6.468148   0.000000
     29          6.608664   0.000000
     30          6.656214   0.000000
     31          6.994041   0.000000
     32          7.180679   0.000000
     33          7.373541   0.000000
     34          7.748885   0.000000
     35          8.753541   0.000000
     36          8.940049   0.000000
     37          9.081538   0.000000
     38          9.181406   0.000000
     39          9.211271   0.000000
     40          9.221068   0.000000
     41          9.592517   0.000000
     42          9.635406   0.000000
     43          9.727777   0.000000
     44          9.954642   0.000000
     45         10.233762   0.000000
     46         10.435386   0.000000
     47         11.075315   0.000000
     48         11.178357   0.000000
 
  0.2727273E+00  0.9090909E-01  0.0000000E+00  0.3305785E-01
      1        -17.422839   1.000000
      2        -15.676886   1.000000
      3        -14.057610   1.000000
      4        -12.426955   1.000000
      5        -11.146213   1.000000
      6        -10.395977   1.000000
      7         -8.435664   1.000000
      8         -8.005178   1.000000