 ----------------------------------------------------
    OOO  PPPP  EEEEE N   N M   M PPPP
   O   O P   P E     NN  N MM MM P   P
   O   O PPPP  EEEEE N N N M M M PPPP   -- VERSION
   O   O P     E     N  NN M   M P
    OOO  P     EEEEE N   N M   M P
 ----------------------------------------------------
 running   48 mpi-ranks, with    1 threads/rank
 distrk:  each k-point on   48 cores,    1 groups
 distr:  one band on    1 cores,   48 groups
 vasp.6.3.2 27Jun22 (build Dec 22 2022 13:13:19) complex                        
  
 POSCAR found type information on POSCAR B 
 POSCAR found :  1 types and       8 ions
 Reading from existing POTCAR
 scaLAPACK will be used
 Reading from existing POTCAR
 LDA part: xc-table for Pade appr. of Perdew
 POSCAR found type information on POSCAR B 
 POSCAR found :  1 types and       8 ions
 WARNING: stress and forces are not correct
 POSCAR, INCAR and KPOINTS ok, starting setup
 FFT: planning ... GRIDC
 FFT: planning ... GRID_SOFT
 FFT: planning ... GRID
 WAVECAR not read
 charge-density read from file: SC                                      
 WARNING: random wavefunctions but no delay for mixing, default for NELMDL
 entering main loop
       N       E                     dE             d eps       ncg     rms          rms(c)
DAV:   1     0.363995494140E+02    0.36400E+02   -0.87520E+03  3456   0.321E+02
DAV:   2    -0.494736611538E+02   -0.85873E+02   -0.85581E+02  5232   0.549E+01
DAV:   3    -0.504727122477E+02   -0.99905E+00   -0.99764E+00  4368   0.856E+00
DAV:   4    -0.504748496100E+02   -0.21374E-02   -0.21360E-02  6048   0.413E-01
DAV:   5    -0.504748499067E+02   -0.29672E-06   -0.29730E-06  4368   0.429E-03
DAV:   6    -0.504748499105E+02   -0.37130E-08   -0.35010E-08  5904   0.286E-04
   1 F= -.50474850E+02 E0= -.50474850E+02  d E =0.000000E+00
 -----------------------------------------------------------------------------
|                                                                             |
|           W    W    AA    RRRRR   N    N  II  N    N   GGGG   !!!           |
|           W    W   A  A   R    R  NN   N  II  NN   N  G    G  !!!           |
|           W    W  A    A  R    R  N N  N  II  N N  N  G       !!!           |
|           W WW W  AAAAAA  RRRRR   N  N N  II  N  N N  G  GGG   !            |
|           WW  WW  A    A  R   R   N   NN  II  N   NN  G    G                |
|           W    W  A    A  R    R  N    N  II  N    N   GGGG   !!!           |
|                                                                             |
|     Tetrahedron method does not include variations of the Fermi             |
|     occupations, so forces and stress will be inaccurate. We suggest        |
|     using a different smearing scheme ISMEAR = 1 or 2 for metals in         |
|     relaxations.                                                            |
|                                                                             |
 -----------------------------------------------------------------------------

