<?xml version="1.0" encoding="ISO-8859-1"?>
<modeling>
 <generator>
  <i name="program" type="string">vasp </i>
  <i name="version" type="string">6.3.2  </i>
  <i name="subversion" type="string">27Jun22 (build Dec 22 2022 13:13:19) complex                          parallel </i>
  <i name="platform" type="string">LinuxIFC </i>
  <i name="date" type="string">2023 08 23 </i>
  <i name="time" type="string">00:12:33 </i>
 </generator>
 <incar>
  <i type="string" name="SYSTEM">Lattice</i>
  <i type="int" name="ISTART">     0</i>
  <i type="string" name="PREC">Accurate</i>
  <i type="string" name="ALGO">Normal</i>
  <i type="int" name="ISPIN">     2</i>
  <i type="int" name="ICHARG">     2</i>
  <i type="int" name="NELM">    64</i>
  <i type="int" name="IBRION">     2</i>
  <i name="EDIFF">      0.00000100</i>
  <i name="EDIFFG">     -0.00100000</i>
  <i type="int" name="NSW">   128</i>
  <i type="int" name="ISIF">     2</i>
  <i name="ENCUT">    450.00000000</i>
  <i name="POTIM">      0.50000000</i>
  <i type="int" name="ISMEAR">     0</i>
  <i name="SIGMA">      0.10000000</i>
  <i type="logical" name="LWAVE"> F  </i>
  <i type="logical" name="LCHARG"> F  </i>
  <i type="string" name="GGA">PE</i>
  <i type="int" name="IVDW">    12</i>
 </incar>
 <primitive_cell>
  <structure name="primitive_cell" >
   <crystal>
    <varray name="basis" >
     <v>       4.36909816       2.52250000       0.00000000 </v>
     <v>      -4.36909816       2.52250000       0.00000000 </v>
     <v>       0.00000000       0.00000000      15.00000000 </v>
    </varray>
    <i name="volume">    330.63150342 </i>
    <varray name="rec_basis" >
     <v>       0.11444009       0.19821606       0.00000000 </v>
     <v>      -0.11444009       0.19821606       0.00000000 </v>
     <v>       0.00000000       0.00000000       0.06666667 </v>
    </varray>
   </crystal>
   <varray name="positions" >
    <v>       0.33833034       0.66916432       0.10000000 </v>
    <v>       0.67165522       0.33584146       0.10000000 </v>
    <v>       0.16373946       0.31999962       0.10000000 </v>
    <v>       0.32250218       0.16126397       0.10000000 </v>
    <v>       0.16376430       0.84376384       0.10000000 </v>
    <v>       0.84623863       0.16123684       0.10000000 </v>
    <v>       0.68749850       0.84373000       0.10000000 </v>
    <v>       0.84626736       0.68499594       0.10000000 </v>
    <v>       0.24999933       0.24999967       0.32633333 </v>
    <v>       0.41666633       0.08333267       0.32633333 </v>
    <v>       0.24999933       0.74999967       0.32633333 </v>
    <v>       0.41666633       0.58333267       0.32633333 </v>
    <v>       0.74999933       0.24999967       0.32633333 </v>
    <v>       0.91666633       0.08333267       0.32633333 </v>
    <v>       0.74999933       0.74999967       0.32633333 </v>
    <v>       0.91666633       0.58333267       0.32633333 </v>
   </varray>
  </structure>
  <varray name="primitive_index" >
   <v type="int" >        1 </v>
   <v type="int" >        2 </v>
   <v type="int" >        3 </v>
   <v type="int" >        4 </v>
   <v type="int" >        5 </v>
   <v type="int" >        6 </v>
   <v type="int" >        7 </v>
   <v type="int" >        8 </v>
   <v type="int" >        9 </v>
   <v type="int" >       10 </v>
   <v type="int" >       11 </v>
   <v type="int" >       12 </v>
   <v type="int" >       13 </v>
   <v type="int" >       14 </v>
   <v type="int" >       15 </v>
   <v type="int" >       16 </v>
  </varray>
 </primitive_cell>
 <kpoints>
  <generation param="Gamma">
   <v type="int" name="divisions">      12       12        1 </v>
   <v name="usershift">      0.00000000       0.00000000       0.00000000 </v>
   <v name="genvec1">      0.08333333       0.00000000       0.00000000 </v>
   <v name="genvec2">      0.00000000       0.08333333       0.00000000 </v>
   <v name="genvec3">      0.00000000       0.00000000       1.00000000 </v>
   <v name="shift">      0.00000000       0.00000000       0.00000000 </v>
  </generation>
  <varray name="kpointlist" >
   <v>       0.00000000       0.00000000       0.00000000 </v>
   <v>       0.08333333      -0.00000000       0.00000000 </v>
   <v>      -0.00000000       0.08333333       0.00000000 </v>
   <v>      -0.08333333       0.08333333       0.00000000 </v>
   <v>       0.16666667      -0.00000000       0.00000000 </v>
   <v>      -0.00000000       0.16666667       0.00000000 </v>
   <v>      -0.16666667       0.16666667       0.00000000 </v>
   <v>       0.25000000      -0.00000000       0.00000000 </v>
   <v>      -0.00000000       0.25000000       0.00000000 </v>
   <v>      -0.25000000       0.25000000       0.00000000 </v>
   <v>       0.33333333      -0.00000000       0.00000000 </v>
   <v>      -0.00000000       0.33333333       0.00000000 </v>
   <v>      -0.33333333       0.33333333       0.00000000 </v>
   <v>       0.41666667      -0.00000000       0.00000000 </v>
   <v>      -0.00000000       0.41666667       0.00000000 </v>
   <v>      -0.41666667       0.41666667       0.00000000 </v>
   <v>       0.50000000      -0.00000000       0.00000000 </v>
   <v>      -0.00000000       0.50000000       0.00000000 </v>
   <v>       0.50000000       0.50000000       0.00000000 </v>
   <v>       0.08333333       0.08333333       0.00000000 </v>
   <v>      -0.08333333       0.16666667       0.00000000 </v>
   <v>      -0.16666667       0.08333333       0.00000000 </v>
   <v>       0.16666667       0.08333333       0.00000000 </v>
   <v>      -0.08333333       0.25000000       0.00000000 </v>
   <v>      -0.25000000       0.16666667       0.00000000 </v>
   <v>      -0.16666667       0.25000000       0.00000000 </v>
   <v>       0.08333333       0.16666667       0.00000000 </v>
   <v>       0.25000000      -0.08333333       0.00000000 </v>
   <v>       0.25000000       0.08333333       0.00000000 </v>
   <v>      -0.08333333       0.33333333       0.00000000 </v>
   <v>      -0.33333333       0.25000000       0.00000000 </v>
   <v>      -0.25000000       0.33333333       0.00000000 </v>
   <v>       0.08333333       0.25000000       0.00000000 </v>
   <v>       0.33333333      -0.08333333       0.00000000 </v>
   <v>       0.33333333       0.08333333       0.00000000 </v>
   <v>      -0.08333333       0.41666667       0.00000000 </v>
   <v>      -0.41666667       0.33333333       0.00000000 </v>
   <v>      -0.33333333       0.41666667       0.00000000 </v>
   <v>       0.08333333       0.33333333       0.00000000 </v>
   <v>       0.41666667      -0.08333333       0.00000000 </v>
   <v>       0.41666667       0.08333333       0.00000000 </v>
   <v>      -0.08333333       0.50000000       0.00000000 </v>
   <v>       0.50000000       0.41666667       0.00000000 </v>
   <v>      -0.41666667       0.50000000       0.00000000 </v>
   <v>       0.08333333       0.41666667       0.00000000 </v>
   <v>       0.50000000      -0.08333333       0.00000000 </v>
   <v>       0.16666667       0.16666667       0.00000000 </v>
   <v>      -0.16666667       0.33333333       0.00000000 </v>
   <v>      -0.33333333       0.16666667       0.00000000 </v>
   <v>       0.25000000       0.16666667       0.00000000 </v>
   <v>      -0.16666667       0.41666667       0.00000000 </v>
   <v>      -0.41666667       0.25000000       0.00000000 </v>
   <v>      -0.25000000       0.41666667       0.00000000 </v>
   <v>       0.16666667       0.25000000       0.00000000 </v>
   <v>       0.41666667      -0.16666667       0.00000000 </v>
   <v>       0.33333333       0.16666667       0.00000000 </v>
   <v>      -0.16666667       0.50000000       0.00000000 </v>
   <v>       0.50000000       0.33333333       0.00000000 </v>
   <v>      -0.33333333       0.50000000       0.00000000 </v>
   <v>       0.16666667       0.33333333       0.00000000 </v>
   <v>       0.50000000      -0.16666667       0.00000000 </v>
   <v>       0.41666667       0.16666667       0.00000000 </v>
   <v>      -0.16666667      -0.41666667       0.00000000 </v>
   <v>       0.41666667       0.41666667       0.00000000 </v>
   <v>       0.25000000       0.25000000       0.00000000 </v>
   <v>      -0.25000000       0.50000000       0.00000000 </v>
   <v>       0.50000000       0.25000000       0.00000000 </v>
   <v>       0.33333333       0.25000000       0.00000000 </v>
   <v>      -0.25000000      -0.41666667       0.00000000 </v>
   <v>       0.41666667       0.33333333       0.00000000 </v>
   <v>      -0.33333333      -0.41666667       0.00000000 </v>
   <v>       0.25000000       0.33333333       0.00000000 </v>
   <v>      -0.41666667      -0.25000000       0.00000000 </v>
   <v>       0.33333333       0.33333333       0.00000000 </v>
  </varray>
  <varray name="weights" >
   <v>       0.00694444 </v>
   <v>       0.01388889 </v>
   <v>       0.01388889 </v>
   <v>       0.01388889 </v>
   <v>       0.01388889 </v>
   <v>       0.01388889 </v>
   <v>       0.01388889 </v>
   <v>       0.01388889 </v>
   <v>       0.01388889 </v>
   <v>       0.01388889 </v>
   <v>       0.01388889 </v>
   <v>       0.01388889 </v>
   <v>       0.01388889 </v>
   <v>       0.01388889 </v>
   <v>       0.01388889 </v>
   <v>       0.01388889 </v>
   <v>       0.00694444 </v>
   <v>       0.00694444 </v>
   <v>       0.00694444 </v>
   <v>       0.01388889 </v>
   <v>       0.01388889 </v>
   <v>       0.01388889 </v>
   <v>       0.01388889 </v>
   <v>       0.01388889 </v>
   <v>       0.01388889 </v>
   <v>       0.01388889 </v>
   <v>       0.01388889 </v>
   <v>       0.01388889 </v>
   <v>       0.01388889 </v>
   <v>       0.01388889 </v>
   <v>       0.01388889 </v>
   <v>       0.01388889 </v>
   <v>       0.01388889 </v>
   <v>       0.01388889 </v>
   <v>       0.01388889 </v>
   <v>       0.01388889 </v>
   <v>       0.01388889 </v>
   <v>       0.01388889 </v>
   <v>       0.01388889 </v>
   <v>       0.01388889 </v>
   <v>       0.01388889 </v>
   <v>       0.01388889 </v>
   <v>       0.01388889 </v>
   <v>       0.01388889 </v>
   <v>       0.01388889 </v>
   <v>       0.01388889 </v>
   <v>       0.01388889 </v>
   <v>       0.01388889 </v>
   <v>       0.01388889 </v>
   <v>       0.01388889 </v>
   <v>       0.01388889 </v>
   <v>       0.01388889 </v>
   <v>       0.01388889 </v>
   <v>       0.01388889 </v>
   <v>       0.01388889 </v>
   <v>       0.01388889 </v>
   <v>       0.01388889 </v>
   <v>       0.01388889 </v>
   <v>       0.01388889 </v>
   <v>       0.01388889 </v>
   <v>       0.01388889 </v>
   <v>       0.01388889 </v>
   <v>       0.01388889 </v>
   <v>       0.01388889 </v>
   <v>       0.01388889 </v>
   <v>       0.01388889 </v>
   <v>       0.01388889 </v>
   <v>       0.01388889 </v>
   <v>       0.01388889 </v>
   <v>       0.01388889 </v>
   <v>       0.01388889 </v>
   <v>       0.01388889 </v>
   <v>       0.01388889 </v>
   <v>       0.01388889 </v>
  </varray>
 </kpoints>
 <parameters>
  <separator name="general" >
   <i type="string" name="SYSTEM">Lattice</i>
   <i type="logical" name="LCOMPAT"> F  </i>
  </separator>
  <separator name="electronic" >
   <i type="string" name="PREC">accura</i>
   <i name="ENMAX">    450.00000000</i>
   <i name="ENAUG">    644.87300000</i>
   <i name="EDIFF">      0.00000100</i>
   <i type="int" name="IALGO">    38</i>
   <i type="int" name="IWAVPR">    11</i>
   <i type="int" name="NBANDS">    48</i>
   <i type="int" name="NBANDSLOW">    -1</i>
   <i type="int" name="NBANDSHIGH">    -1</i>
   <i name="NELECT">     62.00000000</i>
   <i type="int" name="TURBO">     0</i>
   <i type="int" name="IRESTART">     0</i>
   <i type="int" name="NREBOOT">     0</i>
   <i type="int" name="NMIN">     0</i>
   <i name="EREF">      0.00000000</i>
   <separator name="electronic smearing" >
    <i type="int" name="ISMEAR">     0</i>
    <i name="SIGMA">      0.10000000</i>
    <i name="KSPACING">      0.50000000</i>
    <i type="logical" name="KGAMMA"> T  </i>
    <i type="logical" name="KBLOWUP"> T  </i>
   </separator>
   <separator name="electronic projectors" >
    <i type="logical" name="LREAL"> F  </i>
    <v name="ROPT">      0.00000000      0.00000000</v>
    <i type="int" name="LMAXPAW">  -100</i>
    <i type="int" name="LMAXMIX">     2</i>
    <i type="logical" name="NLSPLINE"> F  </i>
   </separator>
   <separator name="electronic startup" >
    <i type="int" name="ISTART">     0</i>
    <i type="int" name="ICHARG">     2</i>
    <i type="int" name="INIWAV">     1</i>
   </separator>
   <separator name="electronic spin" >
    <i type="int" name="ISPIN">     2</i>
    <i type="logical" name="LNONCOLLINEAR"> F  </i>
    <v name="MAGMOM">      1.00000000      1.00000000      1.00000000      1.00000000      1.00000000      1.00000000      1.00000000      1.00000000      1.00000000      1.00000000      1.00000000      1.00000000      1.00000000      1.00000000      1.00000000      1.00000000</v>
    <i name="NUPDOWN">     -1.00000000</i>
    <i type="logical" name="LSORBIT"> F  </i>
    <v name="SAXIS">      0.00000000      0.00000000      1.00000000</v>
    <i type="logical" name="LSPIRAL"> F  </i>
    <v name="QSPIRAL">      0.00000000      0.00000000      0.00000000</v>
    <i type="logical" name="LZEROZ"> F  </i>
   </separator>
   <separator name="electronic exchange-correlation" >
    <i type="logical" name="LASPH"> F  </i>
    <i type="logical" name="LMETAGGA"> F  </i>
   </separator>
   <separator name="electronic convergence" >
    <i type="int" name="NELM">    64</i>
    <i type="int" name="NELMDL">    -5</i>
    <i type="int" name="NELMIN">     2</i>
    <i name="ENINI">    450.00000000</i>
    <separator name="electronic convergence detail" >
     <i type="logical" name="LDIAG"> T  </i>
     <i type="logical" name="LSUBROT"> F  </i>
     <i name="WEIMIN">      0.00100000</i>
     <i name="EBREAK">      0.00000001</i>
     <i name="DEPER">      0.30000000</i>
     <i type="int" name="NRMM">     4</i>
     <i name="TIME">      0.40000000</i>
    </separator>
   </separator>
   <separator name="electronic mixer" >
    <i name="AMIX">      0.40000000</i>
    <i name="BMIX">      1.00000000</i>
    <i name="AMIN">      0.10000000</i>
    <i name="AMIX_MAG">      1.60000000</i>
    <i name="BMIX_MAG">      1.00000000</i>
    <separator name="electronic mixer details" >
     <i type="int" name="IMIX">     4</i>
     <i type="logical" name="MIXFIRST"> F  </i>
     <i type="int" name="MAXMIX">   -45</i>
     <i name="WC">    100.00000000</i>
     <i type="int" name="INIMIX">     1</i>
     <i type="int" name="MIXPRE">     1</i>
     <i type="int" name="MREMOVE">     5</i>
    </separator>
   </separator>
   <separator name="electronic dipolcorrection" >
    <i type="logical" name="LDIPOL"> F  </i>
    <i type="logical" name="LMONO"> F  </i>
    <i type="int" name="IDIPOL">     0</i>
    <i name="EPSILON">      1.00000000</i>
    <v name="DIPOL">   -100.00000000   -100.00000000   -100.00000000</v>
    <i name="EFIELD">      0.00000000</i>
   </separator>
  </separator>
  <separator name="grids" >
   <i type="int" name="NGX">    36</i>
   <i type="int" name="NGY">    36</i>
   <i type="int" name="NGZ">   108</i>
   <i type="int" name="NGXF">    72</i>
   <i type="int" name="NGYF">    72</i>
   <i type="int" name="NGZF">   216</i>
   <i type="logical" name="ADDGRID"> F  </i>
  </separator>
  <separator name="ionic" >
   <i type="int" name="NSW">   128</i>
   <i type="int" name="IBRION">     2</i>
   <i type="int" name="MDALGO">     0</i>
   <i type="int" name="ISIF">     2</i>
   <i name="PSTRESS">      0.00000000</i>
   <i name="EDIFFG">     -0.00100000</i>
   <i type="int" name="NFREE">     1</i>
   <i name="POTIM">      0.50000000</i>
   <i name="SMASS">     -3.00000000</i>
   <i name="SCALEE">      1.00000000</i>
  </separator>
  <separator name="ionic md" >
   <i name="TEBEG">      0.00010000</i>
   <i name="TEEND">      0.00010000</i>
   <i type="int" name="NBLOCK">     1</i>
   <i type="int" name="KBLOCK">   128</i>
   <i type="int" name="NPACO">   256</i>
   <i name="APACO">     10.00000000</i>
  </separator>
  <separator name="symmetry" >
   <i type="int" name="ISYM">     2</i>
   <i name="SYMPREC">      0.00001000</i>
  </separator>
  <separator name="dos" >
   <i type="int" name="LORBIT">     0</i>
   <v name="RWIGS">     -1.00000000     -1.00000000</v>
   <i type="int" name="NEDOS">   301</i>
   <i name="EMIN">     10.00000000</i>
   <i name="EMAX">    -10.00000000</i>
   <i name="EFERMI">      0.00000000</i>
  </separator>
  <separator name="writing" >
   <i type="int" name="NWRITE">     2</i>
   <i type="logical" name="LWAVE"> F  </i>
   <i type="logical" name="LDOWNSAMPLE"> F  </i>
   <i type="logical" name="LCHARG"> F  </i>
   <i type="logical" name="LPARD"> F  </i>
   <i type="logical" name="LVTOT"> F  </i>
   <i type="logical" name="LVHAR"> F  </i>
   <i type="logical" name="LELF"> F  </i>
   <i type="logical" name="LOPTICS"> F  </i>
   <v name="STM">      0.00000000      0.00000000      0.00000000      0.00000000      0.00000000      0.00000000      0.00000000</v>
  </separator>
  <separator name="performance" >
   <i type="int" name="NPAR">    48</i>
   <i type="int" name="NSIM">     4</i>
   <i type="int" name="NBLK">    -1</i>
   <i type="logical" name="LPLANE"> T  </i>
   <i type="logical" name="LSCALAPACK"> T  </i>
   <i type="logical" name="LSCAAWARE"> F  </i>
   <i type="logical" name="LSCALU"> F  </i>
   <i type="logical" name="LASYNC"> F  </i>
   <i type="logical" name="LORBITALREAL"> F  </i>
  </separator>
  <separator name="miscellaneous" >
   <i type="int" name="IDIOT">     3</i>
   <i type="int" name="PHON_NSTRUCT">    -1</i>
   <i type="logical" name="LMUSIC"> F  </i>
   <v name="POMASS">     10.81100000     12.01100000</v>
   <v name="DARWINR">      0.00000000      0.00000000</v>
   <v name="DARWINV">      1.00000000      1.00000000</v>
   <i type="logical" name="LCORR"> T  </i>
  </separator>
  <i type="logical" name="GGA_COMPAT"> T  </i>
  <i type="logical" name="LBERRY"> F  </i>
  <i type="int" name="ICORELEVEL">     0</i>
  <i type="logical" name="LDAU"> F  </i>
  <i type="int" name="I_CONSTRAINED_M">     0</i>
  <separator name="electronic exchange-correlation" >
   <i type="string" name="GGA">PE</i>
   <i type="int" name="VOSKOWN">     0</i>
   <i type="logical" name="LHFCALC"> F  </i>
   <i type="string" name="PRECFOCK"></i>
   <i type="logical" name="LSYMGRAD"> F  </i>
   <i type="logical" name="LHFONE"> F  </i>
   <i type="logical" name="LRHFCALC"> F  </i>
   <i type="logical" name="LTHOMAS"> F  </i>
   <i type="logical" name="LMODELHF"> F  </i>
   <i type="logical" name="LFOCKACE"> F  </i>
   <i name="ENCUT4O">     -1.00000000</i>
   <i type="int" name="EXXOEP">     0</i>
   <i type="int" name="FOURORBIT">     0</i>
   <i name="AEXX">      0.00000000</i>
   <i name="HFALPHA">      0.00000000</i>
   <i name="MCALPHA">      0.00000000</i>
   <i name="ALDAX">      1.00000000</i>
   <i name="AGGAX">      1.00000000</i>
   <i name="ALDAC">      1.00000000</i>
   <i name="AGGAC">      1.00000000</i>
   <i type="int" name="NKREDX">     1</i>
   <i type="int" name="NKREDY">     1</i>
   <i type="int" name="NKREDZ">     1</i>
   <i type="logical" name="SHIFTRED"> F  </i>
   <i type="logical" name="ODDONLY"> F  </i>
   <i type="logical" name="EVENONLY"> F  </i>
   <i type="int" name="LMAXFOCK">     0</i>
   <i type="int" name="NMAXFOCKAE">     0</i>
   <i type="logical" name="LFOCKAEDFT"> F  </i>
   <i name="HFSCREEN">      0.00000000</i>
   <i name="HFSCREENC">      0.00000000</i>
   <i type="int" name="NBANDSGWLOW">     0</i>
  </separator>
  <separator name="vdW DFT" >
   <i type="logical" name="LUSE_VDW"> F  </i>
   <i name="Zab_VDW">     -0.84910000</i>
   <i name="PARAM1">      0.12340000</i>
   <i name="PARAM2">      1.00000000</i>
   <i name="PARAM3">      0.00000000</i>
  </separator>
  <separator name="model GW" >
   <i type="int" name="MODEL_GW">     0</i>
   <i name="MODEL_EPS0">     12.39868138</i>
   <i name="MODEL_ALPHA">      1.00000000</i>
  </separator>
  <separator name="linear response parameters" >
   <i type="logical" name="LEPSILON"> F  </i>
   <i type="logical" name="LRPA"> F  </i>
   <i type="logical" name="LNABLA"> F  </i>
   <i type="logical" name="LVEL"> F  </i>
   <i name="CSHIFT">      0.10000000</i>
   <i name="OMEGAMAX">     -1.00000000</i>
   <i name="DEG_THRESHOLD">      0.00200000</i>
   <i name="RTIME">     -0.10000000</i>
   <i name="WPLASMAI">      0.00000000</i>
   <v name="DFIELD">      0.00000000      0.00000000      0.00000000</v>
   <v name="WPLASMA">      0.00000000      0.00000000      0.00000000      0.00000000      0.00000000      0.00000000      0.00000000      0.00000000      0.00000000</v>
  </separator>
  <separator name="orbital magnetization" >
   <i type="logical" name="NUCIND"> F  </i>
   <v name="MAGPOS">      0.00000000      0.00000000      0.00000000</v>
   <i type="logical" name="LNICSALL"> T  </i>
   <i type="logical" name="ORBITALMAG"> F  </i>
   <i type="logical" name="LMAGBLOCH"> F  </i>
   <i type="logical" name="LCHIMAG"> F  </i>
   <i type="logical" name="LGAUGE"> T  </i>
   <i type="int" name="MAGATOM">     0</i>
   <v name="MAGDIPOL">      0.00000000      0.00000000      0.00000000</v>
   <v name="AVECCONST">      0.00000000      0.00000000      0.00000000</v>
  </separator>
  <separator name="response functions" >
   <i type="logical" name="LFINITE_TEMPERATURE"> F  </i>
   <i type="logical" name="LADDER"> F  </i>
   <i type="logical" name="LRPAFORCE"> F  </i>
   <i type="logical" name="LFXC"> F  </i>
   <i type="logical" name="LHARTREE"> T  </i>
   <i type="int" name="IBSE">     0</i>
   <v type="int" name="KPOINT">    -1     0     0     0</v>
   <i type="logical" name="LTCTC"> F  </i>
   <i type="logical" name="LTCTE"> F  </i>
   <i type="logical" name="LTETE"> F  </i>
   <i type="logical" name="LTRIPLET"> F  </i>
   <i type="logical" name="LFXCEPS"> F  </i>
   <i type="logical" name="LFXHEG"> F  </i>
   <i type="int" name="NATURALO">     2</i>
   <i type="logical" name="LHOLEGF"> F  </i>
   <i type="logical" name="L2ORDER"> F  </i>
   <i type="logical" name="LDMP1"> F  </i>
   <i type="logical" name="LMP2LT"> F  </i>
   <i type="logical" name="LSMP2LT"> F  </i>
   <i type="logical" name="LGWLF"> F  </i>
   <i name="ENCUTGW">     -2.00000000</i>
   <i name="ENCUTGWSOFT">     -2.00000000</i>
   <i name="ENCUTLF">     -1.00000000</i>
   <i type="logical" name="LESF_SPLINES"> F  </i>
   <i type="int" name="LMAXMP2">    -1</i>
   <i name="SCISSOR">      0.00000000</i>
   <i type="int" name="NOMEGA">     0</i>
   <i type="int" name="NOMEGAR">     0</i>
   <i type="int" name="NBANDSGW">    -1</i>
   <i type="int" name="NBANDSO">    -1</i>
   <i type="int" name="NBANDSV">    -1</i>
   <i type="int" name="NELMGW">     1</i>
   <i type="int" name="NELMHF">     1</i>
   <i type="int" name="DIM">     3</i>
   <i type="int" name="IESPILON">     4</i>
   <i type="int" name="ANTIRES">     0</i>
   <i name="OMEGAMAX">    -30.00000000</i>
   <i name="OMEGAMIN">    -30.00000000</i>
   <i name="OMEGATL">   -200.00000000</i>
   <i type="int" name="OMEGAGRID">     0</i>
   <i name="CSHIFT">     -0.10000000</i>
   <i type="logical" name="LSELFENERGY"> F  </i>
   <i type="logical" name="LSPECTRAL"> F  </i>
   <i type="logical" name="LSPECTRALGW"> F  </i>
   <i type="logical" name="LSINGLES"> F  </i>
   <i type="logical" name="LFERMIGW"> F  </i>
   <i type="logical" name="ODDONLYGW"> F  </i>
   <i type="logical" name="EVENONLYGW"> F  </i>
   <i type="int" name="NKREDLFX">     1</i>
   <i type="int" name="NKREDLFY">     1</i>
   <i type="int" name="NKREDLFZ">     1</i>
   <i type="int" name="MAXMEM">  2800</i>
   <i type="int" name="TELESCOPE">     0</i>
   <i type="int" name="NTAUPAR">    -1</i>
   <i type="int" name="NOMEGAPAR">    -1</i>
   <i name="DAMP_NEWTON">      0.80000001</i>
   <i name="LAMBDA">      1.00000000</i>
  </separator>
  <separator name="External order field" >
   <i name="OFIELD_KAPPA">      0.00000000</i>
   <v name="OFIELD_K">      0.00000000      0.00000000      0.00000000</v>
   <i name="OFIELD_Q6_NEAR">      0.00000000</i>
   <i name="OFIELD_Q6_FAR">      0.00000000</i>
   <i name="OFIELD_A">      0.00000000</i>
  </separator>
  <separator name="optional k-points parameters" >
   <i type="int" name="KPOINTS_OPT_MODE">     1</i>
   <i type="logical" name="LKPOINTS_OPT"> F  </i>
  </separator>
  <separator name="solvation model" >
   <i type="logical" name="LSOL"> F  </i>
  </separator>
 </parameters>
 <atominfo>
  <atoms>      16 </atoms>
  <types>       2 </types>
  <array name="atoms" >
   <dimension dim="1">ion</dimension>
   <field type="string">element</field>
   <field type="int">atomtype</field>
   <set>
    <rc><c>B </c><c>   1</c></rc>
    <rc><c>B </c><c>   1</c></rc>
    <rc><c>C </c><c>   2</c></rc>
    <rc><c>C </c><c>   2</c></rc>
    <rc><c>C </c><c>   2</c></rc>
    <rc><c>C </c><c>   2</c></rc>
    <rc><c>C </c><c>   2</c></rc>
    <rc><c>C </c><c>   2</c></rc>
    <rc><c>C </c><c>   2</c></rc>
    <rc><c>C </c><c>   2</c></rc>
    <rc><c>C </c><c>   2</c></rc>
    <rc><c>C </c><c>   2</c></rc>
    <rc><c>C </c><c>   2</c></rc>
    <rc><c>C </c><c>   2</c></rc>
    <rc><c>C </c><c>   2</c></rc>
    <rc><c>C </c><c>   2</c></rc>
   </set>
  </array>
  <array name="atomtypes" >
   <dimension dim="1">type</dimension>
   <field type="int">atomspertype</field>
   <field type="string">element</field>
   <field>mass</field>
   <field>valence</field>
   <field type="string">pseudopotential</field>
   <set>
    <rc><c>   2</c><c>B </c><c>     10.81100000</c><c>      3.00000000</c><c>  PAW_PBE B 06Sep2000                   </c></rc>
    <rc><c>  14</c><c>C </c><c>     12.01100000</c><c>      4.00000000</c><c>  PAW_PBE C 08Apr2002                   </c></rc>
   </set>
  </array>
 </atominfo>
 <structure name="initialpos" >
  <crystal>
   <varray name="basis" >
    <v>       4.36909816       2.52250000       0.00000000 </v>
    <v>      -4.36909816       2.52250000       0.00000000 </v>
    <v>       0.00000000       0.00000000      15.00000000 </v>
   </varray>
   <i name="volume">    330.63150342 </i>
   <varray name="rec_basis" >
    <v>       0.11444009       0.19821606       0.00000000 </v>
    <v>      -0.11444009       0.19821606       0.00000000 </v>
    <v>       0.00000000       0.00000000       0.06666667 </v>
   </varray>
  </crystal>
  <varray name="positions" >
   <v>       0.33833034       0.66916432       0.10000000 </v>
   <v>       0.67165522       0.33584146       0.10000000 </v>
   <v>       0.16373946       0.31999962       0.10000000 </v>
   <v>       0.32250218       0.16126397       0.10000000 </v>
   <v>       0.16376430       0.84376384       0.10000000 </v>
   <v>       0.84623863       0.16123684       0.10000000 </v>
   <v>       0.68749850       0.84373000       0.10000000 </v>
   <v>       0.84626736       0.68499594       0.10000000 </v>
   <v>       0.24999933       0.24999967       0.32633333 </v>
   <v>       0.41666633       0.08333267       0.32633333 </v>
   <v>       0.24999933       0.74999967       0.32633333 </v>
   <v>       0.41666633       0.58333267       0.32633333 </v>
   <v>       0.74999933       0.24999967       0.32633333 </v>
   <v>       0.91666633       0.08333267       0.32633333 </v>
   <v>       0.74999933       0.74999967       0.32633333 </v>
   <v>       0.91666633       0.58333267       0.32633333 </v>
  </varray>
 </structure>
 <calculation>
  <scstep>
   <time name="dav">    5.73    6.02</time>
   <time name="total">    5.77    6.07</time>
   <energy>
    <i name="alphaZ">     62.51481736 </i>
    <i name="ewald">   5430.63130991 </i>
    <i name="hartreedc">  -7248.74071280 </i>
    <i name="XCdc">    199.77164131 </i>
    <i name="pawpsdc">   1604.28699987 </i>
    <i name="pawaedc">  -1610.37247880 </i>
    <i name="eentropy">     -0.01808068 </i>
    <i name="bandstr">   -381.65457969 </i>
    <i name="atom">   2202.35892741 </i>
    <i name="e_fr_energy">    258.77784389 </i>
    <i name="e_wo_entrp">    258.79592457 </i>
    <i name="e_0_energy">    258.78688423 </i>
   </energy>
  </scstep>
  <scstep>
   <time name="dav">    8.87    9.30</time>
   <time name="total">    8.87    9.30</time>
   <energy>
    <i name="e_fr_energy">   -129.97474131 </i>
    <i name="e_wo_entrp">   -129.96381602 </i>
    <i name="e_0_energy">   -129.96927867 </i>
   </energy>
  </scstep>
  <scstep>
   <time name="dav">   11.20   11.28</time>
   <time name="total">   11.20   11.28</time>
   <energy>
    <i name="e_fr_energy">   -145.70137275 </i>
    <i name="e_wo_entrp">   -145.69457585 </i>
    <i name="e_0_energy">   -145.69797430 </i>
   </energy>
  </scstep>
  <scstep>
   <time name="dav">    8.67    8.74</time>
   <time name="total">    8.67    8.74</time>
   <energy>
    <i name="e_fr_energy">   -145.74354556 </i>
    <i name="e_wo_entrp">   -145.73663589 </i>
    <i name="e_0_energy">   -145.74009073 </i>
   </energy>
  </scstep>
  <scstep>
   <time name="dav">   10.83   10.92</time>
   <time name="total">   11.10   11.22</time>
   <energy>
    <i name="e_fr_energy">   -145.74363988 </i>
    <i name="e_wo_entrp">   -145.73673043 </i>
    <i name="e_0_energy">   -145.74018516 </i>
   </energy>
  </scstep>
  <scstep>
   <time name="dav">   10.12   10.19</time>
   <time name="total">   10.42   10.50</time>
   <energy>
    <i name="e_fr_energy">   -107.19713120 </i>
    <i name="e_wo_entrp">   -107.17568660 </i>
    <i name="e_0_energy">   -107.18640890 </i>
   </energy>
  </scstep>
  <scstep>
   <time name="dav">    9.98   10.06</time>
   <time name="total">   10.28   10.37</time>
   <energy>
    <i name="e_fr_energy">   -114.40523206 </i>
    <i name="e_wo_entrp">   -114.38725597 </i>
    <i name="e_0_energy">   -114.39624402 </i>
   </energy>
  </scstep>
  <scstep>
   <time name="dav">   10.62   10.70</time>
   <time name="total">   10.92   11.00</time>
   <energy>
    <i name="e_fr_energy">   -123.60362763 </i>
    <i name="e_wo_entrp">   -123.59671222 </i>
    <i name="e_0_energy">   -123.60016992 </i>
   </energy>
  </scstep>
  <scstep>
   <time name="dav">    6.92    6.98</time>
   <time name="total">    7.21    7.29</time>
   <energy>
    <i name="e_fr_energy">   -131.40382209 </i>
    <i name="e_wo_entrp">   -131.39889448 </i>
    <i name="e_0_energy">   -131.40135829 </i>
   </energy>
  </scstep>
  <scstep>
   <time name="dav">    9.05    9.13</time>
   <time name="total">    9.35    9.43</time>
   <energy>
    <i name="e_fr_energy">   -138.57865752 </i>
    <i name="e_wo_entrp">   -138.57671534 </i>
    <i name="e_0_energy">   -138.57768643 </i>
   </energy>
  </scstep>
  <scstep>
   <time name="dav">    8.97    9.03</time>
   <time name="total">    9.27    9.34</time>
   <energy>
    <i name="e_fr_energy">   -140.04051121 </i>
    <i name="e_wo_entrp">   -140.03871655 </i>
    <i name="e_0_energy">   -140.03961388 </i>
   </energy>
  </scstep>
  <scstep>
   <time name="dav">    8.49    8.56</time>
   <time name="total">    8.79    8.86</time>
   <energy>
    <i name="e_fr_energy">   -140.29197378 </i>
    <i name="e_wo_entrp">   -140.29027610 </i>
    <i name="e_0_energy">   -140.29112494 </i>
   </energy>
  </scstep>
  <scstep>
   <time name="dav">    6.66    6.72</time>
   <time name="total">    6.95    7.02</time>
   <energy>
    <i name="e_fr_energy">   -140.34542972 </i>
    <i name="e_wo_entrp">   -140.34353276 </i>
    <i name="e_0_energy">   -140.34448124 </i>
   </energy>
  </scstep>
  <scstep>
   <time name="dav">    8.01    8.07</time>
   <time name="total">    8.30    8.38</time>
   <energy>
    <i name="e_fr_energy">   -140.37009145 </i>
    <i name="e_wo_entrp">   -140.36804689 </i>
    <i name="e_0_energy">   -140.36906917 </i>
   </energy>
  </scstep>
  <scstep>
   <time name="dav">    7.41    7.47</time>
   <time name="total">    7.70    7.77</time>
   <energy>
    <i name="e_fr_energy">   -140.37904042 </i>
    <i name="e_wo_entrp">   -140.37690137 </i>
    <i name="e_0_energy">   -140.37797089 </i>
   </energy>
  </scstep>
  <scstep>
   <time name="dav">    5.79    5.84</time>
   <time name="total">    6.09    6.14</time>
   <energy>
    <i name="e_fr_energy">   -140.38046044 </i>
    <i name="e_wo_entrp">   -140.37829503 </i>
    <i name="e_0_energy">   -140.37937773 </i>
   </energy>
  </scstep>
  <scstep>
   <time name="dav">    6.52    6.57</time>
   <time name="total">    6.82    6.88</time>
   <energy>
    <i name="e_fr_energy">   -140.38219111 </i>
    <i name="e_wo_entrp">   -140.38002538 </i>
    <i name="e_0_energy">   -140.38110824 </i>
   </energy>
  </scstep>
  <scstep>
   <time name="dav">    6.21    6.26</time>
   <time name="total">    6.50    6.56</time>
   <energy>
    <i name="e_fr_energy">   -140.38324279 </i>
    <i name="e_wo_entrp">   -140.38109020 </i>
    <i name="e_0_energy">   -140.38216649 </i>
   </energy>
  </scstep>
  <scstep>
   <time name="dav">    7.60    7.66</time>
   <time name="total">    7.89    7.96</time>
   <energy>
    <i name="e_fr_energy">   -140.38375152 </i>
    <i name="e_wo_entrp">   -140.38160313 </i>
    <i name="e_0_energy">   -140.38267732 </i>
   </energy>
  </scstep>
  <scstep>
   <time name="dav">    6.72    6.77</time>
   <time name="total">    7.00    7.07</time>
   <energy>
    <i name="e_fr_energy">   -140.38390376 </i>
    <i name="e_wo_entrp">   -140.38174930 </i>
    <i name="e_0_energy">   -140.38282653 </i>
   </energy>
  </scstep>
  <scstep>
   <time name="dav">    7.58    7.66</time>
   <time name="total">    7.87    7.96</time>
   <energy>
    <i name="e_fr_energy">   -140.38394863 </i>
    <i name="e_wo_entrp">   -140.38178946 </i>
    <i name="e_0_energy">   -140.38286904 </i>
   </energy>
  </scstep>
  <scstep>
   <time name="dav">   10.11   10.18</time>
   <time name="total">   10.40   10.49</time>
   <energy>
    <i name="e_fr_energy">   -140.38395442 </i>
    <i name="e_wo_entrp">   -140.38179468 </i>
    <i name="e_0_energy">   -140.38287455 </i>
   </energy>
  </scstep>
  <scstep>
   <time name="dav">    8.34    8.40</time>
   <time name="total">    8.63    8.70</time>
   <energy>
    <i name="e_fr_energy">   -140.38396148 </i>
    <i name="e_wo_entrp">   -140.38180132 </i>
    <i name="e_0_energy">   -140.38288140 </i>
   </energy>
  </scstep>
  <scstep>
   <time name="dav">    9.19    9.25</time>
   <time name="total">    9.48    9.55</time>
   <energy>
    <i name="e_fr_energy">   -140.38396519 </i>
    <i name="e_wo_entrp">   -140.38180525 </i>
    <i name="e_0_energy">   -140.38288522 </i>
   </energy>
  </scstep>
  <scstep>
   <time name="dav">    8.64    8.70</time>
   <time name="total">    8.93    9.00</time>
   <energy>
    <i name="e_fr_energy">   -140.38396692 </i>
    <i name="e_wo_entrp">   -140.38180751 </i>
    <i name="e_0_energy">   -140.38288721 </i>
   </energy>
  </scstep>
  <scstep>
   <time name="dav">    7.54    7.60</time>
   <time name="total">    7.58    7.63</time>
   <energy>
    <i name="alphaZ">     62.51481736 </i>
    <i name="ewald">   5430.63130991 </i>
    <i name="hartreedc">  -7480.25097994 </i>
    <i name="XCdc">    206.38617081 </i>
    <i name="pawpsdc">   6307.66296647 </i>
    <i name="pawaedc">  -6315.67184900 </i>
    <i name="eentropy">     -0.00215915 </i>
    <i name="bandstr">   -554.01317178 </i>
    <i name="atom">   2202.35892741 </i>
    <i name="e_fr_energy">   -140.38396791 </i>
    <i name="e_wo_entrp">   -140.38180876 </i>
    <i name="e_0_energy">   -140.38288834 </i>
   </energy>
  </scstep>
  <structure>
   <crystal>
    <varray name="basis" >
     <v>       4.36909816       2.52250000       0.00000000 </v>
     <v>      -4.36909816       2.52250000       0.00000000 </v>
     <v>       0.00000000       0.00000000      15.00000000 </v>
    </varray>
    <i name="volume">    330.63150342 </i>
    <varray name="rec_basis" >
     <v>       0.11444009       0.19821606       0.00000000 </v>
     <v>      -0.11444009       0.19821606       0.00000000 </v>
     <v>       0.00000000       0.00000000       0.06666667 </v>
    </varray>
   </crystal>
   <varray name="positions" >
    <v>       0.33833034       0.66916432       0.10000000 </v>
    <v>       0.67165522       0.33584146       0.10000000 </v>
    <v>       0.16373946       0.31999962       0.10000000 </v>
    <v>       0.32250218       0.16126397       0.10000000 </v>
    <v>       0.16376430       0.84376384       0.10000000 </v>
    <v>       0.84623863       0.16123684       0.10000000 </v>
    <v>       0.68749850       0.84373000       0.10000000 </v>
    <v>       0.84626736       0.68499594       0.10000000 </v>
    <v>       0.24999933       0.24999967       0.32633333 </v>
    <v>       0.41666633       0.08333267       0.32633333 </v>
    <v>       0.24999933       0.74999967       0.32633333 </v>
    <v>       0.41666633       0.58333267       0.32633333 </v>
    <v>       0.74999933       0.24999967       0.32633333 </v>
    <v>       0.91666633       0.08333267       0.32633333 </v>
    <v>       0.74999933       0.74999967       0.32633333 </v>
    <v>       0.91666633       0.58333267       0.32633333 </v>
   </varray>
  </structure>
  <varray name="forces" >
   <v>       0.01979397       0.00013403       0.04455060 </v>
   <v>       0.02515375      -0.00006576       0.02605514 </v>
   <v>      -0.29153642       0.51028979      -0.01780676 </v>
   <v>       0.27696054       0.48631985      -0.00814328 </v>
   <v>       0.55753969      -0.00029835      -0.01407531 </v>
   <v>      -0.59060705      -0.00088893      -0.01271738 </v>
   <v>      -0.29239194      -0.50809981      -0.01768942 </v>
   <v>       0.27364792      -0.48703377      -0.00806716 </v>
   <v>       0.02422510      -0.02815950       0.02259238 </v>
   <v>      -0.02843430      -0.02170209       0.01968329 </v>
   <v>      -0.03314973       0.00061652      -0.01966151 </v>
   <v>       0.01939558      -0.00018895      -0.03220798 </v>
   <v>       0.00711755      -0.00045378      -0.03878366 </v>
   <v>       0.03724620      -0.00039687       0.01515770 </v>
   <v>       0.02365877       0.02855430       0.02305497 </v>
   <v>      -0.02861962       0.02137332       0.01805839 </v>
  </varray>
  <varray name="stress" >
   <v>       0.00804324      -0.00463010       0.35082942 </v>
   <v>      -0.00463007      -0.19298383      -0.00851031 </v>
   <v>       0.35082941      -0.00851031      -2.21452051 </v>
  </varray>
  <energy>
   <i name="e_fr_energy">   -142.27109639 </i>
   <i name="e_wo_entrp">   -142.26893724 </i>
   <i name="e_0_energy">   -142.27001682 </i>
  </energy>
  <time name="totalsc">  227.30  229.88</time>
 </calculation>
 <calculation>
  <scstep>
   <time name="dav">    5.72    5.76</time>
   <time name="total">    6.01    6.07</time>
   <energy>
    <i name="alphaZ">     62.51481736 </i>
    <i name="ewald">   5421.73374252 </i>
    <i name="hartreedc">  -7473.72960248 </i>
    <i name="XCdc">    206.24695229 </i>
    <i name="pawpsdc">   6307.68011132 </i>
    <i name="pawaedc">  -6315.68899561 </i>
    <i name="eentropy">     -0.00283760 </i>
    <i name="bandstr">   -551.45417640 </i>
    <i name="atom">   2202.35892741 </i>
    <i name="e_fr_energy">   -140.34106120 </i>
    <i name="e_wo_entrp">   -140.33822360 </i>
    <i name="e_0_energy">   -140.33964240 </i>
   </energy>
  </scstep>
  <scstep>
   <time name="dav">   10.50   10.57</time>
   <time name="total">   10.79   10.87</time>
   <energy>
    <i name="e_fr_energy">   -140.30375259 </i>
    <i name="e_wo_entrp">   -140.30075587 </i>
    <i name="e_0_energy">   -140.30225423 </i>
   </energy>
  </scstep>
  <scstep>
   <time name="dav">    9.56    9.62</time>
   <time name="total">    9.85    9.92</time>
   <energy>
    <i name="e_fr_energy">   -140.30008593 </i>
    <i name="e_wo_entrp">   -140.29715206 </i>
    <i name="e_0_energy">   -140.29861900 </i>
   </energy>
  </scstep>
  <scstep>
   <time name="dav">    7.65    7.70</time>
   <time name="total">    7.94    8.01</time>
   <energy>
    <i name="e_fr_energy">   -140.30002580 </i>
    <i name="e_wo_entrp">   -140.29710545 </i>
    <i name="e_0_energy">   -140.29856563 </i>
   </energy>
  </scstep>
  <scstep>
   <time name="dav">    8.64    8.71</time>
   <time name="total">    8.94    9.01</time>
   <energy>
    <i name="e_fr_energy">   -140.30002812 </i>
    <i name="e_wo_entrp">   -140.29714129 </i>
    <i name="e_0_energy">   -140.29858470 </i>
   </energy>
  </scstep>
  <scstep>
   <time name="dav">    8.82    8.88</time>
   <time name="total">    9.11    9.18</time>
   <energy>
    <i name="e_fr_energy">   -140.30003233 </i>
    <i name="e_wo_entrp">   -140.29714047 </i>
    <i name="e_0_energy">   -140.29858640 </i>
   </energy>
  </scstep>
  <scstep>
   <time name="dav">    8.98    9.04</time>
   <time name="total">    9.27    9.35</time>
   <energy>
    <i name="e_fr_energy">   -140.30004289 </i>
    <i name="e_wo_entrp">   -140.29714746 </i>
    <i name="e_0_energy">   -140.29859517 </i>
   </energy>
  </scstep>
  <scstep>
   <time name="dav">    8.61    8.67</time>
   <time name="total">    8.90    8.97</time>
   <energy>
    <i name="e_fr_energy">   -140.30005264 </i>
    <i name="e_wo_entrp">   -140.29715850 </i>
    <i name="e_0_energy">   -140.29860557 </i>
   </energy>
  </scstep>
  <scstep>
   <time name="dav">    7.70    7.74</time>
   <time name="total">    7.99    8.05</time>
   <energy>
    <i name="e_fr_energy">   -140.30006761 </i>
    <i name="e_wo_entrp">   -140.29717583 </i>
    <i name="e_0_energy">   -140.29862172 </i>
   </energy>
  </scstep>
  <scstep>
   <time name="dav">    8.32    8.38</time>
   <time name="total">    8.61    8.68</time>
   <energy>
    <i name="e_fr_energy">   -140.30007401 </i>
    <i name="e_wo_entrp">   -140.29718262 </i>
    <i name="e_0_energy">   -140.29862832 </i>
   </energy>
  </scstep>
  <scstep>
   <time name="dav">    7.40    7.45</time>
   <time name="total">    7.69    7.76</time>
   <energy>
    <i name="e_fr_energy">   -140.30008033 </i>
    <i name="e_wo_entrp">   -140.29718907 </i>
    <i name="e_0_energy">   -140.29863470 </i>
   </energy>
  </scstep>
  <scstep>
   <time name="dav">    7.03    7.08</time>
   <time name="total">    7.32    7.38</time>
   <energy>
    <i name="e_fr_energy">   -140.30008280 </i>
    <i name="e_wo_entrp">   -140.29719170 </i>
    <i name="e_0_energy">   -140.29863725 </i>
   </energy>
  </scstep>
  <scstep>
   <time name="dav">    8.30    8.37</time>
   <time name="total">    8.34    8.41</time>
   <energy>
    <i name="alphaZ">     62.51481736 </i>
    <i name="ewald">   5421.73374252 </i>
    <i name="hartreedc">  -7471.07919053 </i>
    <i name="XCdc">    206.14245662 </i>
    <i name="pawpsdc">   6267.07205833 </i>
    <i name="pawaedc">  -6275.06688245 </i>
    <i name="eentropy">     -0.00289102 </i>
    <i name="bandstr">   -553.97312152 </i>
    <i name="atom">   2202.35892741 </i>
    <i name="e_fr_energy">   -140.30008330 </i>
    <i name="e_wo_entrp">   -140.29719228 </i>
    <i name="e_0_energy">   -140.29863779 </i>
   </energy>
  </scstep>
  <structure>
   <crystal>
    <varray name="basis" >
     <v>       4.36909816       2.52250000       0.00000000 </v>
     <v>      -4.36909816       2.52250000       0.00000000 </v>
     <v>       0.00000000       0.00000000      15.00000000 </v>
    </varray>
    <i name="volume">    330.63150342 </i>
    <varray name="rec_basis" >
     <v>       0.11444009       0.19821606       0.00000000 </v>
     <v>      -0.11444009       0.19821606       0.00000000 </v>
     <v>       0.00000000       0.00000000       0.06666667 </v>
    </varray>
   </crystal>
   <varray name="positions" >
    <v>       0.33844091       0.66905632       0.10014328 </v>
    <v>       0.67179346       0.33570196       0.10008380 </v>
    <v>       0.16700955       0.32648879       0.09994273 </v>
    <v>       0.32868167       0.16438531       0.09997381 </v>
    <v>       0.16683956       0.84068287       0.09995473 </v>
    <v>       0.84296945       0.16448902       0.09995910 </v>
    <v>       0.68102555       0.84048558       0.09994311 </v>
    <v>       0.84312089       0.67882792       0.09997405 </v>
    <v>       0.24986380       0.24959665       0.32640599 </v>
    <v>       0.41630183       0.08328212       0.32639664 </v>
    <v>       0.24982221       0.75018858       0.32627010 </v>
    <v>       0.41677161       0.58322378       0.32622975 </v>
    <v>       0.75003429       0.24995603       0.32620860 </v>
    <v>       0.91686817       0.08312324       0.32638208 </v>
    <v>       0.75040300       0.75014210       0.32640748 </v>
    <v>       0.91671271       0.58369505       0.32639141 </v>
   </varray>
  </structure>
  <varray name="forces" >
   <v>      -0.06245228       0.00098054       0.00771808 </v>
   <v>      -0.07755008       0.00037531       0.00425824 </v>
   <v>       0.75141982      -1.35532041      -0.00165983 </v>
   <v>      -0.74014591      -1.26987879      -0.00640722 </v>
   <v>      -1.47607393      -0.00205191       0.00253814 </v>
   <v>       1.57289669       0.00582861      -0.00796226 </v>
   <v>       0.74862677       1.34923815      -0.00166003 </v>
   <v>      -0.73529488       1.27117924      -0.00623973 </v>
   <v>      -0.04797312       0.06294002       0.00615704 </v>
   <v>       0.07706349       0.04688569      -0.00162902 </v>
   <v>       0.07751224      -0.00183000      -0.00017967 </v>
   <v>      -0.03461227       0.00058972      -0.00303333 </v>
   <v>      -0.01429141       0.00072831       0.00162249 </v>
   <v>      -0.06990014       0.00096283       0.00225717 </v>
   <v>      -0.04664537      -0.06467695       0.00604596 </v>
   <v>       0.07742039      -0.04595035      -0.00182603 </v>
  </varray>
  <varray name="stress" >
   <v>      -7.34175802      -0.02748267       0.29990243 </v>
   <v>      -0.02748268      -7.85230387      -0.00709496 </v>
   <v>       0.29990241      -0.00709499      -2.20491346 </v>
  </varray>
  <energy>
   <i name="e_fr_energy">   -142.19173109 </i>
   <i name="e_wo_entrp">   -142.18884007 </i>
   <i name="e_0_energy">   -142.19028558 </i>
  </energy>
  <time name="totalsc">  116.07  117.01</time>
 </calculation>
 <calculation>
  <scstep>
   <time name="dav">    5.72    5.77</time>
   <time name="total">    6.01    6.07</time>
   <energy>
    <i name="alphaZ">     62.51481736 </i>
    <i name="ewald">   5427.98535544 </i>
    <i name="hartreedc">  -7475.55136232 </i>
    <i name="XCdc">    206.23605325 </i>
    <i name="pawpsdc">   6267.06531217 </i>
    <i name="pawaedc">  -6275.06014237 </i>
    <i name="eentropy">     -0.00169383 </i>
    <i name="bandstr">   -555.96384397 </i>
    <i name="atom">   2202.35892741 </i>
    <i name="e_fr_energy">   -140.41657688 </i>
    <i name="e_wo_entrp">   -140.41488304 </i>
    <i name="e_0_energy">   -140.41572996 </i>
   </energy>
  </scstep>
  <scstep>
   <time name="dav">   10.15   10.22</time>
   <time name="total">   10.44   10.52</time>
   <energy>
    <i name="e_fr_energy">   -140.39770710 </i>
    <i name="e_wo_entrp">   -140.39570537 </i>
    <i name="e_0_energy">   -140.39670624 </i>
   </energy>
  </scstep>
  <scstep>
   <time name="dav">    9.58    9.65</time>
   <time name="total">    9.87    9.95</time>
   <energy>
    <i name="e_fr_energy">   -140.39553373 </i>
    <i name="e_wo_entrp">   -140.39324705 </i>
    <i name="e_0_energy">   -140.39439039 </i>
   </energy>
  </scstep>
  <scstep>
   <time name="dav">    7.87    7.93</time>
   <time name="total">    8.17    8.23</time>
   <energy>
    <i name="e_fr_energy">   -140.39545160 </i>
    <i name="e_wo_entrp">   -140.39312098 </i>
    <i name="e_0_energy">   -140.39428629 </i>
   </energy>
  </scstep>
  <scstep>
   <time name="dav">    7.39    7.43</time>
   <time name="total">    7.68    7.74</time>
   <energy>
    <i name="e_fr_energy">   -140.39544401 </i>
    <i name="e_wo_entrp">   -140.39303624 </i>
    <i name="e_0_energy">   -140.39424013 </i>
   </energy>
  </scstep>
  <scstep>
   <time name="dav">    9.03    9.09</time>
   <time name="total">    9.32    9.39</time>
   <energy>
    <i name="e_fr_energy">   -140.39544122 </i>
    <i name="e_wo_entrp">   -140.39304368 </i>
    <i name="e_0_energy">   -140.39424245 </i>
   </energy>
  </scstep>
  <scstep>
   <time name="dav">    9.62    9.70</time>
   <time name="total">    9.91   10.00</time>
   <energy>
    <i name="e_fr_energy">   -140.39544517 </i>
    <i name="e_wo_entrp">   -140.39304625 </i>
    <i name="e_0_energy">   -140.39424571 </i>
   </energy>
  </scstep>
  <scstep>
   <time name="dav">    9.60    9.66</time>
   <time name="total">    9.89    9.98</time>
   <energy>
    <i name="e_fr_energy">   -140.39544871 </i>
    <i name="e_wo_entrp">   -140.39304752 </i>
    <i name="e_0_energy">   -140.39424811 </i>
   </energy>
  </scstep>
  <scstep>
   <time name="dav">    8.20    8.26</time>
   <time name="total">    8.49    8.56</time>
   <energy>
    <i name="e_fr_energy">   -140.39545657 </i>
    <i name="e_wo_entrp">   -140.39305192 </i>
    <i name="e_0_energy">   -140.39425425 </i>
   </energy>
  </scstep>
  <scstep>
   <time name="dav">    6.94    7.06</time>
   <time name="total">    7.23    7.36</time>
   <energy>
    <i name="e_fr_energy">   -140.39546197 </i>
    <i name="e_wo_entrp">   -140.39305628 </i>
    <i name="e_0_energy">   -140.39425912 </i>
   </energy>
  </scstep>
  <scstep>
   <time name="dav">    5.96    6.08</time>
   <time name="total">    6.25    6.38</time>
   <energy>
    <i name="e_fr_energy">   -140.39546661 </i>
    <i name="e_wo_entrp">   -140.39306073 </i>
    <i name="e_0_energy">   -140.39426367 </i>
   </energy>
  </scstep>
  <scstep>
   <time name="dav">   10.49   10.56</time>
   <time name="total">   10.53   10.60</time>
   <energy>
    <i name="alphaZ">     62.51481736 </i>
    <i name="ewald">   5427.98535544 </i>
    <i name="hartreedc">  -7477.57249127 </i>
    <i name="XCdc">    206.31509016 </i>
    <i name="pawpsdc">   6293.94689476 </i>
    <i name="pawaedc">  -6301.95088086 </i>
    <i name="eentropy">     -0.00240602 </i>
    <i name="bandstr">   -553.99077410 </i>
    <i name="atom">   2202.35892741 </i>
    <i name="e_fr_energy">   -140.39546714 </i>
    <i name="e_wo_entrp">   -140.39306111 </i>
    <i name="e_0_energy">   -140.39426412 </i>
   </energy>
  </scstep>
  <structure>
   <crystal>
    <varray name="basis" >
     <v>       4.36909816       2.52250000       0.00000000 </v>
     <v>      -4.36909816       2.52250000       0.00000000 </v>
     <v>       0.00000000       0.00000000      15.00000000 </v>
    </varray>
    <i name="volume">    330.63150342 </i>
    <varray name="rec_basis" >
     <v>       0.11444009       0.19821606       0.00000000 </v>
     <v>      -0.11444009       0.19821606       0.00000000 </v>
     <v>       0.00000000       0.00000000       0.06666667 </v>
    </varray>
   </crystal>
   <varray name="positions" >
    <v>       0.33836037       0.66913500       0.10003891 </v>
    <v>       0.67169275       0.33580358       0.10002276 </v>
    <v>       0.16462745       0.32176174       0.09998445 </v>
    <v>       0.32418020       0.16211156       0.09999289 </v>
    <v>       0.16459938       0.84292721       0.09998771 </v>
    <v>       0.84535090       0.16211996       0.09998889 </v>
    <v>       0.68574079       0.84284899       0.09998455 </v>
    <v>       0.84541294       0.68332104       0.09999295 </v>
    <v>       0.24996253       0.24989023       0.32635306 </v>
    <v>       0.41656735       0.08331894       0.32635052 </v>
    <v>       0.24995124       0.75005096       0.32631616 </v>
    <v>       0.41669492       0.58330310       0.32630520 </v>
    <v>       0.75000883       0.24998782       0.32629946 </v>
    <v>       0.91672114       0.08327580       0.32634657 </v>
    <v>       0.75010895       0.75003834       0.32635347 </v>
    <v>       0.91667893       0.58343107       0.32634910 </v>
   </varray>
  </structure>
  <varray name="forces" >
   <v>      -0.00054485       0.00031692       0.03392290 </v>
   <v>      -0.00026184       0.00001170       0.01980276 </v>
   <v>      -0.00487111      -0.00449626      -0.01322906 </v>
   <v>      -0.00434218       0.00109263      -0.00749062 </v>
   <v>      -0.00457404      -0.00086551      -0.00940549 </v>
   <v>       0.00552376       0.00111821      -0.01119214 </v>
   <v>      -0.00623772       0.00433539      -0.01315330 </v>
   <v>      -0.00530605      -0.00112115      -0.00737284 </v>
   <v>       0.00491215      -0.00347031       0.01816999 </v>
   <v>      -0.00012049      -0.00314648       0.01391738 </v>
   <v>      -0.00297911      -0.00003891      -0.01442632 </v>
   <v>       0.00456460       0.00000516      -0.02442692 </v>
   <v>       0.00151473      -0.00012656      -0.02795441 </v>
   <v>       0.00802389      -0.00004856       0.01168401 </v>
   <v>       0.00485508       0.00330618       0.01847636 </v>
   <v>      -0.00015681       0.00312754       0.01267769 </v>
  </varray>
  <varray name="stress" >
   <v>      -2.48958163      -0.01180786       0.33780654 </v>
   <v>      -0.01180786      -2.76985587      -0.00813084 </v>
   <v>       0.33780656      -0.00813084      -2.21478217 </v>
  </varray>
  <energy>
   <i name="e_fr_energy">   -142.28410830 </i>
   <i name="e_wo_entrp">   -142.28170227 </i>
   <i name="e_0_energy">   -142.28290528 </i>
  </energy>
  <time name="totalsc">  109.21  110.27</time>
 </calculation>
 <calculation>
  <scstep>
   <time name="dav">    5.71    5.75</time>
   <time name="total">    6.01    6.06</time>
   <energy>
    <i name="alphaZ">     62.51481736 </i>
    <i name="ewald">   5427.64295913 </i>
    <i name="hartreedc">  -7477.22881784 </i>
    <i name="XCdc">    206.31528052 </i>
    <i name="pawpsdc">   6293.94954652 </i>
    <i name="pawaedc">  -6301.95352462 </i>
    <i name="eentropy">     -0.00240081 </i>
    <i name="bandstr">   -553.99241687 </i>
    <i name="atom">   2202.35892741 </i>
    <i name="e_fr_energy">   -140.39562921 </i>
    <i name="e_wo_entrp">   -140.39322840 </i>
    <i name="e_0_energy">   -140.39442881 </i>
   </energy>
  </scstep>
  <scstep>
   <time name="dav">   10.75   10.82</time>
   <time name="total">   11.04   11.12</time>
   <energy>
    <i name="e_fr_energy">   -140.39563195 </i>
    <i name="e_wo_entrp">   -140.39323467 </i>
    <i name="e_0_energy">   -140.39443331 </i>
   </energy>
  </scstep>
  <scstep>
   <time name="dav">    5.87    5.91</time>
   <time name="total">    6.16    6.22</time>
   <energy>
    <i name="e_fr_energy">   -140.39563514 </i>
    <i name="e_wo_entrp">   -140.39324223 </i>
    <i name="e_0_energy">   -140.39443869 </i>
   </energy>
  </scstep>
  <scstep>
   <time name="dav">   10.77   10.84</time>
   <time name="total">   10.81   10.87</time>
   <energy>
    <i name="alphaZ">     62.51481736 </i>
    <i name="ewald">   5427.64295913 </i>
    <i name="hartreedc">  -7477.21139199 </i>
    <i name="XCdc">    206.31530827 </i>
    <i name="pawpsdc">   6293.95664596 </i>
    <i name="pawaedc">  -6301.96061863 </i>
    <i name="eentropy">     -0.00239271 </i>
    <i name="bandstr">   -554.00988986 </i>
    <i name="atom">   2202.35892741 </i>
    <i name="e_fr_energy">   -140.39563507 </i>
    <i name="e_wo_entrp">   -140.39324236 </i>
    <i name="e_0_energy">   -140.39443872 </i>
   </energy>
  </scstep>
  <structure>
   <crystal>
    <varray name="basis" >
     <v>       4.36909816       2.52250000       0.00000000 </v>
     <v>      -4.36909816       2.52250000       0.00000000 </v>
     <v>       0.00000000       0.00000000      15.00000000 </v>
    </varray>
    <i name="volume">    330.63150342 </i>
    <varray name="rec_basis" >
     <v>       0.11444009       0.19821606       0.00000000 </v>
     <v>      -0.11444009       0.19821606       0.00000000 </v>
     <v>       0.00000000       0.00000000       0.06666667 </v>
    </varray>
   </crystal>
   <varray name="positions" >
    <v>       0.33836069       0.66913986       0.10013251 </v>
    <v>       0.67169199       0.33580453       0.10007739 </v>
    <v>       0.16457670       0.32176576       0.09994794 </v>
    <v>       0.32418558       0.16214952       0.09997224 </v>
    <v>       0.16457916       0.84293327       0.09996174 </v>
    <v>       0.84537713       0.16211195       0.09995803 </v>
    <v>       0.68572905       0.84290494       0.09994826 </v>
    <v>       0.84537014       0.68332000       0.09997263 </v>
    <v>       0.24995698       0.24983761       0.32640319 </v>
    <v>       0.41654008       0.08329367       0.32638894 </v>
    <v>       0.24993638       0.75006522       0.32627635 </v>
    <v>       0.41671678       0.58328131       0.32623781 </v>
    <v>       0.75001503       0.24997952       0.32622231 </v>
    <v>       0.91675914       0.08323698       0.32637881 </v>
    <v>       0.75015996       0.75004284       0.32640444 </v>
    <v>       0.91670386       0.58345835       0.32638410 </v>
   </varray>
  </structure>
  <varray name="forces" >
   <v>      -0.00861459      -0.00100280       0.01531894 </v>
   <v>      -0.00037688       0.00058800       0.01033245 </v>
   <v>       0.00972376       0.00902428      -0.00506638 </v>
   <v>      -0.00331150      -0.00749232      -0.00581772 </v>
   <v>      -0.00689367       0.00090143      -0.00135280 </v>
   <v>      -0.01522735      -0.00127387      -0.00938713 </v>
   <v>       0.00931215      -0.00572924      -0.00497621 </v>
   <v>      -0.00488794       0.00535768      -0.00571907 </v>
   <v>      -0.00114121       0.00609503       0.00787247 </v>
   <v>       0.00695474       0.00553104       0.00069402 </v>
   <v>       0.01257575      -0.00003553      -0.00466567 </v>
   <v>      -0.00161321      -0.00017161      -0.00653580 </v>
   <v>       0.00479828       0.00013008      -0.00399557 </v>
   <v>      -0.00725829      -0.00007526       0.00524540 </v>
   <v>      -0.00104663      -0.00604050       0.00779094 </v>
   <v>       0.00700659      -0.00580643       0.00026214 </v>
  </varray>
  <varray name="stress" >
   <v>      -2.52462520      -0.00215812       0.33256841 </v>
   <v>      -0.00215810      -2.71017724      -0.00787393 </v>
   <v>       0.33256839      -0.00787393      -2.23796917 </v>
  </varray>
  <energy>
   <i name="e_fr_energy">   -142.28424651 </i>
   <i name="e_wo_entrp">   -142.28185380 </i>
   <i name="e_0_energy">   -142.28305015 </i>
  </energy>
  <time name="totalsc">   39.32   39.60</time>
 </calculation>
 <calculation>
  <scstep>
   <time name="dav">    5.71    5.75</time>
   <time name="total">    6.00    6.05</time>
   <energy>
    <i name="alphaZ">     62.51481736 </i>
    <i name="ewald">   5427.52370701 </i>
    <i name="hartreedc">  -7477.08927382 </i>
    <i name="XCdc">    206.31534311 </i>
    <i name="pawpsdc">   6293.95878758 </i>
    <i name="pawaedc">  -6301.96276186 </i>
    <i name="eentropy">     -0.00239046 </i>
    <i name="bandstr">   -554.01281113 </i>
    <i name="atom">   2202.35892741 </i>
    <i name="e_fr_energy">   -140.39565480 </i>
    <i name="e_wo_entrp">   -140.39326433 </i>
    <i name="e_0_energy">   -140.39445956 </i>
   </energy>
  </scstep>
  <scstep>
   <time name="dav">    9.62    9.68</time>
   <time name="total">    9.91    9.98</time>
   <energy>
    <i name="e_fr_energy">   -140.39565489 </i>
    <i name="e_wo_entrp">   -140.39326582 </i>
    <i name="e_0_energy">   -140.39446036 </i>
   </energy>
  </scstep>
  <scstep>
   <time name="dav">    6.01    6.05</time>
   <time name="total">    6.05    6.09</time>
   <energy>
    <i name="alphaZ">     62.51481736 </i>
    <i name="ewald">   5427.52370701 </i>
    <i name="hartreedc">  -7477.07972785 </i>
    <i name="XCdc">    206.31534260 </i>
    <i name="pawpsdc">   6293.97305833 </i>
    <i name="pawaedc">  -6301.97703800 </i>
    <i name="eentropy">     -0.00238725 </i>
    <i name="bandstr">   -554.02235532 </i>
    <i name="atom">   2202.35892741 </i>
    <i name="e_fr_energy">   -140.39565572 </i>
    <i name="e_wo_entrp">   -140.39326847 </i>
    <i name="e_0_energy">   -140.39446209 </i>
   </energy>
  </scstep>
  <structure>
   <crystal>
    <varray name="basis" >
     <v>       4.36909816       2.52250000       0.00000000 </v>
     <v>      -4.36909816       2.52250000       0.00000000 </v>
     <v>       0.00000000       0.00000000      15.00000000 </v>
    </varray>
    <i name="volume">    330.63150342 </i>
    <varray name="rec_basis" >
     <v>       0.11444009       0.19821606       0.00000000 </v>
     <v>      -0.11444009       0.19821606       0.00000000 </v>
     <v>       0.00000000       0.00000000       0.06666667 </v>
    </varray>
   </crystal>
   <varray name="positions" >
    <v>       0.33836080       0.66914154       0.10016492 </v>
    <v>       0.67169173       0.33580486       0.10009632 </v>
    <v>       0.16455913       0.32176715       0.09993530 </v>
    <v>       0.32418744       0.16216266       0.09996508 </v>
    <v>       0.16457216       0.84293537       0.09995275 </v>
    <v>       0.84538621       0.16210918       0.09994734 </v>
    <v>       0.68572499       0.84292431       0.09993569 </v>
    <v>       0.84535531       0.68331964       0.09996559 </v>
    <v>       0.24995505       0.24981938       0.32642054 </v>
    <v>       0.41653064       0.08328491       0.32640224 </v>
    <v>       0.24993124       0.75007015       0.32626256 </v>
    <v>       0.41672435       0.58327377       0.32621447 </v>
    <v>       0.75001718       0.24997665       0.32619560 </v>
    <v>       0.91677230       0.08322354       0.32638997 </v>
    <v>       0.75017763       0.75004440       0.32642209 </v>
    <v>       0.91671250       0.58346780       0.32639621 </v>
   </varray>
  </structure>
  <varray name="forces" >
   <v>      -0.01152118      -0.00144458       0.00890628 </v>
   <v>      -0.00060640       0.00077906       0.00706666 </v>
   <v>       0.01491302       0.01379008      -0.00219472 </v>
   <v>      -0.00288299      -0.01042572      -0.00522780 </v>
   <v>      -0.00766825       0.00151818       0.00147008 </v>
   <v>      -0.02247597      -0.00211958      -0.00877380 </v>
   <v>       0.01481561      -0.00928701      -0.00210768 </v>
   <v>      -0.00467782       0.00756035      -0.00513831 </v>
   <v>      -0.00346292       0.00961793       0.00423766 </v>
   <v>       0.00960859       0.00876274      -0.00392670 </v>
   <v>       0.01827085      -0.00003588      -0.00125886 </v>
   <v>      -0.00383696      -0.00023565      -0.00031768 </v>
   <v>       0.00600034       0.00021800       0.00435043 </v>
   <v>      -0.01285332      -0.00008261       0.00296655 </v>
   <v>      -0.00331288      -0.00948975       0.00402180 </v>
   <v>       0.00969029      -0.00912557      -0.00407392 </v>
  </varray>
  <varray name="stress" >
   <v>      -2.53684563       0.00111075       0.33066337 </v>
   <v>       0.00111073      -2.69066272      -0.00779710 </v>
   <v>       0.33066335      -0.00779715      -2.24464992 </v>
  </varray>
  <energy>
   <i name="e_fr_energy">   -142.28425689 </i>
   <i name="e_wo_entrp">   -142.28186965 </i>
   <i name="e_0_energy">   -142.28306327 </i>
  </energy>
  <time name="totalsc">   27.23   27.44</time>
 </calculation>
 <calculation>
  <scstep>
   <time name="dav">    6.11    6.16</time>
   <time name="total">    6.40    6.46</time>
   <energy>
    <i name="alphaZ">     62.51481736 </i>
    <i name="ewald">   5427.10582663 </i>
    <i name="hartreedc">  -7476.65972847 </i>
    <i name="XCdc">    206.31535014 </i>
    <i name="pawpsdc">   6293.97014345 </i>
    <i name="pawaedc">  -6301.97412246 </i>
    <i name="eentropy">     -0.00238133 </i>
    <i name="bandstr">   -554.02447504 </i>
    <i name="atom">   2202.35892741 </i>
    <i name="e_fr_energy">   -140.39564231 </i>
    <i name="e_wo_entrp">   -140.39326099 </i>
    <i name="e_0_energy">   -140.39445165 </i>
   </energy>
  </scstep>
  <scstep>
   <time name="dav">    5.99    6.03</time>
   <time name="total">    6.29    6.34</time>
   <energy>
    <i name="e_fr_energy">   -140.39564313 </i>
    <i name="e_wo_entrp">   -140.39326455 </i>
    <i name="e_0_energy">   -140.39445384 </i>
   </energy>
  </scstep>
  <scstep>
   <time name="dav">    7.51    7.56</time>
   <time name="total">    7.80    7.87</time>
   <energy>
    <i name="e_fr_energy">   -140.39564249 </i>
    <i name="e_wo_entrp">   -140.39326680 </i>
    <i name="e_0_energy">   -140.39445464 </i>
   </energy>
  </scstep>
  <scstep>
   <time name="dav">    9.75    9.81</time>
   <time name="total">    9.78    9.85</time>
   <energy>
    <i name="alphaZ">     62.51481736 </i>
    <i name="ewald">   5427.10582663 </i>
    <i name="hartreedc">  -7476.63703405 </i>
    <i name="XCdc">    206.31531200 </i>
    <i name="pawpsdc">   6293.83558377 </i>
    <i name="pawaedc">  -6301.83953790 </i>
    <i name="eentropy">     -0.00237510 </i>
    <i name="bandstr">   -554.04716260 </i>
    <i name="atom">   2202.35892741 </i>
    <i name="e_fr_energy">   -140.39564249 </i>
    <i name="e_wo_entrp">   -140.39326740 </i>
    <i name="e_0_energy">   -140.39445494 </i>
   </energy>
  </scstep>
  <structure>
   <crystal>
    <varray name="basis" >
     <v>       4.36909816       2.52250000       0.00000000 </v>
     <v>      -4.36909816       2.52250000       0.00000000 </v>
     <v>       0.00000000       0.00000000      15.00000000 </v>
    </varray>
    <i name="volume">    330.63150342 </i>
    <varray name="rec_basis" >
     <v>       0.11444009       0.19821606       0.00000000 </v>
     <v>      -0.11444009       0.19821606       0.00000000 </v>
     <v>       0.00000000       0.00000000       0.06666667 </v>
    </varray>
   </crystal>
   <varray name="positions" >
    <v>       0.33829028       0.66919004       0.10024910 </v>
    <v>       0.67169501       0.33581531       0.10015095 </v>
    <v>       0.16472334       0.32181490       0.09990623 </v>
    <v>       0.32408517       0.16210966       0.09993692 </v>
    <v>       0.16453422       0.84299106       0.09994097 </v>
    <v>       0.84527061       0.16219905       0.09990243 </v>
    <v>       0.68571131       0.84280315       0.09990700 </v>
    <v>       0.84537123       0.68340864       0.09993789 </v>
    <v>       0.25001816       0.24988824       0.32646406 </v>
    <v>       0.41663873       0.08329733       0.32641451 </v>
    <v>       0.25001386       0.74998653       0.32623419 </v>
    <v>       0.41671649       0.58327756       0.32617175 </v>
    <v>       0.75005319       0.24994315       0.32616056 </v>
    <v>       0.91673031       0.08326358       0.32641867 </v>
    <v>       0.75010965       0.74998101       0.32646550 </v>
    <v>       0.91669711       0.58335613       0.32640594 </v>
   </varray>
  </structure>
  <varray name="forces" >
   <v>       0.01152297       0.00443023      -0.00628244 </v>
   <v>      -0.02372688      -0.00282922      -0.00466512 </v>
   <v>      -0.05140161      -0.03446365       0.00107196 </v>
   <v>       0.01671771       0.02470923       0.00068953 </v>
   <v>       0.00361953      -0.00689506       0.00454414 </v>
   <v>       0.05383412       0.00883475      -0.00304921 </v>
   <v>      -0.05150390       0.02066033       0.00121652 </v>
   <v>       0.02092207      -0.01408070       0.00075122 </v>
   <v>       0.00867564      -0.01296162      -0.00535631 </v>
   <v>      -0.00539331      -0.01151057      -0.00744854 </v>
   <v>      -0.02007266      -0.00017668       0.00337170 </v>
   <v>       0.01298246       0.00030007       0.01280346 </v>
   <v>      -0.00359766      -0.00051082       0.01488723 </v>
   <v>       0.02443883       0.00010293       0.00023025 </v>
   <v>       0.00844992       0.01238072      -0.00571383 </v>
   <v>      -0.00546723       0.01201006      -0.00705056 </v>
  </varray>
  <varray name="stress" >
   <v>      -2.27849155      -0.04996785       0.32964044 </v>
   <v>      -0.04996784      -2.93933917      -0.00770691 </v>
   <v>       0.32964043      -0.00770692      -2.25992862 </v>
  </varray>
  <energy>
   <i name="e_fr_energy">   -142.28420319 </i>
   <i name="e_wo_entrp">   -142.28182810 </i>
   <i name="e_0_energy">   -142.28301565 </i>
  </energy>
  <time name="totalsc">   35.55   35.84</time>
 </calculation>
 <calculation>
  <scstep>
   <time name="dav">    6.71    6.75</time>
   <time name="total">    7.00    7.06</time>
   <energy>
    <i name="alphaZ">     62.51481736 </i>
    <i name="ewald">   5427.37309173 </i>
    <i name="hartreedc">  -7476.89991388 </i>
    <i name="XCdc">    206.31527723 </i>
    <i name="pawpsdc">   6293.89679382 </i>
    <i name="pawaedc">  -6301.90076441 </i>
    <i name="eentropy">     -0.00237807 </i>
    <i name="bandstr">   -554.05154663 </i>
    <i name="atom">   2202.35892741 </i>
    <i name="e_fr_energy">   -140.39569545 </i>
    <i name="e_wo_entrp">   -140.39331738 </i>
    <i name="e_0_energy">   -140.39450642 </i>
   </energy>
  </scstep>
  <scstep>
   <time name="dav">    5.94    5.98</time>
   <time name="total">    6.23    6.29</time>
   <energy>
    <i name="e_fr_energy">   -140.39569445 </i>
    <i name="e_wo_entrp">   -140.39331488 </i>
    <i name="e_0_energy">   -140.39450467 </i>
   </energy>
  </scstep>
  <scstep>
   <time name="dav">    6.28    6.33</time>
   <time name="total">    6.57    6.64</time>
   <energy>
    <i name="e_fr_energy">   -140.39569402 </i>
    <i name="e_wo_entrp">   -140.39331290 </i>
    <i name="e_0_energy">   -140.39450346 </i>
   </energy>
  </scstep>
  <scstep>
   <time name="dav">    9.03    9.08</time>
   <time name="total">    9.06    9.12</time>
   <energy>
    <i name="alphaZ">     62.51481736 </i>
    <i name="ewald">   5427.37309173 </i>
    <i name="hartreedc">  -7476.90612044 </i>
    <i name="XCdc">    206.31524157 </i>
    <i name="pawpsdc">   6294.03704675 </i>
    <i name="pawaedc">  -6302.04104101 </i>
    <i name="eentropy">     -0.00238136 </i>
    <i name="bandstr">   -554.04527619 </i>
    <i name="atom">   2202.35892741 </i>
    <i name="e_fr_energy">   -140.39569418 </i>
    <i name="e_wo_entrp">   -140.39331282 </i>
    <i name="e_0_energy">   -140.39450350 </i>
   </energy>
  </scstep>
  <structure>
   <crystal>
    <varray name="basis" >
     <v>       4.36909816       2.52250000       0.00000000 </v>
     <v>      -4.36909816       2.52250000       0.00000000 </v>
     <v>       0.00000000       0.00000000      15.00000000 </v>
    </varray>
    <i name="volume">    330.63150342 </i>
    <varray name="rec_basis" >
     <v>       0.11444009       0.19821606       0.00000000 </v>
     <v>      -0.11444009       0.19821606       0.00000000 </v>
     <v>       0.00000000       0.00000000       0.06666667 </v>
    </varray>
   </crystal>
   <varray name="positions" >
    <v>       0.33833537       0.66915903       0.10019527 </v>
    <v>       0.67169291       0.33580862       0.10011601 </v>
    <v>       0.16461833       0.32178437       0.09992482 </v>
    <v>       0.32415057       0.16214355       0.09995493 </v>
    <v>       0.16455848       0.84295545       0.09994850 </v>
    <v>       0.84534453       0.16214158       0.09993115 </v>
    <v>       0.68572006       0.84288063       0.09992534 </v>
    <v>       0.84536105       0.68335173       0.09995560 </v>
    <v>       0.24997781       0.24984421       0.32643624 </v>
    <v>       0.41656961       0.08328939       0.32640666 </v>
    <v>       0.24996103       0.75004000       0.32625233 </v>
    <v>       0.41672152       0.58327514       0.32619907 </v>
    <v>       0.75003016       0.24996457       0.32618296 </v>
    <v>       0.91675716       0.08323798       0.32640032 </v>
    <v>       0.75015312       0.75002154       0.32643774 </v>
    <v>       0.91670695       0.58342754       0.32639972 </v>
   </varray>
  </structure>
  <varray name="forces" >
   <v>      -0.00313488       0.00066939       0.00341670 </v>
   <v>      -0.00873720      -0.00050753       0.00278877 </v>
   <v>      -0.00924613      -0.00392678      -0.00107137 </v>
   <v>       0.00418524       0.00212024      -0.00318002 </v>
   <v>      -0.00382791      -0.00153954       0.00255148 </v>
   <v>       0.00523735       0.00187488      -0.00694027 </v>
   <v>      -0.00929967       0.00177103      -0.00097340 </v>
   <v>       0.00457779      -0.00009102      -0.00309655 </v>
   <v>       0.00114761       0.00120901       0.00096847 </v>
   <v>       0.00401254       0.00118813      -0.00510800 </v>
   <v>       0.00405563      -0.00008678       0.00035872 </v>
   <v>       0.00232423      -0.00004029       0.00436276 </v>
   <v>       0.00249224      -0.00004654       0.00810448 </v>
   <v>       0.00101788      -0.00001646       0.00218348 </v>
   <v>       0.00115999      -0.00134021       0.00070072 </v>
   <v>       0.00403528      -0.00123753      -0.00506600 </v>
  </varray>
  <varray name="stress" >
   <v>      -2.43863200      -0.01844705       0.33017702 </v>
   <v>      -0.01844705      -2.78619352      -0.00778173 </v>
   <v>       0.33017700      -0.00778175      -2.24343410 </v>
  </varray>
  <energy>
   <i name="e_fr_energy">   -142.28428082 </i>
   <i name="e_wo_entrp">   -142.28189947 </i>
   <i name="e_0_energy">   -142.28309014 </i>
  </energy>
  <time name="totalsc">   34.16   34.44</time>
 </calculation>
 <calculation>
  <scstep>
   <time name="dav">    6.36    6.40</time>
   <time name="total">    6.66    6.71</time>
   <energy>
    <i name="alphaZ">     62.51481736 </i>
    <i name="ewald">   5427.12915743 </i>
    <i name="hartreedc">  -7476.66364958 </i>
    <i name="XCdc">    206.31514910 </i>
    <i name="pawpsdc">   6294.00991589 </i>
    <i name="pawaedc">  -6302.01390199 </i>
    <i name="eentropy">     -0.00238304 </i>
    <i name="bandstr">   -554.04375919 </i>
    <i name="atom">   2202.35892741 </i>
    <i name="e_fr_energy">   -140.39572661 </i>
    <i name="e_wo_entrp">   -140.39334357 </i>
    <i name="e_0_energy">   -140.39453509 </i>
   </energy>
  </scstep>
  <scstep>
   <time name="dav">    6.23    6.28</time>
   <time name="total">    6.52    6.58</time>
   <energy>
    <i name="e_fr_energy">   -140.39572656 </i>
    <i name="e_wo_entrp">   -140.39334443 </i>
    <i name="e_0_energy">   -140.39453549 </i>
   </energy>
  </scstep>
  <scstep>
   <time name="dav">    7.96    8.02</time>
   <time name="total">    8.00    8.05</time>
   <energy>
    <i name="alphaZ">     62.51481736 </i>
    <i name="ewald">   5427.12915743 </i>
    <i name="hartreedc">  -7476.65623721 </i>
    <i name="XCdc">    206.31515676 </i>
    <i name="pawpsdc">   6293.96257545 </i>
    <i name="pawaedc">  -6301.96654140 </i>
    <i name="eentropy">     -0.00238145 </i>
    <i name="bandstr">   -554.05120113 </i>
    <i name="atom">   2202.35892741 </i>
    <i name="e_fr_energy">   -140.39572678 </i>
    <i name="e_wo_entrp">   -140.39334533 </i>
    <i name="e_0_energy">   -140.39453605 </i>
   </energy>
  </scstep>
  <structure>
   <crystal>
    <varray name="basis" >
     <v>       4.36909816       2.52250000       0.00000000 </v>
     <v>      -4.36909816       2.52250000       0.00000000 </v>
     <v>       0.00000000       0.00000000      15.00000000 </v>
    </varray>
    <i name="volume">    330.63150342 </i>
    <varray name="rec_basis" >
     <v>       0.11444009       0.19821606       0.00000000 </v>
     <v>      -0.11444009       0.19821606       0.00000000 </v>
     <v>       0.00000000       0.00000000       0.06666667 </v>
    </varray>
   </crystal>
   <varray name="positions" >
    <v>       0.33831250       0.66918767       0.10022096 </v>
    <v>       0.67165128       0.33584529       0.10013414 </v>
    <v>       0.16458077       0.32180472       0.09991623 </v>
    <v>       0.32416456       0.16213064       0.09994112 </v>
    <v>       0.16452228       0.84297176       0.09995267 </v>
    <v>       0.84535860       0.16215090       0.09990434 </v>
    <v>       0.68568989       0.84291066       0.09991708 </v>
    <v>       0.84538369       0.68334880       0.09994210 </v>
    <v>       0.25000476       0.24986222       0.32644747 </v>
    <v>       0.41661805       0.08328329       0.32639604 </v>
    <v>       0.24999482       0.75000469       0.32624755 </v>
    <v>       0.41672985       0.58326537       0.32620166 </v>
    <v>       0.75004801       0.24994652       0.32619668 </v>
    <v>       0.91675307       0.08324143       0.32641168 </v>
    <v>       0.75013434       0.74999348       0.32644826 </v>
    <v>       0.91671218       0.58337791       0.32638869 </v>
   </varray>
  </structure>
  <varray name="forces" >
   <v>      -0.00160436      -0.00097457      -0.00046139 </v>
   <v>       0.00910779       0.00128729      -0.00242471 </v>
   <v>       0.00952528       0.00343714      -0.00210166 </v>
   <v>      -0.02061799       0.00155292       0.00120944 </v>
   <v>       0.00836014       0.00343655       0.00126404 </v>
   <v>      -0.01138993      -0.00335876      -0.00226990 </v>
   <v>       0.00825555       0.00147499      -0.00197460 </v>
   <v>      -0.02183494      -0.00648474       0.00130106 </v>
   <v>       0.00759248      -0.00679586      -0.00189600 </v>
   <v>      -0.00328883      -0.00631008      -0.00097383 </v>
   <v>      -0.00759814       0.00001605      -0.00009190 </v>
   <v>       0.00606295       0.00004259       0.00529173 </v>
   <v>       0.00086423      -0.00018455       0.00395669 </v>
   <v>       0.01243729      -0.00007023       0.00207073 </v>
   <v>       0.00750543       0.00664286      -0.00201497 </v>
   <v>      -0.00337694       0.00628840      -0.00088474 </v>
  </varray>
  <varray name="stress" >
   <v>      -2.55407940       0.00498880       0.33072460 </v>
   <v>       0.00498880      -2.67642978      -0.00780049 </v>
   <v>       0.33072461      -0.00780045      -2.25078141 </v>
  </varray>
  <energy>
   <i name="e_fr_energy">   -142.28428443 </i>
   <i name="e_wo_entrp">   -142.28190298 </i>
   <i name="e_0_energy">   -142.28309370 </i>
  </energy>
  <time name="totalsc">   26.46   26.67</time>
 </calculation>
 <calculation>
  <scstep>
   <time name="dav">    6.17    6.22</time>
   <time name="total">    6.46    6.52</time>
   <energy>
    <i name="alphaZ">     62.51481736 </i>
    <i name="ewald">   5427.23564274 </i>
    <i name="hartreedc">  -7476.76170803 </i>
    <i name="XCdc">    206.31517163 </i>
    <i name="pawpsdc">   6293.95642101 </i>
    <i name="pawaedc">  -6301.96038919 </i>
    <i name="eentropy">     -0.00238072 </i>
    <i name="bandstr">   -554.05222035 </i>
    <i name="atom">   2202.35892741 </i>
    <i name="e_fr_energy">   -140.39571814 </i>
    <i name="e_wo_entrp">   -140.39333743 </i>
    <i name="e_0_energy">   -140.39452779 </i>
   </energy>
  </scstep>
  <scstep>
   <time name="dav">    5.71    5.76</time>
   <time name="total">    5.75    5.79</time>
   <energy>
    <i name="alphaZ">     62.51481736 </i>
    <i name="ewald">   5427.23564274 </i>
    <i name="hartreedc">  -7476.76318916 </i>
    <i name="XCdc">    206.31517089 </i>
    <i name="pawpsdc">   6293.95408131 </i>
    <i name="pawaedc">  -6301.95806291 </i>
    <i name="eentropy">     -0.00238107 </i>
    <i name="bandstr">   -554.05072482 </i>
    <i name="atom">   2202.35892741 </i>
    <i name="e_fr_energy">   -140.39571826 </i>
    <i name="e_wo_entrp">   -140.39333719 </i>
    <i name="e_0_energy">   -140.39452773 </i>
   </energy>
  </scstep>
  <structure>
   <crystal>
    <varray name="basis" >
     <v>       4.36909816       2.52250000       0.00000000 </v>
     <v>      -4.36909816       2.52250000       0.00000000 </v>
     <v>       0.00000000       0.00000000      15.00000000 </v>
    </varray>
    <i name="volume">    330.63150342 </i>
[...]
     <v>      -0.11444009       0.19821606       0.00000000 </v>
     <v>       0.00000000       0.00000000       0.06666667 </v>
    </varray>
   </crystal>
   <varray name="positions" >
    <v>       0.30691726       0.70251880       0.10067535 </v>
    <v>       0.64027101       0.36919447       0.10030042 </v>
    <v>       0.13329991       0.35521463       0.09985471 </v>
    <v>       0.29283473       0.19548574       0.10060628 </v>
    <v>       0.13320024       0.87620984       0.10087073 </v>
    <v>       0.81395692       0.19545686       0.09951112 </v>
    <v>       0.65445009       0.87628489       0.09988527 </v>
    <v>       0.81396583       0.71678877       0.10062856 </v>
    <v>       0.28139048       0.21660197       0.32616443 </v>
    <v>       0.44806635       0.05000035       0.32602709 </v>
    <v>       0.28138989       0.71659750       0.32578002 </v>
    <v>       0.44811392       0.54987866       0.32603614 </v>
    <v>       0.78136664       0.21662165       0.32608563 </v>
    <v>       0.94804784       0.04994897       0.32606089 </v>
    <v>       0.78139512       0.71660215       0.32615907 </v>
    <v>       0.94799243       0.54992009       0.32602094 </v>
   </varray>
  </structure>
  <varray name="forces" >
   <v>       0.00757407       0.01755586      -0.02630732 </v>
   <v>      -0.00673779       0.00947486      -0.00193470 </v>
   <v>       0.00763002      -0.03157042       0.01930278 </v>
   <v>      -0.01107908      -0.02011786      -0.01102259 </v>
   <v>      -0.02447185       0.01233296       0.01522426 </v>
   <v>       0.01743925       0.03042981       0.00503976 </v>
   <v>      -0.03801142      -0.01968592       0.01850995 </v>
   <v>       0.04348225       0.00123895      -0.01079699 </v>
   <v>       0.00546252      -0.00181861      -0.02139505 </v>
   <v>      -0.00376357      -0.00163493       0.01625045 </v>
   <v>      -0.00229905       0.00045136      -0.00595690 </v>
   <v>      -0.00413121      -0.00051767       0.01249147 </v>
   <v>       0.00266846       0.00048642      -0.01786499 </v>
   <v>       0.00515880      -0.00044815       0.01299573 </v>
   <v>       0.00499009       0.00245175      -0.02138747 </v>
   <v>      -0.00391149       0.00137157       0.01685160 </v>
  </varray>
  <varray name="stress" >
   <v>      -2.47348992      -0.06625884       0.07057998 </v>
   <v>      -0.06625886      -2.76625645       0.00665422 </v>
   <v>       0.07057999       0.00665421      -2.53442495 </v>
  </varray>
  <energy>
   <i name="e_fr_energy">   -142.29179847 </i>
   <i name="e_wo_entrp">   -142.28909378 </i>
   <i name="e_0_energy">   -142.29044612 </i>
  </energy>
  <time name="totalsc">   26.59   26.80</time>
 </calculation>
 <calculation>
  <scstep>
   <time name="dav">    5.70    5.75</time>
   <time name="total">    5.99    6.05</time>
   <energy>
    <i name="alphaZ">     62.51481736 </i>
    <i name="ewald">   5447.96881974 </i>
    <i name="hartreedc">  -7497.54880998 </i>
    <i name="XCdc">    206.31479471 </i>
    <i name="pawpsdc">   6293.06295726 </i>
    <i name="pawaedc">  -6301.06669195 </i>
    <i name="eentropy">     -0.00270590 </i>
    <i name="bandstr">   -554.00138492 </i>
    <i name="atom">   2202.35892741 </i>
    <i name="e_fr_energy">   -140.39927628 </i>
    <i name="e_wo_entrp">   -140.39657038 </i>
    <i name="e_0_energy">   -140.39792333 </i>
   </energy>
  </scstep>
  <scstep>
   <time name="dav">    7.43    7.48</time>
   <time name="total">    7.72    7.79</time>
   <energy>
    <i name="e_fr_energy">   -140.39929525 </i>
    <i name="e_wo_entrp">   -140.39658994 </i>
    <i name="e_0_energy">   -140.39794259 </i>
   </energy>
  </scstep>
  <scstep>
   <time name="dav">    6.65    6.69</time>
   <time name="total">    6.94    7.00</time>
   <energy>
    <i name="e_fr_energy">   -140.39928985 </i>
    <i name="e_wo_entrp">   -140.39658579 </i>
    <i name="e_0_energy">   -140.39793782 </i>
   </energy>
  </scstep>
  <scstep>
   <time name="dav">    6.06    6.11</time>
   <time name="total">    6.36    6.42</time>
   <energy>
    <i name="e_fr_energy">   -140.39929038 </i>
    <i name="e_wo_entrp">   -140.39658655 </i>
    <i name="e_0_energy">   -140.39793846 </i>
   </energy>
  </scstep>
  <scstep>
   <time name="dav">    5.93    5.97</time>
   <time name="total">    5.97    6.01</time>
   <energy>
    <i name="alphaZ">     62.51481736 </i>
    <i name="ewald">   5447.96881974 </i>
    <i name="hartreedc">  -7497.55341413 </i>
    <i name="XCdc">    206.31465300 </i>
    <i name="pawpsdc">   6293.10460067 </i>
    <i name="pawaedc">  -6301.10836030 </i>
    <i name="eentropy">     -0.00270379 </i>
    <i name="bandstr">   -553.99663037 </i>
    <i name="atom">   2202.35892741 </i>
    <i name="e_fr_energy">   -140.39929041 </i>
    <i name="e_wo_entrp">   -140.39658662 </i>
    <i name="e_0_energy">   -140.39793851 </i>
   </energy>
  </scstep>
  <structure>
   <crystal>
    <varray name="basis" >
     <v>       4.36909816       2.52250000       0.00000000 </v>
     <v>      -4.36909816       2.52250000       0.00000000 </v>
     <v>       0.00000000       0.00000000      15.00000000 </v>
    </varray>
    <i name="volume">    330.63150342 </i>
    <varray name="rec_basis" >
     <v>       0.11444009       0.19821606       0.00000000 </v>
     <v>      -0.11444009       0.19821606       0.00000000 </v>
     <v>       0.00000000       0.00000000       0.06666667 </v>
    </varray>
   </crystal>
   <varray name="positions" >
    <v>       0.30679301       0.70266790       0.10070321 </v>
    <v>       0.64012465       0.36936202       0.10031521 </v>
    <v>       0.13313171       0.35534118       0.09993937 </v>
    <v>       0.29265268       0.19562240       0.10057796 </v>
    <v>       0.13307746       0.87636069       0.10078608 </v>
    <v>       0.81380750       0.19564711       0.09964148 </v>
    <v>       0.65429398       0.87645837       0.09996405 </v>
    <v>       0.81382753       0.71693206       0.10059309 </v>
    <v>       0.28153657       0.21644528       0.32613873 </v>
    <v>       0.44821316       0.04984243       0.32600049 </v>
    <v>       0.28153853       0.71644225       0.32576167 </v>
    <v>       0.44826452       0.54972255       0.32601040 </v>
    <v>       0.78150992       0.21647148       0.32606198 </v>
    <v>       0.94819739       0.04979325       0.32604537 </v>
    <v>       0.78154599       0.71644988       0.32613312 </v>
    <v>       0.94814407       0.54976649       0.32599446 </v>
   </varray>
  </structure>
  <varray name="forces" >
   <v>       0.00525261       0.01381987      -0.02656628 </v>
   <v>      -0.01005220       0.00531447      -0.00078270 </v>
   <v>       0.00337977      -0.02536952       0.01849850 </v>
   <v>      -0.00523408      -0.01360750      -0.01047242 </v>
   <v>      -0.02691189       0.00654420       0.01561372 </v>
   <v>       0.02273912       0.02351034       0.00540774 </v>
   <v>      -0.02858550      -0.01579493       0.01766233 </v>
   <v>       0.03462929       0.00521729      -0.01019159 </v>
   <v>       0.00573789      -0.00139543      -0.02103498 </v>
   <v>      -0.00434574      -0.00111836       0.01695813 </v>
   <v>      -0.00142731       0.00049219      -0.00798089 </v>
   <v>      -0.00448215      -0.00057246       0.01300282 </v>
   <v>       0.00502820       0.00053628      -0.01754983 </v>
   <v>       0.00354663      -0.00044442       0.01086863 </v>
   <v>       0.00527336       0.00202882      -0.02099035 </v>
   <v>      -0.00454801       0.00083917       0.01755717 </v>
  </varray>
  <varray name="stress" >
   <v>      -2.47366553      -0.06487785       0.07068802 </v>
   <v>      -0.06487786      -2.75641457       0.00657694 </v>
   <v>       0.07068798       0.00657696      -2.52488987 </v>
  </varray>
  <energy>
   <i name="e_fr_energy">   -142.29186356 </i>
   <i name="e_wo_entrp">   -142.28915977 </i>
   <i name="e_0_energy">   -142.29051166 </i>
  </energy>
  <time name="totalsc">   38.27   38.59</time>
 </calculation>
 <calculation>
  <scstep>
   <time name="dav">    5.72    5.76</time>
   <time name="total">    6.01    6.07</time>
   <energy>
    <i name="alphaZ">     62.51481736 </i>
    <i name="ewald">   5451.03595010 </i>
    <i name="hartreedc">  -7500.61442726 </i>
    <i name="XCdc">    206.31595689 </i>
    <i name="pawpsdc">   6293.11415657 </i>
    <i name="pawaedc">  -6301.11791462 </i>
    <i name="eentropy">     -0.00270526 </i>
    <i name="bandstr">   -554.00354409 </i>
    <i name="atom">   2202.35892741 </i>
    <i name="e_fr_energy">   -140.39878289 </i>
    <i name="e_wo_entrp">   -140.39607764 </i>
    <i name="e_0_energy">   -140.39743026 </i>
   </energy>
  </scstep>
  <scstep>
   <time name="dav">    7.79    7.85</time>
   <time name="total">    8.08    8.15</time>
   <energy>
    <i name="e_fr_energy">   -140.39885677 </i>
    <i name="e_wo_entrp">   -140.39615208 </i>
    <i name="e_0_energy">   -140.39750443 </i>
   </energy>
  </scstep>
  <scstep>
   <time name="dav">    6.71    6.76</time>
   <time name="total">    7.00    7.07</time>
   <energy>
    <i name="e_fr_energy">   -140.39882804 </i>
    <i name="e_wo_entrp">   -140.39612542 </i>
    <i name="e_0_energy">   -140.39747673 </i>
   </energy>
  </scstep>
  <scstep>
   <time name="dav">    7.03    7.07</time>
   <time name="total">    7.32    7.37</time>
   <energy>
    <i name="e_fr_energy">   -140.39883010 </i>
    <i name="e_wo_entrp">   -140.39612804 </i>
    <i name="e_0_energy">   -140.39747907 </i>
   </energy>
  </scstep>
  <scstep>
   <time name="dav">    7.43    7.48</time>
   <time name="total">    7.46    7.52</time>
   <energy>
    <i name="alphaZ">     62.51481736 </i>
    <i name="ewald">   5451.03595010 </i>
    <i name="hartreedc">  -7500.62817882 </i>
    <i name="XCdc">    206.31565001 </i>
    <i name="pawpsdc">   6293.13759754 </i>
    <i name="pawaedc">  -6301.14138943 </i>
    <i name="eentropy">     -0.00270189 </i>
    <i name="bandstr">   -553.98950236 </i>
    <i name="atom">   2202.35892741 </i>
    <i name="e_fr_energy">   -140.39883010 </i>
    <i name="e_wo_entrp">   -140.39612821 </i>
    <i name="e_0_energy">   -140.39747915 </i>
   </energy>
  </scstep>
  <structure>
   <crystal>
    <varray name="basis" >
     <v>       4.36909816       2.52250000       0.00000000 </v>
     <v>      -4.36909816       2.52250000       0.00000000 </v>
     <v>       0.00000000       0.00000000      15.00000000 </v>
    </varray>
    <i name="volume">    330.63150342 </i>
    <varray name="rec_basis" >
     <v>       0.11444009       0.19821606       0.00000000 </v>
     <v>      -0.11444009       0.19821606       0.00000000 </v>
     <v>       0.00000000       0.00000000       0.06666667 </v>
    </varray>
   </crystal>
   <varray name="positions" >
    <v>       0.30654451       0.70296609       0.10075894 </v>
    <v>       0.63983193       0.36969713       0.10034480 </v>
    <v>       0.13279531       0.35559428       0.10010867 </v>
    <v>       0.29228858       0.19589572       0.10052131 </v>
    <v>       0.13283190       0.87666237       0.10061678 </v>
    <v>       0.81350865       0.19602762       0.09990221 </v>
    <v>       0.65398177       0.87680534       0.10012159 </v>
    <v>       0.81355092       0.71721864       0.10052214 </v>
    <v>       0.28182874       0.21613190       0.32608731 </v>
    <v>       0.44850679       0.04952658       0.32594729 </v>
    <v>       0.28183580       0.71613174       0.32572495 </v>
    <v>       0.44856571       0.54941031       0.32595893 </v>
    <v>       0.78179649       0.21617115       0.32601470 </v>
    <v>       0.94849648       0.04948183       0.32601433 </v>
    <v>       0.78184772       0.71614534       0.32608123 </v>
    <v>       0.94844735       0.54945929       0.32594150 </v>
   </varray>
  </structure>
  <varray name="forces" >
   <v>       0.00067036       0.00643203      -0.02728821 </v>
   <v>      -0.01674064      -0.00296657       0.00134184 </v>
   <v>      -0.00483400      -0.01278131       0.01570421 </v>
   <v>       0.00673026      -0.00084584      -0.00920499 </v>
   <v>      -0.03181746      -0.00509796       0.01724804 </v>
   <v>       0.03372358       0.00953798       0.00440241 </v>
   <v>      -0.00941113      -0.00816366       0.01481372 </v>
   <v>       0.01709310       0.01350227      -0.00871278 </v>
   <v>       0.00609722      -0.00055773      -0.01991571 </v>
   <v>      -0.00567765      -0.00009206       0.01878199 </v>
   <v>       0.00013433       0.00056952      -0.01164229 </v>
   <v>      -0.00536265      -0.00068978       0.01441916 </v>
   <v>       0.00961329       0.00063195      -0.01651458 </v>
   <v>       0.00011917      -0.00043742       0.00698447 </v>
   <v>       0.00564693       0.00118470      -0.01979514 </v>
   <v>      -0.00598473      -0.00022612       0.01937784 </v>
  </varray>
  <varray name="stress" >
   <v>      -2.48378099      -0.06191941       0.06896121 </v>
   <v>      -0.06191942      -2.73670478       0.00637353 </v>
   <v>       0.06896122       0.00637353      -2.50465465 </v>
  </varray>
  <energy>
   <i name="e_fr_energy">   -142.29195251 </i>
   <i name="e_wo_entrp">   -142.28925062 </i>
   <i name="e_0_energy">   -142.29060157 </i>
  </energy>
  <time name="totalsc">   41.17   41.50</time>
 </calculation>
 <calculation>
  <scstep>
   <time name="dav">    5.73    5.77</time>
   <time name="total">    6.02    6.07</time>
   <energy>
    <i name="alphaZ">     62.51481736 </i>
    <i name="ewald">   5457.14459226 </i>
    <i name="hartreedc">  -7506.72902757 </i>
    <i name="XCdc">    206.31779250 </i>
    <i name="pawpsdc">   6293.15732861 </i>
    <i name="pawaedc">  -6301.16111669 </i>
    <i name="eentropy">     -0.00270070 </i>
    <i name="bandstr">   -553.99817853 </i>
    <i name="atom">   2202.35892741 </i>
    <i name="e_fr_energy">   -140.39756536 </i>
    <i name="e_wo_entrp">   -140.39486466 </i>
    <i name="e_0_energy">   -140.39621501 </i>
   </energy>
  </scstep>
  <scstep>
   <time name="dav">    7.76    7.82</time>
   <time name="total">    8.06    8.13</time>
   <energy>
    <i name="e_fr_energy">   -140.39784872 </i>
    <i name="e_wo_entrp">   -140.39514721 </i>
    <i name="e_0_energy">   -140.39649796 </i>
   </energy>
  </scstep>
  <scstep>
   <time name="dav">    6.80    6.85</time>
   <time name="total">    7.08    7.15</time>
   <energy>
    <i name="e_fr_energy">   -140.39772133 </i>
    <i name="e_wo_entrp">   -140.39502202 </i>
    <i name="e_0_energy">   -140.39637168 </i>
   </energy>
  </scstep>
  <scstep>
   <time name="dav">    8.10    8.15</time>
   <time name="total">    8.39    8.46</time>
   <energy>
    <i name="e_fr_energy">   -140.39772717 </i>
    <i name="e_wo_entrp">   -140.39502957 </i>
    <i name="e_0_energy">   -140.39637837 </i>
   </energy>
  </scstep>
  <scstep>
   <time name="dav">    7.72    7.77</time>
   <time name="total">    8.01    8.07</time>
   <energy>
    <i name="e_fr_energy">   -140.39772761 </i>
    <i name="e_wo_entrp">   -140.39503045 </i>
    <i name="e_0_energy">   -140.39637903 </i>
   </energy>
  </scstep>
  <scstep>
   <time name="dav">    5.97    6.01</time>
   <time name="total">    6.00    6.05</time>
   <energy>
    <i name="alphaZ">     62.51481736 </i>
    <i name="ewald">   5457.14459226 </i>
    <i name="hartreedc">  -7506.74768538 </i>
    <i name="XCdc">    206.31694600 </i>
    <i name="pawpsdc">   6293.11123574 </i>
    <i name="pawaedc">  -6301.11501959 </i>
    <i name="eentropy">     -0.00269717 </i>
    <i name="bandstr">   -553.97884485 </i>
    <i name="atom">   2202.35892741 </i>
    <i name="e_fr_energy">   -140.39772821 </i>
    <i name="e_wo_entrp">   -140.39503104 </i>
    <i name="e_0_energy">   -140.39637962 </i>
   </energy>
  </scstep>
  <structure>
   <crystal>
    <varray name="basis" >
     <v>       4.36909816       2.52250000       0.00000000 </v>
     <v>      -4.36909816       2.52250000       0.00000000 </v>
     <v>       0.00000000       0.00000000      15.00000000 </v>
    </varray>
    <i name="volume">    330.63150342 </i>
    <varray name="rec_basis" >
     <v>       0.11444009       0.19821606       0.00000000 </v>
     <v>      -0.11444009       0.19821606       0.00000000 </v>
     <v>       0.00000000       0.00000000       0.06666667 </v>
    </varray>
   </crystal>
   <varray name="positions" >
    <v>       0.30604751       0.70356249       0.10087038 </v>
    <v>       0.63924649       0.37036734       0.10040397 </v>
    <v>       0.13212252       0.35610047       0.10044728 </v>
    <v>       0.29156039       0.19644237       0.10040800 </v>
    <v>       0.13234077       0.87726575       0.10027819 </v>
    <v>       0.81291097       0.19678862       0.10042368 </v>
    <v>       0.65335735       0.87749927       0.10043668 </v>
    <v>       0.81299770       0.71779179       0.10038024 </v>
    <v>       0.28241310       0.21550515       0.32598448 </v>
    <v>       0.44909406       0.04889490       0.32584090 </v>
    <v>       0.28243035       0.71551074       0.32565152 </v>
    <v>       0.44916809       0.54878584       0.32585597 </v>
    <v>       0.78236962       0.21557050       0.32592012 </v>
    <v>       0.94909466       0.04885898       0.32595224 </v>
    <v>       0.78245119       0.71553625       0.32597744 </v>
    <v>       0.94905391       0.54884488       0.32583557 </v>
   </varray>
  </structure>
  <varray name="forces" >
   <v>      -0.00844015      -0.00823946      -0.02889832 </v>
   <v>      -0.03050365      -0.01945017       0.00542686 </v>
   <v>      -0.02131285       0.01248643       0.00951190 </v>
   <v>       0.03090326       0.02460074      -0.00674107 </v>
   <v>      -0.04189619      -0.02844397       0.02085753 </v>
   <v>       0.05586858      -0.01848412       0.00167796 </v>
   <v>       0.02893611       0.00695475       0.00837756 </v>
   <v>      -0.01779465       0.03012750      -0.00562576 </v>
   <v>       0.00681471       0.00111552      -0.01744863 </v>
   <v>      -0.00832505       0.00197347       0.02269726 </v>
   <v>       0.00325636       0.00072779      -0.01870140 </v>
   <v>      -0.00712221      -0.00092846       0.01746917 </v>
   <v>       0.01880187       0.00082834      -0.01417010 </v>
   <v>      -0.00674943      -0.00041383      -0.00054099 </v>
   <v>       0.00639494      -0.00049361      -0.01717843 </v>
   <v>      -0.00883165      -0.00236092       0.02328646 </v>
  </varray>
  <varray name="stress" >
   <v>      -2.54609804      -0.05437946       0.06691117 </v>
   <v>      -0.05437945      -2.70086710       0.00595118 </v>
   <v>       0.06691119       0.00595117      -2.45867191 </v>
  </varray>
  <energy>
   <i name="e_fr_energy">   -142.29195458 </i>
   <i name="e_wo_entrp">   -142.28925741 </i>
   <i name="e_0_energy">   -142.29060600 </i>
  </energy>
  <time name="totalsc">   48.96   49.37</time>
 </calculation>
 <calculation>
  <scstep>
   <time name="dav">    5.72    5.75</time>
   <time name="total">    6.01    6.06</time>
   <energy>
    <i name="alphaZ">     62.51481736 </i>
    <i name="ewald">   5454.22122033 </i>
    <i name="hartreedc">  -7503.81970427 </i>
    <i name="XCdc">    206.31571856 </i>
    <i name="pawpsdc">   6293.12972031 </i>
    <i name="pawaedc">  -6301.13350341 </i>
    <i name="eentropy">     -0.00269814 </i>
    <i name="bandstr">   -553.98274088 </i>
    <i name="atom">   2202.35892741 </i>
    <i name="e_fr_energy">   -140.39824274 </i>
    <i name="e_wo_entrp">   -140.39554460 </i>
    <i name="e_0_energy">   -140.39689367 </i>
   </energy>
  </scstep>
  <scstep>
   <time name="dav">    7.51    7.55</time>
   <time name="total">    7.80    7.86</time>
   <energy>
    <i name="e_fr_energy">   -140.39830786 </i>
    <i name="e_wo_entrp">   -140.39561027 </i>
    <i name="e_0_energy">   -140.39695906 </i>
   </energy>
  </scstep>
  <scstep>
