       N       E                     dE             d eps       ncg     rms          rms(c)
DAV:   1     0.167770154504E+03    0.16777E+03   -0.23998E+04  3456   0.854E+02
DAV:   2    -0.114355334584E+03   -0.28213E+03   -0.28169E+03  5184   0.142E+02
DAV:   3    -0.124016445657E+03   -0.96611E+01   -0.96605E+01  5424   0.366E+01
DAV:   4    -0.124054577373E+03   -0.38132E-01   -0.38132E-01  6000   0.207E+00
DAV:   5    -0.124054594125E+03   -0.16752E-04   -0.16752E-04  4752   0.486E-02
DAV:   6    -0.124054594232E+03   -0.10703E-06   -0.10701E-06  5760   0.329E-03
   1 F= -.12405459E+03 E0= -.12405274E+03  d E =-.369920E-02
