Lattice                                 
           1
     4.196759    2.423000    0.000000
    -4.196759    2.423000    0.000000
     0.000000    0.000000   15.000000
   B    C 
     4    11
Direct configuration=     1
   0.00415361  0.00267210  0.12034134
   0.35695335  0.00285503  0.09748893
   0.00423858  0.35550699  0.09749256
   0.65142295  0.65006557  0.09747688
   0.32808646  0.32671938  0.10030508
   0.68027775  0.00278085  0.10027562
   0.00416530  0.67883808  0.10026559
   0.08333267  0.41666633  0.33466667
   0.24999967  0.24999933  0.33466667
   0.08333267  0.91666633  0.33466667
   0.24999967  0.74999933  0.33466667
   0.58333267  0.41666633  0.33466667
   0.74999967  0.24999933  0.33466667
   0.58333267  0.91666633  0.33466667
   0.74999967  0.74999933  0.33466667
Direct configuration=     2
   0.00413797  0.00266386  0.11910650
   0.35568882  0.00283314  0.09779960
   0.00413334  0.35446430  0.09786614
   0.65260099  0.65107199  0.09783496
   0.32480519  0.32318641  0.10028501
   0.68397273  0.00286244  0.10031415
   0.00416915  0.68216623  0.10026182
   0.08333113  0.41676684  0.33467308
   0.25016492  0.25028853  0.33477961
   0.08351984  0.91679365  0.33466406
   0.25030509  0.74997431  0.33464465
   0.58329808  0.41662957  0.33462827
   0.74991642  0.25002454  0.33467003
   0.58308672  0.91658926  0.33475201
   0.74949695  0.74978559  0.33469946
Direct configuration=     3
   0.00414593  0.00266806  0.11973551
   0.35633295  0.00284429  0.09764135
   0.00418695  0.35499543  0.09767585
   0.65200092  0.65055934  0.09765256
   0.32647661  0.32498604  0.10029523
   0.68209057  0.00282088  0.10029453
   0.00416719  0.68047093  0.10026374
   0.08333191  0.41671564  0.33466981
   0.25008074  0.25014122  0.33472208
   0.08342450  0.91672880  0.33466539
   0.25014951  0.74998706  0.33465586
   0.58331570  0.41664830  0.33464783
   0.74995882  0.25001170  0.33466832
   0.58321200  0.91662852  0.33470854
   0.74975303  0.74989447  0.33468276
Direct configuration=     4
   0.00414392  0.00269096  0.11865312
   0.35681025  0.00281175  0.09792809
   0.00415444  0.35543474  0.09802550
   0.65163431  0.65000765  0.09798576
   0.32663239  0.32495742  0.10024255
   0.68208249  0.00286084  0.10029721
   0.00417934  0.68036741  0.10022637
   0.08326954  0.41667460  0.33468470
   0.24989691  0.24997467  0.33481526
   0.08319538  0.91665475  0.33467827
   0.24983555  0.75005201  0.33464181
   0.58329923  0.41669514  0.33462878
   0.74997758  0.25001443  0.33467321
   0.58339124  0.91677609  0.33478548
   0.75012476  0.75012821  0.33471322
Direct configuration=     5
   0.00413878  0.00274952  0.11588491
   0.35803096  0.00272852  0.09866142
   0.00407131  0.35655828  0.09891975
   0.65069670  0.64859672  0.09883793
   0.32703080  0.32488423  0.10010782
   0.68206181  0.00296303  0.10030408
   0.00421042  0.68010265  0.10013079
   0.08311004  0.41656965  0.33472278
   0.24942676  0.24954872  0.33505359
   0.08260942  0.91646538  0.33471122
   0.24903258  0.75021811  0.33460587
   0.58325711  0.41681493  0.33458005
   0.75002553  0.25002141  0.33468573
   0.58384965  0.91715349  0.33498225
   0.75107546  0.75072601  0.33479114
Direct configuration=     6
   0.00414247  0.00275340  0.11557286
   0.35814690  0.00271816  0.09873090
   0.00407424  0.35665439  0.09900370
   0.65061251  0.64847070  0.09891805
   0.32710768  0.32492614  0.10010843
   0.68200835  0.00296032  0.10031816
   0.00421769  0.68003708  0.10013529
   0.08312129  0.41660799  0.33472847
   0.24947485  0.24962138  0.33507199
   0.08269012  0.91652869  0.33471810
   0.24913966  0.75021757  0.33460634
   0.58324272  0.41682029  0.33458095
   0.75000014  0.25004279  0.33468866
   0.58374987  0.91709904  0.33499847
   0.75089885  0.75064273  0.33479898
Direct configuration=     7
   0.00415355  0.00276503  0.11463672
   0.35849471  0.00268706  0.09893933
   0.00408303  0.35694271  0.09925557
   0.65035996  0.64809262  0.09915842
   0.32733830  0.32505188  0.10011026
   0.68184795  0.00295220  0.10036037
   0.00423950  0.67984038  0.10014878
   0.08315505  0.41672301  0.33474556
   0.24961910  0.24983936  0.33512718
   0.08293222  0.91671860  0.33473874
   0.24946088  0.75021596  0.33460774
   0.58319958  0.41683635  0.33458363
   0.74992398  0.25010693  0.33469744
   0.58345050  0.91693567  0.33504712
   0.75036904  0.75039291  0.33482247
Direct configuration=     8
   0.00417569  0.00278830  0.11276443
   0.35919035  0.00262486  0.09935619
   0.00410060  0.35751934  0.09975931
   0.64985486  0.64733647  0.09963916
   0.32779953  0.32530334  0.10011391
   0.68152715  0.00293595  0.10044481
   0.00428310  0.67944698  0.10017576
   0.08322257  0.41695306  0.33477973
   0.24990761  0.25027532  0.33523757
   0.08341643  0.91709843  0.33478001
   0.25010332  0.75021274  0.33461056
   0.58311329  0.41686846  0.33458899
   0.74977165  0.25023521  0.33471500
   0.58285176  0.91660895  0.33514444
   0.74930940  0.74989326  0.33486946
Direct configuration=     9
   0.00419639  0.00277480  0.11231169
   0.35918040  0.00260694  0.09941040
   0.00414191  0.35747661  0.09981850
   0.64989105  0.64735927  0.09969685
   0.32785163  0.32536511  0.10017413
   0.68146511  0.00288537  0.10051321
   0.00430765  0.67939257  0.10023854
   0.08318818  0.41695103  0.33479218
   0.24992408  0.25035118  0.33523286
   0.08335179  0.91704392  0.33479973
   0.25008486  0.75021190  0.33462946
   0.58309088  0.41683734  0.33461323
   0.74974930  0.25022186  0.33472625
   0.58286920  0.91667725  0.33514430
   0.74933491  0.74994552  0.33487801
Direct configuration=    10
   0.00425849  0.00273429  0.11095346
   0.35915058  0.00255318  0.09957301
   0.00426583  0.35734840  0.09999609
   0.64999959  0.64742764  0.09986994
   0.32800790  0.32555041  0.10035477
   0.68127898  0.00273363  0.10071840
   0.00438130  0.67922935  0.10042687
   0.08308504  0.41694497  0.33482952
   0.24997349  0.25057876  0.33521872
   0.08315786  0.91688041  0.33485888
   0.25002945  0.75020940  0.33468618
   0.58302363  0.41674397  0.33468594
   0.74968225  0.25018178  0.33476001
   0.58292153  0.91688216  0.33514390
   0.74941142  0.75010231  0.33490364
Direct configuration=    11
   0.00438268  0.00265327  0.10823701
   0.35909092  0.00244567  0.09989823
   0.00451368  0.35709198  0.10035126
   0.65021669  0.64756438  0.10021611
   0.32832046  0.32592101  0.10071606
   0.68090674  0.00243017  0.10112879
   0.00452859  0.67890290  0.10080352
   0.08287874  0.41693284  0.33490420
   0.25007229  0.25103392  0.33519045
   0.08277001  0.91655338  0.33497719
   0.24991864  0.75020440  0.33479961
   0.58288913  0.41655723  0.33483137
   0.74954813  0.25010164  0.33482754
   0.58302620  0.91729198  0.33514310
   0.74956444  0.75041590  0.33495489
Direct configuration=    12
   0.00445911  0.00255861  0.10705307
   0.35909410  0.00240222  0.10003844
   0.00461826  0.35708715  0.10045962
   0.65021407  0.64761116  0.10033393
   0.32835082  0.32597697  0.10090417
   0.68092194  0.00231674  0.10130334
   0.00459950  0.67878086  0.10099079
   0.08299814  0.41705331  0.33493579
   0.24940057  0.24999279  0.33515483
   0.08312438  0.91725766  0.33502849
   0.24953494  0.75032787  0.33488566
   0.58309980  0.41719894  0.33491238
   0.74964319  0.25034158  0.33488205
   0.58300993  0.91697436  0.33510908
   0.74955857  0.75022046  0.33498770
Direct configuration=    13
   0.00444755  0.00257293  0.10723215
   0.35909362  0.00240879  0.10001723
   0.00460244  0.35708788  0.10044323
   0.65021446  0.64760408  0.10031611
   0.32834623  0.32596851  0.10087572
   0.68091964  0.00233389  0.10127693
   0.00458878  0.67879932  0.10096247
   0.08298008  0.41703508  0.33493102
   0.24950217  0.25015027  0.33516022
   0.08307078  0.91715113  0.33502073
   0.24959298  0.75030920  0.33487264
   0.58306794  0.41710187  0.33490012
   0.74962881  0.25030529  0.33487380
   0.58301239  0.91702240  0.33511423
   0.74955946  0.75025002  0.33498274
Direct configuration=    14
   0.00448809  0.00249869  0.10679866
   0.35921886  0.00239543  0.10009385
   0.00462214  0.35720815  0.10047042
   0.65006875  0.64752315  0.10035798
   0.32830663  0.32591166  0.10094247
   0.68103656  0.00233483  0.10130696
   0.00461153  0.67877263  0.10102288
   0.08298793  0.41698919  0.33494293
   0.24954336  0.25016897  0.33514002
   0.08303437  0.91715498  0.33503583
   0.24964554  0.75046015  0.33492730
   0.58291912  0.41708584  0.33493705
   0.74967427  0.25045283  0.33491261
   0.58284899  0.91681810  0.33508587
   0.74962119  0.75032606  0.33500451
Direct configuration=    15
   0.00451049  0.00245767  0.10655917
   0.35928804  0.00238806  0.10013617
   0.00463302  0.35727460  0.10048544
   0.64998825  0.64747844  0.10038111
   0.32828476  0.32588026  0.10097935
   0.68110115  0.00233535  0.10132354
   0.00462410  0.67875789  0.10105626
   0.08299227  0.41696384  0.33494952
   0.24956611  0.25017930  0.33512886
   0.08301426  0.91715711  0.33504418
   0.24967458  0.75054354  0.33495749
   0.58283690  0.41707699  0.33495746
   0.74969939  0.25053433  0.33493404
   0.58275872  0.91670523  0.33507020
   0.74965529  0.75036807  0.33501655
Direct configuration=    16
   0.00454449  0.00239622  0.10622607
   0.35944005  0.00237801  0.10021221
   0.00464036  0.35736754  0.10051050
   0.64984211  0.64737958  0.10042119
   0.32826565  0.32583289  0.10102024
   0.68118400  0.00235423  0.10132319
   0.00463732  0.67874800  0.10109016
   0.08298608  0.41700398  0.33496200
   0.24962989  0.25034545  0.33511578
   0.08295701  0.91708542  0.33505583
   0.24967774  0.75049646  0.33500103
   0.58280782  0.41702550  0.33498695
   0.74962085  0.25046632  0.33496684
   0.58278128  0.91683219  0.33505260
   0.74961268  0.75038888  0.33503474
Direct configuration=    17
   0.00459718  0.00230099  0.10570992
   0.35967558  0.00236244  0.10033005
   0.00465173  0.35751155  0.10054932
   0.64961566  0.64722640  0.10048330
   0.32823604  0.32575949  0.10108358
   0.68131238  0.00238348  0.10132264
   0.00465779  0.67873267  0.10114270
   0.08297650  0.41706617  0.33498134
   0.24972872  0.25060292  0.33509552
   0.08286830  0.91697433  0.33507388
   0.24968264  0.75042353  0.33506850
   0.58276276  0.41694572  0.33503266
   0.74949917  0.25036093  0.33501767
   0.58281624  0.91702892  0.33502533
   0.74954665  0.75042113  0.33506294
Direct configuration=    18
   0.00462553  0.00226548  0.10542965
   0.35979477  0.00235453  0.10041466
   0.00465459  0.35749340  0.10058696
   0.64955322  0.64716238  0.10053464
   0.32826698  0.32575106  0.10109572
   0.68131485  0.00240320  0.10129079
   0.00466323  0.67872911  0.10114803
   0.08289836  0.41710807  0.33500065
   0.24958307  0.25048441  0.33509702
   0.08292411  0.91708696  0.33508728
   0.24960353  0.75035479  0.33509106
   0.58290433  0.41705015  0.33505518
   0.74948602  0.25032837  0.33503838
   0.58290512  0.91716519  0.33503480
   0.74944962  0.75036358  0.33507451
Direct configuration=    19
   0.00463931  0.00224823  0.10529347
   0.35985269  0.00235068  0.10045577
   0.00465597  0.35748458  0.10060525
   0.64952288  0.64713127  0.10055959
   0.32828201  0.32574697  0.10110162
   0.68131605  0.00241278  0.10127531
   0.00466588  0.67872738  0.10115062
   0.08286038  0.41712842  0.33501003
   0.24951230  0.25042682  0.33509776
   0.08295122  0.91714169  0.33509378
   0.24956510  0.75032140  0.33510202
   0.58297311  0.41710089  0.33506612
   0.74947964  0.25031254  0.33504845
   0.58294831  0.91723140  0.33503940
   0.74940248  0.75033562  0.33508013
Direct configuration=    20
   0.00466638  0.00222934  0.10501080
   0.35990290  0.00234462  0.10055362
   0.00465849  0.35738659  0.10065893
   0.64955751  0.64711744  0.10062613
   0.32834645  0.32575899  0.10109382
   0.68128436  0.00242135  0.10121867
   0.00466946  0.67870397  0.10113586
   0.08278513  0.41708247  0.33503705
   0.24944789  0.25035091  0.33511603
   0.08293611  0.91719357  0.33511061
   0.24955916  0.75042152  0.33510851
   0.58295253  0.41713602  0.33508371
   0.74954821  0.25043280  0.33506129
   0.58287967  0.91713502  0.33507547
   0.74943308  0.75038605  0.33508882
Direct configuration=    21
   0.00470018  0.00220577  0.10465795
   0.35996557  0.00233706  0.10067577
   0.00466162  0.35726427  0.10072593
   0.64960073  0.64710018  0.10070919
   0.32842688  0.32577401  0.10108409
   0.68124480  0.00243204  0.10114795
   0.00467394  0.67867475  0.10111745
   0.08269120  0.41702510  0.33507077
   0.24936748  0.25025615  0.33513884
   0.08291725  0.91725834  0.33513162
   0.24955175  0.75054650  0.33511662
   0.58292683  0.41717987  0.33510567
   0.74963381  0.25058292  0.33507733
   0.58279399  0.91701470  0.33512049
   0.74947129  0.75044901  0.33509967
Direct configuration=    22
   0.00472453  0.00219129  0.10437333
   0.35993239  0.00233123  0.10076501
   0.00466807  0.35718993  0.10078209
   0.64969608  0.64712236  0.10077499
   0.32848279  0.32577273  0.10107265
   0.68125290  0.00241530  0.10109116
   0.00468463  0.67861043  0.10109994
   0.08278559  0.41708809  0.33509767
   0.24945394  0.25040682  0.33517174
   0.08284487  0.91719773  0.33514786
   0.24953916  0.75056444  0.33511804
   0.58279460  0.41714121  0.33511680
   0.74953624  0.25055007  0.33508948
   0.58274446  0.91702878  0.33516709
   0.74948707  0.75049025  0.33511150
Direct configuration=    23
   0.00474627  0.00217836  0.10411921
   0.35990277  0.00232602  0.10084469
   0.00467383  0.35712355  0.10083223
   0.64978121  0.64714217  0.10083373
   0.32853271  0.32577159  0.10106243
   0.68126013  0.00240036  0.10104046
   0.00469416  0.67855300  0.10108431
   0.08286987  0.41714433  0.33512168
   0.24953114  0.25054135  0.33520111
   0.08278026  0.91714361  0.33516236
   0.24952792  0.75058045  0.33511930
   0.58267654  0.41710670  0.33512673
   0.74944912  0.25052074  0.33510033
   0.58270024  0.91704135  0.33520869
   0.74950116  0.75052707  0.33512207
Direct configuration=    24
   0.00475883  0.00217130  0.10392258
   0.35984499  0.00231378  0.10087878
   0.00468938  0.35713902  0.10086292
   0.64985755  0.64715049  0.10086533
   0.32855126  0.32575141  0.10106219
   0.68130490  0.00235749  0.10101951
   0.00471595  0.67848943  0.10108176
   0.08286457  0.41722148  0.33513498
   0.24949004  0.25056130  0.33523648
   0.08280990  0.91719562  0.33517134
   0.24948500  0.75049717  0.33512408
   0.58273584  0.41715303  0.33512833
   0.74937452  0.25044408  0.33511339
   0.58275801  0.91718627  0.33523955
   0.74938660  0.75046880  0.33513811
Direct configuration=    25
   0.00476237  0.00216931  0.10386718
   0.35982871  0.00231033  0.10088838
   0.00469376  0.35714338  0.10087157
   0.64987905  0.64715283  0.10087423
   0.32855649  0.32574573  0.10106212
   0.68131752  0.00234542  0.10101361
   0.00472209  0.67847152  0.10108104
   0.08286307  0.41724321  0.33513873
   0.24947846  0.25056692  0.33524645
   0.08281825  0.91721028  0.33517387
   0.24947290  0.75047371  0.33512542
   0.58275255  0.41716608  0.33512878
   0.74935351  0.25042248  0.33511707
   0.58277429  0.91722709  0.33524824
   0.74935433  0.75045238  0.33514263
Direct configuration=    26
   0.00476918  0.00217159  0.10371505
   0.35981328  0.00228754  0.10088654
   0.00471908  0.35718643  0.10088582
   0.64991489  0.64712209  0.10088364
   0.32856456  0.32572519  0.10107056
   0.68134422  0.00229313  0.10101790
   0.00475186  0.67844342  0.10108970
   0.08274153  0.41719896  0.33514525
   0.24941995  0.25053463  0.33527964
   0.08281463  0.91724540  0.33518091
   0.24948273  0.75051190  0.33513515
   0.58279457  0.41718251  0.33512881
   0.74941215  0.25049479  0.33513160
   0.58275820  0.91722641  0.33526719
   0.74932651  0.75047667  0.33516158
Direct configuration=    27
   0.00477526  0.00217362  0.10357937
   0.35979952  0.00226721  0.10088490
   0.00474166  0.35722482  0.10089854
   0.64994684  0.64709468  0.10089202
   0.32857176  0.32570687  0.10107809
   0.68136803  0.00224649  0.10102174
   0.00477842  0.67841836  0.10109742
   0.08263313  0.41715950  0.33515106
   0.24936778  0.25050583  0.33530923
   0.08281140  0.91727673  0.33518719
   0.24949150  0.75054596  0.33514382
   0.58283204  0.41719716  0.33512884
   0.74946444  0.25055928  0.33514455
   0.58274385  0.91722581  0.33528409
   0.74930170  0.75049833  0.33517848
Direct configuration=    28
   0.00478248  0.00218256  0.10343295
   0.35983512  0.00223513  0.10086936
   0.00477367  0.35724499  0.10090830
   0.64995515  0.64703456  0.10089420
   0.32858730  0.32569281  0.10108819
   0.68136068  0.00219883  0.10103595
   0.00481133  0.67842722  0.10110899
   0.08264712  0.41716645  0.33515889
   0.24937406  0.25053156  0.33533745
   0.08277016  0.91726686  0.33519822
   0.24947641  0.75059322  0.33515648
   0.58276862  0.41719780  0.33513426
   0.74944876  0.25059116  0.33515911
   0.58270116  0.91719450  0.33529923
   0.74933533  0.75054300  0.33519774
Direct configuration=    29
   0.00479634  0.00219974  0.10315181
   0.35990348  0.00217353  0.10083954
   0.00483513  0.35728373  0.10092706
   0.64997110  0.64691912  0.10089839
   0.32861713  0.32566582  0.10110757
   0.68134657  0.00210732  0.10106326
   0.00487452  0.67844424  0.10113121
   0.08267400  0.41717981  0.33517393
   0.24938612  0.25058097  0.33539164
   0.08269097  0.91724790  0.33521939
   0.24944743  0.75068397  0.33518077
   0.58264683  0.41719905  0.33514468
   0.74941863  0.25065236  0.33518706
   0.58261918  0.91713437  0.33532830
   0.74939989  0.75062876  0.33523473
Direct configuration=    30
   0.00480873  0.00220484  0.10298947
   0.35995952  0.00213435  0.10082132
   0.00487063  0.35727568  0.10093976
   0.64997324  0.64685443  0.10090181
   0.32864134  0.32564831  0.10111250
   0.68133323  0.00207111  0.10107880
   0.00490794  0.67846388  0.10113859
   0.08273586  0.41726427  0.33518866
   0.24936860  0.25059838  0.33541276
   0.08269607  0.91728665  0.33523925
   0.24939110  0.75064655  0.33519634
   0.58262736  0.41724715  0.33516139
   0.74933088  0.25059885  0.33520127
   0.58263201  0.91720444  0.33534413
   0.74935084  0.75060177  0.33525329
Direct configuration=    31
   0.00481694  0.00220823  0.10288184
   0.35999666  0.00210838  0.10080925
   0.00489417  0.35727035  0.10094818
   0.64997466  0.64681155  0.10090407
   0.32865738  0.32563671  0.10111577
   0.68132438  0.00204710  0.10108910
   0.00493009  0.67847690  0.10114347
   0.08277687  0.41732027  0.33519842
   0.24935698  0.25060992  0.33542676
   0.08269946  0.91731234  0.33525241
   0.24935375  0.75062174  0.33520667
   0.58261446  0.41727905  0.33517246
   0.74927270  0.25056338  0.33521068
   0.58264051  0.91725090  0.33535463
   0.74931832  0.75058387  0.33526560
Direct configuration=    32
   0.00483138  0.00219586  0.10278154
   0.36001769  0.00208592  0.10080382
   0.00491141  0.35724505  0.10096081
   0.64998310  0.64679652  0.10091131
   0.32867625  0.32561718  0.10110749
   0.68133895  0.00204571  0.10109282
   0.00494427  0.67847049  0.10113727
   0.08270849  0.41731799  0.33521467
   0.24933254  0.25062693  0.33542818
   0.08270215  0.91733550  0.33527267
   0.24935809  0.75061858  0.33521840
   0.58264164  0.41728858  0.33519472
   0.74927859  0.25058085  0.33521795
   0.58264020  0.91729331  0.33536375
   0.74926258  0.75058219  0.33527393
Direct configuration=    33
   0.00485603  0.00217476  0.10261029
   0.36005358  0.00204756  0.10079455
   0.00494085  0.35720187  0.10098238
   0.64999750  0.64677087  0.10092367
   0.32870847  0.32558385  0.10109335
   0.68136383  0.00204335  0.10109916
   0.00496848  0.67845954  0.10112667
   0.08259176  0.41731410  0.33524242
   0.24929080  0.25065598  0.33543061
   0.08270675  0.91737505  0.33530726
   0.24936551  0.75061319  0.33523842
   0.58268804  0.41730486  0.33523272
   0.74928864  0.25061068  0.33523035
   0.58263966  0.91736571  0.33537932
   0.74916742  0.75057930  0.33528815
Direct configuration=    34
   0.00487562  0.00214762  0.10251220
   0.36005770  0.00203019  0.10079582
   0.00495413  0.35717817  0.10099741
   0.65001365  0.64677470  0.10093468
   0.32873002  0.32556161  0.10107694
   0.68139779  0.00204929  0.10109687
   0.00497855  0.67842826  0.10111243
   0.08255769  0.41730157  0.33526002
   0.24928519  0.25068010  0.33542946
   0.08267144  0.91736829  0.33532829
   0.24936495  0.75065578  0.33525342
   0.58265740  0.41729988  0.33525778
   0.74929539  0.25065266  0.33523971
   0.58260646  0.91735062  0.33538686
   0.74918135  0.75062191  0.33529745
Direct configuration=    35
   0.00492044  0.00208553  0.10228776
   0.36006712  0.00199046  0.10079872
   0.00498451  0.35712395  0.10103181
   0.65005059  0.64678347  0.10095987
   0.32877931  0.32551073  0.10103939
   0.68147551  0.00206288  0.10109163
   0.00500161  0.67835670  0.10107987
   0.08247973  0.41727290  0.33530027
   0.24927234  0.25073528  0.33542683
   0.08259065  0.91735282  0.33537640
   0.24936367  0.75075324  0.33528775
   0.58258729  0.41728849  0.33531510
   0.74931085  0.25074871  0.33526111
   0.58253050  0.91731608  0.33540411
   0.74921320  0.75071941  0.33531870
Direct configuration=    36
   0.00494229  0.00205308  0.10219278
   0.36007288  0.00197715  0.10080398
   0.00499700  0.35710221  0.10104594
   0.65006732  0.64678841  0.10097151
   0.32880241  0.32549262  0.10102019
   0.68150906  0.00206552  0.10108607
   0.00501103  0.67831894  0.10106268
   0.08250977  0.41731092  0.33531546
   0.24925319  0.25073324  0.33542954
   0.08257607  0.91737428  0.33539386
   0.24932566  0.75076343  0.33530536
   0.58255673  0.41731944  0.33533659
   0.74927172  0.25074560  0.33527397
   0.58251823  0.91732652  0.33541047
   0.74921398  0.75072931  0.33533092
Direct configuration=    37
   0.00500154  0.00196509  0.10193526
   0.36008850  0.00194106  0.10081826
   0.00503087  0.35704325  0.10108425
   0.65011271  0.64680181  0.10100308
   0.32886504  0.32544353  0.10096814
   0.68160005  0.00207269  0.10107100
   0.00503656  0.67821654  0.10101607
   0.08259120  0.41741400  0.33535666
   0.24920126  0.25072768  0.33543687
   0.08253652  0.91743248  0.33544123
   0.24922256  0.75079108  0.33535311
   0.58247386  0.41740336  0.33539485
   0.74916563  0.25073716  0.33530882
   0.58248496  0.91735480  0.33542771
   0.74921607  0.75075614  0.33536405
Direct configuration=    38
   0.00502022  0.00194280  0.10186578
   0.36011776  0.00193553  0.10082598
   0.00504318  0.35702225  0.10108958
   0.65011959  0.64678831  0.10100933
   0.32888151  0.32543917  0.10095403
   0.68160711  0.00205928  0.10106414
   0.00504734  0.67820131  0.10100293
   0.08257015  0.41743811  0.33536277
   0.24918270  0.25073846  0.33545050
   0.08254706  0.91746337  0.33544640
   0.24921053  0.75077819  0.33536938
   0.58248451  0.41742557  0.33540132
   0.74914720  0.25073393  0.33532481
   0.58248639  0.91739436  0.33543318
   0.74916206  0.75074001  0.33537919
Direct configuration=    39
   0.00505670  0.00189928  0.10173015
   0.36017490  0.00192473  0.10084107
   0.00506721  0.35698125  0.10109999
   0.65013304  0.64676197  0.10102153
   0.32891368  0.32543066  0.10092648
   0.68162089  0.00203311  0.10105076
   0.00506838  0.67817159  0.10097729
   0.08252905  0.41748518  0.33537472
   0.24914646  0.25075950  0.33547711
   0.08256765  0.91752368  0.33545651
   0.24918702  0.75075305  0.33540114
   0.58250532  0.41746894  0.33541396
   0.74911124  0.25072761  0.33535603
   0.58248917  0.91747160  0.33544387
   0.74905661  0.75070852  0.33540873
Direct configuration=    40
   0.00507775  0.00187994  0.10165723
   0.36021520  0.00192053  0.10085030
   0.00508241  0.35695954  0.10110045
   0.65013952  0.64673751  0.10102486
   0.32892545  0.32542527  0.10091393
   0.68162529  0.00200838  0.10104286
   0.00508408  0.67816373  0.10096527
   0.08248157  0.41747490  0.33538028
   0.24914285  0.25079511  0.33549727
   0.08254254  0.91752080  0.33545927
   0.24919367  0.75077905  0.33541724
   0.58249142  0.41746057  0.33541660
   0.74911727  0.25076036  0.33537437
   0.58246573  0.91747875  0.33545341
   0.74904259  0.75073622  0.33542599
Direct configuration=    41
   0.00512080  0.00184036  0.10150804
   0.36029765  0.00191193  0.10086918
   0.00511353  0.35691513  0.10110137
   0.65015279  0.64668747  0.10103169
   0.32894952  0.32541424  0.10088825
   0.68163428  0.00195779  0.10102670
   0.00511621  0.67814766  0.10094068
   0.08238442  0.41745384  0.33539167
   0.24913545  0.25086798  0.33553854
   0.08249116  0.91751491  0.33546491
   0.24920727  0.75083226  0.33545019
   0.58246298  0.41744345  0.33542201
   0.74912961  0.25082738  0.33541190
   0.58241777  0.91749338  0.33547292
   0.74901389  0.75079288  0.33546130
Direct configuration=    42
   0.00514512  0.00182388  0.10142540
   0.36033283  0.00190506  0.10087832
   0.00513236  0.35690035  0.10109431
   0.65016759  0.64665700  0.10102981
   0.32895379  0.32539675  0.10087918
   0.68165388  0.00192192  0.10101814
   0.00514039  0.67813726  0.10093149
   0.08239640  0.41747393  0.33540273
   0.24911401  0.25087058  0.33556166
   0.08245404  0.91752195  0.33547139
   0.24917397  0.75086483  0.33546191
   0.58242461  0.41746263  0.33542665
   0.74910377  0.25084420  0.33542868
   0.58239478  0.91749066  0.33549297
   0.74903979  0.75082965  0.33547667
Direct configuration=    43
   0.00519224  0.00179194  0.10126528
   0.36040097  0.00189176  0.10089605
   0.00516885  0.35687171  0.10108064
   0.65019627  0.64659794  0.10102616
   0.32896206  0.32536287  0.10086161
   0.68169185  0.00185243  0.10100158
   0.00518723  0.67811711  0.10091368
   0.08241962  0.41751287  0.33542417
   0.24907249  0.25087563  0.33560647
   0.08238213  0.91753559  0.33548396
   0.24910944  0.75092795  0.33548461
   0.58235027  0.41749980  0.33543565
   0.74905370  0.25087679  0.33546120
   0.58235024  0.91748540  0.33553183
   0.74908997  0.75090088  0.33550645
Direct configuration=    44
   0.00521955  0.00177325  0.10116484
   0.36042351  0.00187404  0.10090366
   0.00519290  0.35686155  0.10106611
   0.65022655  0.64656584  0.10101861
   0.32897369  0.32533404  0.10085538
   0.68172670  0.00181076  0.10099099
   0.00522089  0.67809339  0.10090663
   0.08242358  0.41756542  0.33544569
   0.24903288  0.25086695  0.33562857
   0.08238781  0.91759025  0.33549991
   0.24906490  0.75092515  0.33549185
   0.58234059  0.41755367  0.33544898
   0.74901150  0.25087375  0.33547507
   0.58234270  0.91752385  0.33556470
   0.74903960  0.75088876  0.33551836
Direct configuration=    45
   0.00524919  0.00175295  0.10105581
   0.36044797  0.00185482  0.10091193
   0.00521900  0.35685053  0.10105035
   0.65025943  0.64653099  0.10101041
   0.32898632  0.32530275  0.10084861
   0.68176452  0.00176553  0.10097950
   0.00525742  0.67806765  0.10089898
   0.08242787  0.41762247  0.33546905
   0.24898988  0.25085753  0.33565255
   0.08239398  0.91764958  0.33551724
   0.24901656  0.75092211  0.33549970
   0.58233008  0.41761213  0.33546344
   0.74896568  0.25087044  0.33549012
   0.58233451  0.91756559  0.33560039
   0.74898492  0.75087561  0.33553128
Direct configuration=    46
   0.00527477  0.00173238  0.10095016
   0.36046267  0.00182358  0.10091633
   0.00524611  0.35683392  0.10103269
   0.65030066  0.64650157  0.10099961
   0.32901666  0.32527273  0.10084461
   0.68179637  0.00173005  0.10096684
   0.00529389  0.67803627  0.10089361
   0.08235994  0.41762783  0.33549659
   0.24897959  0.25091240  0.33566983
   0.08237623  0.91766847  0.33554015
   0.24901875  0.75094516  0.33550563
   0.58231436  0.41761775  0.33548440
   0.74896004  0.25090993  0.33550163
   0.58230240  0.91759470  0.33563677
   0.74892489  0.75089392  0.33554049
Direct configuration=    47
   0.00530962  0.00170436  0.10080621
   0.36048271  0.00178102  0.10092231
   0.00528306  0.35681130  0.10100863
   0.65035685  0.64646149  0.10098490
   0.32905800  0.32523182  0.10083916
   0.68183976  0.00168172  0.10094960
   0.00534358  0.67799352  0.10088629
   0.08226738  0.41763514  0.33553413
   0.24896557  0.25098717  0.33569337
   0.08235204  0.91769422  0.33557137
   0.24902172  0.75097656  0.33551370
   0.58229295  0.41762540  0.33551296
   0.74895235  0.25096372  0.33551732
   0.58225865  0.91763437  0.33568634
   0.74884309  0.75091887  0.33555304
Direct configuration=    48
   0.00532488  0.00168880  0.10073565
   0.36049815  0.00174412  0.10092111
   0.00530648  0.35677697  0.10099899
   0.65038966  0.64644326  0.10097782
   0.32910227  0.32521422  0.10083556
   0.68184564  0.00167184  0.10093646
   0.00536590  0.67797604  0.10088136
   0.08225187  0.41763765  0.33555120
   0.24894967  0.25101811  0.33570220
   0.08229254  0.91768009  0.33558800
   0.24900156  0.75101580  0.33552591
   0.58225591  0.41762274  0.33553085
   0.74893168  0.25099008  0.33552922
   0.58223257  0.91764289  0.33570154
   0.74887856  0.75097807  0.33556346
Direct configuration=    49
   0.00533509  0.00167840  0.10068845
   0.36050848  0.00171943  0.10092032
   0.00532215  0.35675401  0.10099254
   0.65041162  0.64643106  0.10097308
   0.32913189  0.32520244  0.10083315
   0.68184957  0.00166523  0.10092767
   0.00538083  0.67796434  0.10087806
   0.08224149  0.41763932  0.33556262
   0.24893904  0.25103881  0.33570810
   0.08225273  0.91767064  0.33559913
   0.24898807  0.75104205  0.33553407
   0.58223113  0.41762096  0.33554283
   0.74891784  0.25100772  0.33553718
   0.58221512  0.91764859  0.33571171
   0.74890229  0.75101767  0.33557042
Direct configuration=    50
   0.00535155  0.00166133  0.10062169
   0.36052301  0.00167610  0.10091595
   0.00534962  0.35671341  0.10098663
   0.65044522  0.64641507  0.10096755
   0.32918045  0.32517953  0.10082715
   0.68185932  0.00166239  0.10091032
   0.00540094  0.67794633  0.10087059
   0.08225045  0.41767836  0.33557610
   0.24890094  0.25102934  0.33571657
   0.08223407  0.91770350  0.33561447
   0.24894304  0.75105513  0.33555416
   0.58221015  0.41766278  0.33556120