  16  16   0  16
  0.2041944E+02  0.5015000E-09  0.5015000E-09  0.1500000E-08  0.5000000E-15
  1.000000000000000E-004
  CAR 
 Lattice                                 
      9.80989007    -21.38176876  301     -0.92105012      1.00000000
    -21.382  0.0000E+00  0.0000E+00  0.0000E+00  0.0000E+00
    -21.278  0.0000E+00  0.0000E+00  0.0000E+00  0.0000E+00
    -21.174  0.0000E+00  0.0000E+00  0.0000E+00  0.0000E+00
    -21.070  0.0000E+00  0.0000E+00  0.0000E+00  0.0000E+00
    -20.966  0.0000E+00  0.0000E+00  0.0000E+00  0.0000E+00
    -20.862  0.0000E+00  0.0000E+00  0.0000E+00  0.0000E+00
    -20.758  0.0000E+00  0.0000E+00  0.0000E+00  0.0000E+00
    -20.654  0.0000E+00  0.0000E+00  0.0000E+00  0.0000E+00
    -20.550  0.2897E-19  0.2897E-19  0.3012E-20  0.3012E-20
    -20.446  0.2667E-14  0.2667E-14  0.2773E-15  0.2773E-15
    -20.342  0.2868E-10  0.2868E-10  0.2982E-11  0.2982E-11
    -20.238  0.4173E-07  0.4173E-07  0.4341E-08  0.4341E-08
    -20.134  0.8899E-05  0.8899E-05  0.9296E-06  0.9296E-06
    -20.030  0.3073E-03  0.3073E-03  0.3288E-04  0.3288E-04
    -19.926  0.2104E-02  0.2104E-02  0.2517E-03  0.2517E-03
    -19.822  0.4367E-02  0.4367E-02  0.7057E-03  0.7057E-03
    -19.718  0.4847E-02  0.4847E-02  0.1210E-02  0.1210E-02
    -19.614  0.5133E-02  0.5133E-02  0.1743E-02  0.1743E-02
    -19.510  0.4568E-02  0.4568E-02  0.2218E-02  0.2218E-02
    -19.406  0.5643E-02  0.5643E-02  0.2805E-02  0.2805E-02
    -19.302  0.4248E-02  0.4248E-02  0.3247E-02  0.3247E-02
    -19.198  0.5113E-02  0.5113E-02  0.3778E-02  0.3778E-02
    -19.094  0.5950E-02  0.5950E-02  0.4397E-02  0.4397E-02
    -18.990  0.3636E-02  0.3636E-02  0.4775E-02  0.4775E-02
    -18.886  0.5114E-02  0.5114E-02  0.5307E-02  0.5307E-02
    -18.782  0.6360E-02  0.6360E-02  0.5968E-02  0.5968E-02
    -18.678  0.4565E-02  0.4565E-02  0.6442E-02  0.6442E-02
    -18.575  0.3202E-02  0.3202E-02  0.6775E-02  0.6775E-02
    -18.471  0.6488E-02  0.6488E-02  0.7450E-02  0.7450E-02
    -18.367  0.6191E-02  0.6191E-02  0.8094E-02  0.8094E-02
    -18.263  0.4251E-02  0.4251E-02  0.8536E-02  0.8536E-02
    -18.159  0.3406E-02  0.3406E-02  0.8890E-02  0.8890E-02
    -18.055  0.6428E-02  0.6428E-02  0.9558E-02  0.9558E-02
    -17.951  0.1183E-01  0.1183E-01  0.1079E-01  0.1079E-01
    -17.847  0.1137E-01  0.1137E-01  0.1197E-01  0.1197E-01
    -17.743  0.1078E-01  0.1078E-01  0.1309E-01  0.1309E-01
    -17.639  0.1264E-01  0.1264E-01  0.1441E-01  0.1441E-01
    -17.535  0.1578E-01  0.1578E-01  0.1605E-01  0.1605E-01
    -17.431  0.2008E-01  0.2008E-01  0.1813E-01  0.1813E-01
    -17.327  0.2039E-01  0.2039E-01  0.2025E-01  0.2025E-01
    -17.223  0.1106E-01  0.1106E-01  0.2140E-01  0.2140E-01
    -17.119  0.4850E-02  0.4850E-02  0.2191E-01  0.2191E-01
    -17.015  0.6962E-02  0.6962E-02  0.2263E-01  0.2263E-01
    -16.911  0.6903E-02  0.6903E-02  0.2335E-01  0.2335E-01
    -16.807  0.5711E-02  0.5711E-02  0.2394E-01  0.2394E-01
    -16.703  0.4692E-02  0.4692E-02  0.2443E-01  0.2443E-01
    -16.599  0.3144E-02  0.3144E-02  0.2476E-01  0.2476E-01
    -16.495  0.3184E-02  0.3184E-02  0.2509E-01  0.2509E-01
    -16.391  0.8770E-02  0.8770E-02  0.2600E-01  0.2600E-01
    -16.287  0.7141E-02  0.7141E-02  0.2674E-01  0.2674E-01
    -16.183  0.4811E-02  0.4811E-02  0.2724E-01  0.2724E-01
    -16.079  0.4287E-02  0.4287E-02  0.2769E-01  0.2769E-01
    -15.975  0.4329E-02  0.4329E-02  0.2814E-01  0.2814E-01
    -15.871  0.3433E-02  0.3433E-02  0.2850E-01  0.2850E-01
    -15.767  0.7224E-02  0.7224E-02  0.2925E-01  0.2925E-01
    -15.663  0.1260E-01  0.1260E-01  0.3056E-01  0.3056E-01
    -15.559  0.1349E-01  0.1349E-01  0.3196E-01  0.3196E-01
    -15.455  0.1550E-01  0.1550E-01  0.3357E-01  0.3357E-01
    -15.351  0.1500E-01  0.1500E-01  0.3513E-01  0.3513E-01
    -15.247  0.1218E-01  0.1218E-01  0.3640E-01  0.3640E-01
    -15.143  0.1257E-01  0.1257E-01  0.3771E-01  0.3771E-01
    -15.039  0.1731E-01  0.1731E-01  0.3951E-01  0.3951E-01
    -14.935  0.1631E-01  0.1631E-01  0.4120E-01  0.4120E-01
    -14.832  0.1368E-01  0.1368E-01  0.4262E-01  0.4262E-01
    -14.728  0.1149E-01  0.1149E-01  0.4382E-01  0.4382E-01
    -14.624  0.9037E-02  0.9037E-02  0.4476E-01  0.4476E-01
    -14.520  0.1285E-01  0.1285E-01  0.4609E-01  0.4609E-01
    -14.416  0.1947E-01  0.1947E-01  0.4812E-01  0.4812E-01
    -14.312  0.1736E-01  0.1736E-01  0.4992E-01  0.4992E-01
    -14.208  0.1078E-01  0.1078E-01  0.5104E-01  0.5104E-01
    -14.104  0.8244E-02  0.8244E-02  0.5190E-01  0.5190E-01
    -14.000  0.7280E-02  0.7280E-02  0.5266E-01  0.5266E-01
    -13.896  0.8332E-02  0.8332E-02  0.5352E-01  0.5352E-01
    -13.792  0.7685E-02  0.7685E-02  0.5432E-01  0.5432E-01
    -13.688  0.4921E-02  0.4921E-02  0.5483E-01  0.5483E-01
    -13.584  0.4681E-02  0.4681E-02  0.5532E-01  0.5532E-01
    -13.480  0.4314E-02  0.4314E-02  0.5577E-01  0.5577E-01
    -13.376  0.5467E-02  0.5467E-02  0.5634E-01  0.5634E-01
    -13.272  0.5825E-02  0.5825E-02  0.5694E-01  0.5694E-01
    -13.168  0.5966E-02  0.5966E-02  0.5756E-01  0.5756E-01
    -13.064  0.7753E-02  0.7753E-02  0.5837E-01  0.5837E-01
    -12.960  0.6737E-02  0.6737E-02  0.5907E-01  0.5907E-01
    -12.856  0.8512E-02  0.8512E-02  0.5996E-01  0.5996E-01
    -12.752  0.6947E-02  0.6947E-02  0.6068E-01  0.6068E-01
    -12.648  0.5767E-02  0.5767E-02  0.6128E-01  0.6128E-01
    -12.544  0.6473E-02  0.6473E-02  0.6195E-01  0.6195E-01
    -12.440  0.3184E-02  0.3184E-02  0.6228E-01  0.6228E-01
    -12.336  0.7493E-02  0.7493E-02  0.6306E-01  0.6306E-01
    -12.232  0.8266E-02  0.8266E-02  0.6392E-01  0.6392E-01
    -12.128  0.5969E-02  0.5969E-02  0.6454E-01  0.6454E-01
    -12.024  0.9699E-02  0.9699E-02  0.6555E-01  0.6555E-01
    -11.920  0.1501E-01  0.1501E-01  0.6711E-01  0.6711E-01
    -11.816  0.1635E-01  0.1635E-01  0.6881E-01  0.6881E-01
    -11.712  0.1459E-01  0.1459E-01  0.7033E-01  0.7033E-01
    -11.608  0.1433E-01  0.1433E-01  0.7182E-01  0.7182E-01
    -11.504  0.1662E-01  0.1662E-01  0.7354E-01  0.7354E-01
    -11.400  0.1105E-01  0.1105E-01  0.7469E-01  0.7469E-01
    -11.296  0.8036E-02  0.8036E-02  0.7553E-01  0.7553E-01
    -11.192  0.1035E-01  0.1035E-01  0.7661E-01  0.7661E-01
    -11.089  0.1269E-01  0.1269E-01  0.7792E-01  0.7792E-01
    -10.985  0.9174E-02  0.9174E-02  0.7888E-01  0.7888E-01
    -10.881  0.4949E-02  0.4949E-02  0.7939E-01  0.7939E-01
    -10.777  0.1138E-01  0.1138E-01  0.8058E-01  0.8058E-01
    -10.673  0.1736E-01  0.1736E-01  0.8238E-01  0.8238E-01
    -10.569  0.1317E-01  0.1317E-01  0.8375E-01  0.8375E-01
    -10.465  0.6299E-02  0.6299E-02  0.8441E-01  0.8441E-01
    -10.361  0.7362E-02  0.7362E-02  0.8517E-01  0.8517E-01
    -10.257  0.1711E-01  0.1711E-01  0.8695E-01  0.8695E-01
    -10.153  0.1925E-01  0.1925E-01  0.8895E-01  0.8895E-01
    -10.049  0.1048E-01  0.1048E-01  0.9004E-01  0.9004E-01
     -9.945  0.8727E-02  0.8727E-02  0.9095E-01  0.9095E-01
     -9.841  0.7242E-02  0.7242E-02  0.9170E-01  0.9170E-01
     -9.737  0.1137E-01  0.1137E-01  0.9288E-01  0.9288E-01
     -9.633  0.1147E-01  0.1147E-01  0.9408E-01  0.9408E-01
     -9.529  0.1144E-01  0.1144E-01  0.9527E-01  0.9527E-01
     -9.425  0.9164E-02  0.9164E-02  0.9622E-01  0.9622E-01
     -9.321  0.8288E-02  0.8288E-02  0.9708E-01  0.9708E-01
     -9.217  0.1078E-01  0.1078E-01  0.9820E-01  0.9820E-01
     -9.113  0.4951E-02  0.4951E-02  0.9872E-01  0.9872E-01
     -9.009  0.3070E-02  0.3070E-02  0.9904E-01  0.9904E-01
     -8.905  0.1084E-01  0.1084E-01  0.1002E+00  0.1002E+00
     -8.801  0.1733E-01  0.1733E-01  0.1020E+00  0.1020E+00
     -8.697  0.1820E-01  0.1820E-01  0.1039E+00  0.1039E+00
     -8.593  0.9973E-02  0.9973E-02  0.1049E+00  0.1049E+00
     -8.489  0.8356E-02  0.8356E-02  0.1058E+00  0.1058E+00
     -8.385  0.9351E-02  0.9351E-02  0.1067E+00  0.1067E+00
     -8.281  0.1441E-01  0.1441E-01  0.1082E+00  0.1082E+00
     -8.177  0.2438E-01  0.2438E-01  0.1108E+00  0.1108E+00
     -8.073  0.2416E-01  0.2416E-01  0.1133E+00  0.1133E+00
     -7.969  0.1771E-01  0.1771E-01  0.1151E+00  0.1151E+00
     -7.865  0.1358E-01  0.1358E-01  0.1165E+00  0.1165E+00
     -7.761  0.1271E-01  0.1271E-01  0.1179E+00  0.1179E+00
     -7.657  0.2238E-01  0.2238E-01  0.1202E+00  0.1202E+00
     -7.553  0.2724E-01  0.2724E-01  0.1230E+00  0.1230E+00
     -7.449  0.2174E-01  0.2174E-01  0.1253E+00  0.1253E+00
     -7.346  0.2147E-01  0.2147E-01  0.1275E+00  0.1275E+00
     -7.242  0.2354E-01  0.2354E-01  0.1300E+00  0.1300E+00
     -7.138  0.2262E-01  0.2262E-01  0.1323E+00  0.1323E+00
     -7.034  0.2614E-01  0.2614E-01  0.1350E+00  0.1350E+00
     -6.930  0.2600E-01  0.2600E-01  0.1377E+00  0.1377E+00
     -6.826  0.1778E-01  0.1778E-01  0.1396E+00  0.1396E+00
     -6.722  0.2244E-01  0.2244E-01  0.1419E+00  0.1419E+00
     -6.618  0.2759E-01  0.2759E-01  0.1448E+00  0.1448E+00
     -6.514  0.2443E-01  0.2443E-01  0.1473E+00  0.1473E+00
     -6.410  0.2409E-01  0.2409E-01  0.1498E+00  0.1498E+00
     -6.306  0.2229E-01  0.2229E-01  0.1521E+00  0.1521E+00
     -6.202  0.2454E-01  0.2454E-01  0.1547E+00  0.1547E+00
     -6.098  0.2052E-01  0.2052E-01  0.1568E+00  0.1568E+00
     -5.994  0.1782E-01  0.1782E-01  0.1587E+00  0.1587E+00
     -5.890  0.1876E-01  0.1876E-01  0.1606E+00  0.1606E+00
     -5.786  0.2358E-01  0.2358E-01  0.1631E+00  0.1631E+00
     -5.682  0.2135E-01  0.2135E-01  0.1653E+00  0.1653E+00
     -5.578  0.2067E-01  0.2067E-01  0.1674E+00  0.1674E+00
     -5.474  0.2216E-01  0.2216E-01  0.1698E+00  0.1698E+00
     -5.370  0.2472E-01  0.2472E-01  0.1723E+00  0.1723E+00
     -5.266  0.2789E-01  0.2789E-01  0.1752E+00  0.1752E+00
     -5.162  0.2091E-01  0.2091E-01  0.1774E+00  0.1774E+00
     -5.058  0.1001E-01  0.1001E-01  0.1784E+00  0.1784E+00
     -4.954  0.1313E-01  0.1313E-01  0.1798E+00  0.1798E+00
     -4.850  0.1923E-01  0.1923E-01  0.1818E+00  0.1818E+00
     -4.746  0.1945E-01  0.1945E-01  0.1838E+00  0.1838E+00
     -4.642  0.1583E-01  0.1583E-01  0.1855E+00  0.1855E+00
     -4.538  0.1567E-01  0.1567E-01  0.1871E+00  0.1871E+00
     -4.434  0.1815E-01  0.1815E-01  0.1890E+00  0.1890E+00
     -4.330  0.2158E-01  0.2158E-01  0.1912E+00  0.1912E+00
     -4.226  0.2288E-01  0.2288E-01  0.1936E+00  0.1936E+00
     -4.122  0.3388E-01  0.3388E-01  0.1971E+00  0.1971E+00
     -4.018  0.3901E-01  0.3901E-01  0.2012E+00  0.2012E+00
     -3.914  0.3135E-01  0.3135E-01  0.2044E+00  0.2044E+00
     -3.810  0.2068E-01  0.2068E-01  0.2066E+00  0.2066E+00
     -3.706  0.1478E-01  0.1478E-01  0.2081E+00  0.2081E+00
     -3.603  0.1596E-01  0.1596E-01  0.2098E+00  0.2098E+00
     -3.499  0.1544E-01  0.1544E-01  0.2114E+00  0.2114E+00
     -3.395  0.2044E-01  0.2044E-01  0.2135E+00  0.2135E+00
     -3.291  0.1873E-01  0.1873E-01  0.2155E+00  0.2155E+00
     -3.187  0.1525E-01  0.1525E-01  0.2171E+00  0.2171E+00
     -3.083  0.1500E-01  0.1500E-01  0.2186E+00  0.2186E+00
     -2.979  0.1582E-01  0.1582E-01  0.2203E+00  0.2203E+00
     -2.875  0.2582E-01  0.2582E-01  0.2229E+00  0.2229E+00
     -2.771  0.2014E-01  0.2014E-01  0.2250E+00  0.2250E+00
     -2.667  0.1165E-01  0.1165E-01  0.2263E+00  0.2263E+00
     -2.563  0.1754E-01  0.1754E-01  0.2281E+00  0.2281E+00
     -2.459  0.2252E-01  0.2252E-01  0.2304E+00  0.2304E+00
     -2.355  0.2037E-01  0.2037E-01  0.2325E+00  0.2325E+00
     -2.251  0.1834E-01  0.1834E-01  0.2344E+00  0.2344E+00
     -2.147  0.1859E-01  0.1859E-01  0.2364E+00  0.2364E+00
     -2.043  0.1346E-01  0.1346E-01  0.2378E+00  0.2378E+00
     -1.939  0.3398E-02  0.3398E-02  0.2381E+00  0.2381E+00
     -1.835  0.4810E-02  0.4810E-02  0.2386E+00  0.2386E+00
     -1.731  0.7739E-02  0.7739E-02  0.2394E+00  0.2394E+00
     -1.627  0.5087E-02  0.5087E-02  0.2400E+00  0.2400E+00
     -1.523  0.6091E-02  0.6091E-02  0.2406E+00  0.2406E+00
     -1.419  0.6827E-02  0.6827E-02  0.2413E+00  0.2413E+00
     -1.315  0.4391E-02  0.4391E-02  0.2418E+00  0.2418E+00
     -1.211  0.2433E-02  0.2433E-02  0.2420E+00  0.2420E+00
     -1.107  0.5913E-03  0.5913E-03  0.2421E+00  0.2421E+00
     -1.003  0.1647E-03  0.1647E-03  0.2421E+00  0.2421E+00
     -0.899  0.1445E-02  0.1445E-02  0.2422E+00  0.2422E+00
     -0.795  0.3731E-02  0.3731E-02  0.2426E+00  0.2426E+00
     -0.691  0.3890E-02  0.3890E-02  0.2430E+00  0.2430E+00
     -0.587  0.7213E-02  0.7214E-02  0.2438E+00  0.2438E+00
     -0.483  0.1086E-01  0.1086E-01  0.2449E+00  0.2449E+00
     -0.379  0.8702E-02  0.8702E-02  0.2458E+00  0.2458E+00
     -0.275  0.1063E-01  0.1063E-01  0.2469E+00  0.2469E+00
     -0.171  0.1254E-01  0.1254E-01  0.2482E+00  0.2482E+00
     -0.067  0.9730E-02  0.9730E-02  0.2492E+00  0.2492E+00
      0.037  0.4711E-02  0.4711E-02  0.2497E+00  0.2497E+00
      0.140  0.1961E-02  0.1961E-02  0.2499E+00  0.2499E+00
      0.244  0.8966E-03  0.8966E-03  0.2500E+00  0.2500E+00
      0.348  0.3048E-02  0.3048E-02  0.2503E+00  0.2503E+00
      0.452  0.8364E-02  0.8364E-02  0.2512E+00  0.2512E+00
      0.556  0.9969E-02  0.9969E-02  0.2522E+00  0.2522E+00
      0.660  0.5237E-02  0.5237E-02  0.2528E+00  0.2528E+00
      0.764  0.4179E-02  0.4179E-02  0.2532E+00  0.2532E+00
      0.868  0.9370E-02  0.9370E-02  0.2542E+00  0.2542E+00
      0.972  0.1184E-01  0.1184E-01  0.2554E+00  0.2554E+00
      1.076  0.1279E-01  0.1279E-01  0.2568E+00  0.2568E+00
      1.180  0.8824E-02  0.8824E-02  0.2577E+00  0.2577E+00
      1.284  0.4113E-02  0.4113E-02  0.2581E+00  0.2581E+00
      1.388  0.5270E-02  0.5270E-02  0.2587E+00  0.2587E+00
      1.492  0.4957E-02  0.4957E-02  0.2592E+00  0.2592E+00
      1.596  0.5053E-02  0.5053E-02  0.2597E+00  0.2597E+00
      1.700  0.7340E-02  0.7340E-02  0.2605E+00  0.2605E+00
      1.804  0.1121E-01  0.1121E-01  0.2616E+00  0.2616E+00
      1.908  0.7959E-02  0.7959E-02  0.2625E+00  0.2625E+00
      2.012  0.2791E-02  0.2791E-02  0.2627E+00  0.2627E+00
      2.116  0.3261E-02  0.3261E-02  0.2631E+00  0.2631E+00
      2.220  0.1036E-01  0.1036E-01  0.2642E+00  0.2642E+00
      2.324  0.1695E-01  0.1695E-01  0.2659E+00  0.2659E+00
      2.428  0.1295E-01  0.1295E-01  0.2673E+00  0.2673E+00
      2.532  0.1092E-01  0.1092E-01  0.2684E+00  0.2684E+00
      2.636  0.1161E-01  0.1161E-01  0.2696E+00  0.2696E+00
      2.740  0.1178E-01  0.1178E-01  0.2708E+00  0.2708E+00
      2.844  0.1095E-01  0.1096E-01  0.2720E+00  0.2720E+00
      2.948  0.8127E-02  0.8129E-02  0.2728E+00  0.2728E+00
      3.052  0.9358E-02  0.9359E-02  0.2738E+00  0.2738E+00
      3.156  0.1344E-01  0.1344E-01  0.2752E+00  0.2752E+00
      3.260  0.1276E-01  0.1277E-01  0.2765E+00  0.2765E+00
      3.364  0.1356E-01  0.1356E-01  0.2779E+00  0.2779E+00
      3.468  0.1043E-01  0.1043E-01  0.2790E+00  0.2790E+00
      3.572  0.1005E-01  0.1005E-01  0.2801E+00  0.2801E+00
      3.676  0.1101E-01  0.1101E-01  0.2812E+00  0.2812E+00
      3.780  0.1100E-01  0.1100E-01  0.2823E+00  0.2823E+00
      3.883  0.1168E-01  0.1168E-01  0.2836E+00  0.2836E+00
      3.987  0.1514E-01  0.1514E-01  0.2851E+00  0.2851E+00
      4.091  0.1660E-01  0.1659E-01  0.2869E+00  0.2869E+00
      4.195  0.1261E-01  0.1261E-01  0.2882E+00  0.2882E+00
      4.299  0.1178E-01  0.1178E-01  0.2894E+00  0.2894E+00
      4.403  0.2058E-01  0.2057E-01  0.2915E+00  0.2915E+00
      4.507  0.1762E-01  0.1761E-01  0.2934E+00  0.2934E+00
      4.611  0.1115E-01  0.1115E-01  0.2945E+00  0.2945E+00
      4.715  0.9730E-02  0.9728E-02  0.2955E+00  0.2955E+00
      4.819  0.1740E-01  0.1740E-01  0.2973E+00  0.2973E+00
      4.923  0.2051E-01  0.2051E-01  0.2995E+00  0.2995E+00
      5.027  0.1786E-01  0.1786E-01  0.3013E+00  0.3013E+00
      5.131  0.1602E-01  0.1602E-01  0.3030E+00  0.3030E+00
      5.235  0.1768E-01  0.1768E-01  0.3048E+00  0.3048E+00
      5.339  0.1452E-01  0.1452E-01  0.3064E+00  0.3064E+00
      5.443  0.1673E-01  0.1673E-01  0.3081E+00  0.3081E+00
      5.547  0.2349E-01  0.2349E-01  0.3105E+00  0.3105E+00
      5.651  0.1537E-01  0.1538E-01  0.3121E+00  0.3121E+00
      5.755  0.1153E-01  0.1153E-01  0.3133E+00  0.3133E+00
      5.859  0.1464E-01  0.1463E-01  0.3149E+00  0.3149E+00
      5.963  0.1767E-01  0.1768E-01  0.3167E+00  0.3167E+00
      6.067  0.1865E-01  0.1865E-01  0.3186E+00  0.3186E+00
      6.171  0.2615E-01  0.2615E-01  0.3213E+00  0.3213E+00
      6.275  0.2926E-01  0.2926E-01  0.3244E+00  0.3244E+00
      6.379  0.2678E-01  0.2678E-01  0.3272E+00  0.3272E+00
      6.483  0.2232E-01  0.2234E-01  0.3295E+00  0.3295E+00
      6.587  0.1713E-01  0.1713E-01  0.3313E+00  0.3313E+00
      6.691  0.1602E-01  0.1601E-01  0.3329E+00  0.3329E+00
      6.795  0.2969E-01  0.2969E-01  0.3360E+00  0.3360E+00
      6.899  0.3420E-01  0.3421E-01  0.3396E+00  0.3396E+00
      7.003  0.2865E-01  0.2865E-01  0.3426E+00  0.3426E+00
      7.107  0.2950E-01  0.2950E-01  0.3456E+00  0.3456E+00
      7.211  0.3465E-01  0.3464E-01  0.3492E+00  0.3492E+00
      7.315  0.3491E-01  0.3490E-01  0.3529E+00  0.3529E+00
      7.419  0.2689E-01  0.2689E-01  0.3557E+00  0.3557E+00
      7.523  0.3338E-01  0.3337E-01  0.3591E+00  0.3591E+00
      7.626  0.3643E-01  0.3644E-01  0.3629E+00  0.3629E+00
      7.730  0.3200E-01  0.3200E-01  0.3662E+00  0.3662E+00
      7.834  0.3144E-01  0.3144E-01  0.3695E+00  0.3695E+00
      7.938  0.2346E-01  0.2346E-01  0.3720E+00  0.3720E+00
      8.042  0.1419E-01  0.1419E-01  0.3734E+00  0.3734E+00
      8.146  0.8282E-02  0.8279E-02  0.3743E+00  0.3743E+00
      8.250  0.2489E-02  0.2490E-02  0.3745E+00  0.3745E+00
      8.354  0.1799E-02  0.1800E-02  0.3747E+00  0.3747E+00
      8.458  0.2007E-02  0.2008E-02  0.3749E+00  0.3749E+00
      8.562  0.5415E-03  0.5415E-03  0.3750E+00  0.3750E+00
      8.666  0.2483E-04  0.2483E-04  0.3750E+00  0.3750E+00
      8.770  0.1610E-06  0.1610E-06  0.3750E+00  0.3750E+00
      8.874  0.1343E-09  0.1344E-09  0.3750E+00  0.3750E+00
      8.978  0.1377E-13  0.1378E-13  0.3750E+00  0.3750E+00
      9.082  0.0000E+00  0.0000E+00  0.3750E+00  0.3750E+00
      9.186  0.0000E+00  0.0000E+00  0.3750E+00  0.3750E+00
      9.290  0.0000E+00  0.0000E+00  0.3750E+00  0.3750E+00
      9.394  0.0000E+00  0.0000E+00  0.3750E+00  0.3750E+00
      9.498  0.0000E+00  0.0000E+00  0.3750E+00  0.3750E+00
      9.602  0.0000E+00  0.0000E+00  0.3750E+00  0.3750E+00
      9.706  0.0000E+00  0.0000E+00  0.3750E+00  0.3750E+00
      9.810  0.0000E+00  0.0000E+00  0.3750E+00  0.3750E+00
