       N       E                     dE             d eps       ncg     rms          rms(c)
DAV:   1     0.181951494773E+03    0.18195E+03   -0.10094E+04  9280   0.621E+02
DAV:   2    -0.503585675469E+02   -0.23231E+03   -0.20442E+03 15408   0.156E+02
DAV:   3    -0.729289024441E+02   -0.22570E+02   -0.22334E+02 12896   0.552E+01
DAV:   4    -0.734695231797E+02   -0.54062E+00   -0.53955E+00 13152   0.104E+01
DAV:   5    -0.734815227810E+02   -0.12000E-01   -0.11993E-01 12016   0.146E+00    0.132E+01
DAV:   6    -0.689751334688E+02    0.45064E+01   -0.40607E+00 13136   0.791E+00    0.742E+00
DAV:   7    -0.673310953726E+02    0.16440E+01   -0.37137E+00 13520   0.711E+00    0.220E+00
DAV:   8    -0.672519156608E+02    0.79180E-01   -0.22516E-01 12512   0.180E+00    0.529E-01
DAV:   9    -0.672369668509E+02    0.14949E-01   -0.22531E-02 12160   0.649E-01    0.180E-01
DAV:  10    -0.672259112191E+02    0.11056E-01   -0.70356E-03 12368   0.296E-01    0.157E-01
DAV:  11    -0.672252332374E+02    0.67798E-03   -0.30638E-03 12400   0.195E-01    0.521E-02
DAV:  12    -0.672232033123E+02    0.20299E-02   -0.14663E-03 10368   0.106E-01    0.395E-02
DAV:  13    -0.672259350444E+02   -0.27317E-02   -0.28040E-04 11680   0.605E-02    0.233E-02
DAV:  14    -0.672288246655E+02   -0.28896E-02   -0.59349E-04 12304   0.633E-02    0.189E-02
DAV:  15    -0.672290739162E+02   -0.24925E-03   -0.35376E-05 12336   0.203E-02    0.759E-03
DAV:  16    -0.672296370516E+02   -0.56314E-03   -0.55894E-05 11344   0.180E-02    0.271E-03
DAV:  17    -0.672296866562E+02   -0.49605E-04   -0.15970E-06 11456   0.408E-03    0.150E-03
DAV:  18    -0.672297162099E+02   -0.29554E-04   -0.10043E-06 10256   0.253E-03    0.299E-04
DAV:  19    -0.672297177082E+02   -0.14983E-05   -0.18364E-08  9584   0.451E-04    0.146E-04
DAV:  20    -0.672297188902E+02   -0.11820E-05   -0.27706E-08  7568   0.400E-04    0.571E-05
DAV:  21    -0.672297189740E+02   -0.83789E-07   -0.30541E-09  9136   0.154E-04
   1 F= -.67907756E+02 E0= -.67907756E+02  d E =-.679078E+02
