   8   8   0  16
  0.4338553E+02  0.5169000E-09  0.5169000E-09  0.1500000E-08  0.5000000E-15
  1.000000000000000E-004
  CAR 
 Lattice                                 
      6.57105724    -21.14457088  301     -3.47644297      1.00000000
    -21.145  0.0000E+00  0.0000E+00
    -21.052  0.0000E+00  0.0000E+00
    -20.960  0.0000E+00  0.0000E+00
    -20.867  0.0000E+00  0.0000E+00
    -20.775  0.0000E+00  0.0000E+00
    -20.683  0.0000E+00  0.0000E+00
    -20.590  0.0000E+00  0.0000E+00
    -20.498  0.0000E+00  0.0000E+00
    -20.405  0.1293E-15  0.1195E-16
    -20.313  0.1201E-11  0.1109E-12
    -20.221  0.2184E-08  0.2019E-09
    -20.128  0.8057E-06  0.7464E-07
    -20.036  0.6396E-04  0.5983E-05
    -19.944  0.1207E-02  0.1175E-03
    -19.851  0.6423E-02  0.7109E-03
    -19.759  0.1300E-01  0.1912E-02
    -19.666  0.1590E-01  0.3381E-02
    -19.574  0.1760E-01  0.5007E-02
    -19.482  0.2037E-01  0.6888E-02
    -19.389  0.2650E-01  0.9337E-02
    -19.297  0.3389E-01  0.1247E-01
    -19.204  0.2566E-01  0.1484E-01
    -19.112  0.7743E-02  0.1555E-01
    -19.020  0.7441E-03  0.1562E-01
    -18.927  0.1902E-04  0.1562E-01
    -18.835  0.1125E-06  0.1562E-01
    -18.743  0.1407E-09  0.1562E-01
    -18.650  0.3527E-13  0.1563E-01
    -18.558  0.1563E-17  0.1563E-01
    -18.465  0.0000E+00  0.1563E-01
    -18.373  0.0000E+00  0.1563E-01
    -18.281  0.0000E+00  0.1563E-01
    -18.188  0.5058E-18  0.1563E-01
    -18.096  0.1265E-13  0.1563E-01
    -18.003  0.5720E-10  0.1563E-01
    -17.911  0.5136E-07  0.1563E-01
    -17.819  0.9572E-05  0.1563E-01
    -17.726  0.3991E-03  0.1566E-01
    -17.634  0.4233E-02  0.1605E-01
    -17.542  0.1433E-01  0.1738E-01
    -17.449  0.2295E-01  0.1950E-01
    -17.357  0.2514E-01  0.2182E-01
    -17.264  0.1983E-01  0.2365E-01
    -17.172  0.1507E-01  0.2504E-01
    -17.080  0.1441E-01  0.2638E-01
    -16.987  0.1487E-01  0.2775E-01
    -16.895  0.1552E-01  0.2918E-01
    -16.802  0.1640E-01  0.3070E-01
    -16.710  0.1766E-01  0.3233E-01
    -16.618  0.1972E-01  0.3415E-01
    -16.525  0.2368E-01  0.3634E-01
    -16.433  0.2790E-01  0.3892E-01
    -16.341  0.2547E-01  0.4127E-01
    -16.248  0.1976E-01  0.4310E-01
    -16.156  0.1607E-01  0.4458E-01
    -16.063  0.1328E-01  0.4581E-01
    -15.971  0.8577E-02  0.4660E-01
    -15.879  0.2687E-02  0.4685E-01
    -15.786  0.2740E-03  0.4687E-01
    -15.694  0.7198E-05  0.4687E-01
    -15.601  0.4264E-07  0.4687E-01
    -15.509  0.5266E-10  0.4687E-01
    -15.417  0.1295E-13  0.4688E-01
    -15.324  0.5825E-18  0.4688E-01
    -15.232  0.0000E+00  0.4688E-01
    -15.140  0.0000E+00  0.4688E-01
    -15.047  0.0000E+00  0.4688E-01
    -14.955  0.0000E+00  0.4688E-01
    -14.862  0.0000E+00  0.4688E-01
    -14.770  0.9197E-19  0.4688E-01
    -14.678  0.3184E-14  0.4688E-01
    -14.585  0.1726E-10  0.4688E-01
    -14.493  0.1858E-07  0.4688E-01
    -14.400  0.4134E-05  0.4688E-01
    -14.308  0.2034E-03  0.4689E-01
    -14.216  0.2493E-02  0.4712E-01
    -14.123  0.9342E-02  0.4799E-01
    -14.031  0.1533E-01  0.4940E-01
    -13.939  0.1789E-01  0.5106E-01
    -13.846  0.2067E-01  0.5297E-01
    -13.754  0.2566E-01  0.5534E-01
    -13.661  0.2710E-01  0.5784E-01
    -13.569  0.1986E-01  0.5967E-01
    -13.477  0.1407E-01  0.6097E-01
    -13.384  0.1215E-01  0.6210E-01
    -13.292  0.1144E-01  0.6315E-01
    -13.199  0.1087E-01  0.6416E-01
    -13.107  0.1051E-01  0.6513E-01
    -13.015  0.1016E-01  0.6607E-01
    -12.922  0.9872E-02  0.6698E-01
    -12.830  0.1013E-01  0.6792E-01
    -12.737  0.1205E-01  0.6903E-01
    -12.645  0.1495E-01  0.7041E-01
    -12.553  0.1563E-01  0.7185E-01
    -12.460  0.1471E-01  0.7321E-01
    -12.368  0.1375E-01  0.7448E-01
    -12.276  0.1284E-01  0.7567E-01
    -12.183  0.1203E-01  0.7678E-01
    -12.091  0.1142E-01  0.7784E-01
    -11.998  0.1078E-01  0.7883E-01
    -11.906  0.9703E-02  0.7973E-01
    -11.814  0.6911E-02  0.8037E-01
    -11.721  0.4215E-02  0.8076E-01
    -11.629  0.3523E-02  0.8108E-01
    -11.536  0.3597E-02  0.8141E-01
    -11.444  0.3581E-02  0.8175E-01
    -11.352  0.3969E-02  0.8211E-01
    -11.259  0.4182E-02  0.8250E-01
    -11.167  0.5954E-02  0.8305E-01
    -11.075  0.6141E-02  0.8362E-01
    -10.982  0.7235E-02  0.8428E-01
    -10.890  0.8093E-02  0.8503E-01
    -10.797  0.1049E-01  0.8600E-01
    -10.705  0.1234E-01  0.8714E-01
    -10.613  0.1242E-01  0.8829E-01
    -10.520  0.1416E-01  0.8960E-01
    -10.428  0.1440E-01  0.9093E-01
    -10.335  0.1683E-01  0.9248E-01
    -10.243  0.1832E-01  0.9417E-01
    -10.151  0.1572E-01  0.9563E-01
    -10.058  0.1177E-01  0.9671E-01
     -9.966  0.1019E-01  0.9765E-01
     -9.874  0.1403E-01  0.9895E-01
     -9.781  0.2098E-01  0.1009E+00
     -9.689  0.2094E-01  0.1028E+00
     -9.596  0.1806E-01  0.1045E+00
     -9.504  0.1625E-01  0.1060E+00
     -9.412  0.1509E-01  0.1074E+00
     -9.319  0.1435E-01  0.1087E+00
     -9.227  0.1511E-01  0.1101E+00
     -9.134  0.1557E-01  0.1115E+00
     -9.042  0.1771E-01  0.1132E+00
     -8.950  0.1933E-01  0.1150E+00
     -8.857  0.2041E-01  0.1169E+00
     -8.765  0.1964E-01  0.1187E+00
     -8.673  0.1997E-01  0.1205E+00
     -8.580  0.2322E-01  0.1227E+00
     -8.488  0.2303E-01  0.1248E+00
     -8.395  0.1983E-01  0.1266E+00
     -8.303  0.1712E-01  0.1282E+00
     -8.211  0.1555E-01  0.1296E+00
     -8.118  0.1612E-01  0.1311E+00
     -8.026  0.2001E-01  0.1330E+00
     -7.933  0.2488E-01  0.1353E+00
     -7.841  0.3091E-01  0.1381E+00
     -7.749  0.3433E-01  0.1413E+00
     -7.656  0.3407E-01  0.1445E+00
     -7.564  0.3273E-01  0.1475E+00
     -7.472  0.2514E-01  0.1498E+00
     -7.379  0.1632E-01  0.1513E+00
     -7.287  0.1334E-01  0.1525E+00
     -7.194  0.1649E-01  0.1541E+00
     -7.102  0.1601E-01  0.1555E+00
     -7.010  0.1358E-01  0.1568E+00
     -6.917  0.1263E-01  0.1580E+00
     -6.825  0.1267E-01  0.1591E+00
     -6.732  0.1360E-01  0.1604E+00
     -6.640  0.1788E-01  0.1620E+00
     -6.548  0.2662E-01  0.1645E+00
     -6.455  0.4042E-01  0.1682E+00
     -6.363  0.5976E-01  0.1738E+00
     -6.271  0.5955E-01  0.1793E+00
     -6.178  0.4301E-01  0.1832E+00
     -6.086  0.3044E-01  0.1860E+00
     -5.993  0.2148E-01  0.1880E+00
     -5.901  0.1830E-01  0.1897E+00
     -5.809  0.1837E-01  0.1914E+00
     -5.716  0.1873E-01  0.1931E+00
     -5.624  0.1945E-01  0.1949E+00
     -5.531  0.2006E-01  0.1968E+00
     -5.439  0.2101E-01  0.1987E+00
     -5.347  0.2202E-01  0.2008E+00
     -5.254  0.2348E-01  0.2029E+00
     -5.162  0.2542E-01  0.2053E+00
     -5.070  0.2871E-01  0.2079E+00
     -4.977  0.3218E-01  0.2109E+00
     -4.885  0.3360E-01  0.2140E+00
     -4.792  0.3572E-01  0.2173E+00
     -4.700  0.3752E-01  0.2208E+00
     -4.608  0.3413E-01  0.2239E+00
     -4.515  0.2866E-01  0.2266E+00
     -4.423  0.1941E-01  0.2284E+00
     -4.330  0.1190E-01  0.2295E+00
     -4.238  0.9876E-02  0.2304E+00
     -4.146  0.9459E-02  0.2313E+00
     -4.053  0.9150E-02  0.2321E+00
     -3.961  0.8853E-02  0.2329E+00
     -3.868  0.8187E-02  0.2337E+00
     -3.776  0.5566E-02  0.2342E+00
     -3.684  0.1737E-02  0.2344E+00
     -3.591  0.1712E-03  0.2344E+00
     -3.499  0.4286E-05  0.2344E+00
     -3.407  0.4522E-06  0.2344E+00
     -3.314  0.3701E-04  0.2344E+00
     -3.222  0.7602E-03  0.2344E+00
     -3.129  0.4354E-02  0.2349E+00
     -3.037  0.9352E-02  0.2357E+00
     -2.945  0.1185E-01  0.2368E+00
     -2.852  0.1339E-01  0.2380E+00
     -2.760  0.1561E-01  0.2395E+00
     -2.667  0.1933E-01  0.2413E+00
     -2.575  0.2115E-01  0.2432E+00
     -2.483  0.1684E-01  0.2448E+00
     -2.390  0.1264E-01  0.2460E+00
     -2.298  0.9843E-02  0.2469E+00
     -2.206  0.8317E-02  0.2476E+00
     -2.113  0.6793E-02  0.2483E+00
     -2.021  0.5724E-02  0.2488E+00
     -1.928  0.4159E-02  0.2492E+00
     -1.836  0.2946E-02  0.2494E+00
     -1.744  0.2129E-02  0.2496E+00
     -1.651  0.1664E-02  0.2498E+00
     -1.559  0.1157E-02  0.2499E+00
     -1.466  0.7137E-03  0.2500E+00
     -1.374  0.3585E-03  0.2500E+00
     -1.282  0.3447E-03  0.2500E+00
     -1.189  0.6992E-03  0.2501E+00
     -1.097  0.1140E-02  0.2502E+00
     -1.005  0.1668E-02  0.2504E+00
     -0.912  0.2121E-02  0.2506E+00
     -0.820  0.2765E-02  0.2508E+00
     -0.727  0.3233E-02  0.2511E+00
     -0.635  0.4088E-02  0.2515E+00
     -0.543  0.4616E-02  0.2519E+00
     -0.450  0.5880E-02  0.2525E+00
     -0.358  0.6769E-02  0.2531E+00
     -0.265  0.1031E-01  0.2540E+00
     -0.173  0.1741E-01  0.2556E+00
     -0.081  0.2438E-01  0.2579E+00
      0.012  0.2049E-01  0.2598E+00
      0.104  0.1573E-01  0.2612E+00
      0.196  0.1269E-01  0.2624E+00
      0.289  0.1141E-01  0.2635E+00
      0.381  0.1058E-01  0.2644E+00
      0.474  0.1123E-01  0.2655E+00
      0.566  0.1178E-01  0.2666E+00
      0.658  0.1131E-01  0.2676E+00
      0.751  0.9274E-02  0.2685E+00
      0.843  0.9159E-02  0.2693E+00
      0.936  0.1219E-01  0.2704E+00
      1.028  0.1417E-01  0.2718E+00
      1.120  0.1482E-01  0.2731E+00
      1.213  0.1518E-01  0.2745E+00
      1.305  0.1570E-01  0.2760E+00
      1.397  0.1638E-01  0.2775E+00
      1.490  0.1745E-01  0.2791E+00
      1.582  0.1872E-01  0.2808E+00
      1.675  0.1893E-01  0.2826E+00
      1.767  0.1819E-01  0.2843E+00
      1.859  0.1971E-01  0.2861E+00
      1.952  0.2237E-01  0.2881E+00
      2.044  0.2362E-01  0.2903E+00
      2.137  0.2324E-01  0.2925E+00
      2.229  0.2437E-01  0.2947E+00
      2.321  0.2698E-01  0.2972E+00
      2.414  0.2965E-01  0.3000E+00
      2.506  0.3046E-01  0.3028E+00
      2.598  0.3003E-01  0.3055E+00
      2.691  0.3020E-01  0.3083E+00
      2.783  0.3001E-01  0.3111E+00
      2.876  0.2995E-01  0.3139E+00
      2.968  0.2977E-01  0.3166E+00
      3.060  0.2996E-01  0.3194E+00
      3.153  0.2957E-01  0.3221E+00
      3.245  0.2973E-01  0.3249E+00
      3.338  0.2980E-01  0.3276E+00
      3.430  0.2940E-01  0.3303E+00
      3.522  0.3005E-01  0.3331E+00
      3.615  0.2908E-01  0.3358E+00
      3.707  0.2992E-01  0.3386E+00
      3.799  0.2967E-01  0.3413E+00
      3.892  0.3049E-01  0.3441E+00
      3.984  0.3211E-01  0.3471E+00
      4.077  0.3009E-01  0.3499E+00
      4.169  0.2655E-01  0.3523E+00
      4.261  0.2349E-01  0.3545E+00
      4.354  0.2710E-01  0.3570E+00
      4.446  0.3103E-01  0.3599E+00
      4.539  0.2794E-01  0.3624E+00
      4.631  0.2186E-01  0.3645E+00
      4.723  0.1789E-01  0.3661E+00
      4.816  0.1813E-01  0.3678E+00
      4.908  0.2088E-01  0.3697E+00
      5.001  0.2085E-01  0.3716E+00
      5.093  0.1590E-01  0.3731E+00
      5.185  0.1128E-01  0.3742E+00
      5.278  0.6688E-02  0.3748E+00
      5.370  0.2136E-02  0.3750E+00
      5.462  0.3013E-03  0.3750E+00
      5.555  0.1627E-04  0.3750E+00
      5.647  0.2494E-06  0.3750E+00
      5.740  0.8486E-09  0.3750E+00
      5.832  0.5737E-12  0.3750E+00
      5.924  0.7382E-16  0.3750E+00
      6.017  0.0000E+00  0.3750E+00
      6.109  0.0000E+00  0.3750E+00
      6.202  0.0000E+00  0.3750E+00
      6.294  0.0000E+00  0.3750E+00
      6.386  0.0000E+00  0.3750E+00
      6.479  0.0000E+00  0.3750E+00
      6.571  0.0000E+00  0.3750E+00
