    8    8  128    1
  0.4338553E+02  0.5169000E-09  0.5169000E-09  0.1500000E-08  0.5000000E-15
  1.000000000000000E-004
  CAR 
 Lattice                                 
     30    613     24
 
  0.0000000E+00  0.0000000E+00  0.0000000E+00  0.8163265E-03
      1        -19.884770   1.000000
      2        -15.983179   1.000000
      3        -15.983003   1.000000
      4        -13.641826   1.000000
      5        -13.641770   1.000000
      6        -12.573305   1.000000
      7        -11.250068   1.000000
      8         -8.688689   1.000000
      9         -8.456641   1.000000
     10         -6.304362   1.000000
     11         -6.304181   1.000000
     12         -4.480749   1.000000
     13         -4.480660   1.000000
     14         -3.791960   0.999996
     15         -3.791787   0.999996
     16         -1.963916   0.000000
     17         -0.227784   0.000000
     18         -0.227752   0.000000
     19          0.431760   0.000000
     20          0.841340   0.000000
     21          1.844282   0.000000
     22          2.268467   0.000000
     23          4.234160   0.000000
     24          4.857211   0.000000
 
  0.2857143E-01  0.1691476E-17  0.0000000E+00  0.1632653E-02
      1        -19.881555   1.000000
      2        -15.999548   1.000000
      3        -15.988395   1.000000
      4        -13.646115   1.000000
      5        -13.629884   1.000000
      6        -12.557400   1.000000
      7        -11.230586   1.000000
      8         -8.683828   1.000000
      9         -8.463281   1.000000
     10         -6.318986   1.000000
     11         -6.307257   1.000000
     12         -4.495608   1.000000
     13         -4.483198   1.000000
     14         -3.808848   0.999999
     15         -3.800190   0.999998
     16         -1.992970   0.000000
     17         -0.220599   0.000000
     18         -0.184853   0.000000
     19          0.445086   0.000000
     20          0.847438   0.000000
     21          1.850882   0.000000
     22          2.274597   0.000000
     23          4.240178   0.000000
     24          4.863814   0.000000
 
  0.1691476E-17  0.2857143E-01  0.0000000E+00  0.1632653E-02
      1        -19.881555   1.000000
      2        -15.999513   1.000000
      3        -15.988430   1.000000
      4        -13.646142   1.000000
      5        -13.629858   1.000000
      6        -12.557400   1.000000
      7        -11.230586   1.000000
      8         -8.683828   1.000000
      9         -8.463281   1.000000
     10         -6.318964   1.000000
     11         -6.307280   1.000000
     12         -4.495579   1.000000
     13         -4.483227   1.000000
     14         -3.808875   0.999999
     15         -3.800162   0.999998
     16         -1.992971   0.000000
     17         -0.220574   0.000000
     18         -0.184877   0.000000
     19          0.445086   0.000000
     20          0.847438   0.000000
     21          1.850882   0.000000
     22          2.274597   0.000000
     23          4.240178   0.000000
     24          4.863814   0.000000
 
 -0.2857143E-01  0.2857143E-01  0.0000000E+00  0.1632653E-02
      1        -19.881555   1.000000
      2        -15.999658   1.000000
      3        -15.988285   1.000000
      4        -13.646092   1.000000
      5        -13.629906   1.000000
      6        -12.557402   1.000000
      7        -11.230585   1.000000
      8         -8.683828   1.000000
      9         -8.463281   1.000000
     10         -6.319109   1.000000
     11         -6.307135   1.000000
     12         -4.495654   1.000000
     13         -4.483151   1.000000
     14         -3.808988   0.999999
     15         -3.800049   0.999998
     16         -1.992973   0.000000
     17         -0.220596   0.000000
     18         -0.184851   0.000000
     19          0.445084   0.000000
     20          0.847438   0.000000
     21          1.850882   0.000000
     22          2.274597   0.000000
     23          4.240178   0.000000
     24          4.863813   0.000000
 
  0.5714286E-01  0.3782164E-17  0.0000000E+00  0.1632653E-02
      1        -19.871932   1.000000
      2        -16.047606   1.000000
      3        -16.003828   1.000000
      4        -13.659569   1.000000
      5        -13.594586   1.000000
      6        -12.509613   1.000000
      7        -11.173185   1.000000
      8         -8.669249   1.000000
      9         -8.483459   1.000000
     10         -6.362867   1.000000
     11         -6.315646   1.000000
     12         -4.540156   1.000000
     13         -4.490662   1.000000
     14         -3.859496   1.000000
     15         -3.824756   1.000000
     16         -2.070994   0.000000
     17         -0.199529   0.000000
     18         -0.067456   0.000000
     19          0.486551   0.000000
     20          0.865722   0.000000
     21          1.870726   0.000000
     22          2.292978   0.000000
     23          4.258234   0.000000
     24          4.883148   0.000000
 
  0.3782164E-17  0.5714286E-01  0.0000000E+00  0.1632653E-02
      1        -19.871932   1.000000
      2        -16.047572   1.000000
      3        -16.003862   1.000000
      4        -13.659595   1.000000
      5        -13.594560   1.000000
      6        -12.509612   1.000000
      7        -11.173186   1.000000
      8         -8.669249   1.000000
      9         -8.483459   1.000000
     10         -6.362845   1.000000
     11         -6.315668   1.000000
     12         -4.540129   1.000000
     13         -4.490691   1.000000
     14         -3.859523   1.000000
     15         -3.824729   1.000000
     16         -2.070995   0.000000
     17         -0.199504   0.000000
     18         -0.067478   0.000000
     19          0.486550   0.000000
     20          0.865722   0.000000
     21          1.870726   0.000000
     22          2.292978   0.000000
     23          4.258234   0.000000
     24          4.883148   0.000000
 
 -0.5714286E-01  0.5714286E-01  0.0000000E+00  0.1632653E-02
      1        -19.871932   1.000000
      2        -16.047716   1.000000
      3        -16.003719   1.000000
      4        -13.659543   1.000000
      5        -13.594606   1.000000
      6        -12.509622   1.000000
      7        -11.173182   1.000000
      8         -8.669249   1.000000
      9         -8.483459   1.000000
     10         -6.362990   1.000000
     11         -6.315523   1.000000
     12         -4.540202   1.000000
     13         -4.490615   1.000000
     14         -3.859635   1.000000
     15         -3.824617   1.000000
     16         -2.071001   0.000000
     17         -0.199525   0.000000
     18         -0.067440   0.000000
     19          0.486539   0.000000
     20          0.865722   0.000000
     21          1.870725   0.000000
     22          2.292978   0.000000
     23          4.258234   0.000000
     24          4.883146   0.000000
 
  0.8571429E-01  0.4565486E-17  0.0000000E+00  0.1632653E-02
      1        -19.855994   1.000000
      2        -16.123475   1.000000
      3        -16.028269   1.000000
      4        -13.682962   1.000000
      5        -13.537171   1.000000
      6        -12.430271   1.000000
      7        -11.080563   1.000000
      8         -8.644989   1.000000
      9         -8.517634   1.000000
     10         -6.434751   1.000000
     11         -6.327924   1.000000
     12         -4.612945   1.000000
     13         -4.502625   1.000000
     14         -3.942985   1.000000
     15         -3.864964   1.000000
     16         -2.178962   0.000000
     17         -0.164870   0.000000
     18          0.097776   0.000000
     19          0.562113   0.000000
     20          0.896166   0.000000
     21          1.903967   0.000000
     22          2.323597   0.000000
     23          4.288319   0.000000
     24          4.914153   0.000000
 
 -0.3199978E-17  0.8571429E-01  0.0000000E+00  0.1632653E-02
      1        -19.855994   1.000000
      2        -16.123442   1.000000
      3        -16.028302   1.000000
      4        -13.682987   1.000000
      5        -13.537146   1.000000
      6        -12.430269   1.000000
      7        -11.080565   1.000000
      8         -8.644989   1.000000
      9         -8.517635   1.000000
     10         -6.434729   1.000000
     11         -6.327945   1.000000
     12         -4.612918   1.000000
     13         -4.502653   1.000000
     14         -3.943012   1.000000
     15         -3.864937   1.000000
     16         -2.178964   0.000000
     17         -0.164845   0.000000
     18          0.097756   0.000000
     19          0.562111   0.000000
     20          0.896166   0.000000
     21          1.903968   0.000000
     22          2.323597   0.000000
     23          4.288319   0.000000
     24          4.914153   0.000000
 
 -0.8571429E-01  0.8571429E-01  0.0000000E+00  0.1632653E-02
      1        -19.855993   1.000000
      2        -16.123584   1.000000
      3        -16.028161   1.000000
      4        -13.682932   1.000000
      5        -13.537188   1.000000
      6        -12.430288   1.000000
      7        -11.080557   1.000000
      8         -8.644988   1.000000
      9         -8.517636   1.000000
     10         -6.434874   1.000000
     11         -6.327800   1.000000
     12         -4.612990   1.000000
     13         -4.502578   1.000000
     14         -3.943122   1.000000
     15         -3.864828   1.000000
     16         -2.178976   0.000000
     17         -0.164866   0.000000
     18          0.097815   0.000000
     19          0.562083   0.000000
     20          0.896165   0.000000
     21          1.903966   0.000000
     22          2.323597   0.000000
     23          4.288318   0.000000
     24          4.914149   0.000000
 
  0.1142857E+00  0.7564327E-17  0.0000000E+00  0.1632653E-02
      1        -19.833885   1.000000
      2        -16.221993   1.000000
      3        -16.060067   1.000000
      4        -13.716147   1.000000
      5        -13.459515   1.000000
      6        -12.321106   1.000000
      7        -10.956398   1.000000
      8         -8.611130   1.000000
      9         -8.566633   1.000000
     10         -6.532962   1.000000
     11         -6.341842   1.000000
     12         -4.711599   1.000000
     13         -4.518627   1.000000
     14         -4.057751   1.000000
     15         -3.919922   1.000000
     16         -2.299475   0.000000
     17         -0.117766   0.000000
     18          0.276341   0.000000
     19          0.685598   0.000000
     20          0.938735   0.000000
     21          1.950929   0.000000
     22          2.366434   0.000000
     23          4.330413   0.000000
     24          4.955720   0.000000
 
  0.7564327E-17  0.1142857E+00  0.0000000E+00  0.1632653E-02
      1        -19.833886   1.000000
      2        -16.221960   1.000000
      3        -16.060099   1.000000
      4        -13.716172   1.000000
      5        -13.459491   1.000000
      6        -12.321102   1.000000
      7        -10.956402   1.000000
      8         -8.611130   1.000000
      9         -8.566635   1.000000
     10         -6.532940   1.000000
     11         -6.341862   1.000000
     12         -4.711573   1.000000
     13         -4.518655   1.000000
     14         -4.057776   1.000000
     15         -3.919896   1.000000
     16         -2.299478   0.000000
     17         -0.117741   0.000000
     18          0.276326   0.000000
     19          0.685593   0.000000
     20          0.938735   0.000000
     21          1.950929   0.000000
     22          2.366434   0.000000
     23          4.330413   0.000000
     24          4.955720   0.000000
 
 -0.1142857E+00  0.1142857E+00  0.0000000E+00  0.1632653E-02
      1        -19.833884   1.000000
      2        -16.222100   1.000000
      3        -16.059962   1.000000
      4        -13.716114   1.000000
      5        -13.459529   1.000000
      6        -12.321131   1.000000
      7        -10.956389   1.000000
      8         -8.611129   1.000000
      9         -8.566636   1.000000
     10         -6.533086   1.000000
     11         -6.341717   1.000000
     12         -4.711641   1.000000
     13         -4.518581   1.000000
     14         -4.057883   1.000000
     15         -3.919789   1.000000
     16         -2.299495   0.000000
     17         -0.117762   0.000000
     18          0.276410   0.000000
     19          0.685545   0.000000
     20          0.938735   0.000000
     21          1.950926   0.000000
     22          2.366434   0.000000
     23          4.330413   0.000000
     24          4.955715   0.000000
 
  0.1428571E+00  0.2305201E-16  0.0000000E+00  0.1632653E-02
      1        -19.805835   1.000000
      2        -16.337636   1.000000
      3        -16.097314   1.000000
      4        -13.757596   1.000000
      5        -13.363849   1.000000
      6        -12.185441   1.000000
      7        -10.804588   1.000000
      8         -8.631131   1.000000
      9         -8.567761   1.000000
     10         -6.655268   1.000000
     11         -6.354705   1.000000
     12         -4.833184   1.000000
     13         -4.537986   1.000000
     14         -4.201790   1.000000
     15         -3.988031   1.000000
     16         -2.420840   0.000000
     17         -0.059689   0.000000
     18          0.436371   0.000000
     19          0.872599   0.000000
     20          0.993390   0.000000
     21          2.012240   0.000000
     22          2.421465   0.000000
     23          4.384490   0.000000
     24          5.006925   0.000000
 
  0.7521080E-17  0.1428571E+00  0.0000000E+00  0.1632653E-02
      1        -19.805836   1.000000
      2        -16.337605   1.000000
      3        -16.097345   1.000000
      4        -13.757619   1.000000
      5        -13.363826   1.000000
      6        -12.185435   1.000000
      7        -10.804593   1.000000
      8         -8.631133   1.000000
      9         -8.567761   1.000000
     10         -6.655246   1.000000
     11         -6.354724   1.000000
     12         -4.833160   1.000000
     13         -4.538013   1.000000
     14         -4.201815   1.000000
     15         -3.988005   1.000000
     16         -2.420843   0.000000
     17         -0.059664   0.000000
     18          0.436361   0.000000
     19          0.872590   0.000000
     20          0.993390   0.000000
     21          2.012240   0.000000
     22          2.421465   0.000000
     23          4.384490   0.000000
     24          5.006926   0.000000
 
 -0.1428571E+00  0.1428571E+00  0.0000000E+00  0.1632653E-02
      1        -19.805833   1.000000
      2        -16.337742   1.000000
      3        -16.097212   1.000000
      4        -13.757560   1.000000
      5        -13.363859   1.000000
      6        -12.185473   1.000000
      7        -10.804575   1.000000
      8         -8.631135   1.000000
      9         -8.567759   1.000000
     10         -6.655393   1.000000
     11         -6.354578   1.000000
     12         -4.833224   1.000000
     13         -4.537939   1.000000
     14         -4.201918   1.000000
     15         -3.987902   1.000000
     16         -2.420866   0.000000
     17         -0.059684   0.000000
     18          0.436459   0.000000
     19          0.872534   0.000000
     20          0.993389   0.000000
     21          2.012234   0.000000
     22          2.421465   0.000000
     23          4.384490   0.000000
     24          5.006921   0.000000
 
  0.1714286E+00  0.9693352E-17  0.0000000E+00  0.1632653E-02
      1        -19.772173   1.000000
      2        -16.465194   1.000000
      3        -16.138081   1.000000
      4        -13.804870   1.000000
      5        -13.252552   1.000000
      6        -12.027456   1.000000
      7        -10.628845   1.000000
      8         -8.711641   1.000000
      9         -8.515131   1.000000
     10         -6.799108   1.000000
     11         -6.363885   1.000000
     12         -4.974070   1.000000
     13         -4.559910   1.000000
     14         -4.372788   1.000000
     15         -4.067732   1.000000
     16         -2.536552   0.000000
     17          0.007933   0.000000
     18          0.571544   0.000000
     19          1.060082   0.000000
     20          1.116597   0.000000
     21          2.089168   0.000000
     22          2.488664   0.000000
     23          4.450463   0.000000
     24          5.066872   0.000000
 
  0.9693352E-17  0.1714286E+00  0.0000000E+00  0.1632653E-02
      1        -19.772174   1.000000
      2        -16.465163   1.000000
      3        -16.138111   1.000000
      4        -13.804892   1.000000
      5        -13.252530   1.000000
      6        -12.027450   1.000000
      7        -10.628852   1.000000
      8         -8.711645   1.000000
      9         -8.515131   1.000000
     10         -6.799086   1.000000
     11         -6.363902   1.000000
     12         -4.974047   1.000000
     13         -4.559937   1.000000
     14         -4.372811   1.000000
     15         -4.067708   1.000000
     16         -2.536554   0.000000
     17          0.007957   0.000000
     18          0.571539   0.000000
     19          1.060082   0.000000
     20          1.116584   0.000000
     21          2.089169   0.000000
     22          2.488664   0.000000
     23          4.450463   0.000000
     24          5.066872   0.000000
 
 -0.1714286E+00  0.1714286E+00  0.0000000E+00  0.1632653E-02
      1        -19.772170   1.000000
      2        -16.465298   1.000000
      3        -16.137982   1.000000
      4        -13.804832   1.000000
      5        -13.252558   1.000000
      6        -12.027495   1.000000
      7        -10.628828   1.000000
      8         -8.711647   1.000000
      9         -8.515129   1.000000
     10         -6.799234   1.000000
     11         -6.363756   1.000000
     12         -4.974108   1.000000
     13         -4.559864   1.000000
     14         -4.372911   1.000000
     15         -4.067608   1.000000
     16         -2.536583   0.000000
     17          0.007939   0.000000
     18          0.571635   0.000000
     19          1.060082   0.000000
     20          1.116536   0.000000
     21          2.089159   0.000000
     22          2.488663   0.000000
     23          4.450463   0.000000
     24          5.066870   0.000000
 
  0.2000000E+00  0.9650104E-17  0.0000000E+00  0.1632653E-02
      1        -19.733310   1.000000
      2        -16.600057   1.000000
      3        -16.180569   1.000000
      4        -13.855322   1.000000
      5        -13.128032   1.000000
      6        -11.851387   1.000000
      7        -10.432554   1.000000
      8         -8.808069   1.000000
      9         -8.453413   1.000000
     10         -6.961551   1.000000
     11         -6.367008   1.000000
     12         -5.130307   1.000000
     13         -4.583578   1.000000
     14         -4.568254   1.000000
     15         -4.157064   1.000000
     16         -2.643297   0.000000
     17          0.083012   0.000000
     18          0.694099   0.000000
     19          1.138766   0.000000
     20          1.393975   0.000000
     21          2.184416   0.000000
     22          2.568006   0.000000
     23          4.528256   0.000000
     24          5.134191   0.000000
 
  0.9650104E-17  0.2000000E+00  0.0000000E+00  0.1632653E-02
      1        -19.733312   1.000000
      2        -16.600027   1.000000
      3        -16.180598   1.000000
      4        -13.855343   1.000000
      5        -13.128012   1.000000
      6        -11.851379   1.000000
      7        -10.432562   1.000000
      8         -8.808073   1.000000
      9         -8.453413   1.000000
     10         -6.961530   1.000000
     11         -6.367023   1.000000
     12         -5.130285   1.000000
     13         -4.583605   1.000000
     14         -4.568276   1.000000
     15         -4.157040   1.000000
     16         -2.643299   0.000000
     17          0.083036   0.000000
     18          0.694096   0.000000
     19          1.138766   0.000000
     20          1.393961   0.000000
     21          2.184417   0.000000
     22          2.568007   0.000000
     23          4.528256   0.000000
     24          5.134190   0.000000
 
 -0.2000000E+00  0.2000000E+00  0.0000000E+00  0.1632653E-02
      1        -19.733306   1.000000
      2        -16.600160   1.000000
      3        -16.180473   1.000000
      4        -13.855283   1.000000
      5        -13.128035   1.000000
      6        -11.851431   1.000000
      7        -10.432533   1.000000
      8         -8.808076   1.000000
      9         -8.453410   1.000000
     10         -6.961679   1.000000
     11         -6.366877   1.000000
     12         -5.130343   1.000000
     13         -4.583533   1.000000
     14         -4.568371   1.000000
     15         -4.156945   1.000000
     16         -2.643331   0.000000
     17          0.083019   0.000000
     18          0.694187   0.000000
     19          1.138765   0.000000
     20          1.393928   0.000000
     21          2.184400   0.000000
     22          2.568006   0.000000
     23          4.528256   0.000000
     24          5.134190   0.000000
 
  0.2285714E+00  0.1512865E-16  0.0000000E+00  0.1632653E-02
      1        -19.689817   1.000000
      2        -16.738255   1.000000
      3        -16.223194   1.000000
      4        -13.906548   1.000000
      5        -12.992686   1.000000
      6        -11.660987   1.000000
      7        -10.218813   1.000000
      8         -8.919593   1.000000
      9         -8.382934   1.000000
     10         -7.139495   1.000000
     11         -6.362385   1.000000
     12         -5.297809   1.000000
     13         -4.785475   1.000000
     14         -4.608143   1.000000
     15         -4.254025   1.000000
     16         -2.739707   0.000000
     17          0.163405   0.000000
     18          0.812665   0.000000
     19          1.229403   0.000000
     20          1.682787   0.000000
     21          2.304076   0.000000
     22          2.659475   0.000000
     23          4.617662   0.000000
     24          5.162036   0.000000
 
  0.1512865E-16  0.2285714E+00  0.0000000E+00  0.1632653E-02
      1        -19.689818   1.000000
      2        -16.738225   1.000000
      3        -16.223221   1.000000
      4        -13.906568   1.000000
      5        -12.992666   1.000000
      6        -11.660979   1.000000
      7        -10.218822   1.000000
      8         -8.919599   1.000000
      9         -8.382935   1.000000
     10         -7.139474   1.000000
     11         -6.362399   1.000000
     12         -5.297788   1.000000
     13         -4.785496   1.000000
     14         -4.608170   1.000000
     15         -4.254002   1.000000
     16         -2.739709   0.000000
     17          0.163429   0.000000
     18          0.812664   0.000000
     19          1.229403   0.000000
     20          1.682772   0.000000
     21          2.304077   0.000000
     22          2.659475   0.000000
     23          4.617662   0.000000
     24          5.162034   0.000000
 
 -0.2285714E+00  0.2285714E+00  0.0000000E+00  0.1632653E-02
      1        -19.689810   1.000000
      2        -16.738357   1.000000
      3        -16.223100   1.000000
      4        -13.906509   1.000000
      5        -12.992684   1.000000
      6        -11.661034   1.000000
      7        -10.218787   1.000000
      8         -8.919602   1.000000
      9         -8.382931   1.000000
     10         -7.139626   1.000000
     11         -6.362253   1.000000
     12         -5.297844   1.000000
     13         -4.785588   1.000000
     14         -4.608099   1.000000
     15         -4.253913   1.000000
     16         -2.739745   0.000000
     17          0.163413   0.000000
     18          0.812749   0.000000
     19          1.229402   0.000000
     20          1.682756   0.000000
     21          2.304050   0.000000
     22          2.659475   0.000000
     23          4.617663   0.000000
     24          5.162035   0.000000
 
  0.2571429E+00 -0.4455200E-18  0.0000000E+00  0.1632653E-02
      1        -19.642425   1.000000
      2        -16.876346   1.000000
      3        -16.264604   1.000000
      4        -13.956559   1.000000
      5        -12.848939   1.000000
      6        -11.459412   1.000000
      7         -9.990718   1.000000
      8         -9.044488   1.000000
      9         -8.304133   1.000000
     10         -7.329518   1.000000
     11         -6.349057   1.000000
     12         -5.472729   1.000000
     13         -5.021628   1.000000
     14         -4.632752   1.000000
     15         -4.356405   1.000000
     16         -2.825465   0.000000
     17          0.246818   0.000000
     18          0.929811   0.000000
     19          1.331952   0.000000
     20          1.960478   0.000000
     21          2.461403   0.000000
     22          2.763049   0.000000
     23          4.718212   0.000000
     24          4.861178   0.000000
 
 -0.4455200E-18  0.2571429E+00  0.0000000E+00  0.1632653E-02
      1        -19.642427   1.000000
      2        -16.876317   1.000000
      3        -16.264630   1.000000
      4        -13.956578   1.000000
      5        -12.848919   1.000000
      6        -11.459402   1.000000
      7         -9.990730   1.000000
      8         -9.044494   1.000000
      9         -8.304134   1.000000
     10         -7.329497   1.000000
     11         -6.349069   1.000000
     12         -5.472709   1.000000
     13         -5.021647   1.000000
     14         -4.632778   1.000000
     15         -4.356382   1.000000
     16         -2.825466   0.000000
     17          0.246842   0.000000
     18          0.929811   0.000000
     19          1.331953   0.000000
     20          1.960464   0.000000
     21          2.461403   0.000000
     22          2.763049   0.000000
     23          4.718212   0.000000
     24          4.861178   0.000000
 
 -0.2571429E+00  0.2571429E+00  0.0000000E+00  0.1632653E-02
      1        -19.642416   1.000000
      2        -16.876449   1.000000
      3        -16.264512   1.000000
      4        -13.956520   1.000000
      5        -12.848933   1.000000
      6        -11.459461   1.000000
      7         -9.990688   1.000000
      8         -9.044499   1.000000
      9         -8.304129   1.000000
     10         -7.329654   1.000000
     11         -6.348922   1.000000
     12         -5.472764   1.000000
     13         -5.021735   1.000000
     14         -4.632708   1.000000
     15         -4.356299   1.000000
     16         -2.825505   0.000000
     17          0.246827   0.000000
     18          0.929893   0.000000
     19          1.331952   0.000000
     20          1.960469   0.000000
     21          2.461361   0.000000
     22          2.763049   0.000000
     23          4.718214   0.000000
     24          4.861180   0.000000
 
  0.2857143E+00  0.3444175E-16  0.0000000E+00  0.1632653E-02
      1        -19.592107   1.000000
      2        -17.011252   1.000000
      3        -16.303686   1.000000
      4        -14.003795   1.000000
      5        -12.699363   1.000000
      6        -11.249234   1.000000
      7         -9.751775   1.000000
      8         -9.180249   1.000000
      9         -8.217646   1.000000
     10         -7.527642   1.000000
     11         -6.327023   1.000000
     12         -5.651395   1.000000
     13         -5.274128   1.000000
     14         -4.656647   1.000000
     15         -4.461661   1.000000
     16         -2.900680   0.000000
     17          0.330610   0.000000
     18          1.045040   0.000000
     19          1.446388   0.000000
     20          2.201824   0.000000
     21          2.676057   0.000000
     22          2.878718   0.000000
     23          4.564947   0.000000
     24          4.828311   0.000000
 
  0.3444175E-16  0.2857143E+00  0.0000000E+00  0.1632653E-02
      1        -19.592110   1.000000
      2        -17.011223   1.000000
      3        -16.303711   1.000000
      4        -14.003814   1.000000
      5        -12.699345   1.000000
      6        -11.249224   1.000000
      7         -9.751788   1.000000
      8         -9.180257   1.000000
      9         -8.217647   1.000000
     10         -7.527622   1.000000
     11         -6.327034   1.000000
     12         -5.651377   1.000000
     13         -5.274146   1.000000
     14         -4.656673   1.000000
     15         -4.461639   1.000000
     16         -2.900681   0.000000
     17          0.330634   0.000000
     18          1.045040   0.000000
     19          1.446388   0.000000
     20          2.201812   0.000000
     21          2.676055   0.000000
     22          2.878718   0.000000
     23          4.564947   0.000000
     24          4.828313   0.000000
 
 -0.2857143E+00  0.2857143E+00  0.0000000E+00  0.1632653E-02
      1        -19.592097   1.000000
      2        -17.011356   1.000000
      3        -16.303596   1.000000
      4        -14.003757   1.000000
      5        -12.699354   1.000000
      6        -11.249283   1.000000
      7         -9.751738   1.000000
      8         -9.180262   1.000000
      9         -8.217640   1.000000
     10         -7.527786   1.000000
     11         -6.326885   1.000000
     12         -5.651430   1.000000
     13         -5.274230   1.000000
     14         -4.656603   1.000000
     15         -4.461562   1.000000
     16         -2.900722   0.000000
     17          0.330620   0.000000
     18          1.045121   0.000000
     19          1.446387   0.000000
     20          2.201835   0.000000
     21          2.675999   0.000000
     22          2.878718   0.000000
     23          4.564948   0.000000
     24          4.828318   0.000000
 
  0.3142857E+00  0.3439850E-16  0.0000000E+00  0.1632653E-02
      1        -19.540106   1.000000
      2        -17.140068   1.000000
      3        -16.339533   1.000000
      4        -14.047054   1.000000
      5        -12.546868   1.000000
      6        -11.032685   1.000000
      7         -9.506865   1.000000