   15   15  128    2
  0.2026202E+02  0.4837000E-09  0.4837000E-09  0.1500000E-08  0.5000000E-15
  1.000000000000000E-004
  CAR 
 Lattice                                 
     56     74     48
