<?xml version="1.0" encoding="ISO-8859-1"?>
<modeling>
 <generator>
  <i name="program" type="string">vasp </i>
  <i name="version" type="string">6.3.2  </i>
  <i name="subversion" type="string">27Jun22 (build Dec 22 2022 13:13:19) complex                          parallel </i>
  <i name="platform" type="string">LinuxIFC </i>
  <i name="date" type="string">2023 08 23 </i>
  <i name="time" type="string">00:50:27 </i>
 </generator>
 <incar>
  <i type="string" name="SYSTEM">Lattice</i>
  <i type="int" name="ISTART">     0</i>
  <i type="string" name="PREC">Accurate</i>
  <i type="string" name="ALGO">Normal</i>
  <i type="int" name="ISPIN">     2</i>
  <i type="int" name="ICHARG">     2</i>
  <i type="int" name="NELM">    64</i>
  <i type="int" name="IBRION">     2</i>
  <i name="EDIFF">      0.00000100</i>
  <i name="EDIFFG">     -0.00100000</i>
  <i type="int" name="NSW">   128</i>
  <i type="int" name="ISIF">     2</i>
  <i name="ENCUT">    450.00000000</i>
  <i name="POTIM">      0.50000000</i>
  <i type="int" name="ISMEAR">     0</i>
  <i name="SIGMA">      0.10000000</i>
  <i type="logical" name="LWAVE"> F  </i>
  <i type="logical" name="LCHARG"> F  </i>
  <i type="string" name="GGA">PE</i>
  <i type="int" name="IVDW">    12</i>
 </incar>
 <primitive_cell>
  <structure name="primitive_cell" >
   <crystal>
    <varray name="basis" >
     <v>       4.18896488       2.41850000       0.00000000 </v>
     <v>      -4.18896488       2.41850000       0.00000000 </v>
     <v>       0.00000000       0.00000000      15.00000000 </v>
    </varray>
    <i name="volume">    303.93034673 </i>
    <varray name="rec_basis" >
     <v>       0.11936123       0.20673971       0.00000000 </v>
     <v>      -0.11936123       0.20673971       0.00000000 </v>
     <v>       0.00000000       0.00000000       0.06666667 </v>
    </varray>
   </crystal>
   <varray name="positions" >
    <v>       0.00415361       0.00267210       0.12034134 </v>
    <v>       0.35695335       0.00285503       0.09748893 </v>
    <v>       0.00423858       0.35550699       0.09749256 </v>
    <v>       0.65142295       0.65006557       0.09747688 </v>
    <v>       0.32808646       0.32671938       0.10030508 </v>
    <v>       0.68027775       0.00278085       0.10027562 </v>
    <v>       0.00416530       0.67883808       0.10026559 </v>
    <v>       0.16666600       0.33333300       0.33720000 </v>
    <v>       0.33333300       0.16666600       0.33720000 </v>
    <v>       0.16666600       0.83333300       0.33720000 </v>
    <v>       0.33333300       0.66666600       0.33720000 </v>
    <v>       0.66666600       0.33333300       0.33720000 </v>
    <v>       0.83333300       0.16666600       0.33720000 </v>
    <v>       0.66666600       0.83333300       0.33720000 </v>
    <v>       0.83333300       0.66666600       0.33720000 </v>
   </varray>
  </structure>
  <varray name="primitive_index" >
   <v type="int" >        1 </v>
   <v type="int" >        2 </v>
   <v type="int" >        3 </v>
   <v type="int" >        4 </v>
   <v type="int" >        5 </v>
   <v type="int" >        6 </v>
   <v type="int" >        7 </v>
   <v type="int" >        8 </v>
   <v type="int" >        9 </v>
   <v type="int" >       10 </v>
   <v type="int" >       11 </v>
   <v type="int" >       12 </v>
   <v type="int" >       13 </v>
   <v type="int" >       14 </v>
   <v type="int" >       15 </v>
  </varray>
 </primitive_cell>
 <kpoints>
  <generation param="Gamma">
   <v type="int" name="divisions">      12       12        1 </v>
   <v name="usershift">      0.00000000       0.00000000       0.00000000 </v>
   <v name="genvec1">      0.08333333       0.00000000       0.00000000 </v>
   <v name="genvec2">      0.00000000       0.08333333       0.00000000 </v>
   <v name="genvec3">      0.00000000       0.00000000       1.00000000 </v>
   <v name="shift">      0.00000000       0.00000000       0.00000000 </v>
  </generation>
  <varray name="kpointlist" >
   <v>       0.00000000       0.00000000       0.00000000 </v>
   <v>       0.08333333      -0.00000000       0.00000000 </v>
   <v>       0.00000000       0.08333333       0.00000000 </v>
   <v>      -0.08333333       0.08333333       0.00000000 </v>
   <v>       0.16666667      -0.00000000       0.00000000 </v>
   <v>      -0.00000000       0.16666667       0.00000000 </v>
   <v>      -0.16666667       0.16666667       0.00000000 </v>
   <v>       0.25000000      -0.00000000       0.00000000 </v>
   <v>      -0.00000000       0.25000000       0.00000000 </v>
   <v>      -0.25000000       0.25000000       0.00000000 </v>
   <v>       0.33333333      -0.00000000       0.00000000 </v>
   <v>      -0.00000000       0.33333333       0.00000000 </v>
   <v>      -0.33333333       0.33333333       0.00000000 </v>
   <v>       0.41666667      -0.00000000       0.00000000 </v>
   <v>      -0.00000000       0.41666667       0.00000000 </v>
   <v>      -0.41666667       0.41666667       0.00000000 </v>
   <v>       0.50000000      -0.00000000       0.00000000 </v>
   <v>      -0.00000000       0.50000000       0.00000000 </v>
   <v>       0.50000000       0.50000000       0.00000000 </v>
   <v>       0.08333333       0.08333333       0.00000000 </v>
   <v>      -0.08333333       0.16666667       0.00000000 </v>
   <v>      -0.16666667       0.08333333       0.00000000 </v>
   <v>       0.16666667       0.08333333       0.00000000 </v>
   <v>      -0.08333333       0.25000000       0.00000000 </v>
   <v>      -0.25000000       0.16666667       0.00000000 </v>
   <v>      -0.16666667       0.25000000       0.00000000 </v>
   <v>       0.08333333       0.16666667       0.00000000 </v>
   <v>       0.25000000      -0.08333333       0.00000000 </v>
   <v>       0.25000000       0.08333333       0.00000000 </v>
   <v>      -0.08333333       0.33333333       0.00000000 </v>
   <v>      -0.33333333       0.25000000       0.00000000 </v>
   <v>      -0.25000000       0.33333333       0.00000000 </v>
   <v>       0.08333333       0.25000000       0.00000000 </v>
   <v>       0.33333333      -0.08333333       0.00000000 </v>
   <v>       0.33333333       0.08333333       0.00000000 </v>
   <v>      -0.08333333       0.41666667       0.00000000 </v>
   <v>      -0.41666667       0.33333333       0.00000000 </v>
   <v>      -0.33333333       0.41666667       0.00000000 </v>
   <v>       0.08333333       0.33333333       0.00000000 </v>
   <v>       0.41666667      -0.08333333       0.00000000 </v>
   <v>       0.41666667       0.08333333       0.00000000 </v>
   <v>      -0.08333333       0.50000000       0.00000000 </v>
   <v>       0.50000000       0.41666667       0.00000000 </v>
   <v>      -0.41666667       0.50000000       0.00000000 </v>
   <v>       0.08333333       0.41666667       0.00000000 </v>
   <v>       0.50000000      -0.08333333       0.00000000 </v>
   <v>       0.16666667       0.16666667       0.00000000 </v>
   <v>      -0.16666667       0.33333333       0.00000000 </v>
   <v>      -0.33333333       0.16666667       0.00000000 </v>
   <v>       0.25000000       0.16666667       0.00000000 </v>
   <v>      -0.16666667       0.41666667       0.00000000 </v>
   <v>      -0.41666667       0.25000000       0.00000000 </v>
   <v>      -0.25000000       0.41666667       0.00000000 </v>
   <v>       0.16666667       0.25000000       0.00000000 </v>
   <v>       0.41666667      -0.16666667       0.00000000 </v>
   <v>       0.33333333       0.16666667       0.00000000 </v>
   <v>      -0.16666667       0.50000000       0.00000000 </v>
   <v>       0.50000000       0.33333333       0.00000000 </v>
   <v>      -0.33333333       0.50000000       0.00000000 </v>
   <v>       0.16666667       0.33333333       0.00000000 </v>
   <v>       0.50000000      -0.16666667       0.00000000 </v>
   <v>       0.41666667       0.16666667       0.00000000 </v>
   <v>      -0.16666667      -0.41666667       0.00000000 </v>
   <v>       0.41666667       0.41666667       0.00000000 </v>
   <v>       0.25000000       0.25000000       0.00000000 </v>
   <v>      -0.25000000       0.50000000       0.00000000 </v>
   <v>       0.50000000       0.25000000       0.00000000 </v>
   <v>       0.33333333       0.25000000       0.00000000 </v>
   <v>      -0.25000000      -0.41666667       0.00000000 </v>
   <v>       0.41666667       0.33333333       0.00000000 </v>
   <v>      -0.33333333      -0.41666667       0.00000000 </v>
   <v>       0.25000000       0.33333333       0.00000000 </v>
   <v>      -0.41666667      -0.25000000       0.00000000 </v>
   <v>       0.33333333       0.33333333       0.00000000 </v>
  </varray>
  <varray name="weights" >
   <v>       0.00694444 </v>
   <v>       0.01388889 </v>
   <v>       0.01388889 </v>
   <v>       0.01388889 </v>
   <v>       0.01388889 </v>
   <v>       0.01388889 </v>
   <v>       0.01388889 </v>
   <v>       0.01388889 </v>
   <v>       0.01388889 </v>
   <v>       0.01388889 </v>
   <v>       0.01388889 </v>
   <v>       0.01388889 </v>
   <v>       0.01388889 </v>
   <v>       0.01388889 </v>
   <v>       0.01388889 </v>
   <v>       0.01388889 </v>
   <v>       0.00694444 </v>
   <v>       0.00694444 </v>
   <v>       0.00694444 </v>
   <v>       0.01388889 </v>
   <v>       0.01388889 </v>
   <v>       0.01388889 </v>
   <v>       0.01388889 </v>
   <v>       0.01388889 </v>
   <v>       0.01388889 </v>
   <v>       0.01388889 </v>
   <v>       0.01388889 </v>
   <v>       0.01388889 </v>
   <v>       0.01388889 </v>
   <v>       0.01388889 </v>
   <v>       0.01388889 </v>
   <v>       0.01388889 </v>
   <v>       0.01388889 </v>
   <v>       0.01388889 </v>
   <v>       0.01388889 </v>
   <v>       0.01388889 </v>
   <v>       0.01388889 </v>
   <v>       0.01388889 </v>
   <v>       0.01388889 </v>
   <v>       0.01388889 </v>
   <v>       0.01388889 </v>
   <v>       0.01388889 </v>
   <v>       0.01388889 </v>
   <v>       0.01388889 </v>
   <v>       0.01388889 </v>
   <v>       0.01388889 </v>
   <v>       0.01388889 </v>
   <v>       0.01388889 </v>
   <v>       0.01388889 </v>
   <v>       0.01388889 </v>
   <v>       0.01388889 </v>
   <v>       0.01388889 </v>
   <v>       0.01388889 </v>
   <v>       0.01388889 </v>
   <v>       0.01388889 </v>
   <v>       0.01388889 </v>
   <v>       0.01388889 </v>
   <v>       0.01388889 </v>
   <v>       0.01388889 </v>
   <v>       0.01388889 </v>
   <v>       0.01388889 </v>
   <v>       0.01388889 </v>
   <v>       0.01388889 </v>
   <v>       0.01388889 </v>
   <v>       0.01388889 </v>
   <v>       0.01388889 </v>
   <v>       0.01388889 </v>
   <v>       0.01388889 </v>
   <v>       0.01388889 </v>
   <v>       0.01388889 </v>
   <v>       0.01388889 </v>
   <v>       0.01388889 </v>
   <v>       0.01388889 </v>
   <v>       0.01388889 </v>
  </varray>
 </kpoints>
 <parameters>
  <separator name="general" >
   <i type="string" name="SYSTEM">Lattice</i>
   <i type="logical" name="LCOMPAT"> F  </i>
  </separator>
  <separator name="electronic" >
   <i type="string" name="PREC">accura</i>
   <i name="ENMAX">    450.00000000</i>
   <i name="ENAUG">    644.87300000</i>
   <i name="EDIFF">      0.00000100</i>
   <i type="int" name="IALGO">    38</i>
   <i type="int" name="IWAVPR">    11</i>
   <i type="int" name="NBANDS">    48</i>
   <i type="int" name="NBANDSLOW">    -1</i>
   <i type="int" name="NBANDSHIGH">    -1</i>
   <i name="NELECT">     56.00000000</i>
   <i type="int" name="TURBO">     0</i>
   <i type="int" name="IRESTART">     0</i>
   <i type="int" name="NREBOOT">     0</i>
   <i type="int" name="NMIN">     0</i>
   <i name="EREF">      0.00000000</i>
   <separator name="electronic smearing" >
    <i type="int" name="ISMEAR">     0</i>
    <i name="SIGMA">      0.10000000</i>
    <i name="KSPACING">      0.50000000</i>
    <i type="logical" name="KGAMMA"> T  </i>
    <i type="logical" name="KBLOWUP"> T  </i>
   </separator>
   <separator name="electronic projectors" >
    <i type="logical" name="LREAL"> F  </i>
    <v name="ROPT">      0.00000000      0.00000000</v>
    <i type="int" name="LMAXPAW">  -100</i>
    <i type="int" name="LMAXMIX">     2</i>
    <i type="logical" name="NLSPLINE"> F  </i>
   </separator>
   <separator name="electronic startup" >
    <i type="int" name="ISTART">     0</i>
    <i type="int" name="ICHARG">     2</i>
    <i type="int" name="INIWAV">     1</i>
   </separator>
   <separator name="electronic spin" >
    <i type="int" name="ISPIN">     2</i>
    <i type="logical" name="LNONCOLLINEAR"> F  </i>
    <v name="MAGMOM">      1.00000000      1.00000000      1.00000000      1.00000000      1.00000000      1.00000000      1.00000000      1.00000000      1.00000000      1.00000000      1.00000000      1.00000000      1.00000000      1.00000000      1.00000000</v>
    <i name="NUPDOWN">     -1.00000000</i>
    <i type="logical" name="LSORBIT"> F  </i>
    <v name="SAXIS">      0.00000000      0.00000000      1.00000000</v>
    <i type="logical" name="LSPIRAL"> F  </i>
    <v name="QSPIRAL">      0.00000000      0.00000000      0.00000000</v>
    <i type="logical" name="LZEROZ"> F  </i>
   </separator>
   <separator name="electronic exchange-correlation" >
    <i type="logical" name="LASPH"> F  </i>
    <i type="logical" name="LMETAGGA"> F  </i>
   </separator>
   <separator name="electronic convergence" >
    <i type="int" name="NELM">    64</i>
    <i type="int" name="NELMDL">    -5</i>
    <i type="int" name="NELMIN">     2</i>
    <i name="ENINI">    450.00000000</i>
    <separator name="electronic convergence detail" >
     <i type="logical" name="LDIAG"> T  </i>
     <i type="logical" name="LSUBROT"> F  </i>
     <i name="WEIMIN">      0.00100000</i>
     <i name="EBREAK">      0.00000001</i>
     <i name="DEPER">      0.30000000</i>
     <i type="int" name="NRMM">     4</i>
     <i name="TIME">      0.40000000</i>
    </separator>
   </separator>
   <separator name="electronic mixer" >
    <i name="AMIX">      0.40000000</i>
    <i name="BMIX">      1.00000000</i>
    <i name="AMIN">      0.10000000</i>
    <i name="AMIX_MAG">      1.60000000</i>
    <i name="BMIX_MAG">      1.00000000</i>
    <separator name="electronic mixer details" >
     <i type="int" name="IMIX">     4</i>
     <i type="logical" name="MIXFIRST"> F  </i>
     <i type="int" name="MAXMIX">   -45</i>
     <i name="WC">    100.00000000</i>
     <i type="int" name="INIMIX">     1</i>
     <i type="int" name="MIXPRE">     1</i>
     <i type="int" name="MREMOVE">     5</i>
    </separator>
   </separator>
   <separator name="electronic dipolcorrection" >
    <i type="logical" name="LDIPOL"> F  </i>
    <i type="logical" name="LMONO"> F  </i>
    <i type="int" name="IDIPOL">     0</i>
    <i name="EPSILON">      1.00000000</i>
    <v name="DIPOL">   -100.00000000   -100.00000000   -100.00000000</v>
    <i name="EFIELD">      0.00000000</i>
   </separator>
  </separator>
  <separator name="grids" >
   <i type="int" name="NGX">    36</i>
   <i type="int" name="NGY">    36</i>
   <i type="int" name="NGZ">   108</i>
   <i type="int" name="NGXF">    72</i>
   <i type="int" name="NGYF">    72</i>
   <i type="int" name="NGZF">   216</i>
   <i type="logical" name="ADDGRID"> F  </i>
  </separator>
  <separator name="ionic" >
   <i type="int" name="NSW">   128</i>
   <i type="int" name="IBRION">     2</i>
   <i type="int" name="MDALGO">     0</i>
   <i type="int" name="ISIF">     2</i>
   <i name="PSTRESS">      0.00000000</i>
   <i name="EDIFFG">     -0.00100000</i>
   <i type="int" name="NFREE">     1</i>
   <i name="POTIM">      0.50000000</i>
   <i name="SMASS">     -3.00000000</i>
   <i name="SCALEE">      1.00000000</i>
  </separator>
  <separator name="ionic md" >
   <i name="TEBEG">      0.00010000</i>
   <i name="TEEND">      0.00010000</i>
   <i type="int" name="NBLOCK">     1</i>
   <i type="int" name="KBLOCK">   128</i>
   <i type="int" name="NPACO">   256</i>
   <i name="APACO">     10.00000000</i>
  </separator>
  <separator name="symmetry" >
   <i type="int" name="ISYM">     2</i>
   <i name="SYMPREC">      0.00001000</i>
  </separator>
  <separator name="dos" >
   <i type="int" name="LORBIT">     0</i>
   <v name="RWIGS">     -1.00000000     -1.00000000</v>
   <i type="int" name="NEDOS">   301</i>
   <i name="EMIN">     10.00000000</i>
   <i name="EMAX">    -10.00000000</i>
   <i name="EFERMI">      0.00000000</i>
  </separator>
  <separator name="writing" >
   <i type="int" name="NWRITE">     2</i>
   <i type="logical" name="LWAVE"> F  </i>
   <i type="logical" name="LDOWNSAMPLE"> F  </i>
   <i type="logical" name="LCHARG"> F  </i>
   <i type="logical" name="LPARD"> F  </i>
   <i type="logical" name="LVTOT"> F  </i>
   <i type="logical" name="LVHAR"> F  </i>
   <i type="logical" name="LELF"> F  </i>
   <i type="logical" name="LOPTICS"> F  </i>
   <v name="STM">      0.00000000      0.00000000      0.00000000      0.00000000      0.00000000      0.00000000      0.00000000</v>
  </separator>
  <separator name="performance" >
   <i type="int" name="NPAR">    48</i>
   <i type="int" name="NSIM">     4</i>
   <i type="int" name="NBLK">    -1</i>
   <i type="logical" name="LPLANE"> T  </i>
   <i type="logical" name="LSCALAPACK"> T  </i>
   <i type="logical" name="LSCAAWARE"> F  </i>
   <i type="logical" name="LSCALU"> F  </i>
   <i type="logical" name="LASYNC"> F  </i>
   <i type="logical" name="LORBITALREAL"> F  </i>
  </separator>
  <separator name="miscellaneous" >
   <i type="int" name="IDIOT">     3</i>
   <i type="int" name="PHON_NSTRUCT">    -1</i>
   <i type="logical" name="LMUSIC"> F  </i>
   <v name="POMASS">     10.81100000     12.01100000</v>
   <v name="DARWINR">      0.00000000      0.00000000</v>
   <v name="DARWINV">      1.00000000      1.00000000</v>
   <i type="logical" name="LCORR"> T  </i>
  </separator>
  <i type="logical" name="GGA_COMPAT"> T  </i>
  <i type="logical" name="LBERRY"> F  </i>
  <i type="int" name="ICORELEVEL">     0</i>
  <i type="logical" name="LDAU"> F  </i>
  <i type="int" name="I_CONSTRAINED_M">     0</i>
  <separator name="electronic exchange-correlation" >
   <i type="string" name="GGA">PE</i>
   <i type="int" name="VOSKOWN">     0</i>
   <i type="logical" name="LHFCALC"> F  </i>
   <i type="string" name="PRECFOCK"></i>
   <i type="logical" name="LSYMGRAD"> F  </i>
   <i type="logical" name="LHFONE"> F  </i>
   <i type="logical" name="LRHFCALC"> F  </i>
   <i type="logical" name="LTHOMAS"> F  </i>
   <i type="logical" name="LMODELHF"> F  </i>
   <i type="logical" name="LFOCKACE"> F  </i>
   <i name="ENCUT4O">     -1.00000000</i>
   <i type="int" name="EXXOEP">     0</i>
   <i type="int" name="FOURORBIT">     0</i>
   <i name="AEXX">      0.00000000</i>
   <i name="HFALPHA">      0.00000000</i>
   <i name="MCALPHA">      0.00000000</i>
   <i name="ALDAX">      1.00000000</i>
   <i name="AGGAX">      1.00000000</i>
   <i name="ALDAC">      1.00000000</i>
   <i name="AGGAC">      1.00000000</i>
   <i type="int" name="NKREDX">     1</i>
   <i type="int" name="NKREDY">     1</i>
   <i type="int" name="NKREDZ">     1</i>
   <i type="logical" name="SHIFTRED"> F  </i>
   <i type="logical" name="ODDONLY"> F  </i>
   <i type="logical" name="EVENONLY"> F  </i>
   <i type="int" name="LMAXFOCK">     0</i>
   <i type="int" name="NMAXFOCKAE">     0</i>
   <i type="logical" name="LFOCKAEDFT"> F  </i>
   <i name="HFSCREEN">      0.00000000</i>
   <i name="HFSCREENC">      0.00000000</i>
   <i type="int" name="NBANDSGWLOW">     0</i>
  </separator>
  <separator name="vdW DFT" >
   <i type="logical" name="LUSE_VDW"> F  </i>
   <i name="Zab_VDW">     -0.84910000</i>
   <i name="PARAM1">      0.12340000</i>
   <i name="PARAM2">      1.00000000</i>
   <i name="PARAM3">      0.00000000</i>
  </separator>
  <separator name="model GW" >
   <i type="int" name="MODEL_GW">     0</i>
   <i name="MODEL_EPS0">     12.15721387</i>
   <i name="MODEL_ALPHA">      1.00000000</i>
  </separator>
  <separator name="linear response parameters" >
   <i type="logical" name="LEPSILON"> F  </i>
   <i type="logical" name="LRPA"> F  </i>
   <i type="logical" name="LNABLA"> F  </i>
   <i type="logical" name="LVEL"> F  </i>
   <i name="CSHIFT">      0.10000000</i>
   <i name="OMEGAMAX">     -1.00000000</i>
   <i name="DEG_THRESHOLD">      0.00200000</i>
   <i name="RTIME">     -0.10000000</i>
   <i name="WPLASMAI">      0.00000000</i>
   <v name="DFIELD">      0.00000000      0.00000000      0.00000000</v>
   <v name="WPLASMA">      0.00000000      0.00000000      0.00000000      0.00000000      0.00000000      0.00000000      0.00000000      0.00000000      0.00000000</v>
  </separator>
  <separator name="orbital magnetization" >
   <i type="logical" name="NUCIND"> F  </i>
   <v name="MAGPOS">      0.00000000      0.00000000      0.00000000</v>
   <i type="logical" name="LNICSALL"> T  </i>
   <i type="logical" name="ORBITALMAG"> F  </i>
   <i type="logical" name="LMAGBLOCH"> F  </i>
   <i type="logical" name="LCHIMAG"> F  </i>
   <i type="logical" name="LGAUGE"> T  </i>
   <i type="int" name="MAGATOM">     0</i>
   <v name="MAGDIPOL">      0.00000000      0.00000000      0.00000000</v>
   <v name="AVECCONST">      0.00000000      0.00000000      0.00000000</v>
  </separator>
  <separator name="response functions" >
   <i type="logical" name="LFINITE_TEMPERATURE"> F  </i>
   <i type="logical" name="LADDER"> F  </i>
   <i type="logical" name="LRPAFORCE"> F  </i>
   <i type="logical" name="LFXC"> F  </i>
   <i type="logical" name="LHARTREE"> T  </i>
   <i type="int" name="IBSE">     0</i>
   <v type="int" name="KPOINT">    -1     0     0     0</v>
   <i type="logical" name="LTCTC"> F  </i>
   <i type="logical" name="LTCTE"> F  </i>
   <i type="logical" name="LTETE"> F  </i>
   <i type="logical" name="LTRIPLET"> F  </i>
   <i type="logical" name="LFXCEPS"> F  </i>
   <i type="logical" name="LFXHEG"> F  </i>
   <i type="int" name="NATURALO">     2</i>
   <i type="logical" name="LHOLEGF"> F  </i>
   <i type="logical" name="L2ORDER"> F  </i>
   <i type="logical" name="LDMP1"> F  </i>
   <i type="logical" name="LMP2LT"> F  </i>
   <i type="logical" name="LSMP2LT"> F  </i>
   <i type="logical" name="LGWLF"> F  </i>
   <i name="ENCUTGW">     -2.00000000</i>
   <i name="ENCUTGWSOFT">     -2.00000000</i>
   <i name="ENCUTLF">     -1.00000000</i>
   <i type="logical" name="LESF_SPLINES"> F  </i>
   <i type="int" name="LMAXMP2">    -1</i>
   <i name="SCISSOR">      0.00000000</i>
   <i type="int" name="NOMEGA">     0</i>
   <i type="int" name="NOMEGAR">     0</i>
   <i type="int" name="NBANDSGW">    -1</i>
   <i type="int" name="NBANDSO">    -1</i>
   <i type="int" name="NBANDSV">    -1</i>
   <i type="int" name="NELMGW">     1</i>
   <i type="int" name="NELMHF">     1</i>
   <i type="int" name="DIM">     3</i>
   <i type="int" name="IESPILON">     4</i>
   <i type="int" name="ANTIRES">     0</i>
   <i name="OMEGAMAX">    -30.00000000</i>
   <i name="OMEGAMIN">    -30.00000000</i>
   <i name="OMEGATL">   -200.00000000</i>
   <i type="int" name="OMEGAGRID">     0</i>
   <i name="CSHIFT">     -0.10000000</i>
   <i type="logical" name="LSELFENERGY"> F  </i>
   <i type="logical" name="LSPECTRAL"> F  </i>
   <i type="logical" name="LSPECTRALGW"> F  </i>
   <i type="logical" name="LSINGLES"> F  </i>
   <i type="logical" name="LFERMIGW"> F  </i>
   <i type="logical" name="ODDONLYGW"> F  </i>
   <i type="logical" name="EVENONLYGW"> F  </i>
   <i type="int" name="NKREDLFX">     1</i>
   <i type="int" name="NKREDLFY">     1</i>
   <i type="int" name="NKREDLFZ">     1</i>
   <i type="int" name="MAXMEM">  2800</i>
   <i type="int" name="TELESCOPE">     0</i>
   <i type="int" name="NTAUPAR">    -1</i>
   <i type="int" name="NOMEGAPAR">    -1</i>
   <i name="DAMP_NEWTON">      0.80000001</i>
   <i name="LAMBDA">      1.00000000</i>
  </separator>
  <separator name="External order field" >
   <i name="OFIELD_KAPPA">      0.00000000</i>
   <v name="OFIELD_K">      0.00000000      0.00000000      0.00000000</v>
   <i name="OFIELD_Q6_NEAR">      0.00000000</i>
   <i name="OFIELD_Q6_FAR">      0.00000000</i>
   <i name="OFIELD_A">      0.00000000</i>
  </separator>
  <separator name="optional k-points parameters" >
   <i type="int" name="KPOINTS_OPT_MODE">     1</i>
   <i type="logical" name="LKPOINTS_OPT"> F  </i>
  </separator>
  <separator name="solvation model" >
   <i type="logical" name="LSOL"> F  </i>
  </separator>
 </parameters>
 <atominfo>
  <atoms>      15 </atoms>
  <types>       2 </types>
  <array name="atoms" >
   <dimension dim="1">ion</dimension>
   <field type="string">element</field>
   <field type="int">atomtype</field>
   <set>
    <rc><c>B </c><c>   1</c></rc>
    <rc><c>B </c><c>   1</c></rc>
    <rc><c>B </c><c>   1</c></rc>
    <rc><c>B </c><c>   1</c></rc>
    <rc><c>C </c><c>   2</c></rc>
    <rc><c>C </c><c>   2</c></rc>
    <rc><c>C </c><c>   2</c></rc>
    <rc><c>C </c><c>   2</c></rc>
    <rc><c>C </c><c>   2</c></rc>
    <rc><c>C </c><c>   2</c></rc>
    <rc><c>C </c><c>   2</c></rc>
    <rc><c>C </c><c>   2</c></rc>
    <rc><c>C </c><c>   2</c></rc>
    <rc><c>C </c><c>   2</c></rc>
    <rc><c>C </c><c>   2</c></rc>
   </set>
  </array>
  <array name="atomtypes" >
   <dimension dim="1">type</dimension>
   <field type="int">atomspertype</field>
   <field type="string">element</field>
   <field>mass</field>
   <field>valence</field>
   <field type="string">pseudopotential</field>
   <set>
    <rc><c>   4</c><c>B </c><c>     10.81100000</c><c>      3.00000000</c><c>  PAW_PBE B 06Sep2000                   </c></rc>
    <rc><c>  11</c><c>C </c><c>     12.01100000</c><c>      4.00000000</c><c>  PAW_PBE C 08Apr2002                   </c></rc>
   </set>
  </array>
 </atominfo>
 <structure name="initialpos" >
  <crystal>
   <varray name="basis" >
    <v>       4.18896488       2.41850000       0.00000000 </v>
    <v>      -4.18896488       2.41850000       0.00000000 </v>
    <v>       0.00000000       0.00000000      15.00000000 </v>
   </varray>
   <i name="volume">    303.93034673 </i>
   <varray name="rec_basis" >
    <v>       0.11936123       0.20673971       0.00000000 </v>
    <v>      -0.11936123       0.20673971       0.00000000 </v>
    <v>       0.00000000       0.00000000       0.06666667 </v>
   </varray>
  </crystal>
  <varray name="positions" >
   <v>       0.00415361       0.00267210       0.12034134 </v>
   <v>       0.35695335       0.00285503       0.09748893 </v>
   <v>       0.00423858       0.35550699       0.09749256 </v>
   <v>       0.65142295       0.65006557       0.09747688 </v>
   <v>       0.32808646       0.32671938       0.10030508 </v>
   <v>       0.68027775       0.00278085       0.10027562 </v>
   <v>       0.00416530       0.67883808       0.10026559 </v>
   <v>       0.16666600       0.33333300       0.33720000 </v>
   <v>       0.33333300       0.16666600       0.33720000 </v>
   <v>       0.16666600       0.83333300       0.33720000 </v>
   <v>       0.33333300       0.66666600       0.33720000 </v>
   <v>       0.66666600       0.33333300       0.33720000 </v>
   <v>       0.83333300       0.16666600       0.33720000 </v>
   <v>       0.66666600       0.83333300       0.33720000 </v>
   <v>       0.83333300       0.66666600       0.33720000 </v>
  </varray>
 </structure>
 <calculation>
  <scstep>
   <time name="dav">    5.52    5.59</time>
   <time name="total">    5.57    5.64</time>
   <energy>
    <i name="alphaZ">     58.52424752 </i>
    <i name="ewald">   4711.70422194 </i>
    <i name="hartreedc">  -6266.63998942 </i>
    <i name="XCdc">    175.26230503 </i>
    <i name="pawpsdc">   1365.87943566 </i>
    <i name="pawaedc">  -1368.52100941 </i>
    <i name="eentropy">     -0.01717412 </i>
    <i name="bandstr">   -375.79008896 </i>
    <i name="atom">   1903.26342058 </i>
    <i name="e_fr_energy">    203.66536881 </i>
    <i name="e_wo_entrp">    203.68254293 </i>
    <i name="e_0_energy">    203.67395587 </i>
   </energy>
  </scstep>
  <scstep>
   <time name="dav">    8.02    8.11</time>
   <time name="total">    8.02    8.11</time>
   <energy>
    <i name="e_fr_energy">   -116.46252382 </i>
    <i name="e_wo_entrp">   -116.46071009 </i>
    <i name="e_0_energy">   -116.46161695 </i>
   </energy>
  </scstep>
  <scstep>
   <time name="dav">   11.29   11.38</time>
   <time name="total">   11.29   11.38</time>
   <energy>
    <i name="e_fr_energy">   -129.52168853 </i>
    <i name="e_wo_entrp">   -129.51864050 </i>
    <i name="e_0_energy">   -129.52016451 </i>
   </energy>
  </scstep>
  <scstep>
   <time name="dav">    8.49    8.56</time>
   <time name="total">    8.49    8.56</time>
   <energy>
    <i name="e_fr_energy">   -129.54557925 </i>
    <i name="e_wo_entrp">   -129.54249788 </i>
    <i name="e_0_energy">   -129.54403857 </i>
   </energy>
  </scstep>
  <scstep>
   <time name="dav">   10.53   10.61</time>
   <time name="total">   10.80   10.88</time>
   <energy>
    <i name="e_fr_energy">   -129.54563551 </i>
    <i name="e_wo_entrp">   -129.54255403 </i>
    <i name="e_0_energy">   -129.54409477 </i>
   </energy>
  </scstep>
  <scstep>
   <time name="dav">   10.65   10.73</time>
   <time name="total">   10.97   11.06</time>
   <energy>
    <i name="e_fr_energy">    -92.07460572 </i>
    <i name="e_wo_entrp">    -92.06797977 </i>
    <i name="e_0_energy">    -92.07129275 </i>
   </energy>
  </scstep>
  <scstep>
   <time name="dav">    9.29    9.36</time>
   <time name="total">    9.60    9.69</time>
   <energy>
    <i name="e_fr_energy">   -100.52563193 </i>
    <i name="e_wo_entrp">   -100.51981212 </i>
    <i name="e_0_energy">   -100.52272202 </i>
   </energy>
  </scstep>
  <scstep>
   <time name="dav">   10.00   10.07</time>
   <time name="total">   10.31   10.40</time>
   <energy>
    <i name="e_fr_energy">   -110.50343221 </i>
    <i name="e_wo_entrp">   -110.50339517 </i>
    <i name="e_0_energy">   -110.50341369 </i>
   </energy>
  </scstep>
  <scstep>
   <time name="dav">    7.91    7.98</time>
   <time name="total">    8.23    8.30</time>
   <energy>
    <i name="e_fr_energy">   -117.21230651 </i>
    <i name="e_wo_entrp">   -117.21230216 </i>
    <i name="e_0_energy">   -117.21230433 </i>
   </energy>
  </scstep>
  <scstep>
   <time name="dav">    9.72    9.79</time>
   <time name="total">   10.03   10.11</time>
   <energy>
    <i name="e_fr_energy">   -123.46796591 </i>
    <i name="e_wo_entrp">   -123.46736456 </i>
    <i name="e_0_energy">   -123.46766523 </i>
   </energy>
  </scstep>
  <scstep>
   <time name="dav">   10.04   10.10</time>
   <time name="total">   10.35   10.44</time>
   <energy>
    <i name="e_fr_energy">   -125.29955571 </i>
    <i name="e_wo_entrp">   -125.29836936 </i>
    <i name="e_0_energy">   -125.29896253 </i>
   </energy>
  </scstep>
  <scstep>
   <time name="dav">    8.38    8.43</time>
   <time name="total">    8.69    8.76</time>
   <energy>
    <i name="e_fr_energy">   -125.42468301 </i>
    <i name="e_wo_entrp">   -125.42321020 </i>
    <i name="e_0_energy">   -125.42394660 </i>
   </energy>
  </scstep>
  <scstep>
   <time name="dav">    6.81    6.85</time>
   <time name="total">    7.12    7.17</time>
   <energy>
    <i name="e_fr_energy">   -125.45135139 </i>
    <i name="e_wo_entrp">   -125.44979091 </i>
    <i name="e_0_energy">   -125.45057115 </i>
   </energy>
  </scstep>
  <scstep>
   <time name="dav">    8.81    8.88</time>
   <time name="total">    9.12    9.20</time>
   <energy>
    <i name="e_fr_energy">   -125.47521786 </i>
    <i name="e_wo_entrp">   -125.47365153 </i>
    <i name="e_0_energy">   -125.47443469 </i>
   </energy>
  </scstep>
  <scstep>
   <time name="dav">    7.24    7.29</time>
   <time name="total">    7.55    7.62</time>
   <energy>
    <i name="e_fr_energy">   -125.48332960 </i>
    <i name="e_wo_entrp">   -125.48176244 </i>
    <i name="e_0_energy">   -125.48254602 </i>
   </energy>
  </scstep>
  <scstep>
   <time name="dav">    7.08    7.13</time>
   <time name="total">    7.39    7.45</time>
   <energy>
    <i name="e_fr_energy">   -125.48541241 </i>
    <i name="e_wo_entrp">   -125.48384522 </i>
    <i name="e_0_energy">   -125.48462882 </i>
   </energy>
  </scstep>
  <scstep>
   <time name="dav">    5.71    5.76</time>
   <time name="total">    6.02    6.08</time>
   <energy>
    <i name="e_fr_energy">   -125.48670797 </i>
    <i name="e_wo_entrp">   -125.48514079 </i>
    <i name="e_0_energy">   -125.48592438 </i>
   </energy>
  </scstep>
  <scstep>
   <time name="dav">    6.87    6.91</time>
   <time name="total">    7.18    7.23</time>
   <energy>
    <i name="e_fr_energy">   -125.48739948 </i>
    <i name="e_wo_entrp">   -125.48583232 </i>
    <i name="e_0_energy">   -125.48661590 </i>
   </energy>
  </scstep>
  <scstep>
   <time name="dav">    7.42    7.48</time>
   <time name="total">    7.74    7.80</time>
   <energy>
    <i name="e_fr_energy">   -125.48786676 </i>
    <i name="e_wo_entrp">   -125.48629958 </i>
    <i name="e_0_energy">   -125.48708317 </i>
   </energy>
  </scstep>
  <scstep>
   <time name="dav">    9.29    9.35</time>
   <time name="total">    9.60    9.68</time>
   <energy>
    <i name="e_fr_energy">   -125.48791471 </i>
    <i name="e_wo_entrp">   -125.48634752 </i>
    <i name="e_0_energy">   -125.48713112 </i>
   </energy>
  </scstep>
  <scstep>
   <time name="dav">    8.27    8.33</time>
   <time name="total">    8.58    8.65</time>
   <energy>
    <i name="e_fr_energy">   -125.48794147 </i>
    <i name="e_wo_entrp">   -125.48637428 </i>
    <i name="e_0_energy">   -125.48715788 </i>
   </energy>
  </scstep>
  <scstep>
   <time name="dav">    8.79    8.86</time>
   <time name="total">    9.10    9.18</time>
   <energy>
    <i name="e_fr_energy">   -125.48796198 </i>
    <i name="e_wo_entrp">   -125.48639478 </i>
    <i name="e_0_energy">   -125.48717838 </i>
   </energy>
  </scstep>
  <scstep>
   <time name="dav">    8.13    8.19</time>
   <time name="total">    8.44    8.51</time>
   <energy>
    <i name="e_fr_energy">   -125.48797925 </i>
    <i name="e_wo_entrp">   -125.48641206 </i>
    <i name="e_0_energy">   -125.48719566 </i>
   </energy>
  </scstep>
  <scstep>
   <time name="dav">    9.53    9.58</time>
   <time name="total">    9.84    9.91</time>
   <energy>
    <i name="e_fr_energy">   -125.48798293 </i>
    <i name="e_wo_entrp">   -125.48641574 </i>
    <i name="e_0_energy">   -125.48719934 </i>
   </energy>
  </scstep>
  <scstep>
   <time name="dav">    9.55    9.67</time>
   <time name="total">    9.86    9.99</time>
   <energy>
    <i name="e_fr_energy">   -125.48798395 </i>
    <i name="e_wo_entrp">   -125.48641675 </i>
    <i name="e_0_energy">   -125.48720035 </i>
   </energy>
  </scstep>
  <scstep>
   <time name="dav">    8.37    8.52</time>
   <time name="total">    8.41    8.56</time>
   <energy>
    <i name="alphaZ">     58.52424752 </i>
    <i name="ewald">   4711.70422194 </i>
    <i name="hartreedc">  -6470.33921935 </i>
    <i name="XCdc">    180.70592131 </i>
    <i name="pawpsdc">   5788.42722091 </i>
    <i name="pawaedc">  -5792.85899063 </i>
    <i name="eentropy">     -0.00156719 </i>
    <i name="bandstr">   -504.91323955 </i>
    <i name="atom">   1903.26342058 </i>
    <i name="e_fr_energy">   -125.48798448 </i>
    <i name="e_wo_entrp">   -125.48641728 </i>
    <i name="e_0_energy">   -125.48720088 </i>
   </energy>
  </scstep>
  <structure>
   <crystal>
    <varray name="basis" >
     <v>       4.18896488       2.41850000       0.00000000 </v>
     <v>      -4.18896488       2.41850000       0.00000000 </v>
     <v>       0.00000000       0.00000000      15.00000000 </v>
    </varray>
    <i name="volume">    303.93034673 </i>
    <varray name="rec_basis" >
     <v>       0.11936123       0.20673971       0.00000000 </v>
     <v>      -0.11936123       0.20673971       0.00000000 </v>
     <v>       0.00000000       0.00000000       0.06666667 </v>
    </varray>
   </crystal>
   <varray name="positions" >
    <v>       0.00415361       0.00267210       0.12034134 </v>
    <v>       0.35695335       0.00285503       0.09748893 </v>
    <v>       0.00423858       0.35550699       0.09749256 </v>
    <v>       0.65142295       0.65006557       0.09747688 </v>
    <v>       0.32808646       0.32671938       0.10030508 </v>
    <v>       0.68027775       0.00278085       0.10027562 </v>
    <v>       0.00416530       0.67883808       0.10026559 </v>
    <v>       0.16666600       0.33333300       0.33720000 </v>
    <v>       0.33333300       0.16666600       0.33720000 </v>
    <v>       0.16666600       0.83333300       0.33720000 </v>
    <v>       0.33333300       0.66666600       0.33720000 </v>
    <v>       0.66666600       0.33333300       0.33720000 </v>
    <v>       0.83333300       0.16666600       0.33720000 </v>
    <v>       0.66666600       0.83333300       0.33720000 </v>
    <v>       0.83333300       0.66666600       0.33720000 </v>
   </varray>
  </structure>
  <varray name="forces" >
   <v>      -0.00420956       0.00560676      -0.40544857 </v>
   <v>      -0.08251103      -0.05292445       0.10711590 </v>
   <v>       0.08209060      -0.05184091       0.10688891 </v>
   <v>       0.00278307       0.09604341       0.10946176 </v>
   <v>       0.00316132      -0.32235070       0.00465300 </v>
   <v>       0.27751463       0.16235797       0.00788062 </v>
   <v>      -0.27837302       0.16450007       0.00900464 </v>
   <v>      -0.01409865       0.00100193       0.01872623 </v>
   <v>       0.01390004       0.00116372       0.01904855 </v>
   <v>       0.00837994       0.01065694       0.01958107 </v>
   <v>      -0.00037522       0.00040503      -0.02693896 </v>
   <v>       0.00060722       0.00018422      -0.02694392 </v>
   <v>      -0.00839965       0.01040354       0.01954619 </v>
   <v>       0.00549069      -0.01250459       0.01885705 </v>
   <v>      -0.00596040      -0.01270294       0.01856752 </v>
  </varray>
  <varray name="stress" >
   <v>       2.58798742       0.00961488      -0.01583951 </v>
   <v>       0.00961486       2.59442753      -0.01550486 </v>
   <v>      -0.01583953      -0.01550488      -1.72320095 </v>
  </varray>
  <energy>
   <i name="e_fr_energy">   -127.07687355 </i>
   <i name="e_wo_entrp">   -127.07530635 </i>
   <i name="e_0_energy">   -127.07608995 </i>
  </energy>
  <time name="totalsc">  233.01  236.89</time>
 </calculation>
 <calculation>
  <scstep>
   <time name="dav">    5.51    5.55</time>
   <time name="total">    5.83    5.88</time>
   <energy>
    <i name="alphaZ">     58.52424752 </i>
    <i name="ewald">   4714.46265710 </i>
    <i name="hartreedc">  -6471.78586730 </i>
    <i name="XCdc">    180.78179994 </i>
    <i name="pawpsdc">   5788.43450145 </i>
    <i name="pawaedc">  -5792.86627305 </i>
    <i name="eentropy">     -0.00156719 </i>
    <i name="bandstr">   -506.31056354 </i>
    <i name="atom">   1903.26342058 </i>
    <i name="e_fr_energy">   -125.49764451 </i>
    <i name="e_wo_entrp">   -125.49607732 </i>
    <i name="e_0_energy">   -125.49686091 </i>
   </energy>
  </scstep>
  <scstep>
   <time name="dav">   10.84   10.92</time>
   <time name="total">   11.15   11.25</time>
   <energy>
    <i name="e_fr_energy">   -125.49039392 </i>
    <i name="e_wo_entrp">   -125.48882672 </i>
    <i name="e_0_energy">   -125.48961032 </i>
   </energy>
  </scstep>
  <scstep>
   <time name="dav">    8.17    8.23</time>
   <time name="total">    8.48    8.55</time>
   <energy>
    <i name="e_fr_energy">   -125.48959709 </i>
    <i name="e_wo_entrp">   -125.48802990 </i>
    <i name="e_0_energy">   -125.48881349 </i>
   </energy>
  </scstep>
  <scstep>
   <time name="dav">   11.51   11.58</time>
   <time name="total">   11.82   11.90</time>
   <energy>
    <i name="e_fr_energy">   -125.48956706 </i>
    <i name="e_wo_entrp">   -125.48799987 </i>
    <i name="e_0_energy">   -125.48878347 </i>
   </energy>
  </scstep>
  <scstep>
   <time name="dav">   10.20   10.27</time>
   <time name="total">   10.51   10.59</time>
   <energy>
    <i name="e_fr_energy">   -125.48957017 </i>
    <i name="e_wo_entrp">   -125.48800298 </i>
    <i name="e_0_energy">   -125.48878658 </i>
   </energy>
  </scstep>
  <scstep>
   <time name="dav">    9.06    9.12</time>
   <time name="total">    9.10    9.16</time>
   <energy>
    <i name="alphaZ">     58.52424752 </i>
    <i name="ewald">   4714.46265710 </i>
    <i name="hartreedc">  -6472.45147247 </i>
    <i name="XCdc">    180.79676480 </i>
    <i name="pawpsdc">   5813.48711902 </i>
    <i name="pawaedc">  -5817.92700634 </i>
    <i name="eentropy">     -0.00156719 </i>
    <i name="bandstr">   -505.64373340 </i>
    <i name="atom">   1903.26342058 </i>
    <i name="e_fr_energy">   -125.48957040 </i>
    <i name="e_wo_entrp">   -125.48800320 </i>
    <i name="e_0_energy">   -125.48878680 </i>
   </energy>
  </scstep>
  <structure>
   <crystal>
    <varray name="basis" >
     <v>       4.18896488       2.41850000       0.00000000 </v>
     <v>      -4.18896488       2.41850000       0.00000000 </v>
     <v>       0.00000000       0.00000000      15.00000000 </v>
    </varray>
    <i name="volume">    303.93034673 </i>
    <varray name="rec_basis" >
     <v>       0.11936123       0.20673971       0.00000000 </v>
     <v>      -0.11936123       0.20673971       0.00000000 </v>
     <v>       0.00000000       0.00000000       0.06666667 </v>
    </varray>
   </crystal>
   <varray name="positions" >
    <v>       0.00418529       0.00275226       0.11903734 </v>
    <v>       0.35595038       0.00280230       0.09783344 </v>
    <v>       0.00419424       0.35451724       0.09783634 </v>
    <v>       0.65239688       0.65100745       0.09782893 </v>
    <v>       0.32488965       0.32348615       0.10032004 </v>
    <v>       0.68349507       0.00280214       0.10030097 </v>
    <v>       0.00420301       0.68208170       0.10029455 </v>
    <v>       0.16659481       0.33342418       0.33726023 </v>
    <v>       0.33342465       0.16659757       0.33726126 </v>
    <v>       0.16682054       0.83339103       0.33726298 </v>
    <v>       0.33333488       0.66667220       0.33711336 </v>
    <v>       0.66667133       0.33333134       0.33711334 </v>
    <v>       0.83338839       0.16681813       0.33726286 </v>
    <v>       0.66657290       0.83317667       0.33726065 </v>
    <v>       0.83317198       0.66657363       0.33725972 </v>
   </varray>
  </structure>
  <varray name="forces" >
   <v>      -0.00140211      -0.00077202      -0.19184918 </v>
   <v>       0.23370708       0.13357701       0.06257909 </v>
   <v>      -0.23484971       0.13549414       0.06240435 </v>
   <v>       0.00126123      -0.26389276       0.06422923 </v>
   <v>       0.00034386       0.53885083      -0.02063044 </v>
   <v>      -0.46476260      -0.27090266      -0.01833765 </v>
   <v>       0.46615684      -0.27102999      -0.01790842 </v>
   <v>       0.05458495      -0.00313772       0.00993287 </v>
   <v>      -0.05446133      -0.00365067       0.01002013 </v>
   <v>      -0.03167512      -0.04377992       0.01012007 </v>
   <v>       0.00129523      -0.00209991      -0.00018035 </v>
   <v>      -0.00255133      -0.00133398      -0.00017684 </v>
   <v>       0.03125123      -0.04285376       0.01008070 </v>
   <v>      -0.02348007       0.04743037       0.00988315 </v>
   <v>       0.02458185       0.04810104       0.00983329 </v>
  </varray>
  <varray name="stress" >
   <v>       5.05669878       0.00151171      -0.01103634 </v>
   <v>       0.00151173       5.03996942      -0.02584538 </v>
   <v>      -0.01103637      -0.02584538      -1.35716567 </v>
  </varray>
  <energy>
   <i name="e_fr_energy">   -127.07780995 </i>
   <i name="e_wo_entrp">   -127.07624275 </i>
   <i name="e_0_energy">   -127.07702635 </i>
  </energy>
  <time name="totalsc">   61.59   62.07</time>
 </calculation>
 <calculation>
  <scstep>
   <time name="dav">    5.54    5.58</time>
   <time name="total">    5.86    5.91</time>
   <energy>
    <i name="alphaZ">     58.52424752 </i>
    <i name="ewald">   4713.10724603 </i>
    <i name="hartreedc">  -6471.73336206 </i>
    <i name="XCdc">    180.75931132 </i>
    <i name="pawpsdc">   5813.50118862 </i>
    <i name="pawaedc">  -5817.94104862 </i>
    <i name="eentropy">     -0.00156719 </i>
    <i name="bandstr">   -504.97645138 </i>
    <i name="atom">   1903.26342058 </i>
    <i name="e_fr_energy">   -125.49701519 </i>
    <i name="e_wo_entrp">   -125.49544800 </i>
    <i name="e_0_energy">   -125.49623160 </i>
   </energy>
  </scstep>
  <scstep>
   <time name="dav">   10.43   10.50</time>
   <time name="total">   10.75   10.83</time>
   <energy>
    <i name="e_fr_energy">   -125.49530156 </i>
    <i name="e_wo_entrp">   -125.49373437 </i>
    <i name="e_0_energy">   -125.49451797 </i>
   </energy>
  </scstep>
  <scstep>
   <time name="dav">    8.65    8.71</time>
   <time name="total">    8.97    9.05</time>
   <energy>
    <i name="e_fr_energy">   -125.49512284 </i>
    <i name="e_wo_entrp">   -125.49355564 </i>
    <i name="e_0_energy">   -125.49433924 </i>
   </energy>
  </scstep>
  <scstep>
   <time name="dav">    9.82    9.88</time>
   <time name="total">   10.14   10.22</time>
   <energy>
    <i name="e_fr_energy">   -125.49511659 </i>
    <i name="e_wo_entrp">   -125.49354940 </i>
    <i name="e_0_energy">   -125.49433300 </i>
   </energy>
  </scstep>
  <scstep>
   <time name="dav">    7.81    7.87</time>
   <time name="total">    7.85    7.90</time>
   <energy>
    <i name="alphaZ">     58.52424752 </i>
    <i name="ewald">   4713.10724603 </i>
    <i name="hartreedc">  -6471.43242011 </i>
    <i name="XCdc">    180.75218581 </i>
    <i name="pawpsdc">   5800.98818533 </i>
    <i name="pawaedc">  -5805.42390955 </i>
    <i name="eentropy">     -0.00156719 </i>
    <i name="bandstr">   -505.27250566 </i>
    <i name="atom">   1903.26342058 </i>
    <i name="e_fr_energy">   -125.49511725 </i>
    <i name="e_wo_entrp">   -125.49355005 </i>
    <i name="e_0_energy">   -125.49433365 </i>
   </energy>
  </scstep>
  <structure>
   <crystal>
    <varray name="basis" >
     <v>       4.18896488       2.41850000       0.00000000 </v>
     <v>      -4.18896488       2.41850000       0.00000000 </v>
     <v>       0.00000000       0.00000000      15.00000000 </v>
    </varray>
    <i name="volume">    303.93034673 </i>
    <varray name="rec_basis" >
     <v>       0.11936123       0.20673971       0.00000000 </v>
     <v>      -0.11936123       0.20673971       0.00000000 </v>
     <v>       0.00000000       0.00000000       0.06666667 </v>
    </varray>
   </crystal>
   <varray name="positions" >
    <v>       0.00417005       0.00271370       0.11966457 </v>
    <v>       0.35643281       0.00282767       0.09766773 </v>
    <v>       0.00421556       0.35499332       0.09767098 </v>
    <v>       0.65192842       0.65055440       0.09765959 </v>
    <v>       0.32642734       0.32504135       0.10031284 </v>
    <v>       0.68194752       0.00279190       0.10028878 </v>
    <v>       0.00418487       0.68052150       0.10028062 </v>
    <v>       0.16662905       0.33338032       0.33723126 </v>
    <v>       0.33338056       0.16663048       0.33723180 </v>
    <v>       0.16674621       0.83336312       0.33723268 </v>
    <v>       0.33333398       0.66666922       0.33715503 </v>
    <v>       0.66666877       0.33333214       0.33715503 </v>
    <v>       0.83336175       0.16674495       0.33723263 </v>
    <v>       0.66661768       0.83325186       0.33723148 </v>
    <v>       0.83324943       0.66661806       0.33723099 </v>
   </varray>
  </structure>
  <varray name="forces" >
   <v>      -0.00285226       0.00247213      -0.29334298 </v>
   <v>       0.08417713       0.04527447       0.08383747 </v>
   <v>      -0.08501723       0.04679078       0.08363796 </v>
   <v>       0.00200951      -0.09375032       0.08582701 </v>
   <v>       0.00174712       0.12262945      -0.00864417 </v>
   <v>      -0.10617558      -0.06148084      -0.00592910 </v>
   <v>       0.10657054      -0.06056859      -0.00519306 </v>
   <v>       0.02145291      -0.00122660       0.01415784 </v>
   <v>      -0.02148453      -0.00141554       0.01435902 </v>
   <v>      -0.01242401      -0.01747313       0.01466712 </v>
   <v>       0.00048666      -0.00089406      -0.01311305 </v>
   <v>      -0.00102746      -0.00060456      -0.01311362 </v>
   <v>       0.01219186      -0.01711399       0.01462901 </v>
   <v>      -0.00942908       0.01855274       0.01419294 </v>
   <v>       0.00977441       0.01880805       0.01402760 </v>
  </varray>
  <varray name="stress" >
   <v>       3.76564988       0.00522897      -0.01345113 </v>
   <v>       0.00522896       3.75817043      -0.02051459 </v>
   <v>      -0.01345113      -0.02051461      -1.51408902 </v>
  </varray>
  <energy>
   <i name="e_fr_energy">   -127.08366599 </i>
   <i name="e_wo_entrp">   -127.08209880 </i>
   <i name="e_0_energy">   -127.08288240 </i>
  </energy>
  <time name="totalsc">   48.29   48.66</time>
 </calculation>
 <calculation>
  <scstep>
   <time name="dav">    5.55    5.60</time>
   <time name="total">    5.87    5.93</time>
   <energy>
    <i name="alphaZ">     58.52424752 </i>
    <i name="ewald">   4712.61059403 </i>
    <i name="hartreedc">  -6470.66457994 </i>
    <i name="XCdc">    180.77157132 </i>
    <i name="pawpsdc">   5800.95325601 </i>
    <i name="pawaedc">  -5805.38898587 </i>
    <i name="eentropy">     -0.00156719 </i>
    <i name="bandstr">   -505.57037930 </i>
    <i name="atom">   1903.26342058 </i>
    <i name="e_fr_energy">   -125.50242285 </i>
    <i name="e_wo_entrp">   -125.50085566 </i>
    <i name="e_0_energy">   -125.50163926 </i>
   </energy>
  </scstep>
  <scstep>
   <time name="dav">   11.71   11.79</time>
   <time name="total">   12.03   12.12</time>
   <energy>
    <i name="e_fr_energy">   -125.50249882 </i>
    <i name="e_wo_entrp">   -125.50093163 </i>
    <i name="e_0_energy">   -125.50171523 </i>
   </energy>
  </scstep>
  <scstep>
   <time name="dav">    8.79    8.84</time>
   <time name="total">    9.10    9.18</time>
   <energy>
    <i name="e_fr_energy">   -125.50249425 </i>
    <i name="e_wo_entrp">   -125.50092706 </i>
    <i name="e_0_energy">   -125.50171065 </i>
   </energy>
  </scstep>
  <scstep>
   <time name="dav">   11.16   11.24</time>
   <time name="total">   11.48   11.57</time>
   <energy>
    <i name="e_fr_energy">   -125.50249570 </i>
    <i name="e_wo_entrp">   -125.50092851 </i>
    <i name="e_0_energy">   -125.50171210 </i>
   </energy>
  </scstep>
  <scstep>
   <time name="dav">    8.63    8.69</time>
   <time name="total">    8.67    8.73</time>
   <energy>
    <i name="alphaZ">     58.52424752 </i>
    <i name="ewald">   4712.61059403 </i>
    <i name="hartreedc">  -6470.65213306 </i>
    <i name="XCdc">    180.77058739 </i>
    <i name="pawpsdc">   5806.66119782 </i>
    <i name="pawaedc">  -5811.09890172 </i>
    <i name="eentropy">     -0.00156719 </i>
    <i name="bandstr">   -505.57994137 </i>
    <i name="atom">   1903.26342058 </i>
    <i name="e_fr_energy">   -125.50249601 </i>
    <i name="e_wo_entrp">   -125.50092882 </i>
    <i name="e_0_energy">   -125.50171242 </i>
   </energy>
  </scstep>
  <structure>
   <crystal>
    <varray name="basis" >
     <v>       4.18896488       2.41850000       0.00000000 </v>
     <v>      -4.18896488       2.41850000       0.00000000 </v>
     <v>       0.00000000       0.00000000      15.00000000 </v>
    </varray>
    <i name="volume">    303.93034673 </i>
    <varray name="rec_basis" >
     <v>       0.11936123       0.20673971       0.00000000 </v>
     <v>      -0.11936123       0.20673971       0.00000000 </v>
     <v>       0.00000000       0.00000000       0.06666667 </v>
    </varray>
   </crystal>
   <varray name="positions" >
    <v>       0.00418717       0.00277532       0.11841362 </v>
    <v>       0.35697268       0.00278159       0.09801665 </v>
    <v>       0.00418134       0.35555527       0.09801909 </v>
    <v>       0.65139125       0.64998653       0.09801659 </v>
    <v>       0.32656545       0.32515016       0.10029229 </v>
    <v>       0.68182339       0.00279678       0.10027928 </v>
    <v>       0.00420505       0.68041157       0.10027437 </v>
    <v>       0.16670790       0.33328546       0.33729081 </v>
    <v>       0.33328398       0.16670863       0.33729225 </v>
    <v>       0.16657124       0.83328800       0.33729455 </v>
    <v>       0.33332902       0.66666052       0.33709046 </v>
    <v>       0.66665960       0.33333153       0.33709044 </v>
    <v>       0.83328785       0.16657370       0.33729435 </v>
    <v>       0.66670741       0.83342043       0.33729125 </v>
    <v>       0.83342066       0.66670852       0.33729001 </v>
   </varray>
  </structure>
  <varray name="forces" >
   <v>       0.00011898      -0.00055268      -0.26435058 </v>
   <v>       0.04920315       0.02860198       0.04851443 </v>
   <v>      -0.04915424       0.02972145       0.04844194 </v>
   <v>       0.00057230      -0.05485922       0.04936177 </v>
   <v>      -0.00049440       0.11331341       0.01966614 </v>
   <v>      -0.09624477      -0.05754771       0.02132921 </v>
   <v>       0.09641506      -0.05739960       0.02165391 </v>
   <v>      -0.05123000      -0.00178163       0.00606457 </v>
   <v>       0.05107272      -0.00153146       0.00606841 </v>
   <v>       0.02615696       0.04406654       0.00602540 </v>
   <v>      -0.00165219       0.00113674       0.00961410 </v>
   <v>       0.00227481       0.00055680       0.00961832 </v>
   <v>      -0.02608533       0.04326843       0.00599727 </v>
   <v>       0.02655025      -0.04326254       0.00598493 </v>
   <v>      -0.02750331      -0.04373051       0.00601018 </v>
  </varray>
  <varray name="stress" >
   <v>       4.20708614       0.00130429      -0.00821774 </v>
   <v>       0.00130425       4.21230749      -0.02476945 </v>
   <v>      -0.00821771      -0.02476944      -1.52458139 </v>
  </varray>
  <energy>
   <i name="e_fr_energy">   -127.09076864 </i>
   <i name="e_wo_entrp">   -127.08920145 </i>
   <i name="e_0_energy">   -127.08998504 </i>
  </energy>
  <time name="totalsc">   51.87   52.27</time>
 </calculation>
 <calculation>
  <scstep>
   <time name="dav">    5.47    5.52</time>
   <time name="total">    5.76    5.82</time>
   <energy>
    <i name="alphaZ">     58.52424752 </i>
    <i name="ewald">   4710.51953681 </i>
    <i name="hartreedc">  -6467.88820918 </i>
    <i name="XCdc">    180.81883006 </i>
    <i name="pawpsdc">   5806.70940452 </i>
    <i name="pawaedc">  -5811.14713141 </i>
    <i name="eentropy">     -0.00156714 </i>
    <i name="bandstr">   -506.31175363 </i>
    <i name="atom">   1903.26342058 </i>
    <i name="e_fr_energy">   -125.51322187 </i>
    <i name="e_wo_entrp">   -125.51165473 </i>
    <i name="e_0_energy">   -125.51243830 </i>
   </energy>
  </scstep>
  <scstep>
   <time name="dav">   11.27   11.33</time>
   <time name="total">   11.56   11.64</time>
   <energy>
    <i name="e_fr_energy">   -125.51407837 </i>
    <i name="e_wo_entrp">   -125.51251123 </i>
    <i name="e_0_energy">   -125.51329480 </i>
   </energy>
  </scstep>
  <scstep>
   <time name="dav">    8.18    8.24</time>
   <time name="total">    8.47    8.54</time>
   <energy>
    <i name="e_fr_energy">   -125.51402010 </i>
    <i name="e_wo_entrp">   -125.51245295 </i>
    <i name="e_0_energy">   -125.51323652 </i>
   </energy>
  </scstep>
  <scstep>
   <time name="dav">   11.58   11.66</time>
   <time name="total">   11.87   11.97</time>
   <energy>
    <i name="e_fr_energy">   -125.51403569 </i>
    <i name="e_wo_entrp">   -125.51246854 </i>
    <i name="e_0_energy">   -125.51325211 </i>
   </energy>
  </scstep>
  <scstep>
   <time name="dav">    8.42    8.48</time>
   <time name="total">    8.71    8.78</time>
   <energy>
    <i name="e_fr_energy">   -125.51403861 </i>
    <i name="e_wo_entrp">   -125.51247146 </i>
    <i name="e_0_energy">   -125.51325503 </i>
   </energy>
  </scstep>
  <scstep>
   <time name="dav">   10.27   10.33</time>
   <time name="total">   10.30   10.37</time>
   <energy>
    <i name="alphaZ">     58.52424752 </i>
    <i name="ewald">   4710.51953681 </i>
    <i name="hartreedc">  -6467.84257758 </i>
    <i name="XCdc">    180.81572224 </i>
    <i name="pawpsdc">   5821.00095768 </i>
    <i name="pawaedc">  -5825.44380249 </i>
    <i name="eentropy">     -0.00156714 </i>
    <i name="bandstr">   -506.34997636 </i>
    <i name="atom">   1903.26342058 </i>
    <i name="e_fr_energy">   -125.51403876 </i>
    <i name="e_wo_entrp">   -125.51247161 </i>
    <i name="e_0_energy">   -125.51325518 </i>
   </energy>
  </scstep>
  <structure>
   <crystal>
    <varray name="basis" >
     <v>       4.18896488       2.41850000       0.00000000 </v>
     <v>      -4.18896488       2.41850000       0.00000000 </v>
     <v>       0.00000000       0.00000000      15.00000000 </v>
    </varray>
    <i name="volume">    303.93034673 </i>
    <varray name="rec_basis" >
     <v>       0.11936123       0.20673971       0.00000000 </v>
     <v>      -0.11936123       0.20673971       0.00000000 </v>
     <v>       0.00000000       0.00000000       0.06666667 </v>
    </varray>
   </crystal>
   <varray name="positions" >
    <v>       0.00423851       0.00296015       0.11466076 </v>
    <v>       0.35859228       0.00264335       0.09906340 </v>
    <v>       0.00407868       0.35724111       0.09906343 </v>
    <v>       0.64977976       0.64828292       0.09908761 </v>
    <v>       0.32697979       0.32547658       0.10023062 </v>
    <v>       0.68145101       0.00281141       0.10025080 </v>
    <v>       0.00426556       0.68008180       0.10025562 </v>
    <v>       0.16694444       0.33300089       0.33746945 </v>
    <v>       0.33299424       0.16694309       0.33747359 </v>
    <v>       0.16604635       0.83306263       0.33748016 </v>
    <v>       0.33331416       0.66663442       0.33689672 </v>
    <v>       0.66663210       0.33332970       0.33689668 </v>
    <v>       0.83306615       0.16605993       0.33747952 </v>
    <v>       0.66697661       0.83392611       0.33747059 </v>
    <v>       0.83393435       0.66697989       0.33746705 </v>
   </varray>
  </structure>
  <varray name="forces" >
   <v>       0.00954252      -0.01044904      -0.20931588 </v>
   <v>      -0.07677232      -0.03420145      -0.04732580 </v>
   <v>       0.07867152      -0.03411441      -0.04696895 </v>
   <v>      -0.00352310       0.08601413      -0.04978542 </v>
   <v>      -0.00657795       0.06621157       0.10459008 </v>
   <v>      -0.04888920      -0.03534239       0.10324746 </v>
   <v>       0.04790481      -0.03705966       0.10250405 </v>
   <v>      -0.27147454      -0.00177480      -0.01808192 </v>
   <v>       0.27091350      -0.00019870      -0.01865588 </v>
   <v>       0.14432756       0.22966281      -0.01977887 </v>
   <v>      -0.00803490       0.00719904       0.07788237 </v>
   <v>       0.01211982       0.00401421       0.07790204 </v>
   <v>      -0.14328785       0.22530182      -0.01978988 </v>
   <v>       0.13399639      -0.23125668      -0.01851098 </v>
   <v>      -0.13891627      -0.23400644      -0.01791240 </v>
  </varray>
  <varray name="stress" >
   <v>       5.42898177      -0.00764096       0.00400173 </v>
   <v>      -0.00764096       5.45825711      -0.03285411 </v>
   <v>       0.00400179      -0.03285411      -1.59557089 </v>
  </varray>
  <energy>
   <i name="e_fr_energy">   -127.10148971 </i>
   <i name="e_wo_entrp">   -127.09992257 </i>
   <i name="e_0_energy">   -127.10070614 </i>
  </energy>
  <time name="totalsc">   61.35   61.82</time>
 </calculation>
 <calculation>
  <scstep>
   <time name="dav">    5.54    5.57</time>
   <time name="total">    5.83    5.88</time>
   <energy>
    <i name="alphaZ">     58.52424752 </i>
    <i name="ewald">   4710.24081771 </i>
    <i name="hartreedc">  -6467.47542149 </i>
    <i name="XCdc">    180.82140410 </i>
    <i name="pawpsdc">   5821.00143728 </i>
    <i name="pawaedc">  -5825.44428163 </i>
    <i name="eentropy">     -0.00156719 </i>
    <i name="bandstr">   -506.44738594 </i>
    <i name="atom">   1903.26342058 </i>
    <i name="e_fr_energy">   -125.51732907 </i>
    <i name="e_wo_entrp">   -125.51576189 </i>
    <i name="e_0_energy">   -125.51654548 </i>
   </energy>
  </scstep>
  <scstep>
   <time name="dav">   10.79   10.86</time>
   <time name="total">   11.08   11.16</time>
   <energy>
    <i name="e_fr_energy">   -125.51732130 </i>
    <i name="e_wo_entrp">   -125.51575411 </i>
    <i name="e_0_energy">   -125.51653771 </i>
   </energy>
  </scstep>
  <scstep>
   <time name="dav">    7.64    7.70</time>
   <time name="total">    7.93    8.00</time>
   <energy>
    <i name="e_fr_energy">   -125.51729966 </i>
    <i name="e_wo_entrp">   -125.51573248 </i>
    <i name="e_0_energy">   -125.51651607 </i>
   </energy>
  </scstep>
  <scstep>
   <time name="dav">   11.00   11.08</time>
   <time name="total">   11.29   11.38</time>
   <energy>
    <i name="e_fr_energy">   -125.51730064 </i>
    <i name="e_wo_entrp">   -125.51573345 </i>
    <i name="e_0_energy">   -125.51651704 </i>
   </energy>
  </scstep>
  <scstep>
   <time name="dav">    8.79    8.86</time>
   <time name="total">    8.83    8.89</time>
   <energy>
    <i name="alphaZ">     58.52424752 </i>
    <i name="ewald">   4710.24081771 </i>
    <i name="hartreedc">  -6467.48106006 </i>
    <i name="XCdc">    180.82065302 </i>
    <i name="pawpsdc">   5822.59624629 </i>
    <i name="pawaedc">  -5827.03971131 </i>
    <i name="eentropy">     -0.00156718 </i>
    <i name="bandstr">   -506.44034763 </i>
    <i name="atom">   1903.26342058 </i>
    <i name="e_fr_energy">   -125.51730108 </i>
    <i name="e_wo_entrp">   -125.51573389 </i>
    <i name="e_0_energy">   -125.51651748 </i>
   </energy>
  </scstep>
  <structure>
   <crystal>
    <varray name="basis" >
     <v>       4.18896488       2.41850000       0.00000000 </v>
     <v>      -4.18896488       2.41850000       0.00000000 </v>
     <v>       0.00000000       0.00000000      15.00000000 </v>
    </varray>
    <i name="volume">    303.93034673 </i>
    <varray name="rec_basis" >
     <v>       0.11936123       0.20673971       0.00000000 </v>
     <v>      -0.11936123       0.20673971       0.00000000 </v>
     <v>       0.00000000       0.00000000       0.06666667 </v>
    </varray>
   </crystal>
   <varray name="positions" >
    <v>       0.00423951       0.00296588       0.11408095 </v>
    <v>       0.35871508       0.00263692       0.09918477 </v>
    <v>       0.00407839       0.35737154       0.09918462 </v>
    <v>       0.64966450       0.64816020       0.09921127 </v>
    <v>       0.32710886       0.32560293       0.10026233 </v>
    <v>       0.68132616       0.00280494       0.10028641 </v>
    <v>       0.00426249       0.67996127       0.10029224 </v>
    <v>       0.16678834       0.33314640       0.33748635 </v>
    <v>       0.33314054       0.16678895       0.33749063 </v>
    <v>       0.16634689       0.83320582       0.33749733 </v>
    <v>       0.33331522       0.66664496       0.33690064 </v>
    <v>       0.66664147       0.33332593       0.33690061 </v>
    <v>       0.83320537       0.16635608       0.33749663 </v>
    <v>       0.66683031       0.83362819       0.33748742 </v>
    <v>       0.83363088       0.66683399       0.33748380 </v>
   </varray>
  </structure>
  <varray name="forces" >
   <v>       0.00962906      -0.00993025      -0.19787413 </v>
   <v>      -0.08251643      -0.03693273      -0.05080907 </v>
   <v>       0.08466539      -0.03745607      -0.05039946 </v>
   <v>      -0.00400801       0.09137745      -0.05357134 </v>
   <v>      -0.00671651       0.04681068       0.10529447 </v>
   <v>      -0.03315935      -0.02536662       0.10355709 </v>
   <v>       0.03245268      -0.02746914       0.10271941 </v>
   <v>      -0.14250348       0.00425861      -0.01918911 </v>
   <v>       0.14202898       0.00535343      -0.01979072 </v>
   <v>       0.07975847       0.11651158      -0.02092425 </v>
   <v>      -0.00385211       0.00429872       0.08024704 </v>
   <v>       0.00631854       0.00239868       0.08026601 </v>
   <v>      -0.07918249       0.11419590      -0.02092744 </v>
   <v>       0.06462781      -0.12327415      -0.01960895 </v>
   <v>      -0.06754256      -0.12477610      -0.01898956 </v>
  </varray>
  <varray name="stress" >
   <v>       5.56831061      -0.00930980       0.00377190 </v>
   <v>      -0.00930980       5.56885333      -0.03109853 </v>
   <v>       0.00377194      -0.03109855      -1.59869683 </v>
  </varray>
  <energy>
   <i name="e_fr_energy">   -127.10461215 </i>
   <i name="e_wo_entrp">   -127.10304497 </i>
   <i name="e_0_energy">   -127.10382856 </i>
  </energy>
  <time name="totalsc">   49.64   50.03</time>
 </calculation>
 <calculation>
  <scstep>
   <time name="dav">    5.47    5.51</time>
   <time name="total">    5.77    5.82</time>
   <energy>
    <i name="alphaZ">     58.52424752 </i>
    <i name="ewald">   4709.55930654 </i>
    <i name="hartreedc">  -6466.61852201 </i>
    <i name="XCdc">    180.83258645 </i>
    <i name="pawpsdc">   5822.71816098 </i>
    <i name="pawaedc">  -5827.16163206 </i>
    <i name="eentropy">     -0.00156715 </i>
    <i name="bandstr">   -506.63669471 </i>
    <i name="atom">   1903.26342058 </i>
    <i name="e_fr_energy">   -125.52069387 </i>
    <i name="e_wo_entrp">   -125.51912672 </i>
    <i name="e_0_energy">   -125.51991029 </i>
   </energy>
  </scstep>
  <scstep>
   <time name="dav">   11.09   11.16</time>
   <time name="total">   11.38   11.46</time>
   <energy>
    <i name="e_fr_energy">   -125.52065411 </i>
    <i name="e_wo_entrp">   -125.51908695 </i>
    <i name="e_0_energy">   -125.51987053 </i>
   </energy>
  </scstep>
  <scstep>
   <time name="dav">    8.31    8.36</time>
   <time name="total">    8.60    8.67</time>
   <energy>
    <i name="e_fr_energy">   -125.52054620 </i>
    <i name="e_wo_entrp">   -125.51897904 </i>
    <i name="e_0_energy">   -125.51976262 </i>
   </energy>
  </scstep>
  <scstep>
   <time name="dav">   10.81   10.87</time>
   <time name="total">   11.09   11.17</time>
   <energy>
    <i name="e_fr_energy">   -125.52055109 </i>
    <i name="e_wo_entrp">   -125.51898393 </i>
    <i name="e_0_energy">   -125.51976751 </i>
   </energy>
  </scstep>
  <scstep>
   <time name="dav">    7.81    7.86</time>
   <time name="total">    7.85    7.91</time>
   <energy>
    <i name="alphaZ">     58.52424752 </i>
    <i name="ewald">   4709.55930654 </i>
    <i name="hartreedc">  -6466.66998179 </i>
    <i name="XCdc">    180.83161738 </i>
    <i name="pawpsdc">   5826.30309800 </i>
    <i name="pawaedc">  -5830.74798337 </i>
    <i name="eentropy">     -0.00156716 </i>
    <i name="bandstr">   -506.58270955 </i>
    <i name="atom">   1903.26342058 </i>
    <i name="e_fr_energy">   -125.52055186 </i>
    <i name="e_wo_entrp">   -125.51898470 </i>
    <i name="e_0_energy">   -125.51976828 </i>
   </energy>
  </scstep>
  <structure>
   <crystal>
    <varray name="basis" >
     <v>       4.18896488       2.41850000       0.00000000 </v>
     <v>      -4.18896488       2.41850000       0.00000000 </v>
     <v>       0.00000000       0.00000000      15.00000000 </v>
    </varray>
    <i name="volume">    303.93034673 </i>
    <varray name="rec_basis" >
     <v>       0.11936123       0.20673971       0.00000000 </v>
     <v>      -0.11936123       0.20673971       0.00000000 </v>
     <v>       0.00000000       0.00000000       0.06666667 </v>
    </varray>
   </crystal>
   <varray name="positions" >
    <v>       0.00424173       0.00297872       0.11278242 </v>
    <v>       0.35899011       0.00262251       0.09945660 </v>
    <v>       0.00407773       0.35766365       0.09945604 </v>
    <v>       0.64940635       0.64788536       0.09948824 </v>
    <v>       0.32739791       0.32588590       0.10033333 </v>
    <v>       0.68104656       0.00279044       0.10036617 </v>
    <v>       0.00425563       0.67969133       0.10037427 </v>
    <v>       0.16643873       0.33347227       0.33752419 </v>
    <v>       0.33346819       0.16644376       0.33752879 </v>
    <v>       0.16701997       0.83352649       0.33753580 </v>
    <v>       0.33331757       0.66666856       0.33690941 </v>
    <v>       0.66666245       0.33331748       0.33690939 </v>
    <v>       0.83351717       0.16701933       0.33753496 </v>
    <v>       0.66650268       0.83296096       0.33752509 </v>
    <v>       0.83295122       0.66650725       0.33752130 </v>
   </varray>
  </structure>
  <varray name="forces" >
   <v>       0.00980488      -0.00873320      -0.17573173 </v>
   <v>      -0.09809482      -0.04458800      -0.05796365 </v>
   <v>       0.10078024      -0.04650209      -0.05744543 </v>
   <v>      -0.00507793       0.10646075      -0.06137979 </v>
   <v>      -0.00698321       0.00073496       0.10726139 </v>
   <v>       0.00436588      -0.00169943       0.10467174 </v>
   <v>      -0.00446435      -0.00468788       0.10362735 </v>
   <v>       0.14132846       0.01873166      -0.02163752 </v>
   <v>      -0.14162876       0.01874526      -0.02230397 </v>
   <v>      -0.06165388      -0.13303008      -0.02345936 </v>
   <v>       0.00561585      -0.00225247       0.08558465 </v>
   <v>      -0.00678865      -0.00124661       0.08560142 </v>
   <v>       0.06129741      -0.13090613      -0.02343937 </v>
   <v>      -0.08921858       0.11392976      -0.02202372 </v>
   <v>       0.09071745       0.11504349      -0.02136200 </v>
  </varray>
  <varray name="stress" >
   <v>       5.91670824      -0.01246189       0.00322931 </v>
   <v>      -0.01246192       5.85067271      -0.02724631 </v>
   <v>       0.00322930      -0.02724629      -1.63331043 </v>
  </varray>
  <energy>
   <i name="e_fr_energy">   -127.10753340 </i>
   <i name="e_wo_entrp">   -127.10596625 </i>
   <i name="e_0_energy">   -127.10674983 </i>
  </energy>
  <time name="totalsc">   49.37   49.73</time>
 </calculation>
 <calculation>
  <scstep>
   <time name="dav">    5.51    5.55</time>
   <time name="total">    5.80    5.85</time>
   <energy>
    <i name="alphaZ">     58.52424752 </i>
    <i name="ewald">   4709.45368971 </i>
    <i name="hartreedc">  -6466.45671599 </i>
    <i name="XCdc">    180.83864017 </i>
    <i name="pawpsdc">   5826.58267041 </i>
    <i name="pawaedc">  -5831.02755925 </i>
    <i name="eentropy">     -0.00156718 </i>
    <i name="bandstr">   -506.69956669 </i>
    <i name="atom">   1903.26342058 </i>
    <i name="e_fr_energy">   -125.52274074 </i>
    <i name="e_wo_entrp">   -125.52117356 </i>
    <i name="e_0_energy">   -125.52195715 </i>
   </energy>
  </scstep>
  <scstep>
   <time name="dav">   10.05   10.12</time>
   <time name="total">   10.34   10.42</time>
   <energy>
    <i name="e_fr_energy">   -125.52276241 </i>
    <i name="e_wo_entrp">   -125.52119523 </i>
    <i name="e_0_energy">   -125.52197882 </i>
   </energy>
  </scstep>
  <scstep>
   <time name="dav">    8.25    8.31</time>
   <time name="total">    8.54    8.61</time>
   <energy>
    <i name="e_fr_energy">   -125.52276091 </i>
    <i name="e_wo_entrp">   -125.52119374 </i>
    <i name="e_0_energy">   -125.52197733 </i>
   </energy>
  </scstep>
  <scstep>
   <time name="dav">   10.04   10.10</time>
   <time name="total">   10.08   10.14</time>
   <energy>
    <i name="alphaZ">     58.52424752 </i>
    <i name="ewald">   4709.45368971 </i>
    <i name="hartreedc">  -6466.53348636 </i>
    <i name="XCdc">    180.83791917 </i>
    <i name="pawpsdc">   5828.94236022 </i>
    <i name="pawaedc">  -5833.38804580 </i>
    <i name="eentropy">     -0.00156718 </i>
    <i name="bandstr">   -506.62129885 </i>
    <i name="atom">   1903.26342058 </i>
    <i name="e_fr_energy">   -125.52276098 </i>
    <i name="e_wo_entrp">   -125.52119380 </i>
    <i name="e_0_energy">   -125.52197739 </i>
   </energy>
  </scstep>
  <structure>
   <crystal>
    <varray name="basis" >
     <v>       4.18896488       2.41850000       0.00000000 </v>
     <v>      -4.18896488       2.41850000       0.00000000 </v>
     <v>       0.00000000       0.00000000      15.00000000 </v>
    </varray>
    <i name="volume">    303.93034673 </i>
    <varray name="rec_basis" >
     <v>       0.11936123       0.20673971       0.00000000 </v>
     <v>      -0.11936123       0.20673971       0.00000000 </v>
     <v>       0.00000000       0.00000000       0.06666667 </v>
    </varray>
   </crystal>
   <varray name="positions" >
    <v>       0.00423739       0.00295937       0.11214756 </v>
    <v>       0.35893053       0.00263719       0.09953713 </v>
    <v>       0.00409748       0.35760521       0.09953669 </v>
    <v>       0.64947687       0.64795901       0.09956901 </v>
    <v>       0.32751197       0.32601125       0.10042201 </v>
    <v>       0.68093218       0.00277720       0.10045705 </v>
    <v>       0.00424033       0.67957593       0.10046551 </v>
    <v>       0.16646589       0.33349949       0.33752790 </v>
    <v>       0.33349586       0.16647306       0.33753226 </v>
    <v>       0.16700972       0.83349230       0.33753876 </v>
    <v>       0.33332024       0.66666891       0.33696034 </v>
    <v>       0.66666229       0.33331856       0.33696034 </v>
    <v>       0.83348260       0.16700900       0.33753788 </v>
    <v>       0.66647397       0.83296818       0.33752853 </v>
    <v>       0.83295668       0.66647934       0.33752503 </v>
   </varray>
  </structure>
  <varray name="forces" >
   <v>       0.00831795      -0.00655762      -0.15519597 </v>
   <v>      -0.07596898      -0.03261024      -0.04820045 </v>
   <v>       0.07871641      -0.03542730      -0.04769131 </v>
   <v>      -0.00519860       0.08015542      -0.05162404 </v>
   <v>      -0.00606577      -0.00644609       0.09128036 </v>
   <v>       0.00772841       0.00259787       0.08842249 </v>
   <v>      -0.00718989      -0.00073901       0.08735400 </v>
   <v>       0.13984021       0.00434556      -0.01922368 </v>
   <v>      -0.13985282       0.00373695      -0.01983068 </v>
   <v>      -0.07145226      -0.12133640      -0.02086186 </v>
   <v>       0.00424002      -0.00340532       0.07742226 </v>
   <v>      -0.00613049      -0.00186244       0.07743407 </v>
   <v>       0.07089253      -0.11916552      -0.02083052 </v>
   <v>      -0.07279548       0.11773369      -0.01952229 </v>
   <v>       0.07491876       0.11898045      -0.01893238 </v>
  </varray>
  <varray name="stress" >
   <v>       6.06950729      -0.01107320       0.00150247 </v>
   <v>      -0.01107320       6.01998568      -0.02404532 </v>
   <v>       0.00150247      -0.02404533      -1.61581797 </v>
  </varray>
  <energy>
   <i name="e_fr_energy">   -127.10954274 </i>
   <i name="e_wo_entrp">   -127.10797556 </i>
   <i name="e_0_energy">   -127.10875915 </i>
  </energy>
  <time name="totalsc">   39.44   39.74</time>
 </calculation>
 <calculation>
  <scstep>
   <time name="dav">    5.50    5.54</time>
   <time name="total">    5.79    5.84</time>
   <energy>
    <i name="alphaZ">     58.52424752 </i>
    <i name="ewald">   4708.97953733 </i>
    <i name="hartreedc">  -6465.76910355 </i>
    <i name="XCdc">    180.85666039 </i>
    <i name="pawpsdc">   5828.98043044 </i>
    <i name="pawaedc">  -5833.42611781 </i>
    <i name="eentropy">     -0.00156718 </i>
    <i name="bandstr">   -506.93510320 </i>
    <i name="atom">   1903.26342058 </i>
    <i name="e_fr_energy">   -125.52759548 </i>
    <i name="e_wo_entrp">   -125.52602830 </i>
    <i name="e_0_energy">   -125.52681189 </i>
   </energy>
  </scstep>
  <scstep>
   <time name="dav">   11.20   11.27</time>
   <time name="total">   11.49   11.57</time>
   <energy>
    <i name="e_fr_energy">   -125.52778982 </i>
    <i name="e_wo_entrp">   -125.52622264 </i>
    <i name="e_0_energy">   -125.52700623 </i>
   </energy>
  </scstep>
  <scstep>
   <time name="dav">    8.57    8.63</time>
   <time name="total">    8.86    8.94</time>
   <energy>
    <i name="e_fr_energy">   -125.52777373 </i>
    <i name="e_wo_entrp">   -125.52620654 </i>
    <i name="e_0_energy">   -125.52699013 </i>
   </energy>
  </scstep>
  <scstep>
   <time name="dav">   10.03   10.10</time>
   <time name="total">   10.32   10.40</time>
   <energy>
    <i name="e_fr_energy">   -125.52777401 </i>
    <i name="e_wo_entrp">   -125.52620682 </i>
    <i name="e_0_energy">   -125.52699041 </i>
   </energy>
  </scstep>
  <scstep>
   <time name="dav">    9.22    9.28</time>
   <time name="total">    9.51    9.58</time>
   <energy>
    <i name="e_fr_energy">   -125.52777215 </i>
    <i name="e_wo_entrp">   -125.52620496 </i>
    <i name="e_0_energy">   -125.52698855 </i>
   </energy>
  </scstep>
  <scstep>
   <time name="dav">    9.57    9.64</time>
   <time name="total">    9.61    9.67</time>
   <energy>
    <i name="alphaZ">     58.52424752 </i>
    <i name="ewald">   4708.97953733 </i>
    <i name="hartreedc">  -6466.04468986 </i>
    <i name="XCdc">    180.85443258 </i>
    <i name="pawpsdc">   5835.30916968 </i>
    <i name="pawaedc">  -5839.75697724 </i>
    <i name="eentropy">     -0.00156719 </i>
    <i name="bandstr">   -506.65534516 </i>
    <i name="atom">   1903.26342058 </i>
    <i name="e_fr_energy">   -125.52777175 </i>
    <i name="e_wo_entrp">   -125.52620456 </i>
    <i name="e_0_energy">   -125.52698816 </i>
   </energy>
  </scstep>
  <structure>
   <crystal>
    <varray name="basis" >
     <v>       4.18896488       2.41850000       0.00000000 </v>
     <v>      -4.18896488       2.41850000       0.00000000 </v>
     <v>       0.00000000       0.00000000      15.00000000 </v>
    </varray>
    <i name="volume">    303.93034673 </i>
    <varray name="rec_basis" >
     <v>       0.11936123       0.20673971       0.00000000 </v>
     <v>      -0.11936123       0.20673971       0.00000000 </v>
     <v>       0.00000000       0.00000000       0.06666667 </v>
    </varray>
   </crystal>
   <varray name="positions" >
    <v>       0.00422436       0.00290132       0.11024296 </v>
    <v>       0.35875179       0.00268123       0.09977874 </v>
    <v>       0.00415673       0.35742989       0.09977865 </v>
    <v>       0.64968844       0.64817998       0.09981134 </v>
    <v>       0.32785413       0.32638730       0.10068806 </v>
    <v>       0.68058903       0.00273750       0.10072967 </v>
    <v>       0.00419444       0.67922972       0.10073922 </v>
    <v>       0.16654736       0.33358113       0.33753904 </v>
    <v>       0.33357890       0.16656098       0.33754269 </v>
    <v>       0.16697898       0.83338975       0.33754766 </v>
    <v>       0.33332825       0.66666997       0.33711314 </v>
    <v>       0.66666180       0.33332180       0.33711317 </v>
    <v>       0.83337888       0.16697802       0.33754663 </v>
    <v>       0.66638785       0.83298982       0.33753883 </v>
    <v>       0.83297306       0.66639560       0.33753621 </v>
   </varray>
  </structure>
  <varray name="forces" >
   <v>       0.00381456       0.00004828      -0.10211408 </v>
   <v>      -0.01502321       0.00019026      -0.01765343 </v>
   <v>       0.01819895      -0.00533958      -0.01717588 </v>
   <v>      -0.00557977       0.00763510      -0.02107967 </v>
   <v>      -0.00350580      -0.03441641       0.04491424 </v>
   <v>       0.02356316       0.01855089       0.04131829 </v>
   <v>      -0.02115726       0.01423734       0.04023470 </v>
   <v>       0.13851310      -0.03657166      -0.01202193 </v>
   <v>      -0.13766218      -0.03902119      -0.01244922 </v>
   <v>      -0.10060916      -0.09021873      -0.01314677 </v>
   <v>       0.00017961      -0.00687282       0.05308688 </v>
   <v>      -0.00421058      -0.00372711       0.05308531 </v>
[...]
    <v>       0.33325773       0.16659238       0.33789341 </v>
    <v>       0.16658876       0.83329276       0.33789515 </v>
    <v>       0.33328076       0.66662724       0.33776955 </v>
    <v>       0.66660879       0.33329637       0.33776957 </v>
    <v>       0.83327168       0.16661055       0.33789448 </v>
    <v>       0.66660767       0.83327696       0.33789022 </v>
    <v>       0.83324381       0.66663013       0.33788915 </v>
   </varray>
  </structure>
  <varray name="forces" >
   <v>      -0.00543324       0.01263147      -0.00923085 </v>
   <v>      -0.00421090       0.00013166       0.00119339 </v>
   <v>       0.00790415      -0.00387643       0.00117102 </v>
   <v>      -0.00168687      -0.00465553       0.00100817 </v>
   <v>      -0.00049673      -0.01126886      -0.00164268 </v>
   <v>      -0.00184583       0.00578100      -0.00085005 </v>
   <v>       0.00606053       0.00197930      -0.00077444 </v>
   <v>       0.00444601       0.00457614       0.00079671 </v>
   <v>      -0.00129643       0.00141090       0.00065529 </v>
   <v>       0.00607518       0.00809654       0.00084702 </v>
   <v>      -0.00492705      -0.00661430       0.00238576 </v>
   <v>       0.00003397      -0.00619590       0.00234905 </v>
   <v>      -0.00773057       0.00754842       0.00074799 </v>
   <v>      -0.00027635      -0.00590594       0.00060550 </v>
   <v>       0.00338413      -0.00363846       0.00073815 </v>
  </varray>
  <varray name="stress" >
   <v>       7.58450553       0.00059821      -0.00424239 </v>
   <v>       0.00059821       7.59902211      -0.01288294 </v>
   <v>      -0.00424239      -0.01288294      -1.95257406 </v>
  </varray>
  <energy>
   <i name="e_fr_energy">   -127.12118312 </i>
   <i name="e_wo_entrp">   -127.11961594 </i>
   <i name="e_0_energy">   -127.12039953 </i>
  </energy>
  <time name="totalsc">   22.39   22.58</time>
 </calculation>
 <calculation>
  <scstep>
   <time name="dav">    5.71    5.75</time>
   <time name="total">    6.00    6.05</time>
   <energy>
    <i name="alphaZ">     58.52424752 </i>
    <i name="ewald">   4689.51726253 </i>
    <i name="hartreedc">  -6447.03996395 </i>
    <i name="XCdc">    180.88799244 </i>
    <i name="pawpsdc">   5847.71298861 </i>
    <i name="pawaedc">  -5852.16509516 </i>
    <i name="eentropy">     -0.00156717 </i>
    <i name="bandstr">   -506.23880655 </i>
    <i name="atom">   1903.26342058 </i>
    <i name="e_fr_energy">   -125.53952117 </i>
    <i name="e_wo_entrp">   -125.53795400 </i>
    <i name="e_0_energy">   -125.53873758 </i>
   </energy>
  </scstep>
  <scstep>
   <time name="dav">    8.73    8.80</time>
   <time name="total">    8.77    8.83</time>
   <energy>
    <i name="alphaZ">     58.52424752 </i>
    <i name="ewald">   4689.51726253 </i>
    <i name="hartreedc">  -6447.04322287 </i>
    <i name="XCdc">    180.88801661 </i>
    <i name="pawpsdc">   5847.71174227 </i>
    <i name="pawaedc">  -5852.16384968 </i>
    <i name="eentropy">     -0.00156717 </i>
    <i name="bandstr">   -506.23557092 </i>
    <i name="atom">   1903.26342058 </i>
    <i name="e_fr_energy">   -125.53952114 </i>
    <i name="e_wo_entrp">   -125.53795397 </i>
    <i name="e_0_energy">   -125.53873756 </i>
   </energy>
  </scstep>
  <structure>
   <crystal>
    <varray name="basis" >
     <v>       4.18896488       2.41850000       0.00000000 </v>
     <v>      -4.18896488       2.41850000       0.00000000 </v>
     <v>       0.00000000       0.00000000      15.00000000 </v>
    </varray>
    <i name="volume">    303.93034673 </i>
    <varray name="rec_basis" >
     <v>       0.11936123       0.20673971       0.00000000 </v>
     <v>      -0.11936123       0.20673971       0.00000000 </v>
     <v>       0.00000000       0.00000000       0.06666667 </v>
    </varray>
   </crystal>
   <varray name="positions" >
    <v>       0.00422783       0.00276618       0.10122155 </v>
    <v>       0.35944712       0.00283292       0.10121214 </v>
    <v>       0.00427829       0.35803842       0.10121438 </v>
    <v>       0.64912404       0.64767733       0.10121960 </v>
    <v>       0.32806986       0.32663718       0.10116554 </v>
    <v>       0.68049247       0.00279817       0.10115684 </v>
    <v>       0.00423855       0.67907995       0.10115609 </v>
    <v>       0.16655269       0.33327819       0.33789265 </v>
    <v>       0.33325822       0.16658998       0.33789448 </v>
    <v>       0.16658512       0.83329120       0.33789625 </v>
    <v>       0.33328559       0.66662944       0.33776965 </v>
    <v>       0.66661235       0.33329952       0.33776967 </v>
    <v>       0.83327076       0.16660663       0.33789558 </v>
    <v>       0.66660969       0.83327701       0.33789132 </v>
    <v>       0.83324142       0.66663188       0.33789024 </v>
   </varray>
  </structure>
  <varray name="forces" >
   <v>      -0.00549976       0.01277581      -0.00937032 </v>
   <v>      -0.00427492       0.00008731       0.00123608 </v>
   <v>       0.00798234      -0.00393071       0.00120964 </v>
   <v>      -0.00171000      -0.00469211       0.00102634 </v>
   <v>      -0.00049984      -0.01116378      -0.00216685 </v>
   <v>      -0.00196485       0.00571988      -0.00133619 </v>
   <v>       0.00619149       0.00189904      -0.00125062 </v>
   <v>       0.00599276       0.00517492       0.00087158 </v>
   <v>      -0.00227707       0.00141540       0.00084234 </v>
   <v>       0.00660299       0.00879844       0.00086065 </v>
   <v>      -0.00581643      -0.00771433       0.00262878 </v>
   <v>       0.00010946      -0.00717835       0.00263215 </v>
   <v>      -0.00848083       0.00814383       0.00087942 </v>
   <v>      -0.00037215      -0.00595415       0.00097227 </v>
   <v>       0.00401683      -0.00338120       0.00096474 </v>
  </varray>
  <varray name="stress" >
   <v>       7.58320100       0.00136919      -0.00419080 </v>
   <v>       0.00136921       7.60356691      -0.01230635 </v>
   <v>      -0.00419081      -0.01230635      -1.95227602 </v>
  </varray>
  <energy>
   <i name="e_fr_energy">   -127.12118324 </i>
   <i name="e_wo_entrp">   -127.11961607 </i>
   <i name="e_0_energy">   -127.12039965 </i>
  </energy>
  <time name="totalsc">   19.46   19.61</time>
 </calculation>
 <calculation>
  <scstep>
   <time name="dav">    5.58    5.62</time>
   <time name="total">    5.87    5.92</time>
   <energy>
    <i name="alphaZ">     58.52424752 </i>
    <i name="ewald">   4689.12753114 </i>
    <i name="hartreedc">  -6446.65318546 </i>
    <i name="XCdc">    180.88813873 </i>
    <i name="pawpsdc">   5847.71180642 </i>
    <i name="pawaedc">  -5852.16391198 </i>
    <i name="eentropy">     -0.00156719 </i>
    <i name="bandstr">   -506.23609855 </i>
    <i name="atom">   1903.26342058 </i>
    <i name="e_fr_energy">   -125.53961879 </i>
    <i name="e_wo_entrp">   -125.53805160 </i>
    <i name="e_0_energy">   -125.53883520 </i>
   </energy>
  </scstep>
  <scstep>
   <time name="dav">    5.49    5.53</time>
   <time name="total">    5.78    5.83</time>
   <energy>
    <i name="e_fr_energy">   -125.53961830 </i>
    <i name="e_wo_entrp">   -125.53805111 </i>
    <i name="e_0_energy">   -125.53883470 </i>
   </energy>
  </scstep>
  <scstep>
   <time name="dav">    5.57    5.61</time>
   <time name="total">    5.60    5.64</time>
   <energy>
    <i name="alphaZ">     58.52424752 </i>
    <i name="ewald">   4689.12753114 </i>
    <i name="hartreedc">  -6446.66342439 </i>
    <i name="XCdc">    180.88829543 </i>
    <i name="pawpsdc">   5847.79616845 </i>
    <i name="pawaedc">  -5852.24830015 </i>
    <i name="eentropy">     -0.00156719 </i>
    <i name="bandstr">   -506.22598962 </i>
    <i name="atom">   1903.26342058 </i>
    <i name="e_fr_energy">   -125.53961825 </i>
    <i name="e_wo_entrp">   -125.53805106 </i>
    <i name="e_0_energy">   -125.53883465 </i>
   </energy>
  </scstep>
  <structure>
   <crystal>
    <varray name="basis" >
     <v>       4.18896488       2.41850000       0.00000000 </v>
     <v>      -4.18896488       2.41850000       0.00000000 </v>
     <v>       0.00000000       0.00000000      15.00000000 </v>
    </varray>
    <i name="volume">    303.93034673 </i>
    <varray name="rec_basis" >
     <v>       0.11936123       0.20673971       0.00000000 </v>
     <v>      -0.11936123       0.20673971       0.00000000 </v>
     <v>       0.00000000       0.00000000       0.06666667 </v>
    </varray>
   </crystal>
   <varray name="positions" >
    <v>       0.00426353       0.00282399       0.10114726 </v>
    <v>       0.35944258       0.00284412       0.10121321 </v>
    <v>       0.00428478       0.35801330       0.10121539 </v>
    <v>       0.64910588       0.64766395       0.10122163 </v>
    <v>       0.32801886       0.32659014       0.10116364 </v>
    <v>       0.68051838       0.00281961       0.10116167 </v>
    <v>       0.00425617       0.67908327       0.10116215 </v>
    <v>       0.16655047       0.33328430       0.33790125 </v>
    <v>       0.33326208       0.16658388       0.33790317 </v>
    <v>       0.16660969       0.83330007       0.33790513 </v>
    <v>       0.33327555       0.66662754       0.33777373 </v>
    <v>       0.66660907       0.33329288       0.33777375 </v>
    <v>       0.83327724       0.16663097       0.33790444 </v>
    <v>       0.66659938       0.83325444       0.33790038 </v>
    <v>       0.83322033       0.66662154       0.33789920 </v>
   </varray>
  </structure>
  <varray name="forces" >
   <v>      -0.00077030       0.00125365      -0.00818847 </v>
   <v>       0.00000270      -0.00069281       0.00273900 </v>
   <v>       0.00031887      -0.00136311       0.00272327 </v>
   <v>      -0.00047195      -0.00072770       0.00240837 </v>
   <v>       0.00083427       0.00251679      -0.00314088 </v>
   <v>      -0.00344287      -0.00012346      -0.00301548 </v>
   <v>       0.00377310      -0.00026126      -0.00310850 </v>
   <v>       0.00920814       0.00386776       0.00047201 </v>
   <v>      -0.00645172       0.00155767       0.00042721 </v>
   <v>      -0.00057767       0.00002763       0.00044233 </v>
   <v>      -0.00224946      -0.00565129       0.00336135 </v>
   <v>      -0.00206712      -0.00570016       0.00335506 </v>
   <v>      -0.00086921       0.00010371       0.00043948 </v>
   <v>      -0.00653581       0.00137917       0.00052682 </v>
   <v>       0.00929902       0.00381340       0.00055843 </v>
  </varray>
  <varray name="stress" >
   <v>       7.60398414       0.00066482      -0.00419033 </v>
   <v>       0.00066480       7.60136257      -0.01230014 </v>
   <v>      -0.00419032      -0.01230014      -1.95673659 </v>
  </varray>
  <energy>
   <i name="e_fr_energy">   -127.12119955 </i>
   <i name="e_wo_entrp">   -127.11963236 </i>
   <i name="e_0_energy">   -127.12041595 </i>
  </energy>
  <time name="totalsc">   21.93   22.10</time>
 </calculation>
 <calculation>
  <scstep>
   <time name="dav">    5.49    5.53</time>
   <time name="total">    5.78    5.83</time>
   <energy>
    <i name="alphaZ">     58.52424752 </i>
    <i name="ewald">   4688.91474139 </i>
    <i name="hartreedc">  -6446.45209078 </i>
    <i name="XCdc">    180.88834580 </i>
    <i name="pawpsdc">   5847.80533505 </i>
    <i name="pawaedc">  -5852.25746732 </i>
    <i name="eentropy">     -0.00156719 </i>
    <i name="bandstr">   -506.22463015 </i>
    <i name="atom">   1903.26342058 </i>
    <i name="e_fr_energy">   -125.53966510 </i>
    <i name="e_wo_entrp">   -125.53809791 </i>
    <i name="e_0_energy">   -125.53888151 </i>
   </energy>
  </scstep>
  <scstep>
   <time name="dav">    5.59    5.63</time>
   <time name="total">    5.63    5.68</time>
   <energy>
    <i name="alphaZ">     58.52424752 </i>
    <i name="ewald">   4688.91474139 </i>
    <i name="hartreedc">  -6446.45579228 </i>
    <i name="XCdc">    180.88842449 </i>
    <i name="pawpsdc">   5847.82784698 </i>
    <i name="pawaedc">  -5852.27998966 </i>
    <i name="eentropy">     -0.00156719 </i>
    <i name="bandstr">   -506.22099677 </i>
    <i name="atom">   1903.26342058 </i>
    <i name="e_fr_energy">   -125.53966494 </i>
    <i name="e_wo_entrp">   -125.53809776 </i>
    <i name="e_0_energy">   -125.53888135 </i>
   </energy>
  </scstep>
  <structure>
   <crystal>
    <varray name="basis" >
     <v>       4.18896488       2.41850000       0.00000000 </v>
     <v>      -4.18896488       2.41850000       0.00000000 </v>
     <v>       0.00000000       0.00000000      15.00000000 </v>
    </varray>
    <i name="volume">    303.93034673 </i>
    <varray name="rec_basis" >
     <v>       0.11936123       0.20673971       0.00000000 </v>
     <v>      -0.11936123       0.20673971       0.00000000 </v>
     <v>       0.00000000       0.00000000       0.06666667 </v>
    </varray>
   </crystal>
   <varray name="positions" >
    <v>       0.00428302       0.00285553       0.10110672 </v>
    <v>       0.35944011       0.00285023       0.10121378 </v>
    <v>       0.00428832       0.35799960       0.10121595 </v>
    <v>       0.64909597       0.64765665       0.10122273 </v>
    <v>       0.32799103       0.32656447       0.10116260 </v>
    <v>       0.68053252       0.00283132       0.10116431 </v>
    <v>       0.00426578       0.67908508       0.10116546 </v>
    <v>       0.16654926       0.33328763       0.33790594 </v>
    <v>       0.33326419       0.16658055       0.33790790 </v>
    <v>       0.16662310       0.83330491       0.33790998 </v>
    <v>       0.33327007       0.66662651       0.33777595 </v>
    <v>       0.66660728       0.33328926       0.33777598 </v>
    <v>       0.83328078       0.16664425       0.33790928 </v>
    <v>       0.66659375       0.83324212       0.33790533 </v>
    <v>       0.83320882       0.66661589       0.33790410 </v>
   </varray>
  </structure>
  <varray name="forces" >
   <v>       0.00145030      -0.00418079      -0.00791047 </v>
   <v>       0.00190332      -0.00108227       0.00334701 </v>
   <v>      -0.00318073      -0.00020429       0.00333271 </v>
   <v>       0.00005384       0.00134012       0.00297703 </v>
   <v>       0.00128348       0.00807460      -0.00407409 </v>
   <v>      -0.00425450      -0.00241756      -0.00414387 </v>
   <v>       0.00297463      -0.00104074      -0.00424676 </v>
   <v>       0.01064041       0.00331701       0.00043476 </v>
   <v>      -0.00837333       0.00177204       0.00038638 </v>
   <v>      -0.00409945      -0.00438982       0.00042583 </v>
   <v>      -0.00033144      -0.00452306       0.00400696 </v>
   <v>      -0.00325198      -0.00489536       0.00399535 </v>
   <v>       0.00287127      -0.00391485       0.00042483 </v>
   <v>      -0.00975545       0.00487483       0.00050334 </v>
   <v>       0.01206962       0.00727017       0.00054098 </v>
  </varray>
  <varray name="stress" >
   <v>       7.61538916      -0.00019582      -0.00427088 </v>
   <v>      -0.00019584       7.60140912      -0.01194842 </v>
   <v>      -0.00427087      -0.01194841      -1.95636108 </v>
  </varray>
  <energy>
   <i name="e_fr_energy">   -127.12120215 </i>
   <i name="e_wo_entrp">   -127.11963496 </i>
   <i name="e_0_energy">   -127.12041856 </i>
  </energy>
  <time name="totalsc">   16.11   16.24</time>
 </calculation>
 <calculation>
  <scstep>
   <time name="dav">    5.51    5.56</time>
   <time name="total">    5.80    5.86</time>
   <energy>
    <i name="alphaZ">     58.52424752 </i>
    <i name="ewald">   4688.42675616 </i>
    <i name="hartreedc">  -6445.97440662 </i>
    <i name="XCdc">    180.88817760 </i>
    <i name="pawpsdc">   5847.85696256 </i>
    <i name="pawaedc">  -5852.30910872 </i>
    <i name="eentropy">     -0.00156719 </i>
    <i name="bandstr">   -506.21424530 </i>
    <i name="atom">   1903.26342058 </i>
    <i name="e_fr_energy">   -125.53976342 </i>
    <i name="e_wo_entrp">   -125.53819622 </i>
    <i name="e_0_energy">   -125.53897982 </i>
   </energy>
  </scstep>
  <scstep>
   <time name="dav">    5.65    5.69</time>
   <time name="total">    5.94    5.99</time>
   <energy>
    <i name="e_fr_energy">   -125.53976353 </i>
    <i name="e_wo_entrp">   -125.53819634 </i>
    <i name="e_0_energy">   -125.53897994 </i>
   </energy>
  </scstep>
  <scstep>
   <time name="dav">    5.54    5.57</time>
   <time name="total">    5.57    5.61</time>
   <energy>
    <i name="alphaZ">     58.52424752 </i>
    <i name="ewald">   4688.42675616 </i>
    <i name="hartreedc">  -6445.97837695 </i>
    <i name="XCdc">    180.88821862 </i>
    <i name="pawpsdc">   5847.83213954 </i>
    <i name="pawaedc">  -5852.28427529 </i>
    <i name="eentropy">     -0.00156719 </i>
    <i name="bandstr">   -506.21032661 </i>
    <i name="atom">   1903.26342058 </i>
    <i name="e_fr_energy">   -125.53976363 </i>
    <i name="e_wo_entrp">   -125.53819644 </i>
    <i name="e_0_energy">   -125.53898004 </i>
   </energy>
  </scstep>
  <structure>
   <crystal>
    <varray name="basis" >
     <v>       4.18896488       2.41850000       0.00000000 </v>
     <v>      -4.18896488       2.41850000       0.00000000 </v>
     <v>       0.00000000       0.00000000      15.00000000 </v>
    </varray>
    <i name="volume">    303.93034673 </i>
    <varray name="rec_basis" >
     <v>       0.11936123       0.20673971       0.00000000 </v>
     <v>      -0.11936123       0.20673971       0.00000000 </v>
     <v>       0.00000000       0.00000000       0.06666667 </v>
    </varray>
   </crystal>
   <varray name="positions" >
    <v>       0.00430014       0.00288500       0.10102904 </v>
    <v>       0.35943612       0.00285059       0.10121951 </v>
    <v>       0.00428510       0.35798437       0.10122161 </v>
    <v>       0.64908581       0.64765048       0.10122879 </v>
    <v>       0.32798443       0.32655485       0.10115509 </v>
    <v>       0.68053412       0.00285065       0.10116272 </v>
    <v>       0.00428452       0.67907585       0.10116482 </v>
    <v>       0.16658911       0.33328059       0.33791425 </v>
    <v>       0.33325411       0.16660431       0.33791621 </v>
    <v>       0.16661518       0.83330389       0.33791852 </v>
    <v>       0.33324025       0.66660567       0.33778531 </v>
    <v>       0.66657440       0.33326999       0.33778532 </v>
    <v>       0.83327659       0.16664136       0.33791781 </v>
    <v>       0.66658119       0.83326840       0.33791414 </v>
    <v>       0.83325293       0.66660798       0.33791288 </v>
   </varray>
  </structure>
  <varray name="forces" >
   <v>       0.00426367      -0.01056691      -0.00709280 </v>
   <v>       0.00314581      -0.00139128       0.00363107 </v>
   <v>      -0.00604362       0.00141712       0.00363069 </v>
   <v>       0.00092820       0.00457254       0.00324244 </v>
   <v>       0.00154632       0.01161900      -0.00341310 </v>
   <v>      -0.00089039      -0.00422581      -0.00418134 </v>
   <v>      -0.00276248      -0.00077656      -0.00436855 </v>
   <v>      -0.00835379      -0.00525976       0.00021490 </v>
   <v>       0.00539253      -0.00285621       0.00012323 </v>
   <v>      -0.00156447      -0.00120089       0.00021391 </v>
   <v>       0.00249227       0.00566285       0.00364758 </v>
   <v>       0.00187483       0.00571919       0.00365180 </v>
   <v>       0.00293785      -0.00125032       0.00022618 </v>
   <v>       0.00649481       0.00051872       0.00019235 </v>
   <v>      -0.00946153      -0.00198167       0.00028166 </v>
  </varray>
  <varray name="stress" >
   <v>       7.61057057       0.00172385      -0.00434240 </v>
   <v>       0.00172384       7.60426322      -0.01206499 </v>
   <v>      -0.00434242      -0.01206501      -1.96435778 </v>
  </varray>
  <energy>
   <i name="e_fr_energy">   -127.12121363 </i>
   <i name="e_wo_entrp">   -127.11964644 </i>
   <i name="e_0_energy">   -127.12043004 </i>
  </energy>
  <time name="totalsc">   21.99   22.16</time>
 </calculation>
 <calculation>
  <scstep>
