   16   16    1    1
  0.2065628E+02  0.5044000E-09  0.5044000E-09  0.1500000E-08  0.5000000E-15
  1.000000000000000E-004
  CAR 
 Dielectric_function                     
     62    145    128
 
  0.0000000E+00  0.0000000E+00  0.0000000E+00  0.3460208E-02
      1        -22.403000   1.000000
      2        -20.516203   1.000000
      3        -17.033038   1.000000
      4        -17.033017   1.000000
      5        -17.029833   1.000000
      6        -16.002849   1.000000
      7        -16.002620   1.000000
      8        -15.574001   1.000000
      9        -15.560843   1.000000
     10        -15.560687   1.000000
     11        -13.565183   1.000000
     12        -13.565128   1.000000
     13        -12.436420   1.000000
     14        -10.849526   1.000000
     15         -9.470111   1.000000
     16         -8.357949   1.000000
     17         -8.357883   1.000000
     18         -8.357849   1.000000
     19         -7.685389   1.000000
     20         -7.601557   1.000000
     21         -5.320308   1.000000
     22         -5.320281   1.000000
     23         -4.919355   1.000000
     24         -4.919205   1.000000
     25         -3.720907   1.000000
     26         -3.717561   1.000000
     27         -3.680448   1.000000
     28         -2.737850   1.000000
     29         -2.732300   1.000000
     30         -2.356400   1.000000
     31         -2.356362   1.000000
     32          0.447055   0.000000
     33          1.160715   0.000000
     34          1.165392   0.000000
     35          1.441288   0.000000
     36          2.597853   0.000000
     37          2.600599   0.000000
     38          3.042768   0.000000
     39          3.304720   0.000000
     40          3.947642   0.000000
     41          4.852528   0.000000
     42          6.578977   0.000000
     43          6.589799   0.000000
     44          6.590073   0.000000
     45          7.465595   0.000000
     46          7.727675   0.000000
     47          7.909999   0.000000
     48          7.910169   0.000000
     49          8.581981   0.000000
     50          8.582067   0.000000
     51         10.070519   0.000000
     52         10.411209   0.000000
     53         10.420361   0.000000
     54         10.674222   0.000000
     55         10.677140   0.000000
     56         10.681074   0.000000
     57         10.748122   0.000000
     58         10.749088   0.000000
     59         10.875412   0.000000
     60         11.284959   0.000000
     61         11.285011   0.000000
     62         11.324497   0.000000
     63         11.328828   0.000000
     64         11.355310   0.000000
     65         11.355458   0.000000
     66         11.367013   0.000000
     67         11.369430   0.000000
     68         11.712148   0.000000
     69         12.294728   0.000000
     70         12.345163   0.000000
     71         12.345229   0.000000
     72         12.378799   0.000000
     73         12.378805   0.000000
     74         12.530822   0.000000
     75         13.558587   0.000000
     76         13.569052   0.000000
     77         13.611762   0.000000
     78         13.824028   0.000000
     79         14.028308   0.000000
     80         14.045221   0.000000
     81         14.232046   0.000000
     82         14.557432   0.000000
     83         15.011663   0.000000
     84         15.016607   0.000000
     85         15.150383   0.000000
     86         15.171239   0.000000
     87         15.171379   0.000000
     88         15.260889   0.000000
     89         15.781180   0.000000
     90         17.244568   0.000000
     91         17.251325   0.000000
     92         17.496529   0.000000
     93         17.626045   0.000000
     94         17.650056   0.000000
     95         18.053902   0.000000
     96         18.628585   0.000000
     97         20.136244   0.000000
     98         20.142338   0.000000
     99         20.153461   0.000000
    100         20.155541   0.000000
    101         20.224638   0.000000
    102         20.346997   0.000000
    103         20.351271   0.000000
    104         20.381739   0.000000
    105         20.393561   0.000000
    106         20.781191   0.000000
    107         20.787069   0.000000
    108         20.791985   0.000000
    109         20.973053   0.000000
    110         21.690067   0.000000
    111         22.173064   0.000000
    112         22.233910   0.000000
    113         22.303212   0.000000
    114         22.325659   0.000000
    115         22.440202   0.000000
    116         22.767142   0.000000
    117         22.822510   0.000000
    118         24.964213   0.000000
    119         25.175223   0.000000
    120         25.598689   0.000000
    121         25.928827   0.000000
    122         26.024987   0.000000
    123         26.252569   0.000000
    124         26.404033   0.000000
    125         26.804391   0.000000
    126         26.975704   0.000000
    127         27.141628   0.000000
    128         27.376942   0.000000
 
  0.5882353E-01 -0.3469447E-17  0.0000000E+00  0.6920415E-02
      1        -22.381521   1.000000
      2        -20.500074   1.000000
      3        -17.287777   1.000000
      4        -17.091240   1.000000
      5        -17.089212   1.000000
      6        -16.086880   1.000000
      7        -16.030148   1.000000
      8        -15.477140   1.000000
      9        -15.469567   1.000000
     10        -15.279539   1.000000
     11        -13.582572   1.000000
     12        -13.502803   1.000000
     13        -12.353955   1.000000
     14        -10.756975   1.000000
     15         -9.443810   1.000000
     16         -8.424817   1.000000
     17         -8.424757   1.000000
     18         -8.336926   1.000000
     19         -7.660688   1.000000
     20         -7.634019   1.000000
     21         -5.388120   1.000000
     22         -5.332549   1.000000
     23         -5.009098   1.000000
     24         -4.963784   1.000000
     25         -3.856758   1.000000
     26         -3.735429   1.000000
     27         -3.705663   1.000000
     28         -2.790140   1.000000
     29         -2.743300   1.000000
     30         -2.436768   1.000000
     31         -2.397421   1.000000
     32          0.384419   0.000000
     33          1.197572   0.000000
     34          1.267987   0.000000
     35          1.428685   0.000000
     36          2.638337   0.000000
     37          2.832421   0.000000
     38          3.070047   0.000000
     39          3.362823   0.000000
     40          3.988724   0.000000
     41          4.879418   0.000000
     42          6.598233   0.000000
     43          6.682930   0.000000
     44          6.689561   0.000000
     45          7.491426   0.000000
     46          7.751034   0.000000
     47          7.922672   0.000000
     48          7.999543   0.000000
     49          8.620876   0.000000
     50          8.671021   0.000000
     51          9.793351   0.000000
     52         10.097919   0.000000
     53         10.285207   0.000000
     54         10.410223   0.000000
     55         10.424187   0.000000
     56         10.530034   0.000000
     57         10.581015   0.000000
     58         10.904414   0.000000
     59         10.981910   0.000000
     60         11.176701   0.000000
     61         11.226219   0.000000
     62         11.335011   0.000000
     63         11.358417   0.000000
     64         11.516735   0.000000
     65         11.535078   0.000000
     66         11.646047   0.000000
     67         11.735132   0.000000
     68         11.827751   0.000000
     69         11.995749   0.000000
     70         12.017285   0.000000
     71         12.258058   0.000000
     72         12.774750   0.000000
     73         12.788507   0.000000
     74         13.111177   0.000000
     75         13.276518   0.000000
     76         13.415323   0.000000
     77         13.565754   0.000000
     78         13.846075   0.000000
     79         14.030711   0.000000
     80         14.067751   0.000000
     81         14.089582   0.000000
     82         14.458755   0.000000
     83         14.832141   0.000000
     84         14.860823   0.000000
     85         15.043765   0.000000
     86         15.433165   0.000000
     87         15.448397   0.000000
     88         15.730136   0.000000
     89         15.885383   0.000000
     90         17.059362   0.000000
     91         17.088419   0.000000
     92         17.324371   0.000000
     93         17.648012   0.000000
     94         17.803722   0.000000
     95         18.154636   0.000000
     96         18.639339   0.000000
     97         19.742694   0.000000
     98         19.855963   0.000000
     99         19.959495   0.000000
    100         20.061156   0.000000
    101         20.114032   0.000000
    102         20.394173   0.000000
    103         20.449744   0.000000
    104         20.548587   0.000000
    105         20.611024   0.000000
    106         20.899080   0.000000
    107         20.955289   0.000000
    108         21.077312   0.000000
    109         21.267533   0.000000
    110         21.725281   0.000000
    111         21.863327   0.000000
    112         21.874223   0.000000
    113         22.435030   0.000000
    114         22.451123   0.000000
    115         22.943898   0.000000
    116         23.034219   0.000000
    117         23.545984   0.000000
    118         24.769144   0.000000
    119         25.007055   0.000000
    120         25.204959   0.000000
    121         25.546325   0.000000
    122         25.798685   0.000000
    123         25.986570   0.000000
    124         26.211561   0.000000
    125         26.403718   0.000000
    126         26.642803   0.000000
    127         27.030791   0.000000
    128         27.544367   0.000000
 
 -0.3469447E-17  0.5882353E-01  0.0000000E+00  0.6920415E-02
      1        -22.381521   1.000000
      2        -20.500074   1.000000
      3        -17.287706   1.000000
      4        -17.091248   1.000000
      5        -17.089307   1.000000
      6        -16.086919   1.000000
      7        -16.030032   1.000000
      8        -15.477129   1.000000
      9        -15.469640   1.000000
     10        -15.279523   1.000000
     11        -13.582614   1.000000
     12        -13.502761   1.000000
     13        -12.353954   1.000000
     14        -10.756976   1.000000
     15         -9.443809   1.000000
     16         -8.424837   1.000000
     17         -8.424784   1.000000
     18         -8.336880   1.000000
     19         -7.660689   1.000000
     20         -7.634019   1.000000
     21         -5.388103   1.000000
     22         -5.332565   1.000000
     23         -5.009200   1.000000
     24         -4.963681   1.000000
     25         -3.853598   1.000000
     26         -3.737869   1.000000
     27         -3.706917   1.000000
     28         -2.793590   1.000000
     29         -2.739258   1.000000
     30         -2.436805   1.000000
     31         -2.397382   1.000000
     32          0.385478   0.000000
     33          1.194224   0.000000
     34          1.267641   0.000000
     35          1.430803   0.000000
     36          2.640196   0.000000
     37          2.831288   0.000000
     38          3.070040   0.000000
     39          3.362581   0.000000
     40          3.988670   0.000000
     41          4.879417   0.000000
     42          6.598252   0.000000
     43          6.682709   0.000000
     44          6.689769   0.000000
     45          7.491426   0.000000
     46          7.751031   0.000000
     47          7.922790   0.000000
     48          7.999427   0.000000
     49          8.620492   0.000000
     50          8.671290   0.000000
     51          9.793074   0.000000
     52         10.099162   0.000000
     53         10.285411   0.000000
     54         10.410835   0.000000
     55         10.432570   0.000000
     56         10.526426   0.000000
     57         10.578432   0.000000
     58         10.903524   0.000000
     59         10.982240   0.000000
     60         11.176694   0.000000
     61         11.225555   0.000000
     62         11.323947   0.000000
     63         11.358631   0.000000
     64         11.510729   0.000000
     65         11.529431   0.000000
     66         11.592583   0.000000
     67         11.735742   0.000000
     68         11.827526   0.000000
     69         11.997211   0.000000
     70         12.062283   0.000000
     71         12.259246   0.000000
     72         12.774539   0.000000
     73         12.793799   0.000000
     74         13.114344   0.000000
     75         13.276497   0.000000
     76         13.409521   0.000000
     77         13.571886   0.000000
     78         13.845908   0.000000
     79         14.028818   0.000000
     80         14.079662   0.000000
     81         14.153384   0.000000
     82         14.421528   0.000000
     83         14.829058   0.000000
     84         14.861848   0.000000
     85         15.022606   0.000000
     86         15.417854   0.000000
     87         15.446647   0.000000
     88         15.737242   0.000000
     89         15.886326   0.000000
     90         17.056031   0.000000
     91         17.083430   0.000000
     92         17.314693   0.000000
     93         17.665159   0.000000
     94         17.816674   0.000000
     95         18.137873   0.000000
     96         18.639276   0.000000
     97         19.751220   0.000000
     98         19.801232   0.000000
     99         19.945375   0.000000
    100         20.044881   0.000000
    101         20.136209   0.000000
    102         20.363997   0.000000
    103         20.450543   0.000000
    104         20.548268   0.000000
    105         20.605137   0.000000
    106         20.843350   0.000000
    107         20.866257   0.000000
    108         21.149389   0.000000
    109         21.308094   0.000000
    110         21.755876   0.000000
    111         21.867388   0.000000
    112         21.899181   0.000000
    113         22.395768   0.000000
    114         22.608553   0.000000
    115         23.078322   0.000000
    116         23.179721   0.000000
    117         23.205031   0.000000
    118         24.388670   0.000000
    119         24.738163   0.000000
    120         25.076600   0.000000
    121         25.475570   0.000000
    122         25.611914   0.000000
    123         25.842007   0.000000
    124         26.047686   0.000000
    125         26.352205   0.000000
    126         26.539742   0.000000
    127         26.868085   0.000000
    128         27.091763   0.000000
 
 -0.5882353E-01  0.5882353E-01  0.0000000E+00  0.6920415E-02
      1        -22.381521   1.000000
      2        -20.500074   1.000000
      3        -17.287703   1.000000
      4        -17.091250   1.000000
      5        -17.089309   1.000000
      6        -16.086925   1.000000
      7        -16.030026   1.000000
      8        -15.477125   1.000000
      9        -15.469635   1.000000
     10        -15.279531   1.000000
     11        -13.582609   1.000000
     12        -13.502767   1.000000
     13        -12.353954   1.000000
     14        -10.756976   1.000000
     15         -9.443809   1.000000
     16         -8.424837   1.000000
     17         -8.424790   1.000000
     18         -8.336873   1.000000
     19         -7.660689   1.000000
     20         -7.634019   1.000000
     21         -5.388098   1.000000
     22         -5.332571   1.000000
     23         -5.009215   1.000000
     24         -4.963666   1.000000
     25         -3.853586   1.000000
     26         -3.737876   1.000000
     27         -3.706923   1.000000
     28         -2.793599   1.000000
     29         -2.739248   1.000000
     30         -2.436786   1.000000
     31         -2.397401   1.000000
     32          0.385481   0.000000
     33          1.194225   0.000000
     34          1.267638   0.000000
     35          1.430802   0.000000
     36          2.640191   0.000000
     37          2.831291   0.000000
     38          3.070040   0.000000
     39          3.362581   0.000000
     40          3.988670   0.000000
     41          4.879417   0.000000
     42          6.598255   0.000000
     43          6.682708   0.000000
     44          6.689767   0.000000
     45          7.491426   0.000000
     46          7.751031   0.000000
     47          7.922809   0.000000
     48          7.999407   0.000000
     49          8.620540   0.000000
     50          8.671388   0.000000
     51          9.793016   0.000000
     52         10.098931   0.000000
     53         10.285332   0.000000
     54         10.412091   0.000000
     55         10.431059   0.000000
     56         10.526864   0.000000
     57         10.579350   0.000000
     58         10.904183   0.000000
     59         10.982501   0.000000
     60         11.176687   0.000000
     61         11.225538   0.000000
     62         11.284417   0.000000
     63         11.355988   0.000000
     64         11.516162   0.000000
     65         11.536037   0.000000
     66         11.642474   0.000000
     67         11.732289   0.000000
     68         11.813959   0.000000
     69         11.997159   0.000000
     70         12.062570   0.000000
     71         12.259092   0.000000
     72         12.774511   0.000000
     73         12.793408   0.000000
     74         13.113986   0.000000
     75         13.274059   0.000000
     76         13.409481   0.000000
     77         13.567045   0.000000
     78         13.845721   0.000000
     79         14.027410   0.000000
     80         14.068774   0.000000
     81         14.079647   0.000000
     82         14.475635   0.000000
     83         14.829158   0.000000
     84         14.862105   0.000000
     85         15.057962   0.000000
     86         15.446785   0.000000
     87         15.450281   0.000000
     88         15.739578   0.000000
     89         15.843110   0.000000
     90         17.054103   0.000000
     91         17.083895   0.000000
     92         17.319533   0.000000
     93         17.664102   0.000000
     94         17.819172   0.000000
     95         18.137433   0.000000
     96         18.639751   0.000000
     97         19.731239   0.000000
     98         19.817290   0.000000
     99         19.946378   0.000000
    100         20.022906   0.000000
    101         20.110992   0.000000
    102         20.390319   0.000000
    103         20.475393   0.000000
    104         20.494399   0.000000
    105         20.667194   0.000000
    106         20.767910   0.000000
    107         21.008802   0.000000
    108         21.173626   0.000000
    109         21.293054   0.000000
    110         21.775501   0.000000
    111         21.782206   0.000000
    112         21.974317   0.000000
    113         22.406847   0.000000
    114         22.428896   0.000000
    115         23.105610   0.000000
    116         23.370019   0.000000
    117         23.645495   0.000000
    118         24.736381   0.000000
    119         24.950240   0.000000
    120         25.133231   0.000000
    121         25.262589   0.000000
    122         25.628795   0.000000
    123         25.849793   0.000000
    124         26.103563   0.000000
    125         26.321057   0.000000
    126         26.700621   0.000000
    127         26.739405   0.000000
    128         27.032612   0.000000
 
  0.1176471E+00 -0.6938894E-17  0.0000000E+00  0.6920415E-02
      1        -22.317152   1.000000
      2        -20.452281   1.000000
      3        -17.790137   1.000000
      4        -17.230910   1.000000
      5        -17.229242   1.000000
      6        -16.316367   1.000000
      7        -16.105734   1.000000
      8        -15.233738   1.000000
      9        -15.228393   1.000000
     10        -14.681619   1.000000
     11        -13.644711   1.000000
     12        -13.326301   1.000000
     13        -12.111302   1.000000
     14        -10.496309   1.000000
     15         -9.365154   1.000000
     16         -8.618851   1.000000
     17         -8.618662   1.000000
     18         -8.274307   1.000000
     19         -7.735683   1.000000
     20         -7.587107   1.000000
     21         -5.585187   1.000000
     22         -5.359220   1.000000
     23         -5.271155   1.000000
     24         -5.092651   1.000000
     25         -4.230394   1.000000
     26         -3.784691   1.000000
     27         -3.751051   1.000000
     28         -2.970891   1.000000
     29         -2.759940   1.000000
     30         -2.671714   1.000000
     31         -2.515884   1.000000
     32          0.187397   0.000000
     33          1.291384   0.000000
     34          1.366976   0.000000
     35          1.751182   0.000000
     36          2.754456   0.000000
     37          3.150547   0.000000
     38          3.273807   0.000000
     39          3.583453   0.000000
     40          4.130626   0.000000
     41          4.960091   0.000000
     42          6.635326   0.000000
     43          6.975395   0.000000
     44          6.982086   0.000000
     45          7.567570   0.000000
     46          7.816971   0.000000
     47          7.954281   0.000000
     48          8.261764   0.000000
     49          8.716276   0.000000
     50          8.931709   0.000000
     51          9.033297   0.000000
     52          9.675161   0.000000
     53          9.874360   0.000000
     54          9.931047   0.000000
     55         10.355411   0.000000
     56         10.446353   0.000000
     57         10.516182   0.000000
     58         10.675646   0.000000
     59         10.813271   0.000000
     60         10.946645   0.000000
     61         11.345101   0.000000
     62         11.395833   0.000000
     63         11.472241   0.000000
     64         11.565392   0.000000
     65         11.615747   0.000000
     66         11.617608   0.000000
     67         11.738177   0.000000
     68         12.222235   0.000000
     69         12.290623   0.000000
     70         12.498430   0.000000
     71         12.597031   0.000000
     72         13.028982   0.000000
     73         13.090836   0.000000
     74         13.193691   0.000000
     75         13.299964   0.000000
     76         13.344948   0.000000
     77         13.507193   0.000000
     78         13.902808   0.000000
     79         13.946131   0.000000
     80         13.979999   0.000000
     81         14.097053   0.000000
     82         14.200719   0.000000
     83         14.798829   0.000000
     84         14.947734   0.000000
     85         15.371826   0.000000
     86         15.655239   0.000000
     87         15.736115   0.000000
     88         15.871260   0.000000
     89         16.269957   0.000000
     90         16.832560   0.000000
     91         17.009865   0.000000
     92         17.142238   0.000000
     93         17.586173   0.000000
     94         17.678640   0.000000
     95         18.494229   0.000000
     96         18.690014   0.000000
     97         19.268950   0.000000
     98         19.579465   0.000000
     99         19.662936   0.000000
    100         19.752944   0.000000
    101         19.855643   0.000000
    102         20.253455   0.000000
    103         20.348222   0.000000
    104         20.391880   0.000000
    105         20.567928   0.000000
    106         20.900690   0.000000
    107         21.026804   0.000000
    108         21.295544   0.000000
    109         21.315961   0.000000
    110         21.955449   0.000000
    111         22.140593   0.000000
    112         22.398837   0.000000
    113         22.546998   0.000000
    114         22.861254   0.000000
    115         23.301478   0.000000
    116         23.527351   0.000000
    117         23.804936   0.000000
    118         23.845893   0.000000
    119         23.980007   0.000000
    120         24.155550   0.000000
    121         24.527656   0.000000
    122         24.932220   0.000000
    123         25.239643   0.000000
    124         25.409095   0.000000
    125         25.664345   0.000000
    126         26.187842   0.000000
    127         26.475396   0.000000
    128         27.018670   0.000000
 
 -0.6938894E-17  0.1176471E+00  0.0000000E+00  0.6920415E-02
      1        -22.317152   1.000000
      2        -20.452282   1.000000
      3        -17.790104   1.000000
      4        -17.230903   1.000000
      5        -17.229324   1.000000
      6        -16.316354   1.000000
      7        -16.105683   1.000000
      8        -15.233713   1.000000
      9        -15.228409   1.000000
     10        -14.681645   1.000000
     11        -13.644750   1.000000
     12        -13.326266   1.000000
     13        -12.111300   1.000000
     14        -10.496311   1.000000
     15         -9.365151   1.000000
     16         -8.618850   1.000000
     17         -8.618709   1.000000
     18         -8.274260   1.000000
     19         -7.735682   1.000000
     20         -7.587112   1.000000
     21         -5.585174   1.000000
     22         -5.359234   1.000000
     23         -5.271254   1.000000
     24         -5.092551   1.000000
     25         -4.228364   1.000000
     26         -3.786806   1.000000
     27         -3.752280   1.000000
     28         -2.972887   1.000000
     29         -2.756532   1.000000
     30         -2.671760   1.000000
     31         -2.515816   1.000000
     32          0.189297   0.000000
     33          1.288757   0.000000
     34          1.363716   0.000000
     35          1.754451   0.000000
     36          2.755767   0.000000
     37          3.150565   0.000000
     38          3.274057   0.000000
     39          3.582604   0.000000
     40          4.130343   0.000000
     41          4.960088   0.000000
     42          6.635329   0.000000
     43          6.975202   0.000000
     44          6.982301   0.000000
     45          7.567567   0.000000
     46          7.816961   0.000000
     47          7.954397   0.000000
     48          8.261651   0.000000
     49          8.715446   0.000000
     50          8.931671   0.000000
     51          9.033194   0.000000
     52          9.675622   0.000000
     53          9.874367   0.000000
     54          9.930923   0.000000
     55         10.355389   0.000000
     56         10.445952   0.000000
     57         10.516375   0.000000
     58         10.675419   0.000000
     59         10.808194   0.000000
     60         10.950142   0.000000
     61         11.046669   0.000000
     62         11.505279   0.000000
     63         11.557149   0.000000
     64         11.574479   0.000000
     65         11.630192   0.000000
     66         11.688762   0.000000
     67         11.748206   0.000000
     68         12.221462   0.000000
     69         12.289907   0.000000
     70         12.497755   0.000000
     71         12.593735   0.000000
     72         13.021400   0.000000
     73         13.088718   0.000000
     74         13.192198   0.000000
     75         13.303665   0.000000
     76         13.341290   0.000000
     77         13.506176   0.000000
     78         13.884912   0.000000
     79         13.902720   0.000000
     80         13.984021   0.000000
     81         14.105242   0.000000
     82         14.245789   0.000000
     83         14.799839   0.000000
     84         14.958262   0.000000
     85         15.382489   0.000000
     86         15.640763   0.000000
     87         15.731332   0.000000
     88         15.878029   0.000000
     89         16.257457   0.000000
     90         16.830292   0.000000
     91         17.012455   0.000000
     92         17.133729   0.000000
     93         17.602429   0.000000
     94         17.696116   0.000000
     95         18.489545   0.000000
     96         18.689468   0.000000
     97         19.266628   0.000000
     98         19.533832   0.000000
     99         19.626182   0.000000
    100         19.740916   0.000000
    101         19.814285   0.000000
    102         20.164274   0.000000
    103         20.371934   0.000000
    104         20.398473   0.000000
    105         20.406877   0.000000
    106         20.878515   0.000000
    107         21.064546   0.000000
    108         21.265219   0.000000
    109         21.357015   0.000000
    110         21.964500   0.000000
    111         22.264776   0.000000
    112         22.391243   0.000000
    113         22.659571   0.000000
    114         22.706484   0.000000
    115         23.232278   0.000000
    116         23.254037   0.000000
    117         23.691908   0.000000
    118         23.894523   0.000000
    119         24.342333   0.000000
    120         24.453194   0.000000
    121         24.614452   0.000000
    122         24.997628   0.000000
    123         25.593181   0.000000
    124         25.871194   0.000000
    125         25.944669   0.000000
    126         26.011934   0.000000
    127         26.420395   0.000000
    128         26.872863   0.000000
 
 -0.1176471E+00  0.1176471E+00  0.0000000E+00  0.6920415E-02
      1        -22.317152   1.000000
      2        -20.452282   1.000000
      3        -17.790102   1.000000
      4        -17.230904   1.000000
      5        -17.229326   1.000000
      6        -16.316358   1.000000
      7        -16.105678   1.000000
      8        -15.233709   1.000000
      9        -15.228404   1.000000
     10        -14.681651   1.000000
     11        -13.644747   1.000000
     12        -13.326271   1.000000
     13        -12.111299   1.000000
     14        -10.496310   1.000000
     15         -9.365151   1.000000
     16         -8.618853   1.000000
     17         -8.618714   1.000000
     18         -8.274254   1.000000
     19         -7.735682   1.000000
     20         -7.587112   1.000000
     21         -5.585170   1.000000
     22         -5.359240   1.000000
     23         -5.271268   1.000000
     24         -5.092537   1.000000
     25         -4.228355   1.000000