<?xml version="1.0" encoding="ISO-8859-1"?>
<modeling>
 <generator>
  <i name="program" type="string">vasp </i>
  <i name="version" type="string">6.3.2  </i>
  <i name="subversion" type="string">27Jun22 (build Dec 22 2022 13:13:19) complex                          parallel </i>
  <i name="platform" type="string">LinuxIFC </i>
  <i name="date" type="string">2023 08 23 </i>
  <i name="time" type="string">00:25:53 </i>
 </generator>
 <incar>
  <i type="string" name="SYSTEM">Lattice</i>
  <i type="int" name="ISTART">     0</i>
  <i type="string" name="PREC">Accurate</i>
  <i type="string" name="ALGO">Normal</i>
  <i type="int" name="ISPIN">     2</i>
  <i type="int" name="ICHARG">     2</i>
  <i type="int" name="NELM">    64</i>
  <i type="int" name="IBRION">     2</i>
  <i name="EDIFF">      0.00000100</i>
  <i name="EDIFFG">     -0.00100000</i>
  <i type="int" name="NSW">   128</i>
  <i type="int" name="ISIF">     2</i>
  <i name="ENCUT">    450.00000000</i>
  <i name="POTIM">      0.50000000</i>
  <i type="int" name="ISMEAR">     0</i>
  <i name="SIGMA">      0.10000000</i>
  <i type="logical" name="LWAVE"> F  </i>
  <i type="logical" name="LCHARG"> F  </i>
  <i type="string" name="GGA">PE</i>
  <i type="int" name="IVDW">    12</i>
 </incar>
 <primitive_cell>
  <structure name="primitive_cell" >
   <crystal>
    <varray name="basis" >
     <v>       4.31367254       2.49050000       0.00000000 </v>
     <v>      -4.31367254       2.49050000       0.00000000 </v>
     <v>       0.00000000       0.00000000      15.00000000 </v>
    </varray>
    <i name="volume">    322.29604355 </i>
    <varray name="rec_basis" >
     <v>       0.11591051       0.20076290       0.00000000 </v>
     <v>      -0.11591051       0.20076290       0.00000000 </v>
     <v>       0.00000000       0.00000000       0.06666667 </v>
    </varray>
   </crystal>
   <varray name="positions" >
    <v>       0.66888689       1.00000000       0.10000000 </v>
    <v>       0.33111211       1.00000000       0.10000000 </v>
    <v>       1.00000000       0.33111211       0.10000000 </v>
    <v>       1.00000000       0.66888689       0.10000000 </v>
    <v>       0.33111211       0.33111211       0.10000000 </v>
    <v>       0.66888689       0.66888689       0.10000000 </v>
    <v>       0.66666600       0.33333300       0.09922189 </v>
    <v>       0.33333300       0.66666600       0.10077811 </v>
    <v>       0.33333267       0.16666633       0.47060000 </v>
    <v>       0.49999967       0.99999933       0.47060000 </v>
    <v>       0.33333267       0.66666633       0.47060000 </v>
    <v>       0.49999967       0.49999933       0.47060000 </v>
    <v>       0.83333267       0.16666633       0.47060000 </v>
    <v>       0.99999967       0.99999933       0.47060000 </v>
    <v>       0.83333267       0.66666633       0.47060000 </v>
    <v>       0.99999967       0.49999933       0.47060000 </v>
   </varray>
  </structure>
  <varray name="primitive_index" >
   <v type="int" >        1 </v>
   <v type="int" >        2 </v>
   <v type="int" >        3 </v>
   <v type="int" >        4 </v>
   <v type="int" >        5 </v>
   <v type="int" >        6 </v>
   <v type="int" >        7 </v>
   <v type="int" >        8 </v>
   <v type="int" >        9 </v>
   <v type="int" >       10 </v>
   <v type="int" >       11 </v>
   <v type="int" >       12 </v>
   <v type="int" >       13 </v>
   <v type="int" >       14 </v>
   <v type="int" >       15 </v>
   <v type="int" >       16 </v>
  </varray>
 </primitive_cell>
 <kpoints>
  <generation param="Gamma">
   <v type="int" name="divisions">      12       12        1 </v>
   <v name="usershift">      0.00000000       0.00000000       0.00000000 </v>
   <v name="genvec1">      0.08333333      -0.00000000       0.00000000 </v>
   <v name="genvec2">     -0.00000000       0.08333333       0.00000000 </v>
   <v name="genvec3">      0.00000000       0.00000000       1.00000000 </v>
   <v name="shift">      0.00000000       0.00000000       0.00000000 </v>
  </generation>
  <varray name="kpointlist" >
   <v>       0.00000000       0.00000000       0.00000000 </v>
   <v>       0.08333333       0.00000000       0.00000000 </v>
   <v>       0.16666667      -0.00000000       0.00000000 </v>
   <v>       0.25000000       0.00000000       0.00000000 </v>
   <v>       0.33333333       0.00000000       0.00000000 </v>
   <v>       0.41666667       0.00000000       0.00000000 </v>
   <v>       0.50000000       0.00000000       0.00000000 </v>
   <v>       0.08333333       0.08333333       0.00000000 </v>
   <v>       0.16666667       0.08333333       0.00000000 </v>
   <v>       0.25000000       0.08333333       0.00000000 </v>
   <v>       0.33333333       0.08333333       0.00000000 </v>
   <v>       0.41666667       0.08333333       0.00000000 </v>
   <v>       0.16666667       0.16666667       0.00000000 </v>
   <v>       0.25000000       0.16666667       0.00000000 </v>
   <v>       0.33333333       0.16666667       0.00000000 </v>
   <v>       0.41666667       0.16666667       0.00000000 </v>
   <v>       0.25000000       0.25000000       0.00000000 </v>
   <v>       0.33333333       0.25000000       0.00000000 </v>
   <v>       0.33333333       0.33333333       0.00000000 </v>
  </varray>
  <varray name="weights" >
   <v>       0.00694444 </v>
   <v>       0.04166667 </v>
   <v>       0.04166667 </v>
   <v>       0.04166667 </v>
   <v>       0.04166667 </v>
   <v>       0.04166667 </v>
   <v>       0.02083333 </v>
   <v>       0.04166667 </v>
   <v>       0.08333333 </v>
   <v>       0.08333333 </v>
   <v>       0.08333333 </v>
   <v>       0.08333333 </v>
   <v>       0.04166667 </v>
   <v>       0.08333333 </v>
   <v>       0.08333333 </v>
   <v>       0.04166667 </v>
   <v>       0.04166667 </v>
   <v>       0.08333333 </v>
   <v>       0.01388889 </v>
  </varray>
 </kpoints>
 <parameters>
  <separator name="general" >
   <i type="string" name="SYSTEM">Lattice</i>
   <i type="logical" name="LCOMPAT"> F  </i>
  </separator>
  <separator name="electronic" >
   <i type="string" name="PREC">accura</i>
   <i name="ENMAX">    450.00000000</i>
   <i name="ENAUG">    644.87300000</i>
   <i name="EDIFF">      0.00000100</i>
   <i type="int" name="IALGO">    38</i>
   <i type="int" name="IWAVPR">    11</i>
   <i type="int" name="NBANDS">    48</i>
   <i type="int" name="NBANDSLOW">    -1</i>
   <i type="int" name="NBANDSHIGH">    -1</i>
   <i name="NELECT">     56.00000000</i>
   <i type="int" name="TURBO">     0</i>
   <i type="int" name="IRESTART">     0</i>
   <i type="int" name="NREBOOT">     0</i>
   <i type="int" name="NMIN">     0</i>
   <i name="EREF">      0.00000000</i>
   <separator name="electronic smearing" >
    <i type="int" name="ISMEAR">     0</i>
    <i name="SIGMA">      0.10000000</i>
    <i name="KSPACING">      0.50000000</i>
    <i type="logical" name="KGAMMA"> T  </i>
    <i type="logical" name="KBLOWUP"> T  </i>
   </separator>
   <separator name="electronic projectors" >
    <i type="logical" name="LREAL"> F  </i>
    <v name="ROPT">      0.00000000      0.00000000</v>
    <i type="int" name="LMAXPAW">  -100</i>
    <i type="int" name="LMAXMIX">     2</i>
    <i type="logical" name="NLSPLINE"> F  </i>
   </separator>
   <separator name="electronic startup" >
    <i type="int" name="ISTART">     0</i>
    <i type="int" name="ICHARG">     2</i>
    <i type="int" name="INIWAV">     1</i>
   </separator>
   <separator name="electronic spin" >
    <i type="int" name="ISPIN">     2</i>
    <i type="logical" name="LNONCOLLINEAR"> F  </i>
    <v name="MAGMOM">      1.00000000      1.00000000      1.00000000      1.00000000      1.00000000      1.00000000      1.00000000      1.00000000      1.00000000      1.00000000      1.00000000      1.00000000      1.00000000      1.00000000      1.00000000      1.00000000</v>
    <i name="NUPDOWN">     -1.00000000</i>
    <i type="logical" name="LSORBIT"> F  </i>
    <v name="SAXIS">      0.00000000      0.00000000      1.00000000</v>
    <i type="logical" name="LSPIRAL"> F  </i>
    <v name="QSPIRAL">      0.00000000      0.00000000      0.00000000</v>
    <i type="logical" name="LZEROZ"> F  </i>
   </separator>
   <separator name="electronic exchange-correlation" >
    <i type="logical" name="LASPH"> F  </i>
    <i type="logical" name="LMETAGGA"> F  </i>
   </separator>
   <separator name="electronic convergence" >
    <i type="int" name="NELM">    64</i>
    <i type="int" name="NELMDL">    -5</i>
    <i type="int" name="NELMIN">     2</i>
    <i name="ENINI">    450.00000000</i>
    <separator name="electronic convergence detail" >
     <i type="logical" name="LDIAG"> T  </i>
     <i type="logical" name="LSUBROT"> F  </i>
     <i name="WEIMIN">      0.00100000</i>
     <i name="EBREAK">      0.00000001</i>
     <i name="DEPER">      0.30000000</i>
     <i type="int" name="NRMM">     4</i>
     <i name="TIME">      0.40000000</i>
    </separator>
   </separator>
   <separator name="electronic mixer" >
    <i name="AMIX">      0.40000000</i>
    <i name="BMIX">      1.00000000</i>
    <i name="AMIN">      0.10000000</i>
    <i name="AMIX_MAG">      1.60000000</i>
    <i name="BMIX_MAG">      1.00000000</i>
    <separator name="electronic mixer details" >
     <i type="int" name="IMIX">     4</i>
     <i type="logical" name="MIXFIRST"> F  </i>
     <i type="int" name="MAXMIX">   -45</i>
     <i name="WC">    100.00000000</i>
     <i type="int" name="INIMIX">     1</i>
     <i type="int" name="MIXPRE">     1</i>
     <i type="int" name="MREMOVE">     5</i>
    </separator>
   </separator>
   <separator name="electronic dipolcorrection" >
    <i type="logical" name="LDIPOL"> F  </i>
    <i type="logical" name="LMONO"> F  </i>
    <i type="int" name="IDIPOL">     0</i>
    <i name="EPSILON">      1.00000000</i>
    <v name="DIPOL">   -100.00000000   -100.00000000   -100.00000000</v>
    <i name="EFIELD">      0.00000000</i>
   </separator>
  </separator>
  <separator name="grids" >
   <i type="int" name="NGX">    36</i>
   <i type="int" name="NGY">    36</i>
   <i type="int" name="NGZ">   108</i>
   <i type="int" name="NGXF">    72</i>
   <i type="int" name="NGYF">    72</i>
   <i type="int" name="NGZF">   216</i>
   <i type="logical" name="ADDGRID"> F  </i>
  </separator>
  <separator name="ionic" >
   <i type="int" name="NSW">   128</i>
   <i type="int" name="IBRION">     2</i>
   <i type="int" name="MDALGO">     0</i>
   <i type="int" name="ISIF">     2</i>
   <i name="PSTRESS">      0.00000000</i>
   <i name="EDIFFG">     -0.00100000</i>
   <i type="int" name="NFREE">     1</i>
   <i name="POTIM">      0.50000000</i>
   <i name="SMASS">     -3.00000000</i>
   <i name="SCALEE">      1.00000000</i>
  </separator>
  <separator name="ionic md" >
   <i name="TEBEG">      0.00010000</i>
   <i name="TEEND">      0.00010000</i>
   <i type="int" name="NBLOCK">     1</i>
   <i type="int" name="KBLOCK">   128</i>
   <i type="int" name="NPACO">   256</i>
   <i name="APACO">     10.00000000</i>
  </separator>
  <separator name="symmetry" >
   <i type="int" name="ISYM">     2</i>
   <i name="SYMPREC">      0.00001000</i>
  </separator>
  <separator name="dos" >
   <i type="int" name="LORBIT">     0</i>
   <v name="RWIGS">     -1.00000000     -1.00000000</v>
   <i type="int" name="NEDOS">   301</i>
   <i name="EMIN">     10.00000000</i>
   <i name="EMAX">    -10.00000000</i>
   <i name="EFERMI">      0.00000000</i>
  </separator>
  <separator name="writing" >
   <i type="int" name="NWRITE">     2</i>
   <i type="logical" name="LWAVE"> F  </i>
   <i type="logical" name="LDOWNSAMPLE"> F  </i>
   <i type="logical" name="LCHARG"> F  </i>
   <i type="logical" name="LPARD"> F  </i>
   <i type="logical" name="LVTOT"> F  </i>
   <i type="logical" name="LVHAR"> F  </i>
   <i type="logical" name="LELF"> F  </i>
   <i type="logical" name="LOPTICS"> F  </i>
   <v name="STM">      0.00000000      0.00000000      0.00000000      0.00000000      0.00000000      0.00000000      0.00000000</v>
  </separator>
  <separator name="performance" >
   <i type="int" name="NPAR">    48</i>
   <i type="int" name="NSIM">     4</i>
   <i type="int" name="NBLK">    -1</i>
   <i type="logical" name="LPLANE"> T  </i>
   <i type="logical" name="LSCALAPACK"> T  </i>
   <i type="logical" name="LSCAAWARE"> F  </i>
   <i type="logical" name="LSCALU"> F  </i>
   <i type="logical" name="LASYNC"> F  </i>
   <i type="logical" name="LORBITALREAL"> F  </i>
  </separator>
  <separator name="miscellaneous" >
   <i type="int" name="IDIOT">     3</i>
   <i type="int" name="PHON_NSTRUCT">    -1</i>
   <i type="logical" name="LMUSIC"> F  </i>
   <v name="POMASS">     10.81100000     12.01100000</v>
   <v name="DARWINR">      0.00000000      0.00000000</v>
   <v name="DARWINV">      1.00000000      1.00000000</v>
   <i type="logical" name="LCORR"> T  </i>
  </separator>
  <i type="logical" name="GGA_COMPAT"> T  </i>
  <i type="logical" name="LBERRY"> F  </i>
  <i type="int" name="ICORELEVEL">     0</i>
  <i type="logical" name="LDAU"> F  </i>
  <i type="int" name="I_CONSTRAINED_M">     0</i>
  <separator name="electronic exchange-correlation" >
   <i type="string" name="GGA">PE</i>
   <i type="int" name="VOSKOWN">     0</i>
   <i type="logical" name="LHFCALC"> F  </i>
   <i type="string" name="PRECFOCK"></i>
   <i type="logical" name="LSYMGRAD"> F  </i>
   <i type="logical" name="LHFONE"> F  </i>
   <i type="logical" name="LRHFCALC"> F  </i>
   <i type="logical" name="LTHOMAS"> F  </i>
   <i type="logical" name="LMODELHF"> F  </i>
   <i type="logical" name="LFOCKACE"> F  </i>
   <i name="ENCUT4O">     -1.00000000</i>
   <i type="int" name="EXXOEP">     0</i>
   <i type="int" name="FOURORBIT">     0</i>
   <i name="AEXX">      0.00000000</i>
   <i name="HFALPHA">      0.00000000</i>
   <i name="MCALPHA">      0.00000000</i>
   <i name="ALDAX">      1.00000000</i>
   <i name="AGGAX">      1.00000000</i>
   <i name="ALDAC">      1.00000000</i>
   <i name="AGGAC">      1.00000000</i>
   <i type="int" name="NKREDX">     1</i>
   <i type="int" name="NKREDY">     1</i>
   <i type="int" name="NKREDZ">     1</i>
   <i type="logical" name="SHIFTRED"> F  </i>
   <i type="logical" name="ODDONLY"> F  </i>
   <i type="logical" name="EVENONLY"> F  </i>
   <i type="int" name="LMAXFOCK">     0</i>
   <i type="int" name="NMAXFOCKAE">     0</i>
   <i type="logical" name="LFOCKAEDFT"> F  </i>
   <i name="HFSCREEN">      0.00000000</i>
   <i name="HFSCREENC">      0.00000000</i>
   <i type="int" name="NBANDSGWLOW">     0</i>
  </separator>
  <separator name="vdW DFT" >
   <i type="logical" name="LUSE_VDW"> F  </i>
   <i name="Zab_VDW">     -0.84910000</i>
   <i name="PARAM1">      0.12340000</i>
   <i name="PARAM2">      1.00000000</i>
   <i name="PARAM3">      0.00000000</i>
  </separator>
  <separator name="model GW" >
   <i type="int" name="MODEL_GW">     0</i>
   <i name="MODEL_EPS0">     12.08610163</i>
   <i name="MODEL_ALPHA">      1.00000000</i>
  </separator>
  <separator name="linear response parameters" >
   <i type="logical" name="LEPSILON"> F  </i>
   <i type="logical" name="LRPA"> F  </i>
   <i type="logical" name="LNABLA"> F  </i>
   <i type="logical" name="LVEL"> F  </i>
   <i name="CSHIFT">      0.10000000</i>
   <i name="OMEGAMAX">     -1.00000000</i>
   <i name="DEG_THRESHOLD">      0.00200000</i>
   <i name="RTIME">     -0.10000000</i>
   <i name="WPLASMAI">      0.00000000</i>
   <v name="DFIELD">      0.00000000      0.00000000      0.00000000</v>
   <v name="WPLASMA">      0.00000000      0.00000000      0.00000000      0.00000000      0.00000000      0.00000000      0.00000000      0.00000000      0.00000000</v>
  </separator>
  <separator name="orbital magnetization" >
   <i type="logical" name="NUCIND"> F  </i>
   <v name="MAGPOS">      0.00000000      0.00000000      0.00000000</v>
   <i type="logical" name="LNICSALL"> T  </i>
   <i type="logical" name="ORBITALMAG"> F  </i>
   <i type="logical" name="LMAGBLOCH"> F  </i>
   <i type="logical" name="LCHIMAG"> F  </i>
   <i type="logical" name="LGAUGE"> T  </i>
   <i type="int" name="MAGATOM">     0</i>
   <v name="MAGDIPOL">      0.00000000      0.00000000      0.00000000</v>
   <v name="AVECCONST">      0.00000000      0.00000000      0.00000000</v>
  </separator>
  <separator name="response functions" >
   <i type="logical" name="LFINITE_TEMPERATURE"> F  </i>
   <i type="logical" name="LADDER"> F  </i>
   <i type="logical" name="LRPAFORCE"> F  </i>
   <i type="logical" name="LFXC"> F  </i>
   <i type="logical" name="LHARTREE"> T  </i>
   <i type="int" name="IBSE">     0</i>
   <v type="int" name="KPOINT">    -1     0     0     0</v>
   <i type="logical" name="LTCTC"> F  </i>
   <i type="logical" name="LTCTE"> F  </i>
   <i type="logical" name="LTETE"> F  </i>
   <i type="logical" name="LTRIPLET"> F  </i>
   <i type="logical" name="LFXCEPS"> F  </i>
   <i type="logical" name="LFXHEG"> F  </i>
   <i type="int" name="NATURALO">     2</i>
   <i type="logical" name="LHOLEGF"> F  </i>
   <i type="logical" name="L2ORDER"> F  </i>
   <i type="logical" name="LDMP1"> F  </i>
   <i type="logical" name="LMP2LT"> F  </i>
   <i type="logical" name="LSMP2LT"> F  </i>
   <i type="logical" name="LGWLF"> F  </i>
   <i name="ENCUTGW">     -2.00000000</i>
   <i name="ENCUTGWSOFT">     -2.00000000</i>
   <i name="ENCUTLF">     -1.00000000</i>
   <i type="logical" name="LESF_SPLINES"> F  </i>
   <i type="int" name="LMAXMP2">    -1</i>
   <i name="SCISSOR">      0.00000000</i>
   <i type="int" name="NOMEGA">     0</i>
   <i type="int" name="NOMEGAR">     0</i>
   <i type="int" name="NBANDSGW">    -1</i>
   <i type="int" name="NBANDSO">    -1</i>
   <i type="int" name="NBANDSV">    -1</i>
   <i type="int" name="NELMGW">     1</i>
   <i type="int" name="NELMHF">     1</i>
   <i type="int" name="DIM">     3</i>
   <i type="int" name="IESPILON">     4</i>
   <i type="int" name="ANTIRES">     0</i>
   <i name="OMEGAMAX">    -30.00000000</i>
   <i name="OMEGAMIN">    -30.00000000</i>
   <i name="OMEGATL">   -200.00000000</i>
   <i type="int" name="OMEGAGRID">     0</i>
   <i name="CSHIFT">     -0.10000000</i>
   <i type="logical" name="LSELFENERGY"> F  </i>
   <i type="logical" name="LSPECTRAL"> F  </i>
   <i type="logical" name="LSPECTRALGW"> F  </i>
   <i type="logical" name="LSINGLES"> F  </i>
   <i type="logical" name="LFERMIGW"> F  </i>
   <i type="logical" name="ODDONLYGW"> F  </i>
   <i type="logical" name="EVENONLYGW"> F  </i>
   <i type="int" name="NKREDLFX">     1</i>
   <i type="int" name="NKREDLFY">     1</i>
   <i type="int" name="NKREDLFZ">     1</i>
   <i type="int" name="MAXMEM">  2800</i>
   <i type="int" name="TELESCOPE">     0</i>
   <i type="int" name="NTAUPAR">    -1</i>
   <i type="int" name="NOMEGAPAR">    -1</i>
   <i name="DAMP_NEWTON">      0.80000001</i>
   <i name="LAMBDA">      1.00000000</i>
  </separator>
  <separator name="External order field" >
   <i name="OFIELD_KAPPA">      0.00000000</i>
   <v name="OFIELD_K">      0.00000000      0.00000000      0.00000000</v>
   <i name="OFIELD_Q6_NEAR">      0.00000000</i>
   <i name="OFIELD_Q6_FAR">      0.00000000</i>
   <i name="OFIELD_A">      0.00000000</i>
  </separator>
  <separator name="optional k-points parameters" >
   <i type="int" name="KPOINTS_OPT_MODE">     1</i>
   <i type="logical" name="LKPOINTS_OPT"> F  </i>
  </separator>
  <separator name="solvation model" >
   <i type="logical" name="LSOL"> F  </i>
  </separator>
 </parameters>
 <atominfo>
  <atoms>      16 </atoms>
  <types>       2 </types>
  <array name="atoms" >
   <dimension dim="1">ion</dimension>
   <field type="string">element</field>
   <field type="int">atomtype</field>
   <set>
    <rc><c>B </c><c>   1</c></rc>
    <rc><c>B </c><c>   1</c></rc>
    <rc><c>B </c><c>   1</c></rc>
    <rc><c>B </c><c>   1</c></rc>
    <rc><c>B </c><c>   1</c></rc>
    <rc><c>B </c><c>   1</c></rc>
    <rc><c>B </c><c>   1</c></rc>
    <rc><c>B </c><c>   1</c></rc>
    <rc><c>C </c><c>   2</c></rc>
    <rc><c>C </c><c>   2</c></rc>
    <rc><c>C </c><c>   2</c></rc>
    <rc><c>C </c><c>   2</c></rc>
    <rc><c>C </c><c>   2</c></rc>
    <rc><c>C </c><c>   2</c></rc>
    <rc><c>C </c><c>   2</c></rc>
    <rc><c>C </c><c>   2</c></rc>
   </set>
  </array>
  <array name="atomtypes" >
   <dimension dim="1">type</dimension>
   <field type="int">atomspertype</field>
   <field type="string">element</field>
   <field>mass</field>
   <field>valence</field>
   <field type="string">pseudopotential</field>
   <set>
    <rc><c>   8</c><c>B </c><c>     10.81100000</c><c>      3.00000000</c><c>  PAW_PBE B 06Sep2000                   </c></rc>
    <rc><c>   8</c><c>C </c><c>     12.01100000</c><c>      4.00000000</c><c>  PAW_PBE C 08Apr2002                   </c></rc>
   </set>
  </array>
 </atominfo>
 <structure name="initialpos" >
  <crystal>
   <varray name="basis" >
    <v>       4.31367254       2.49050000       0.00000000 </v>
    <v>      -4.31367254       2.49050000       0.00000000 </v>
    <v>       0.00000000       0.00000000      15.00000000 </v>
   </varray>
   <i name="volume">    322.29604355 </i>
   <varray name="rec_basis" >
    <v>       0.11591051       0.20076290       0.00000000 </v>
    <v>      -0.11591051       0.20076290       0.00000000 </v>
    <v>       0.00000000       0.00000000       0.06666667 </v>
   </varray>
  </crystal>
  <varray name="positions" >
   <v>       0.66888689       0.00000000       0.10000000 </v>
   <v>       0.33111211       0.00000000       0.10000000 </v>
   <v>       0.00000000       0.33111211       0.10000000 </v>
   <v>       0.00000000       0.66888689       0.10000000 </v>
   <v>       0.33111211       0.33111211       0.10000000 </v>
   <v>       0.66888689       0.66888689       0.10000000 </v>
   <v>       0.66666600       0.33333300       0.09922189 </v>
   <v>       0.33333300       0.66666600       0.10077811 </v>
   <v>       0.33333267       0.16666633       0.47060000 </v>
   <v>       0.49999967       0.99999933       0.47060000 </v>
   <v>       0.33333267       0.66666633       0.47060000 </v>
   <v>       0.49999967       0.49999933       0.47060000 </v>
   <v>       0.83333267       0.16666633       0.47060000 </v>
   <v>       0.99999967       0.99999933       0.47060000 </v>
   <v>       0.83333267       0.66666633       0.47060000 </v>
   <v>       0.99999967       0.49999933       0.47060000 </v>
  </varray>
 </structure>
 <calculation>
  <scstep>
   <time name="dav">    1.46    1.49</time>
   <time name="total">    1.51    1.54</time>
   <energy>
    <i name="alphaZ">     60.42219175 </i>
    <i name="ewald">   1853.50061618 </i>
    <i name="hartreedc">  -3267.85657715 </i>
    <i name="XCdc">    163.43275110 </i>
    <i name="pawpsdc">   1214.24570090 </i>
    <i name="pawaedc">  -1211.68112031 </i>
    <i name="eentropy">     -0.02302192 </i>
    <i name="bandstr">   -371.03482771 </i>
    <i name="atom">   1746.50554237 </i>
    <i name="e_fr_energy">    187.51125522 </i>
    <i name="e_wo_entrp">    187.53427713 </i>
    <i name="e_0_energy">    187.52276617 </i>
   </energy>
  </scstep>
  <scstep>
   <time name="dav">    2.27    2.31</time>
   <time name="total">    2.27    2.31</time>
   <energy>
    <i name="e_fr_energy">   -117.48226294 </i>
    <i name="e_wo_entrp">   -117.46949803 </i>
    <i name="e_0_energy">   -117.47588049 </i>
   </energy>
  </scstep>
  <scstep>
   <time name="dav">    2.76    2.79</time>
   <time name="total">    2.76    2.79</time>
   <energy>
    <i name="e_fr_energy">   -127.88908692 </i>
    <i name="e_wo_entrp">   -127.87669010 </i>
    <i name="e_0_energy">   -127.88288851 </i>
   </energy>
  </scstep>
  <scstep>
   <time name="dav">    2.30    2.33</time>
   <time name="total">    2.30    2.33</time>
   <energy>
    <i name="e_fr_energy">   -127.91337662 </i>
    <i name="e_wo_entrp">   -127.90098413 </i>
    <i name="e_0_energy">   -127.90718038 </i>
   </energy>
  </scstep>
  <scstep>
   <time name="dav">    2.56    2.59</time>
   <time name="total">    2.67    2.71</time>
   <energy>
    <i name="e_fr_energy">   -127.91342519 </i>
    <i name="e_wo_entrp">   -127.90103279 </i>
    <i name="e_0_energy">   -127.90722899 </i>
   </energy>
  </scstep>
  <scstep>
   <time name="dav">    1.97    1.99</time>
   <time name="total">    2.11    2.15</time>
   <energy>
    <i name="e_fr_energy">    -94.59560069 </i>
    <i name="e_wo_entrp">    -94.58457857 </i>
    <i name="e_0_energy">    -94.59008963 </i>
   </energy>
  </scstep>
  <scstep>
   <time name="dav">    2.32    2.34</time>
   <time name="total">    2.46    2.50</time>
   <energy>
    <i name="e_fr_energy">   -105.79955852 </i>
    <i name="e_wo_entrp">   -105.79009118 </i>
    <i name="e_0_energy">   -105.79482485 </i>
   </energy>
  </scstep>
  <scstep>
   <time name="dav">    2.38    2.40</time>
   <time name="total">    2.51    2.55</time>
   <energy>
    <i name="e_fr_energy">   -111.51550386 </i>
    <i name="e_wo_entrp">   -111.50613925 </i>
    <i name="e_0_energy">   -111.51082156 </i>
   </energy>
  </scstep>
  <scstep>
   <time name="dav">    1.82    1.84</time>
   <time name="total">    1.95    1.97</time>
   <energy>
    <i name="e_fr_energy">   -116.79863787 </i>
    <i name="e_wo_entrp">   -116.79613538 </i>
    <i name="e_0_energy">   -116.79738662 </i>
   </energy>
  </scstep>
  <scstep>
   <time name="dav">    2.34    2.36</time>
   <time name="total">    2.47    2.50</time>
   <energy>
    <i name="e_fr_energy">   -120.93249143 </i>
    <i name="e_wo_entrp">   -120.92761746 </i>
    <i name="e_0_energy">   -120.93005445 </i>
   </energy>
  </scstep>
  <scstep>
   <time name="dav">    2.21    2.23</time>
   <time name="total">    2.34    2.37</time>
   <energy>
    <i name="e_fr_energy">   -122.78043285 </i>
    <i name="e_wo_entrp">   -122.77721464 </i>
    <i name="e_0_energy">   -122.77882375 </i>
   </energy>
  </scstep>
  <scstep>
   <time name="dav">    2.43    2.45</time>
   <time name="total">    2.56    2.59</time>
   <energy>
    <i name="e_fr_energy">   -123.76291022 </i>
    <i name="e_wo_entrp">   -123.75818200 </i>
    <i name="e_0_energy">   -123.76054611 </i>
   </energy>
  </scstep>
  <scstep>
   <time name="dav">    2.24    2.25</time>
   <time name="total">    2.38    2.40</time>
   <energy>
    <i name="e_fr_energy">   -124.06366850 </i>
    <i name="e_wo_entrp">   -124.05761291 </i>
    <i name="e_0_energy">   -124.06064070 </i>
   </energy>
  </scstep>
  <scstep>
   <time name="dav">    1.82    1.84</time>
   <time name="total">    1.95    1.98</time>
   <energy>
    <i name="e_fr_energy">   -124.11924880 </i>
    <i name="e_wo_entrp">   -124.11315333 </i>
    <i name="e_0_energy">   -124.11620106 </i>
   </energy>
  </scstep>
  <scstep>
   <time name="dav">    1.79    1.81</time>
   <time name="total">    1.92    1.94</time>
   <energy>
    <i name="e_fr_energy">   -124.14266992 </i>
    <i name="e_wo_entrp">   -124.13659075 </i>
    <i name="e_0_energy">   -124.13963034 </i>
   </energy>
  </scstep>
  <scstep>
   <time name="dav">    1.76    1.79</time>
   <time name="total">    1.89    1.92</time>
   <energy>
    <i name="e_fr_energy">   -124.14421414 </i>
    <i name="e_wo_entrp">   -124.13815706 </i>
    <i name="e_0_energy">   -124.14118560 </i>
   </energy>
  </scstep>
  <scstep>
   <time name="dav">    1.60    1.61</time>
   <time name="total">    1.72    1.75</time>
   <energy>
    <i name="e_fr_energy">   -124.14483307 </i>
    <i name="e_wo_entrp">   -124.13878473 </i>
    <i name="e_0_energy">   -124.14180890 </i>
   </energy>
  </scstep>
  <scstep>
   <time name="dav">    1.55    1.56</time>
   <time name="total">    1.68    1.70</time>
   <energy>
    <i name="e_fr_energy">   -124.14485606 </i>
    <i name="e_wo_entrp">   -124.13879636 </i>
    <i name="e_0_energy">   -124.14182621 </i>
   </energy>
  </scstep>
  <scstep>
   <time name="dav">    1.52    1.53</time>
   <time name="total">    1.65    1.67</time>
   <energy>
    <i name="e_fr_energy">   -124.14490234 </i>
    <i name="e_wo_entrp">   -124.13883830 </i>
    <i name="e_0_energy">   -124.14187032 </i>
   </energy>
  </scstep>
  <scstep>
   <time name="dav">    1.55    1.56</time>
   <time name="total">    1.67    1.70</time>
   <energy>
    <i name="e_fr_energy">   -124.14492655 </i>
    <i name="e_wo_entrp">   -124.13886532 </i>
    <i name="e_0_energy">   -124.14189594 </i>
   </energy>
  </scstep>
  <scstep>
   <time name="dav">    1.51    1.53</time>
   <time name="total">    1.64    1.67</time>
   <energy>
    <i name="e_fr_energy">   -124.14497539 </i>
    <i name="e_wo_entrp">   -124.13891579 </i>
    <i name="e_0_energy">   -124.14194559 </i>
   </energy>
  </scstep>
  <scstep>
   <time name="dav">    1.78    1.80</time>
   <time name="total">    1.91    1.93</time>
   <energy>
    <i name="e_fr_energy">   -124.14499976 </i>
    <i name="e_wo_entrp">   -124.13893953 </i>
    <i name="e_0_energy">   -124.14196964 </i>
   </energy>
  </scstep>
  <scstep>
   <time name="dav">    2.06    2.07</time>
   <time name="total">    2.19    2.21</time>
   <energy>
    <i name="e_fr_energy">   -124.14500402 </i>
    <i name="e_wo_entrp">   -124.13894359 </i>
    <i name="e_0_energy">   -124.14197381 </i>
   </energy>
  </scstep>
  <scstep>
   <time name="dav">    2.21    2.23</time>
   <time name="total">    2.34    2.37</time>
   <energy>
    <i name="e_fr_energy">   -124.14500699 </i>
    <i name="e_wo_entrp">   -124.13894648 </i>
    <i name="e_0_energy">   -124.14197674 </i>
   </energy>
  </scstep>
  <scstep>
   <time name="dav">    1.78    1.80</time>
   <time name="total">    1.91    1.93</time>
   <energy>
    <i name="e_fr_energy">   -124.14500837 </i>
    <i name="e_wo_entrp">   -124.13894795 </i>
    <i name="e_0_energy">   -124.14197816 </i>
   </energy>
  </scstep>
  <scstep>
   <time name="dav">    2.49    2.52</time>
   <time name="total">    2.53    2.55</time>
   <energy>
    <i name="alphaZ">     60.42219175 </i>
    <i name="ewald">   1853.50061618 </i>
    <i name="hartreedc">  -3463.31983371 </i>
    <i name="XCdc">    168.26885545 </i>
    <i name="pawpsdc">   5794.76296764 </i>
    <i name="pawaedc">  -5794.13429565 </i>
    <i name="eentropy">     -0.00606028 </i>
    <i name="bandstr">   -490.14499244 </i>
    <i name="atom">   1746.50554237 </i>
    <i name="e_fr_energy">   -124.14500869 </i>
    <i name="e_wo_entrp">   -124.13894840 </i>
    <i name="e_0_energy">   -124.14197854 </i>
   </energy>
  </scstep>
  <structure>
   <crystal>
    <varray name="basis" >
     <v>       4.31367254       2.49050000       0.00000000 </v>
     <v>      -4.31367254       2.49050000       0.00000000 </v>
     <v>       0.00000000       0.00000000      15.00000000 </v>
    </varray>
    <i name="volume">    322.29604355 </i>
    <varray name="rec_basis" >
     <v>       0.11591051       0.20076290       0.00000000 </v>
     <v>      -0.11591051       0.20076290       0.00000000 </v>
     <v>       0.00000000       0.00000000       0.06666667 </v>
    </varray>
   </crystal>
   <varray name="positions" >
    <v>       0.66888689       0.00000000       0.10000000 </v>
    <v>       0.33111211       0.00000000       0.10000000 </v>
    <v>       0.00000000       0.33111211       0.10000000 </v>
    <v>       0.00000000       0.66888689       0.10000000 </v>
    <v>       0.33111211       0.33111211       0.10000000 </v>
    <v>       0.66888689       0.66888689       0.10000000 </v>
    <v>       0.66666600       0.33333300       0.09922189 </v>
    <v>       0.33333300       0.66666600       0.10077811 </v>
    <v>       0.33333267       0.16666633       0.47060000 </v>
    <v>       0.49999967       0.99999933       0.47060000 </v>
    <v>       0.33333267       0.66666633       0.47060000 </v>
    <v>       0.49999967       0.49999933       0.47060000 </v>
    <v>       0.83333267       0.16666633       0.47060000 </v>
    <v>       0.99999967       0.99999933       0.47060000 </v>
    <v>       0.83333267       0.66666633       0.47060000 </v>
    <v>       0.99999967       0.49999933       0.47060000 </v>
   </varray>
  </structure>
  <varray name="forces" >
   <v>       0.14706600       0.08490884       0.00797492 </v>
   <v>      -0.14706622      -0.08490847       0.00797492 </v>
   <v>       0.14706600      -0.08490884       0.00797492 </v>
   <v>      -0.14706622       0.08490847       0.00797492 </v>
   <v>       0.00000022      -0.16981731       0.00797492 </v>
   <v>       0.00000022       0.16981731       0.00797492 </v>
   <v>       0.00000000      -0.00000000       0.00694034 </v>
   <v>       0.00000000      -0.00000000       0.01084996 </v>
   <v>      -0.00027073      -0.00046892      -0.00812133 </v>
   <v>      -0.00010742       0.00018605      -0.00828462 </v>
   <v>       0.00000000      -0.00000000      -0.00848788 </v>
   <v>       0.00021483      -0.00000000      -0.00828462 </v>
   <v>       0.00054146      -0.00000000      -0.00812133 </v>
   <v>       0.00000000      -0.00000000      -0.00793407 </v>
   <v>      -0.00027073       0.00046892      -0.00812133 </v>
   <v>      -0.00010742      -0.00018605      -0.00828462 </v>
  </varray>
  <varray name="stress" >
   <v>       1.12104067       0.00000000       0.00000000 </v>
   <v>       0.00000000       1.12104067       0.00000000 </v>
   <v>       0.00000000       0.00000000      -3.60368250 </v>
  </varray>
  <energy>
   <i name="e_fr_energy">   -125.63335809 </i>
   <i name="e_wo_entrp">   -125.62729781 </i>
   <i name="e_0_energy">   -125.63032795 </i>
  </energy>
  <time name="totalsc">   56.94   57.69</time>
 </calculation>
 <calculation>
  <scstep>
   <time name="dav">    1.51    1.52</time>
   <time name="total">    1.65    1.67</time>
   <energy>
    <i name="alphaZ">     60.42219175 </i>
    <i name="ewald">   1852.55386356 </i>
    <i name="hartreedc">  -3463.05861736 </i>
    <i name="XCdc">    168.23449539 </i>
    <i name="pawpsdc">   5794.76303442 </i>
    <i name="pawaedc">  -5794.13436546 </i>
    <i name="eentropy">     -0.00608617 </i>
    <i name="bandstr">   -489.42871647 </i>
    <i name="atom">   1746.50554237 </i>
    <i name="e_fr_energy">   -124.14865798 </i>
    <i name="e_wo_entrp">   -124.14257181 </i>
    <i name="e_0_energy">   -124.14561490 </i>
   </energy>
  </scstep>
  <scstep>
   <time name="dav">    2.31    2.33</time>
   <time name="total">    2.44    2.47</time>
   <energy>
    <i name="e_fr_energy">   -124.14554835 </i>
    <i name="e_wo_entrp">   -124.13945443 </i>
    <i name="e_0_energy">   -124.14250139 </i>
   </energy>
  </scstep>
  <scstep>
   <time name="dav">    2.20    2.22</time>
   <time name="total">    2.33    2.36</time>
   <energy>
    <i name="e_fr_energy">   -124.14505571 </i>
    <i name="e_wo_entrp">   -124.13899946 </i>
    <i name="e_0_energy">   -124.14202758 </i>
   </energy>
  </scstep>
  <scstep>
   <time name="dav">    2.23    2.25</time>
   <time name="total">    2.36    2.38</time>
   <energy>
    <i name="e_fr_energy">   -124.14503775 </i>
    <i name="e_wo_entrp">   -124.13899066 </i>
    <i name="e_0_energy">   -124.14201421 </i>
   </energy>
  </scstep>
  <scstep>
   <time name="dav">    2.25    2.26</time>
   <time name="total">    2.28    2.30</time>
   <energy>
    <i name="alphaZ">     60.42219175 </i>
    <i name="ewald">   1852.55386356 </i>
    <i name="hartreedc">  -3462.47957493 </i>
    <i name="XCdc">    168.22310724 </i>
    <i name="pawpsdc">   5778.57271085 </i>
    <i name="pawaedc">  -5777.93903978 </i>
    <i name="eentropy">     -0.00604902 </i>
    <i name="bandstr">   -489.99778938 </i>
    <i name="atom">   1746.50554237 </i>
    <i name="e_fr_energy">   -124.14503734 </i>
    <i name="e_wo_entrp">   -124.13898833 </i>
    <i name="e_0_energy">   -124.14201284 </i>
   </energy>
  </scstep>
  <structure>
   <crystal>
    <varray name="basis" >
     <v>       4.31367254       2.49050000       0.00000000 </v>
     <v>      -4.31367254       2.49050000       0.00000000 </v>
     <v>       0.00000000       0.00000000      15.00000000 </v>
    </varray>
    <i name="volume">    322.29604355 </i>
    <varray name="rec_basis" >
     <v>       0.11591051       0.20076290       0.00000000 </v>
     <v>      -0.11591051       0.20076290       0.00000000 </v>
     <v>       0.00000000       0.00000000       0.06666667 </v>
    </varray>
   </crystal>
   <varray name="positions" >
    <v>       0.67053163       0.00000000       0.10002565 </v>
    <v>       0.32946738       0.00000000       0.10002565 </v>
    <v>      -0.00000000       0.32946737       0.10002565 </v>
    <v>      -0.00000000       0.67053162       0.10002565 </v>
    <v>       0.32946738       0.32946737       0.10002565 </v>
    <v>       0.67053163       0.67053162       0.10002565 </v>
    <v>       0.66666600       0.33333300       0.09924421 </v>
    <v>       0.33333300       0.66666600       0.10081301 </v>
    <v>       0.33332661       0.16666331       0.47057388 </v>
    <v>       0.50000087       0.00000174       0.47057336 </v>
    <v>       0.33333267       0.66666633       0.47057270 </v>
    <v>       0.50000087       0.49999813       0.47057336 </v>
    <v>       0.83333569       0.16666331       0.47057388 </v>
    <v>       0.99999967       0.99999933       0.47057448 </v>
    <v>       0.83333569       0.66667239       0.47057388 </v>
    <v>       0.99999726       0.49999813       0.47057336 </v>
   </varray>
  </structure>
  <varray name="forces" >
   <v>      -0.13975436      -0.08068803       0.00803995 </v>
   <v>       0.13975507       0.08068681       0.00803995 </v>
   <v>      -0.13975436       0.08068803       0.00803995 </v>
   <v>       0.13975507      -0.08068681       0.00803995 </v>
   <v>      -0.00000070       0.16137484       0.00803995 </v>
   <v>      -0.00000070      -0.16137484       0.00803995 </v>
   <v>       0.00000000       0.00000000       0.00878051 </v>
   <v>       0.00000000      -0.00000000       0.00863251 </v>
   <v>       0.00069778       0.00120860      -0.00815556 </v>
   <v>       0.00028254      -0.00048938      -0.00825569 </v>
   <v>       0.00000000      -0.00000000      -0.00834280 </v>
   <v>      -0.00056508      -0.00000000      -0.00825569 </v>
   <v>      -0.00139557       0.00000000      -0.00815556 </v>
   <v>       0.00000000       0.00000000      -0.00807614 </v>
   <v>       0.00069778      -0.00120860      -0.00815556 </v>
   <v>       0.00028254       0.00048938      -0.00825569 </v>
  </varray>
  <varray name="stress" >
   <v>      -0.28153109       0.00000000       0.00000000 </v>
   <v>       0.00000000      -0.28153109       0.00000000 </v>
   <v>       0.00000000       0.00000000      -3.62144486 </v>
  </varray>
  <energy>
   <i name="e_fr_energy">   -125.63362155 </i>
   <i name="e_wo_entrp">   -125.62757253 </i>
   <i name="e_0_energy">   -125.63059704 </i>
  </energy>
  <time name="totalsc">   12.69   12.84</time>
 </calculation>
 <calculation>
  <scstep>
   <time name="dav">    1.51    1.53</time>
   <time name="total">    1.65    1.67</time>
   <energy>
    <i name="alphaZ">     60.42219175 </i>
    <i name="ewald">   1853.00061059 </i>
    <i name="hartreedc">  -3462.59196466 </i>
    <i name="XCdc">    168.23951507 </i>
    <i name="pawpsdc">   5778.44353464 </i>
    <i name="pawaedc">  -5777.80986384 </i>
    <i name="eentropy">     -0.00595100 </i>
    <i name="bandstr">   -490.35149986 </i>
    <i name="atom">   1746.50554237 </i>
    <i name="e_fr_energy">   -124.14788495 </i>
    <i name="e_wo_entrp">   -124.14193395 </i>
    <i name="e_0_energy">   -124.14490945 </i>
   </energy>
  </scstep>
  <scstep>
   <time name="dav">    2.24    2.26</time>
   <time name="total">    2.37    2.39</time>
   <energy>
    <i name="e_fr_energy">   -124.14716385 </i>
    <i name="e_wo_entrp">   -124.14116112 </i>
    <i name="e_0_energy">   -124.14416249 </i>
   </energy>
  </scstep>
  <scstep>
   <time name="dav">    1.96    1.97</time>
   <time name="total">    2.08    2.10</time>
   <energy>
    <i name="e_fr_energy">   -124.14705071 </i>
    <i name="e_wo_entrp">   -124.14101579 </i>
    <i name="e_0_energy">   -124.14403325 </i>
   </energy>
  </scstep>
  <scstep>
   <time name="dav">    2.25    2.27</time>
   <time name="total">    2.38    2.40</time>
   <energy>
    <i name="e_fr_energy">   -124.14704770 </i>
    <i name="e_wo_entrp">   -124.14101043 </i>
    <i name="e_0_energy">   -124.14402907 </i>
   </energy>
  </scstep>
  <scstep>
   <time name="dav">    2.21    2.23</time>
   <time name="total">    2.25    2.27</time>
   <energy>
    <i name="alphaZ">     60.42219175 </i>
    <i name="ewald">   1853.00061059 </i>
    <i name="hartreedc">  -3462.85351974 </i>
    <i name="XCdc">    168.24471115 </i>
    <i name="pawpsdc">   5786.14079464 </i>
    <i name="pawaedc">  -5785.50944110 </i>
    <i name="eentropy">     -0.00603693 </i>
    <i name="bandstr">   -490.09190048 </i>
    <i name="atom">   1746.50554237 </i>
    <i name="e_fr_energy">   -124.14704774 </i>
    <i name="e_wo_entrp">   -124.14101081 </i>
    <i name="e_0_energy">   -124.14402927 </i>
   </energy>
  </scstep>
  <structure>
   <crystal>
    <varray name="basis" >
     <v>       4.31367254       2.49050000       0.00000000 </v>
     <v>      -4.31367254       2.49050000       0.00000000 </v>
     <v>       0.00000000       0.00000000      15.00000000 </v>
    </varray>
    <i name="volume">    322.29604355 </i>
    <varray name="rec_basis" >
     <v>       0.11591051       0.20076290       0.00000000 </v>
     <v>      -0.11591051       0.20076290       0.00000000 </v>
     <v>       0.00000000       0.00000000       0.06666667 </v>
    </varray>
   </crystal>
   <varray name="positions" >
    <v>       0.66973549       0.00000000       0.10001323 </v>
    <v>       0.33026351       0.00000000       0.10001323 </v>
    <v>      -0.00000000       0.33026351       0.10001323 </v>
    <v>      -0.00000000       0.66973549       0.10001323 </v>
    <v>       0.33026351       0.33026351       0.10001323 </v>
    <v>       0.66973549       0.66973549       0.10001323 </v>
    <v>       0.66666600       0.33333300       0.09923340 </v>
    <v>       0.33333300       0.66666600       0.10079612 </v>
    <v>       0.33332954       0.16666477       0.47058652 </v>
    <v>       0.50000029       0.00000057       0.47058625 </v>
    <v>       0.33333267       0.66666633       0.47058592 </v>
    <v>       0.50000029       0.49999871       0.47058625 </v>
    <v>       0.83333423       0.16666477       0.47058652 </v>
    <v>       0.99999967       0.99999933       0.47058683 </v>
    <v>       0.83333423       0.66666946       0.47058652 </v>
    <v>       0.99999843       0.49999871       0.47058625 </v>
   </varray>
  </structure>
  <varray name="forces" >
   <v>      -0.00018080      -0.00010727       0.00801718 </v>
   <v>       0.00018330       0.00010294       0.00801718 </v>
   <v>      -0.00018080       0.00010727       0.00801718 </v>
   <v>       0.00018330      -0.00010294       0.00801718 </v>
   <v>      -0.00000250       0.00021021       0.00801718 </v>
   <v>      -0.00000250      -0.00021021       0.00801718 </v>
   <v>       0.00000000       0.00000000       0.00787965 </v>
   <v>       0.00000000       0.00000000       0.00968795 </v>
   <v>       0.00022773       0.00039445      -0.00814144 </v>
   <v>       0.00009328      -0.00016157      -0.00827322 </v>
   <v>       0.00000000      -0.00000000      -0.00841793 </v>
   <v>      -0.00018657      -0.00000000      -0.00827322 </v>
   <v>      -0.00045547       0.00000000      -0.00814144 </v>
   <v>      -0.00000000       0.00000000      -0.00800877 </v>
   <v>       0.00022773      -0.00039445      -0.00814144 </v>
   <v>       0.00009328       0.00016157      -0.00827322 </v>
  </varray>
  <varray name="stress" >
   <v>       0.35180040       0.00000000       0.00000000 </v>
   <v>       0.00000000       0.35180040       0.00000000 </v>
   <v>       0.00000000       0.00000000      -3.60244676 </v>
  </varray>
  <energy>
   <i name="e_fr_energy">   -125.63551925 </i>
   <i name="e_wo_entrp">   -125.62948233 </i>
   <i name="e_0_energy">   -125.63250079 </i>
  </energy>
  <time name="totalsc">   12.37   12.51</time>
 </calculation>
 <calculation>
  <scstep>
   <time name="dav">    2.28    2.30</time>
   <time name="total">    2.40    2.43</time>
   <energy>
    <i name="alphaZ">     60.42219175 </i>
    <i name="ewald">   1852.99819420 </i>
    <i name="hartreedc">  -3462.85292555 </i>
    <i name="XCdc">    168.24453761 </i>
    <i name="pawpsdc">   5786.22976306 </i>
    <i name="pawaedc">  -5785.59841108 </i>
    <i name="eentropy">     -0.00603700 </i>
    <i name="bandstr">   -490.08990244 </i>
    <i name="atom">   1746.50554237 </i>
    <i name="e_fr_energy">   -124.14704708 </i>
    <i name="e_wo_entrp">   -124.14101008 </i>
    <i name="e_0_energy">   -124.14402858 </i>
   </energy>
  </scstep>
  <scstep>
   <time name="dav">    2.35    2.37</time>
   <time name="total">    2.39    2.41</time>
   <energy>
    <i name="alphaZ">     60.42219175 </i>
    <i name="ewald">   1852.99819420 </i>
    <i name="hartreedc">  -3462.85304024 </i>
    <i name="XCdc">    168.24453350 </i>
    <i name="pawpsdc">   5786.20367205 </i>
    <i name="pawaedc">  -5785.57231757 </i>
    <i name="eentropy">     -0.00603708 </i>
    <i name="bandstr">   -490.08978600 </i>
    <i name="atom">   1746.50554237 </i>
    <i name="e_fr_energy">   -124.14704702 </i>
    <i name="e_wo_entrp">   -124.14100993 </i>
    <i name="e_0_energy">   -124.14402848 </i>
   </energy>
  </scstep>
  <structure>
   <crystal>
    <varray name="basis" >
     <v>       4.31367254       2.49050000       0.00000000 </v>
     <v>      -4.31367254       2.49050000       0.00000000 </v>
     <v>       0.00000000       0.00000000      15.00000000 </v>
    </varray>
    <i name="volume">    322.29604355 </i>
    <varray name="rec_basis" >
     <v>       0.11591051       0.20076290       0.00000000 </v>
     <v>      -0.11591051       0.20076290       0.00000000 </v>
     <v>       0.00000000       0.00000000       0.06666667 </v>
    </varray>
   </crystal>
   <varray name="positions" >
    <v>       0.66973970       0.00000000       0.10001330 </v>
    <v>       0.33025931       0.00000000       0.10001330 </v>
    <v>      -0.00000000       0.33025930       0.10001330 </v>
    <v>      -0.00000000       0.66973969       0.10001330 </v>
    <v>       0.33025931       0.33025930       0.10001330 </v>
    <v>       0.66973970       0.66973969       0.10001330 </v>
    <v>       0.66666600       0.33333300       0.09923346 </v>
    <v>       0.33333300       0.66666600       0.10079621 </v>
    <v>       0.33332953       0.16666476       0.47058646 </v>
    <v>       0.50000029       0.00000058       0.47058618 </v>
    <v>       0.33333267       0.66666633       0.47058585 </v>
    <v>       0.50000029       0.49999871       0.47058618 </v>
    <v>       0.83333424       0.16666476       0.47058646 </v>
    <v>       0.99999967       0.99999933       0.47058677 </v>
    <v>       0.83333424       0.66666947       0.47058646 </v>
    <v>       0.99999842       0.49999871       0.47058618 </v>
   </varray>
  </structure>
  <varray name="forces" >
   <v>      -0.00142568      -0.00082531       0.00801343 </v>
   <v>       0.00142758       0.00082202       0.00801343 </v>
   <v>      -0.00142568       0.00082531       0.00801343 </v>
   <v>       0.00142758      -0.00082202       0.00801343 </v>
   <v>      -0.00000190       0.00164733       0.00801343 </v>
   <v>      -0.00000190      -0.00164733       0.00801343 </v>
   <v>       0.00000000      -0.00000000       0.00788296 </v>
   <v>       0.00000000      -0.00000000       0.00966846 </v>
   <v>       0.00023078       0.00039972      -0.00813699 </v>
   <v>       0.00009457      -0.00016379      -0.00826799 </v>
   <v>       0.00000000      -0.00000000      -0.00841177 </v>
   <v>      -0.00018913      -0.00000000      -0.00826799 </v>
   <v>      -0.00046156      -0.00000000      -0.00813699 </v>
   <v>       0.00000000      -0.00000000      -0.00800527 </v>
   <v>       0.00023078      -0.00039972      -0.00813699 </v>
   <v>       0.00009457       0.00016379      -0.00826799 </v>
  </varray>
  <varray name="stress" >
   <v>       0.35238420       0.00000000       0.00000000 </v>
   <v>       0.00000000       0.35238420       0.00000000 </v>
   <v>       0.00000000       0.00000000      -3.60255419 </v>
  </varray>
  <energy>
   <i name="e_fr_energy">   -125.63551913 </i>
   <i name="e_wo_entrp">   -125.62948205 </i>
   <i name="e_0_energy">   -125.63250059 </i>
  </energy>
  <time name="totalsc">    6.43    6.50</time>
 </calculation>
 <calculation>
  <scstep>
   <time name="dav">    1.88    1.89</time>
   <time name="total">    2.01    2.03</time>
   <energy>
    <i name="alphaZ">     60.42219175 </i>
    <i name="ewald">   1852.99917989 </i>
    <i name="hartreedc">  -3462.85377104 </i>
    <i name="XCdc">    168.24457535 </i>
    <i name="pawpsdc">   5786.18793177 </i>
    <i name="pawaedc">  -5785.55657561 </i>
    <i name="eentropy">     -0.00603690 </i>
    <i name="bandstr">   -490.09008489 </i>
    <i name="atom">   1746.50554237 </i>
    <i name="e_fr_energy">   -124.14704730 </i>
    <i name="e_wo_entrp">   -124.14101040 </i>
    <i name="e_0_energy">   -124.14402885 </i>
   </energy>
  </scstep>
  <scstep>
   <time name="dav">    2.09    2.11</time>
   <time name="total">    2.13    2.14</time>
   <energy>
    <i name="alphaZ">     60.42219175 </i>
    <i name="ewald">   1852.99917989 </i>
    <i name="hartreedc">  -3462.85461193 </i>
    <i name="XCdc">    168.24459252 </i>
    <i name="pawpsdc">   5786.18821473 </i>
    <i name="pawaedc">  -5785.55686073 </i>
    <i name="eentropy">     -0.00603701 </i>
    <i name="bandstr">   -490.08925890 </i>
    <i name="atom">   1746.50554237 </i>
    <i name="e_fr_energy">   -124.14704731 </i>
    <i name="e_wo_entrp">   -124.14101030 </i>
    <i name="e_0_energy">   -124.14402881 </i>
   </energy>
  </scstep>
  <structure>
   <crystal>
    <varray name="basis" >
     <v>       4.31367254       2.49050000       0.00000000 </v>
     <v>      -4.31367254       2.49050000       0.00000000 </v>
     <v>       0.00000000       0.00000000      15.00000000 </v>
    </varray>
    <i name="volume">    322.29604355 </i>
    <varray name="rec_basis" >
     <v>       0.11591051       0.20076290       0.00000000 </v>
     <v>      -0.11591051       0.20076290       0.00000000 </v>
     <v>       0.00000000       0.00000000       0.06666667 </v>
    </varray>
   </crystal>
   <varray name="positions" >
    <v>       0.66973798       0.00000000       0.10001327 </v>
    <v>       0.33026102       0.00000000       0.10001327 </v>
    <v>      -0.00000000       0.33026102       0.10001327 </v>
    <v>      -0.00000000       0.66973798       0.10001327 </v>
    <v>       0.33026102       0.33026102       0.10001327 </v>
    <v>       0.66973798       0.66973798       0.10001327 </v>
    <v>       0.66666600       0.33333300       0.09923344 </v>
    <v>       0.33333300       0.66666600       0.10079617 </v>
    <v>       0.33332953       0.16666477       0.47058648 </v>
    <v>       0.50000029       0.00000058       0.47058621 </v>
    <v>       0.33333267       0.66666633       0.47058587 </v>
    <v>       0.50000029       0.49999871       0.47058621 </v>
    <v>       0.83333423       0.16666477       0.47058648 </v>
    <v>       0.99999967       0.99999933       0.47058680 </v>
    <v>       0.83333423       0.66666947       0.47058648 </v>
    <v>       0.99999842       0.49999871       0.47058621 </v>
   </varray>
  </structure>
  <varray name="forces" >
   <v>      -0.00135622      -0.00078530       0.00800958 </v>
   <v>       0.00135820       0.00078187       0.00800958 </v>
   <v>      -0.00135622       0.00078530       0.00800958 </v>
   <v>       0.00135820      -0.00078187       0.00800958 </v>
   <v>      -0.00000198       0.00156717       0.00800958 </v>
   <v>      -0.00000198      -0.00156717       0.00800958 </v>
   <v>      -0.00000000      -0.00000000       0.00788517 </v>
   <v>      -0.00000000      -0.00000000       0.00966943 </v>
   <v>       0.00022972       0.00039789      -0.00813450 </v>
   <v>       0.00009406      -0.00016291      -0.00826556 </v>
   <v>      -0.00000000      -0.00000000      -0.00840935 </v>
   <v>      -0.00018811      -0.00000000      -0.00826556 </v>
   <v>      -0.00045945      -0.00000000      -0.00813450 </v>
   <v>      -0.00000000      -0.00000000      -0.00800258 </v>
   <v>       0.00022972      -0.00039789      -0.00813450 </v>
   <v>       0.00009406       0.00016291      -0.00826556 </v>
  </varray>
  <varray name="stress" >
   <v>       0.35400368       0.00000000       0.00000000 </v>
   <v>       0.00000000       0.35400368       0.00000000 </v>
   <v>       0.00000000       0.00000000      -3.60064761 </v>
  </varray>
  <energy>
   <i name="e_fr_energy">   -125.63551918 </i>
   <i name="e_wo_entrp">   -125.62948217 </i>
   <i name="e_0_energy">   -125.63250068 </i>
  </energy>
  <time name="totalsc">    5.77    5.83</time>
 </calculation>
 <calculation>
  <scstep>
   <time name="dav">    1.85    1.86</time>
   <time name="total">    1.98    2.00</time>
   <energy>
    <i name="alphaZ">     60.42219175 </i>
    <i name="ewald">   1852.99989521 </i>
    <i name="hartreedc">  -3462.85531939 </i>
    <i name="XCdc">    168.24462738 </i>
    <i name="pawpsdc">   5786.18721712 </i>
    <i name="pawaedc">  -5785.55586401 </i>
    <i name="eentropy">     -0.00603695 </i>
    <i name="bandstr">   -490.08930099 </i>
    <i name="atom">   1746.50554237 </i>
    <i name="e_fr_energy">   -124.14704751 </i>
    <i name="e_wo_entrp">   -124.14101057 </i>
    <i name="e_0_energy">   -124.14402904 </i>
   </energy>
  </scstep>
  <scstep>
   <time name="dav">    1.96    1.98</time>
   <time name="total">    2.00    2.01</time>
   <energy>
    <i name="alphaZ">     60.42219175 </i>
    <i name="ewald">   1852.99989521 </i>
    <i name="hartreedc">  -3462.85600259 </i>
    <i name="XCdc">    168.24464051 </i>
    <i name="pawpsdc">   5786.19209563 </i>
    <i name="pawaedc">  -5785.56074480 </i>
    <i name="eentropy">     -0.00603706 </i>
    <i name="bandstr">   -490.08862855 </i>
    <i name="atom">   1746.50554237 </i>
    <i name="e_fr_energy">   -124.14704752 </i>
    <i name="e_wo_entrp">   -124.14101046 </i>
    <i name="e_0_energy">   -124.14402899 </i>
   </energy>
  </scstep>
  <structure>
   <crystal>
    <varray name="basis" >
     <v>       4.31367254       2.49050000       0.00000000 </v>
     <v>      -4.31367254       2.49050000       0.00000000 </v>
     <v>       0.00000000       0.00000000      15.00000000 </v>
    </varray>
    <i name="volume">    322.29604355 </i>
    <varray name="rec_basis" >
     <v>       0.11591051       0.20076290       0.00000000 </v>
     <v>      -0.11591051       0.20076290       0.00000000 </v>
     <v>       0.00000000       0.00000000       0.06666667 </v>
    </varray>
   </crystal>
   <varray name="positions" >
    <v>       0.66973673       0.00000000       0.10001325 </v>
    <v>       0.33026227       0.00000000       0.10001325 </v>
    <v>      -0.00000000       0.33026227       0.10001325 </v>
    <v>      -0.00000000       0.66973673       0.10001325 </v>
    <v>       0.33026227       0.33026227       0.10001325 </v>
    <v>       0.66973673       0.66973673       0.10001325 </v>
    <v>       0.66666600       0.33333300       0.09923342 </v>
    <v>       0.33333300       0.66666600       0.10079614 </v>
    <v>       0.33332954       0.16666477       0.47058650 </v>
    <v>       0.50000029       0.00000057       0.47058623 </v>
    <v>       0.33333267       0.66666633       0.47058589 </v>
    <v>       0.50000029       0.49999871       0.47058623 </v>
    <v>       0.83333423       0.16666477       0.47058650 </v>
    <v>       0.99999967       0.99999933       0.47058682 </v>
    <v>       0.83333423       0.66666946       0.47058650 </v>
    <v>       0.99999843       0.49999871       0.47058623 </v>
   </varray>
  </structure>
  <varray name="forces" >
   <v>      -0.00115120      -0.00066691       0.00800945 </v>
   <v>       0.00115316       0.00066351       0.00800945 </v>
   <v>      -0.00115120       0.00066691       0.00800945 </v>
   <v>       0.00115316      -0.00066351       0.00800945 </v>
   <v>      -0.00000196       0.00133042       0.00800945 </v>
   <v>      -0.00000196      -0.00133042       0.00800945 </v>
   <v>       0.00000000       0.00000000       0.00788549 </v>
   <v>       0.00000000       0.00000000       0.00967295 </v>
   <v>       0.00022897       0.00039658      -0.00813484 </v>
   <v>       0.00009376      -0.00016240      -0.00826599 </v>
   <v>       0.00000000      -0.00000000      -0.00840988 </v>
   <v>      -0.00018753       0.00000000      -0.00826599 </v>
   <v>      -0.00045793      -0.00000000      -0.00813484 </v>
   <v>      -0.00000000       0.00000000      -0.00800276 </v>
   <v>       0.00022897      -0.00039658      -0.00813484 </v>
   <v>       0.00009376       0.00016240      -0.00826599 </v>
  </varray>
  <varray name="stress" >
   <v>       0.35508506       0.00000000      -0.00000000 </v>
   <v>       0.00000000       0.35508506       0.00000000 </v>
   <v>       0.00000000       0.00000000      -3.60142761 </v>
  </varray>
  <energy>
   <i name="e_fr_energy">   -125.63551921 </i>
   <i name="e_wo_entrp">   -125.62948215 </i>
   <i name="e_0_energy">   -125.63250068 </i>
  </energy>
  <time name="totalsc">    5.48    5.68</time>
 </calculation>
 <calculation>
  <scstep>
   <time name="dav">    1.73    1.74</time>
   <time name="total">    1.86    1.88</time>
   <energy>
    <i name="alphaZ">     60.42219175 </i>
    <i name="ewald">   1853.00025290 </i>
    <i name="hartreedc">  -3462.85674416 </i>
    <i name="XCdc">    168.24466368 </i>
    <i name="pawpsdc">   5786.19531548 </i>
    <i name="pawaedc">  -5785.56396609 </i>
    <i name="eentropy">     -0.00603708 </i>
    <i name="bandstr">   -490.08826647 </i>
    <i name="atom">   1746.50554237 </i>
    <i name="e_fr_energy">   -124.14704762 </i>
    <i name="e_wo_entrp">   -124.14101054 </i>
    <i name="e_0_energy">   -124.14402908 </i>
   </energy>
  </scstep>
  <scstep>
   <time name="dav">    1.77    1.78</time>
   <time name="total">    1.81    1.82</time>
   <energy>
    <i name="alphaZ">     60.42219175 </i>
    <i name="ewald">   1853.00025290 </i>
    <i name="hartreedc">  -3462.85711538 </i>
    <i name="XCdc">    168.24466975 </i>
    <i name="pawpsdc">   5786.19886037 </i>
    <i name="pawaedc">  -5785.56751197 </i>
    <i name="eentropy">     -0.00603713 </i>
    <i name="bandstr">   -490.08790027 </i>
    <i name="atom">   1746.50554237 </i>
    <i name="e_fr_energy">   -124.14704762 </i>
    <i name="e_wo_entrp">   -124.14101049 </i>
    <i name="e_0_energy">   -124.14402906 </i>
   </energy>
  </scstep>
  <structure>
   <crystal>
    <varray name="basis" >
     <v>       4.31367254       2.49050000       0.00000000 </v>
     <v>      -4.31367254       2.49050000       0.00000000 </v>
     <v>       0.00000000       0.00000000      15.00000000 </v>
    </varray>
    <i name="volume">    322.29604355 </i>
    <varray name="rec_basis" >
     <v>       0.11591051       0.20076290       0.00000000 </v>
     <v>      -0.11591051       0.20076290       0.00000000 </v>
     <v>       0.00000000       0.00000000       0.06666667 </v>
    </varray>
   </crystal>
   <varray name="positions" >
    <v>       0.66973611       0.00000000       0.10001324 </v>
    <v>       0.33026289       0.00000000       0.10001324 </v>
    <v>      -0.00000000       0.33026289       0.10001324 </v>
    <v>      -0.00000000       0.66973611       0.10001324 </v>
    <v>       0.33026289       0.33026289       0.10001324 </v>
    <v>       0.66973611       0.66973611       0.10001324 </v>
    <v>       0.66666600       0.33333300       0.09923341 </v>
    <v>       0.33333300       0.66666600       0.10079613 </v>
    <v>       0.33332954       0.16666477       0.47058651 </v>
    <v>       0.50000029       0.00000057       0.47058624 </v>
    <v>       0.33333267       0.66666633       0.47058591 </v>
    <v>       0.50000029       0.49999871       0.47058624 </v>
    <v>       0.83333423       0.16666477       0.47058651 </v>
    <v>       0.99999967       0.99999933       0.47058682 </v>
    <v>       0.83333423       0.66666946       0.47058651 </v>
    <v>       0.99999843       0.49999871       0.47058624 </v>
   </varray>
  </structure>
  <varray name="forces" >
   <v>      -0.00102186      -0.00059222       0.00801002 </v>
   <v>       0.00102381       0.00058885       0.00801002 </v>
   <v>      -0.00102186       0.00059222       0.00801002 </v>
   <v>       0.00102381      -0.00058885       0.00801002 </v>
   <v>      -0.00000195       0.00118107       0.00801002 </v>
   <v>      -0.00000195      -0.00118107       0.00801002 </v>
   <v>       0.00000000      -0.00000000       0.00788548 </v>
   <v>       0.00000000      -0.00000000       0.00967499 </v>
   <v>       0.00022860       0.00039595      -0.00813550 </v>
   <v>       0.00009361      -0.00016214      -0.00826669 </v>
   <v>       0.00000000      -0.00000000      -0.00841066 </v>
   <v>      -0.00018723      -0.00000000      -0.00826669 </v>
   <v>      -0.00045720      -0.00000000      -0.00813550 </v>
   <v>       0.00000000       0.00000000      -0.00800335 </v>
   <v>       0.00022860      -0.00039595      -0.00813550 </v>
   <v>       0.00009361       0.00016214      -0.00826669 </v>
  </varray>
  <varray name="stress" >
   <v>       0.35566245       0.00000000       0.00000000 </v>
   <v>       0.00000000       0.35566245       0.00000000 </v>
   <v>      -0.00000000       0.00000000      -3.60259519 </v>
  </varray>
  <energy>
   <i name="e_fr_energy">   -125.63551923 </i>
   <i name="e_wo_entrp">   -125.62948210 </i>
   <i name="e_0_energy">   -125.63250066 </i>
  </energy>
  <time name="totalsc">    5.31    5.36</time>
 </calculation>
 <calculation>
  <scstep>
   <time name="dav">    1.50    1.51</time>
   <time name="total">    1.62    1.64</time>
   <energy>
    <i name="alphaZ">     60.42219175 </i>
    <i name="ewald">   1853.60277533 </i>
    <i name="hartreedc">  -3463.45998699 </i>
    <i name="XCdc">    168.24467435 </i>
    <i name="pawpsdc">   5786.20115698 </i>
    <i name="pawaedc">  -5785.56980913 </i>
    <i name="eentropy">     -0.00603718 </i>
    <i name="bandstr">   -490.08756118 </i>
    <i name="atom">   1746.50554237 </i>
    <i name="e_fr_energy">   -124.14705370 </i>
    <i name="e_wo_entrp">   -124.14101652 </i>
    <i name="e_0_energy">   -124.14403511 </i>
   </energy>
  </scstep>
  <scstep>
   <time name="dav">    1.67    1.68</time>
   <time name="total">    1.80    1.81</time>
   <energy>
    <i name="e_fr_energy">   -124.14705268 </i>
    <i name="e_wo_entrp">   -124.14101523 </i>
    <i name="e_0_energy">   -124.14403395 </i>
   </energy>
  </scstep>
  <scstep>
   <time name="dav">    1.76    1.78</time>
   <time name="total">    1.79    1.81</time>
   <energy>
    <i name="alphaZ">     60.42219175 </i>
    <i name="ewald">   1853.60277533 </i>
    <i name="hartreedc">  -3463.46797086 </i>
    <i name="XCdc">    168.24469479 </i>
    <i name="pawpsdc">   5786.18819334 </i>
    <i name="pawaedc">  -5785.55684404 </i>
    <i name="eentropy">     -0.00603726 </i>
    <i name="bandstr">   -490.07959749 </i>
    <i name="atom">   1746.50554237 </i>
    <i name="e_fr_energy">   -124.14705206 </i>
    <i name="e_wo_entrp">   -124.14101480 </i>
    <i name="e_0_energy">   -124.14403343 </i>
   </energy>
  </scstep>
  <structure>
   <crystal>
    <varray name="basis" >
     <v>       4.31367254       2.49050000       0.00000000 </v>
     <v>      -4.31367254       2.49050000       0.00000000 </v>
     <v>       0.00000000       0.00000000      15.00000000 </v>
    </varray>
    <i name="volume">    322.29604355 </i>
    <varray name="rec_basis" >
     <v>       0.11591051       0.20076290       0.00000000 </v>
     <v>      -0.11591051       0.20076290       0.00000000 </v>
     <v>       0.00000000       0.00000000       0.06666667 </v>
    </varray>
   </crystal>
   <varray name="positions" >
    <v>       0.66973610      -0.00000002       0.10003667 </v>
    <v>       0.33026288      -0.00000002       0.10003667 </v>
    <v>       0.00000002       0.33026290       0.10003667 </v>
    <v>       0.00000002       0.66973612       0.10003667 </v>
    <v>       0.33026288       0.33026290       0.10003667 </v>
    <v>       0.66973610       0.66973612       0.10003667 </v>
    <v>       0.66666600       0.33333300       0.09925646 </v>
    <v>       0.33333300       0.66666600       0.10082446 </v>
    <v>       0.33333412       0.16666706       0.47056272 </v>
    <v>       0.49999935      -0.00000130       0.47056206 </v>
    <v>       0.33333267       0.66666633       0.47056130 </v>
    <v>       0.49999935       0.49999965       0.47056206 </v>
    <v>       0.83333194       0.16666706       0.47056272 </v>
    <v>       0.99999967       0.99999933       0.47056341 </v>
    <v>       0.83333194       0.66666488       0.47056272 </v>
    <v>       0.00000030       0.49999965       0.47056206 </v>
   </varray>
  </structure>
  <varray name="forces" >
   <v>      -0.00100065      -0.00057957       0.00773312 </v>
   <v>       0.00100225       0.00057680       0.00773312 </v>
   <v>      -0.00100065       0.00057957       0.00773312 </v>
   <v>       0.00100225      -0.00057680       0.00773312 </v>
   <v>      -0.00000160       0.00115637       0.00773312 </v>
   <v>      -0.00000160      -0.00115637       0.00773312 </v>
   <v>      -0.00000000       0.00000000       0.00760238 </v>
   <v>      -0.00000000       0.00000000       0.00940763 </v>
   <v>      -0.00053176      -0.00092104      -0.00788889 </v>
   <v>      -0.00021646       0.00037491      -0.00796432 </v>
   <v>      -0.00000000       0.00000000      -0.00803631 </v>
   <v>       0.00043291      -0.00000000      -0.00796432 </v>
   <v>       0.00106352       0.00000000      -0.00788889 </v>
   <v>      -0.00000000       0.00000000      -0.00781278 </v>
   <v>      -0.00053176       0.00092104      -0.00788889 </v>
   <v>      -0.00021646      -0.00037491      -0.00796432 </v>
  </varray>
  <varray name="stress" >
   <v>       0.35556514       0.00000000       0.00000000 </v>
   <v>       0.00000000       0.35556514       0.00000000 </v>
   <v>       0.00000000       0.00000000      -3.60664313 </v>
  </varray>
  <energy>
   <i name="e_fr_energy">   -125.63556655 </i>
   <i name="e_wo_entrp">   -125.62952929 </i>
   <i name="e_0_energy">   -125.63254792 </i>
  </energy>
  <time name="totalsc">    6.85    6.93</time>
 </calculation>
 <calculation>
  <scstep>
   <time name="dav">    1.47    1.48</time>
   <time name="total">    1.60    1.62</time>
   <energy>
    <i name="alphaZ">     60.42219175 </i>
    <i name="ewald">   1855.41167819 </i>
    <i name="hartreedc">  -3465.27466641 </i>
    <i name="XCdc">    168.24468898 </i>
    <i name="pawpsdc">   5786.19179703 </i>
    <i name="pawaedc">  -5785.56044736 </i>
    <i name="eentropy">     -0.00603724 </i>
    <i name="bandstr">   -490.08182588 </i>
    <i name="atom">   1746.50554237 </i>
    <i name="e_fr_energy">   -124.14707856 </i>
    <i name="e_wo_entrp">   -124.14104132 </i>
    <i name="e_0_energy">   -124.14405994 </i>
   </energy>
  </scstep>
  <scstep>
   <time name="dav">    1.73    1.74</time>
   <time name="total">    1.86    1.88</time>
   <energy>
    <i name="e_fr_energy">   -124.14706981 </i>
    <i name="e_wo_entrp">   -124.14103178 </i>
    <i name="e_0_energy">   -124.14405080 </i>
   </energy>
  </scstep>
  <scstep>
   <time name="dav">    1.93    1.95</time>
   <time name="total">    2.05    2.08</time>
   <energy>
    <i name="e_fr_energy">   -124.14706415 </i>
    <i name="e_wo_entrp">   -124.14102671 </i>
    <i name="e_0_energy">   -124.14404543 </i>
   </energy>
  </scstep>
  <scstep>
   <time name="dav">    1.73    1.74</time>
   <time name="total">    1.76    1.78</time>
   <energy>
    <i name="alphaZ">     60.42219175 </i>
    <i name="ewald">   1855.41167819 </i>
    <i name="hartreedc">  -3465.28879031 </i>
    <i name="XCdc">    168.24472921 </i>
    <i name="pawpsdc">   5786.18075728 </i>
    <i name="pawaedc">  -5785.54940244 </i>
    <i name="eentropy">     -0.00603723 </i>
    <i name="bandstr">   -490.06773338 </i>
    <i name="atom">   1746.50554237 </i>
    <i name="e_fr_energy">   -124.14706456 </i>
    <i name="e_wo_entrp">   -124.14102733 </i>
    <i name="e_0_energy">   -124.14404595 </i>
   </energy>
  </scstep>
  <structure>
   <crystal>
    <varray name="basis" >
     <v>       4.31367254       2.49050000       0.00000000 </v>
     <v>      -4.31367254       2.49050000       0.00000000 </v>
     <v>       0.00000000       0.00000000      15.00000000 </v>
    </varray>
    <i name="volume">    322.29604355 </i>
    <varray name="rec_basis" >
     <v>       0.11591051       0.20076290       0.00000000 </v>
     <v>      -0.11591051       0.20076290       0.00000000 </v>
     <v>       0.00000000       0.00000000       0.06666667 </v>
    </varray>
   </crystal>
   <varray name="positions" >
    <v>       0.66973607      -0.00000008       0.10010697 </v>
    <v>       0.33026285      -0.00000008       0.10010697 </v>
    <v>       0.00000008       0.33026293       0.10010697 </v>
    <v>       0.00000008       0.66973615       0.10010697 </v>
    <v>       0.33026285       0.33026293       0.10010697 </v>
    <v>       0.66973607       0.66973615       0.10010697 </v>
    <v>       0.66666600       0.33333300       0.09932560 </v>
    <v>       0.33333300       0.66666600       0.10090943 </v>
    <v>       0.33334786       0.16667393       0.47049132 </v>
    <v>       0.49999653      -0.00000693       0.47048951 </v>
    <v>       0.33333267       0.66666633       0.47048749 </v>
    <v>       0.49999653       0.50000247       0.47048951 </v>
    <v>       0.83332507       0.16667393       0.47049132 </v>
    <v>       0.99999967       0.99999933       0.47049318 </v>
    <v>       0.83332507       0.66665114       0.47049132 </v>
    <v>       0.00000593       0.50000247       0.47048951 </v>
   </varray>
  </structure>
  <varray name="forces" >
   <v>      -0.00101041      -0.00059332       0.00806862 </v>
   <v>       0.00101903       0.00057838       0.00806862 </v>
   <v>      -0.00101041       0.00059332       0.00806862 </v>
   <v>       0.00101903      -0.00057838       0.00806862 </v>
   <v>      -0.00000862       0.00117170       0.00806862 </v>
   <v>      -0.00000862      -0.00117170       0.00806862 </v>
   <v>      -0.00000000       0.00000000       0.00774871 </v>
   <v>      -0.00000000       0.00000000       0.00957750 </v>
   <v>      -0.00272954      -0.00472771      -0.00826486 </v>
   <v>      -0.00113176       0.00196026      -0.00817872 </v>
   <v>      -0.00000000      -0.00000000      -0.00804407 </v>
   <v>       0.00226352      -0.00000000      -0.00817872 </v>
   <v>       0.00545909       0.00000000      -0.00826486 </v>
   <v>      -0.00000000       0.00000000      -0.00836311 </v>
   <v>      -0.00272954       0.00472771      -0.00826486 </v>
   <v>      -0.00113176      -0.00196026      -0.00817872 </v>
  </varray>
  <varray name="stress" >
   <v>       0.35501201       0.00000000       0.00000000 </v>
   <v>       0.00000000       0.35501201       0.00000000 </v>
   <v>       0.00000000       0.00000000      -3.61060993 </v>
  </varray>
  <energy>
   <i name="e_fr_energy">   -125.63570779 </i>
   <i name="e_wo_entrp">   -125.62967057 </i>
   <i name="e_0_energy">   -125.63268918 </i>
  </energy>
  <time name="totalsc">    8.90    9.00</time>
 </calculation>
 <calculation>
  <scstep>
   <time name="dav">    1.47    1.48</time>
   <time name="total">    1.60    1.62</time>
   <energy>
    <i name="alphaZ">     60.42219175 </i>
    <i name="ewald">   1859.03549391 </i>
    <i name="hartreedc">  -3468.90621597 </i>
    <i name="XCdc">    168.24472273 </i>
    <i name="pawpsdc">   5786.18877713 </i>
    <i name="pawaedc">  -5785.55742454 </i>
    <i name="eentropy">     -0.00603725 </i>
    <i name="bandstr">   -490.07419139 </i>
    <i name="atom">   1746.50554237 </i>
    <i name="e_fr_energy">   -124.14714125 </i>
    <i name="e_wo_entrp">   -124.14110401 </i>
    <i name="e_0_energy">   -124.14412263 </i>
   </energy>
  </scstep>
  <scstep>
   <time name="dav">    1.69    1.70</time>
   <time name="total">    1.81    1.83</time>
   <energy>
    <i name="e_fr_energy">   -124.14711042 </i>
    <i name="e_wo_entrp">   -124.14107160 </i>
    <i name="e_0_energy">   -124.14409101 </i>
   </energy>
  </scstep>
  <scstep>
   <time name="dav">    1.99    2.00</time>
   <time name="total">    2.11    2.13</time>
   <energy>
    <i name="e_fr_energy">   -124.14708393 </i>
    <i name="e_wo_entrp">   -124.14104623 </i>
    <i name="e_0_energy">   -124.14406508 </i>
   </energy>
  </scstep>
  <scstep>
   <time name="dav">    1.82    1.83</time>
   <time name="total">    1.95    1.97</time>
   <energy>
    <i name="e_fr_energy">   -124.14708516 </i>
    <i name="e_wo_entrp">   -124.14104792 </i>
    <i name="e_0_energy">   -124.14406654 </i>
   </energy>
  </scstep>
  <scstep>
   <time name="dav">    1.65    1.66</time>
   <time name="total">    1.68    1.69</time>
   <energy>
    <i name="alphaZ">     60.42219175 </i>
    <i name="ewald">   1859.03549391 </i>
    <i name="hartreedc">  -3468.92188215 </i>
    <i name="XCdc">    168.24478649 </i>
    <i name="pawpsdc">   5786.18054671 </i>
    <i name="pawaedc">  -5785.54918868 </i>
    <i name="eentropy">     -0.00603714 </i>
    <i name="bandstr">   -490.05853904 </i>
    <i name="atom">   1746.50554237 </i>
    <i name="e_fr_energy">   -124.14708579 </i>
    <i name="e_wo_entrp">   -124.14104865 </i>
    <i name="e_0_energy">   -124.14406722 </i>
   </energy>
  </scstep>
  <structure>
   <crystal>
    <varray name="basis" >
     <v>       4.31367254       2.49050000       0.00000000 </v>
     <v>      -4.31367254       2.49050000       0.00000000 </v>
     <v>       0.00000000       0.00000000      15.00000000 </v>
    </varray>
    <i name="volume">    322.29604355 </i>
    <varray name="rec_basis" >
     <v>       0.11591051       0.20076290       0.00000000 </v>
     <v>      -0.11591051       0.20076290       0.00000000 </v>
     <v>       0.00000000       0.00000000       0.06666667 </v>
    </varray>
   </crystal>
   <varray name="positions" >
    <v>       0.66973601      -0.00000020       0.10024755 </v>
    <v>       0.33026279      -0.00000020       0.10024755 </v>
    <v>       0.00000020       0.33026299       0.10024755 </v>
    <v>       0.00000020       0.66973621       0.10024755 </v>
    <v>       0.33026279       0.33026299       0.10024755 </v>
    <v>       0.66973601       0.66973621       0.10024755 </v>
    <v>       0.66666600       0.33333300       0.09946389 </v>
    <v>       0.33333300       0.66666600       0.10107939 </v>
    <v>       0.33337535       0.16668767       0.47034853 </v>
    <v>       0.49999091      -0.00001819       0.47034442 </v>
    <v>       0.33333267       0.66666633       0.47033986 </v>
    <v>       0.49999091       0.50000809       0.47034442 </v>
    <v>       0.83331133       0.16668767       0.47034853 </v>
    <v>       0.99999967       0.99999933       0.47035272 </v>
    <v>       0.83331133       0.66662365       0.47034853 </v>
    <v>       0.00001719       0.50000809       0.47034442 </v>
   </varray>
  </structure>
  <varray name="forces" >
   <v>      -0.00102932      -0.00060298       0.00808584 </v>
   <v>       0.00103685       0.00058993       0.00808584 </v>
   <v>      -0.00102932       0.00060298       0.00808584 </v>
   <v>       0.00103685      -0.00058993       0.00808584 </v>
   <v>      -0.00000753       0.00119291       0.00808584 </v>
   <v>      -0.00000753      -0.00119291       0.00808584 </v>
   <v>      -0.00000000       0.00000000       0.00736529 </v>
   <v>      -0.00000000       0.00000000       0.00919956 </v>
   <v>      -0.00714745      -0.01237975      -0.00835004 </v>
   <v>      -0.00296101       0.00512861      -0.00794040 </v>
   <v>      -0.00000000       0.00000000      -0.00739436 </v>
   <v>       0.00592201       0.00000000      -0.00794040 </v>
   <v>       0.01429490       0.00000000      -0.00835004 </v>
   <v>      -0.00000000       0.00000000      -0.00881424 </v>
   <v>      -0.00714745       0.01237975      -0.00835004 </v>
   <v>      -0.00296101      -0.00512861      -0.00794040 </v>
  </varray>
  <varray name="stress" >
   <v>       0.35377378       0.00000000       0.00000000 </v>
   <v>       0.00000000       0.35377378       0.00000000 </v>
   <v>      -0.00000000       0.00000000      -3.61996086 </v>
  </varray>
  <energy>
   <i name="e_fr_energy">   -125.63598734 </i>
   <i name="e_wo_entrp">   -125.62995020 </i>
   <i name="e_0_energy">   -125.63296877 </i>
  </energy>
  <time name="totalsc">   10.79   10.91</time>
 </calculation>
 <calculation>
  <scstep>
   <time name="dav">    1.46    1.47</time>
   <time name="total">    1.58    1.60</time>
   <energy>
    <i name="alphaZ">     60.42219175 </i>
    <i name="ewald">   1866.30716531 </i>
    <i name="hartreedc">  -3476.18625663 </i>
    <i name="XCdc">    168.24475802 </i>
    <i name="pawpsdc">   5786.18339937 </i>
    <i name="pawaedc">  -5785.55204271 </i>
    <i name="eentropy">     -0.00603733 </i>
    <i name="bandstr">   -490.06605622 </i>
    <i name="atom">   1746.50554237 </i>
    <i name="e_fr_energy">   -124.14733607 </i>
    <i name="e_wo_entrp">   -124.14129874 </i>
    <i name="e_0_energy">   -124.14431740 </i>
   </energy>
  </scstep>
  <scstep>
   <time name="dav">    1.78    1.80</time>
   <time name="total">    1.90    1.93</time>
   <energy>
    <i name="e_fr_energy">   -124.14722124 </i>
    <i name="e_wo_entrp">   -124.14118090 </i>
    <i name="e_0_energy">   -124.14420107 </i>
   </energy>
  </scstep>
  <scstep>
   <time name="dav">    1.94    1.95</time>
   <time name="total">    2.07    2.09</time>
   <energy>
    <i name="e_fr_energy">   -124.14711199 </i>
    <i name="e_wo_entrp">   -124.14107378 </i>
    <i name="e_0_energy">   -124.14409288 </i>
   </energy>
  </scstep>
  <scstep>
   <time name="dav">    2.21    2.22</time>
   <time name="total">    2.34    2.36</time>
   <energy>
    <i name="e_fr_energy">   -124.14711488 </i>
    <i name="e_wo_entrp">   -124.14107758 </i>
    <i name="e_0_energy">   -124.14409623 </i>
   </energy>
  </scstep>
  <scstep>
   <time name="dav">    1.77    1.78</time>
   <time name="total">    1.80    1.82</time>
   <energy>
    <i name="alphaZ">     60.42219175 </i>
    <i name="ewald">   1866.30716531 </i>
    <i name="hartreedc">  -3476.22055686 </i>
    <i name="XCdc">    168.24488601 </i>
    <i name="pawpsdc">   5786.14616976 </i>
    <i name="pawaedc">  -5785.51480373 </i>
    <i name="eentropy">     -0.00603708 </i>
    <i name="bandstr">   -490.03167150 </i>
    <i name="atom">   1746.50554237 </i>
    <i name="e_fr_energy">   -124.14711398 </i>
    <i name="e_wo_entrp">   -124.14107690 </i>
    <i name="e_0_energy">   -124.14409544 </i>
   </energy>
  </scstep>
  <structure>
   <crystal>
    <varray name="basis" >
     <v>       4.31367254       2.49050000       0.00000000 </v>
     <v>      -4.31367254       2.49050000       0.00000000 </v>
     <v>       0.00000000       0.00000000      15.00000000 </v>
    </varray>
    <i name="volume">    322.29604355 </i>
[...]
       <r>     2.3665     1.1277    31.0976 </r>
       <r>     2.4684     0.6534    31.1642 </r>
       <r>     2.5702     1.1237    31.2786 </r>
       <r>     2.6721     1.6919    31.4509 </r>
       <r>     2.7740     1.8704    31.6414 </r>
       <r>     2.8758     1.9658    31.8417 </r>
       <r>     2.9777     1.6470    32.0094 </r>
       <r>     3.0795     1.5278    32.1650 </r>
       <r>     3.1814     2.0887    32.3778 </r>
       <r>     3.2832     1.9996    32.5814 </r>
       <r>     3.3851     1.5728    32.7416 </r>
       <r>     3.4869     2.2799    32.9738 </r>
       <r>     3.5888     3.3102    33.3110 </r>
       <r>     3.6906     2.7899    33.5951 </r>
       <r>     3.7925     2.2371    33.8230 </r>
       <r>     3.8943     2.6468    34.0926 </r>
       <r>     3.9962     3.2191    34.4204 </r>
       <r>     4.0980     2.6633    34.6917 </r>
       <r>     4.1999     2.2172    34.9175 </r>
       <r>     4.3017     2.5989    35.1822 </r>
       <r>     4.4036     2.8497    35.4725 </r>
       <r>     4.5054     3.1911    35.7975 </r>
       <r>     4.6073     2.3617    36.0380 </r>
       <r>     4.7091     2.3449    36.2769 </r>
       <r>     4.8110     3.3519    36.6183 </r>
       <r>     4.9128     4.2140    37.0475 </r>
       <r>     5.0147     3.2006    37.3735 </r>
       <r>     5.1165     3.3424    37.7139 </r>
       <r>     5.2184     2.8323    38.0024 </r>
       <r>     5.3202     2.3807    38.2448 </r>
       <r>     5.4221     3.3146    38.5824 </r>
       <r>     5.5239     3.7544    38.9648 </r>
       <r>     5.6258     3.3585    39.3069 </r>
       <r>     5.7276     3.0953    39.6222 </r>
       <r>     5.8295     3.4226    39.9708 </r>
       <r>     5.9314     2.7814    40.2540 </r>
       <r>     6.0332     3.3124    40.5914 </r>
       <r>     6.1351     3.8338    40.9819 </r>
       <r>     6.2369     2.4866    41.2352 </r>
       <r>     6.3388     2.0187    41.4408 </r>
       <r>     6.4406     2.9819    41.7445 </r>
       <r>     6.5425     3.9792    42.1498 </r>
       <r>     6.6443     3.6972    42.5263 </r>
       <r>     6.7462     3.1879    42.8510 </r>
       <r>     6.8480     2.8585    43.1422 </r>
       <r>     6.9499     3.4970    43.4983 </r>
       <r>     7.0517     3.9382    43.8995 </r>
       <r>     7.1536     4.9478    44.4034 </r>
       <r>     7.2554     5.1844    44.9314 </r>
       <r>     7.3573     4.5814    45.3981 </r>
       <r>     7.4591     3.7748    45.7825 </r>
       <r>     7.5610     3.2321    46.1117 </r>
       <r>     7.6628     4.3574    46.5555 </r>
       <r>     7.7647     4.1527    46.9785 </r>
       <r>     7.8665     3.9883    47.3847 </r>
       <r>     7.9684     3.3189    47.7227 </r>
       <r>     8.0702     1.7004    47.8959 </r>
       <r>     8.1721     0.8295    47.9804 </r>
       <r>     8.2739     0.1837    47.9991 </r>
       <r>     8.3758     0.0085    48.0000 </r>
       <r>     8.4776     0.0001    48.0000 </r>
       <r>     8.5795     0.0000    48.0000 </r>
       <r>     8.6813     0.0000    48.0000 </r>
       <r>     8.7832     0.0000    48.0000 </r>
       <r>     8.8851     0.0000    48.0000 </r>
       <r>     8.9869     0.0000    48.0000 </r>
       <r>     9.0888     0.0000    48.0000 </r>
       <r>     9.1906     0.0000    48.0000 </r>
       <r>     9.2925     0.0000    48.0000 </r>
       <r>     9.3943     0.0000    48.0000 </r>
       <r>     9.4962     0.0000    48.0000 </r>
      </set>
      <set comment="spin 2">
       <r>   -21.0593     0.0000     0.0000 </r>
       <r>   -20.9575     0.0000     0.0000 </r>
       <r>   -20.8556     0.0000     0.0000 </r>
       <r>   -20.7538     0.0000     0.0000 </r>
       <r>   -20.6519     0.0000     0.0000 </r>
       <r>   -20.5501     0.0000     0.0000 </r>
       <r>   -20.4482     0.0000     0.0000 </r>
       <r>   -20.3464     0.0000     0.0000 </r>
       <r>   -20.2445     0.0000     0.0000 </r>
       <r>   -20.1427     0.0000     0.0000 </r>
       <r>   -20.0408     0.0000     0.0000 </r>
       <r>   -19.9390     0.0000     0.0000 </r>
       <r>   -19.8371     0.0013     0.0001 </r>
       <r>   -19.7353     0.0410     0.0043 </r>
       <r>   -19.6334     0.2668     0.0315 </r>
       <r>   -19.5316     0.5500     0.0875 </r>
       <r>   -19.4297     0.6096     0.1496 </r>
       <r>   -19.3279     0.6552     0.2163 </r>
       <r>   -19.2260     0.5690     0.2743 </r>
       <r>   -19.1242     0.7108     0.3467 </r>
       <r>   -19.0223     0.5707     0.4048 </r>
       <r>   -18.9205     0.5808     0.4639 </r>
       <r>   -18.8186     0.7897     0.5444 </r>
       <r>   -18.7168     0.5190     0.5972 </r>
       <r>   -18.6149     0.5330     0.6515 </r>
       <r>   -18.5130     0.8098     0.7340 </r>
       <r>   -18.4112     0.6918     0.8045 </r>
       <r>   -18.3093     0.4075     0.8460 </r>
       <r>   -18.2075     0.6029     0.9074 </r>
       <r>   -18.1056     0.9074     0.9998 </r>
       <r>   -18.0038     0.6179     1.0627 </r>
       <r>   -17.9019     0.5009     1.1138 </r>
       <r>   -17.8001     0.4275     1.1573 </r>
       <r>   -17.6982     0.8882     1.2478 </r>
       <r>   -17.5964     0.8678     1.3361 </r>
       <r>   -17.4945     0.4742     1.3844 </r>
       <r>   -17.3927     0.4518     1.4305 </r>
       <r>   -17.2908     0.5632     1.4878 </r>
       <r>   -17.1890     0.8479     1.5742 </r>
       <r>   -17.0871     0.8866     1.6645 </r>
       <r>   -16.9853     0.6225     1.7279 </r>
       <r>   -16.8834     0.3271     1.7612 </r>
       <r>   -16.7816     0.4805     1.8102 </r>
       <r>   -16.6797     0.8945     1.9013 </r>
       <r>   -16.5779     0.8639     1.9893 </r>
       <r>   -16.4760     0.7197     2.0626 </r>
       <r>   -16.3742     0.5948     2.1231 </r>
       <r>   -16.2723     0.4244     2.1664 </r>
       <r>   -16.1705     0.3446     2.2015 </r>
       <r>   -16.0686     1.1695     2.3206 </r>
       <r>   -15.9668     1.5174     2.4751 </r>
       <r>   -15.8649     1.3775     2.6154 </r>
       <r>   -15.7631     1.3631     2.7543 </r>
       <r>   -15.6612     1.3704     2.8938 </r>
       <r>   -15.5593     1.3231     3.0286 </r>
       <r>   -15.4575     1.5078     3.1822 </r>
       <r>   -15.3556     2.1879     3.4050 </r>
       <r>   -15.2538     2.0157     3.6103 </r>
       <r>   -15.1519     1.8358     3.7973 </r>
       <r>   -15.0501     1.3351     3.9333 </r>
       <r>   -14.9482     1.0926     4.0446 </r>
       <r>   -14.8464     0.8206     4.1282 </r>
       <r>   -14.7445     1.1135     4.2416 </r>
       <r>   -14.6427     1.4634     4.3906 </r>
       <r>   -14.5408     1.4802     4.5414 </r>
       <r>   -14.4390     1.6670     4.7112 </r>
       <r>   -14.3371     1.4042     4.8542 </r>
       <r>   -14.2353     1.1641     4.9727 </r>
       <r>   -14.1334     1.1864     5.0936 </r>
       <r>   -14.0316     1.7905     5.2759 </r>
       <r>   -13.9297     1.2322     5.4014 </r>
       <r>   -13.8279     0.5506     5.4575 </r>
       <r>   -13.7260     0.3223     5.4904 </r>
       <r>   -13.6242     0.6677     5.5584 </r>
       <r>   -13.5223     0.8111     5.6410 </r>
       <r>   -13.4205     0.8165     5.7241 </r>
       <r>   -13.3186     0.8911     5.8149 </r>
       <r>   -13.2168     0.9278     5.9094 </r>
       <r>   -13.1149     0.9323     6.0044 </r>
       <r>   -13.0131     0.8491     6.0908 </r>
       <r>   -12.9112     0.7478     6.1670 </r>
       <r>   -12.8094     1.0733     6.2763 </r>
       <r>   -12.7075     1.5431     6.4335 </r>
       <r>   -12.6057     1.5575     6.5921 </r>
       <r>   -12.5038     1.7553     6.7709 </r>
       <r>   -12.4019     1.9565     6.9702 </r>
       <r>   -12.3001     1.6861     7.1419 </r>
       <r>   -12.1982     2.1508     7.3609 </r>
       <r>   -12.0964     1.9434     7.5589 </r>
       <r>   -11.9945     2.0492     7.7676 </r>
       <r>   -11.8927     2.2876     8.0006 </r>
       <r>   -11.7908     1.4192     8.1451 </r>
       <r>   -11.6890     0.8632     8.2331 </r>
       <r>   -11.5871     0.6375     8.2980 </r>
       <r>   -11.4853     0.8127     8.3808 </r>
       <r>   -11.3834     0.8295     8.4652 </r>
       <r>   -11.2816     0.6935     8.5359 </r>
       <r>   -11.1797     0.5769     8.5946 </r>
       <r>   -11.0779     0.5462     8.6503 </r>
       <r>   -10.9760     0.6457     8.7160 </r>
       <r>   -10.8742     1.2636     8.8447 </r>
       <r>   -10.7723     1.5673     9.0044 </r>
       <r>   -10.6705     1.5522     9.1625 </r>
       <r>   -10.5686     1.8577     9.3517 </r>
       <r>   -10.4668     1.9278     9.5480 </r>
       <r>   -10.3649     1.3736     9.6879 </r>
       <r>   -10.2631     1.2901     9.8193 </r>
       <r>   -10.1612     1.3116     9.9529 </r>
       <r>   -10.0594     1.2869    10.0840 </r>
       <r>    -9.9575     0.8939    10.1750 </r>
       <r>    -9.8557     1.4155    10.3192 </r>
       <r>    -9.7538     1.3273    10.4544 </r>
       <r>    -9.6520     1.7593    10.6336 </r>
       <r>    -9.5501     2.3319    10.8711 </r>
       <r>    -9.4482     1.4196    11.0157 </r>
       <r>    -9.3464     2.0439    11.2239 </r>
       <r>    -9.2445     2.4201    11.4704 </r>
       <r>    -9.1427     1.7556    11.6492 </r>
       <r>    -9.0408     1.1252    11.7638 </r>
       <r>    -8.9390     2.0682    11.9744 </r>
       <r>    -8.8371     3.0979    12.2900 </r>
       <r>    -8.7353     1.4669    12.4394 </r>
       <r>    -8.6334     0.6959    12.5102 </r>
       <r>    -8.5316     1.7937    12.6929 </r>
       <r>    -8.4297     2.3008    12.9273 </r>
       <r>    -8.3279     1.8167    13.1123 </r>
       <r>    -8.2260     1.9613    13.3121 </r>
       <r>    -8.1242     1.6923    13.4844 </r>
       <r>    -8.0223     1.4242    13.6295 </r>
       <r>    -7.9205     1.7495    13.8077 </r>
       <r>    -7.8186     2.3489    14.0469 </r>
       <r>    -7.7168     3.0444    14.3570 </r>
       <r>    -7.6149     2.2653    14.5877 </r>
       <r>    -7.5131     1.6221    14.7529 </r>
       <r>    -7.4112     1.6319    14.9192 </r>
       <r>    -7.3094     2.1549    15.1386 </r>
       <r>    -7.2075     2.5463    15.3980 </r>
       <r>    -7.1057     2.1794    15.6200 </r>
       <r>    -7.0038     2.4223    15.8667 </r>
       <r>    -6.9020     2.3269    16.1037 </r>
       <r>    -6.8001     2.7012    16.3788 </r>
       <r>    -6.6983     3.5730    16.7427 </r>
       <r>    -6.5964     4.5573    17.2069 </r>
       <r>    -6.4946     4.5454    17.6698 </r>
       <r>    -6.3927     2.5327    17.9278 </r>
       <r>    -6.2908     2.0530    18.1369 </r>
       <r>    -6.1890     2.3451    18.3757 </r>
       <r>    -6.0871     2.2899    18.6090 </r>
       <r>    -5.9853     2.2133    18.8344 </r>
       <r>    -5.8834     1.7556    19.0132 </r>
       <r>    -5.7816     2.1933    19.2366 </r>
       <r>    -5.6797     2.5881    19.5002 </r>
       <r>    -5.5779     1.6675    19.6700 </r>
       <r>    -5.4760     1.0407    19.7760 </r>
       <r>    -5.3742     1.7174    19.9510 </r>
       <r>    -5.2723     2.7149    20.2275 </r>
       <r>    -5.1705     2.1540    20.4469 </r>
       <r>    -5.0686     1.4723    20.5968 </r>
       <r>    -4.9668     1.8427    20.7845 </r>
       <r>    -4.8649     2.6287    21.0522 </r>
       <r>    -4.7631     1.6684    21.2222 </r>
       <r>    -4.6612     0.9805    21.3220 </r>
       <r>    -4.5594     1.9956    21.5253 </r>
       <r>    -4.4575     2.5583    21.7859 </r>
       <r>    -4.3557     2.8251    22.0736 </r>
       <r>    -4.2538     2.9189    22.3709 </r>
       <r>    -4.1520     2.3508    22.6103 </r>
       <r>    -4.0501     2.5814    22.8732 </r>
       <r>    -3.9483     3.1487    23.1939 </r>
       <r>    -3.8464     3.6709    23.5678 </r>
       <r>    -3.7446     3.4140    23.9156 </r>
       <r>    -3.6427     2.7140    24.1920 </r>
       <r>    -3.5409     2.5469    24.4514 </r>
       <r>    -3.4390     2.1842    24.6738 </r>
       <r>    -3.3371     1.6446    24.8414 </r>
       <r>    -3.2353     0.9576    24.9389 </r>
       <r>    -3.1334     1.0404    25.0449 </r>
       <r>    -3.0316     1.9223    25.2406 </r>
       <r>    -2.9297     2.0735    25.4518 </r>
       <r>    -2.8279     1.5351    25.6082 </r>
       <r>    -2.7260     1.4939    25.7603 </r>
       <r>    -2.6242     1.4573    25.9088 </r>
       <r>    -2.5223     1.4267    26.0541 </r>
       <r>    -2.4205     2.0232    26.2601 </r>
       <r>    -2.3186     1.7130    26.4346 </r>
       <r>    -2.2168     1.2391    26.5608 </r>
       <r>    -2.1149     1.3022    26.6934 </r>
       <r>    -2.0131     1.0069    26.7960 </r>
       <r>    -1.9112     0.6557    26.8628 </r>
       <r>    -1.8094     0.7458    26.9387 </r>
       <r>    -1.7075     1.2171    27.0627 </r>
       <r>    -1.6057     1.2648    27.1915 </r>
       <r>    -1.5038     1.1787    27.3116 </r>
       <r>    -1.4020     0.8376    27.3969 </r>
       <r>    -1.3001     0.6680    27.4649 </r>
       <r>    -1.1983     0.6151    27.5276 </r>
       <r>    -1.0964     0.7284    27.6018 </r>
       <r>    -0.9946     1.0387    27.7076 </r>
       <r>    -0.8927     0.7779    27.7868 </r>
       <r>    -0.7909     0.4002    27.8276 </r>
       <r>    -0.6890     0.1794    27.8458 </r>
       <r>    -0.5872     0.1484    27.8609 </r>
       <r>    -0.4853     0.4324    27.9050 </r>
       <r>    -0.3835     0.4260    27.9484 </r>
       <r>    -0.2816     0.2594    27.9748 </r>
       <r>    -0.1797     0.4638    28.0220 </r>
       <r>    -0.0779     0.6166    28.0848 </r>
       <r>     0.0240     0.4522    28.1309 </r>
       <r>     0.1258     0.4599    28.1777 </r>
       <r>     0.2277     1.0121    28.2808 </r>
       <r>     0.3295     1.5500    28.4387 </r>
       <r>     0.4314     1.4594    28.5873 </r>
       <r>     0.5332     1.2366    28.7133 </r>
       <r>     0.6351     0.4854    28.7627 </r>
       <r>     0.7369     0.6727    28.8312 </r>
       <r>     0.8388     1.5032    28.9843 </r>
       <r>     0.9406     1.0073    29.0869 </r>
       <r>     1.0425     0.2668    29.1141 </r>
       <r>     1.1443     0.5355    29.1686 </r>
       <r>     1.2462     1.7746    29.3494 </r>
       <r>     1.3480     2.6400    29.6183 </r>
       <r>     1.4499     2.0539    29.8275 </r>
       <r>     1.5517     1.5211    29.9824 </r>
       <r>     1.6536     0.9699    30.0812 </r>
       <r>     1.7554     1.1449    30.1978 </r>
       <r>     1.8573     1.5725    30.3579 </r>
       <r>     1.9591     1.4092    30.5015 </r>
       <r>     2.0610     1.6406    30.6686 </r>
       <r>     2.1628     1.7235    30.8441 </r>
       <r>     2.2647     1.3612    30.9828 </r>
       <r>     2.3665     1.1277    31.0976 </r>
       <r>     2.4684     0.6534    31.1642 </r>
       <r>     2.5702     1.1237    31.2786 </r>
       <r>     2.6721     1.6919    31.4509 </r>
       <r>     2.7740     1.8704    31.6414 </r>
       <r>     2.8758     1.9658    31.8417 </r>
       <r>     2.9777     1.6469    32.0094 </r>
       <r>     3.0795     1.5277    32.1650 </r>
       <r>     3.1814     2.0887    32.3777 </r>
       <r>     3.2832     1.9997    32.5814 </r>
       <r>     3.3851     1.5728    32.7416 </r>
       <r>     3.4869     2.2798    32.9738 </r>
       <r>     3.5888     3.3102    33.3110 </r>
       <r>     3.6906     2.7899    33.5951 </r>
       <r>     3.7925     2.2372    33.8230 </r>
       <r>     3.8943     2.6468    34.0926 </r>
       <r>     3.9962     3.2191    34.4204 </r>
       <r>     4.0980     2.6634    34.6917 </r>
       <r>     4.1999     2.2173    34.9175 </r>
       <r>     4.3017     2.5989    35.1822 </r>
       <r>     4.4036     2.8497    35.4725 </r>
       <r>     4.5054     3.1912    35.7975 </r>
       <r>     4.6073     2.3617    36.0380 </r>
       <r>     4.7091     2.3448    36.2769 </r>
       <r>     4.8110     3.3517    36.6182 </r>
       <r>     4.9128     4.2141    37.0474 </r>
       <r>     5.0147     3.2006    37.3734 </r>
       <r>     5.1165     3.3423    37.7139 </r>
       <r>     5.2184     2.8324    38.0023 </r>
       <r>     5.3202     2.3806    38.2448 </r>
       <r>     5.4221     3.3146    38.5824 </r>
       <r>     5.5239     3.7544    38.9648 </r>
       <r>     5.6258     3.3586    39.3069 </r>
       <r>     5.7276     3.0953    39.6221 </r>
       <r>     5.8295     3.4226    39.9707 </r>
       <r>     5.9314     2.7814    40.2540 </r>
       <r>     6.0332     3.3122    40.5914 </r>
       <r>     6.1351     3.8340    40.9819 </r>
       <r>     6.2369     2.4868    41.2351 </r>
       <r>     6.3388     2.0186    41.4407 </r>
       <r>     6.4406     2.9818    41.7445 </r>
       <r>     6.5425     3.9790    42.1497 </r>
       <r>     6.6443     3.6972    42.5263 </r>
       <r>     6.7462     3.1882    42.8510 </r>
       <r>     6.8480     2.8584    43.1421 </r>
       <r>     6.9499     3.4970    43.4983 </r>
       <r>     7.0517     3.9382    43.8994 </r>
       <r>     7.1536     4.9477    44.4034 </r>
       <r>     7.2554     5.1843    44.9314 </r>
       <r>     7.3573     4.5815    45.3980 </r>
       <r>     7.4591     3.7750    45.7825 </r>
       <r>     7.5610     3.2321    46.1117 </r>
       <r>     7.6628     4.3573    46.5555 </r>
       <r>     7.7647     4.1525    46.9785 </r>
       <r>     7.8665     3.9882    47.3847 </r>
       <r>     7.9684     3.3190    47.7227 </r>
       <r>     8.0702     1.7003    47.8959 </r>
       <r>     8.1721     0.8297    47.9804 </r>
       <r>     8.2739     0.1840    47.9991 </r>
       <r>     8.3758     0.0086    48.0000 </r>
       <r>     8.4776     0.0001    48.0000 </r>
       <r>     8.5795     0.0000    48.0000 </r>
       <r>     8.6813     0.0000    48.0000 </r>
       <r>     8.7832     0.0000    48.0000 </r>
       <r>     8.8851     0.0000    48.0000 </r>
       <r>     8.9869     0.0000    48.0000 </r>
       <r>     9.0888     0.0000    48.0000 </r>
       <r>     9.1906     0.0000    48.0000 </r>
       <r>     9.2925     0.0000    48.0000 </r>
       <r>     9.3943     0.0000    48.0000 </r>
       <r>     9.4962     0.0000    48.0000 </r>
      </set>
     </set>
    </array>
   </total>
  </dos>
 </calculation>
 <structure name="finalpos" >
  <crystal>
   <varray name="basis" >
    <v>       4.31367254       2.49050000       0.00000000 </v>
    <v>      -4.31367254       2.49050000       0.00000000 </v>
    <v>       0.00000000       0.00000000      15.00000000 </v>
   </varray>
   <i name="volume">    322.29604355 </i>
   <varray name="rec_basis" >
    <v>       0.11591051       0.20076290       0.00000000 </v>
    <v>      -0.11591051       0.20076290       0.00000000 </v>
    <v>       0.00000000       0.00000000       0.06666667 </v>
   </varray>
  </crystal>
  <varray name="positions" >
   <v>       0.66949588      -0.00004655       0.16694664 </v>
   <v>       0.33045657      -0.00004655       0.16694664 </v>
   <v>       0.00004655       0.33050312       0.16694664 </v>
   <v>       0.00004655       0.66954243       0.16694664 </v>
   <v>       0.33045657       0.33050312       0.16694664 </v>
   <v>       0.66949588       0.66954243       0.16694664 </v>
   <v>       0.66666600       0.33333300       0.16140881 </v>
   <v>       0.33333300       0.66666600       0.17316451 </v>
   <v>       0.33336353       0.16668177       0.40355589 </v>
   <v>       0.50002439       0.00004877       0.40362280 </v>
   <v>       0.33333267       0.66666633       0.40356449 </v>
   <v>       0.50002439       0.49997461       0.40362280 </v>
   <v>       0.83331723       0.16668177       0.40355589 </v>
   <v>       0.99999967       0.99999933       0.40344626 </v>
   <v>       0.83331723       0.66663547       0.40355589 </v>
   <v>      -0.00004977       0.49997461       0.40362280 </v>
  </varray>
 </structure>
</modeling>
