<?xml version="1.0" encoding="ISO-8859-1"?>
<modeling>
 <generator>
  <i name="program" type="string">vasp </i>
  <i name="version" type="string">6.3.2  </i>
  <i name="subversion" type="string">27Jun22 (build Dec 22 2022 13:13:19) complex                          parallel </i>
  <i name="platform" type="string">LinuxIFC </i>
  <i name="date" type="string">2023 11 03 </i>
  <i name="time" type="string">19:34:38 </i>
 </generator>
 <incar>
  <i type="string" name="SYSTEM">Lattice</i>
  <i type="int" name="ISTART">     0</i>
  <i type="string" name="PREC">Accurate</i>
  <i type="string" name="ALGO">Normal</i>
  <i type="int" name="ISPIN">     1</i>
  <i type="int" name="ICHARG">     2</i>
  <i type="int" name="NELM">    64</i>
  <i type="int" name="IBRION">     2</i>
  <i name="EDIFF">      0.00000100</i>
  <i name="EDIFFG">     -0.00100000</i>
  <i type="int" name="NSW">   256</i>
  <i type="int" name="ISIF">     2</i>
  <i name="ENCUT">    450.00000000</i>
  <i name="POTIM">      0.50000000</i>
  <i type="int" name="ISMEAR">     0</i>
  <i name="SIGMA">      0.10000000</i>
  <i type="logical" name="LWAVE"> F  </i>
  <i type="logical" name="LCHARG"> F  </i>
  <i type="string" name="GGA">PE</i>
  <i type="int" name="IVDW">    12</i>
 </incar>
 <primitive_cell>
  <structure name="primitive_cell" >
   <crystal>
    <varray name="basis" >
     <v>       4.37429400       2.52550000       0.00000000 </v>
     <v>      -4.37429400       2.52550000       0.00000000 </v>
     <v>       0.00000000       0.00000000      15.00000000 </v>
    </varray>
    <i name="volume">    331.41838491 </i>
    <varray name="rec_basis" >
     <v>       0.11430416       0.19798060       0.00000000 </v>
     <v>      -0.11430416       0.19798060       0.00000000 </v>
     <v>       0.00000000       0.00000000       0.06666667 </v>
    </varray>
   </crystal>
   <varray name="positions" >
    <v>       0.66666600       1.00000000       0.10000000 </v>
    <v>       0.33333300       1.00000000       0.10000000 </v>
    <v>       1.00000000       0.33333300       0.10000000 </v>
    <v>       1.00000000       0.66666600       0.10000000 </v>
    <v>       0.33333300       0.33333300       0.10000000 </v>
    <v>       0.66666600       0.66666600       0.10000000 </v>
    <v>       0.66666600       0.33333300       0.13300000 </v>
    <v>       0.33333300       0.66666600       0.06700000 </v>
   </varray>
  </structure>
  <varray name="primitive_index" >
   <v type="int" >        1 </v>
   <v type="int" >        2 </v>
   <v type="int" >        3 </v>
   <v type="int" >        4 </v>
   <v type="int" >        5 </v>
   <v type="int" >        6 </v>
   <v type="int" >        7 </v>
   <v type="int" >        8 </v>
  </varray>
 </primitive_cell>
 <kpoints>
  <generation param="Gamma">
   <v type="int" name="divisions">      17       17        1 </v>
   <v name="usershift">      0.00000000       0.00000000       0.00000000 </v>
   <v name="genvec1">      0.05882353      -0.00000000       0.00000000 </v>
   <v name="genvec2">     -0.00000000       0.05882353       0.00000000 </v>
   <v name="genvec3">      0.00000000       0.00000000       1.00000000 </v>
   <v name="shift">      0.00000000       0.00000000       0.00000000 </v>
  </generation>
  <varray name="kpointlist" >
   <v>       0.00000000       0.00000000       0.00000000 </v>
   <v>       0.05882353       0.00000000       0.00000000 </v>
   <v>       0.11764706       0.00000000       0.00000000 </v>
   <v>       0.17647059       0.00000000       0.00000000 </v>
   <v>       0.23529412       0.00000000       0.00000000 </v>
   <v>       0.29411765       0.00000000       0.00000000 </v>
   <v>       0.35294118       0.00000000       0.00000000 </v>
   <v>       0.41176471       0.00000000       0.00000000 </v>
   <v>       0.47058824       0.00000000       0.00000000 </v>
   <v>       0.05882353       0.05882353       0.00000000 </v>
   <v>       0.11764706       0.05882353       0.00000000 </v>
   <v>       0.17647059       0.05882353       0.00000000 </v>
   <v>       0.23529412       0.05882353       0.00000000 </v>
   <v>       0.29411765       0.05882353       0.00000000 </v>
   <v>       0.35294118       0.05882353       0.00000000 </v>
   <v>       0.41176471       0.05882353       0.00000000 </v>
   <v>       0.47058824       0.05882353       0.00000000 </v>
   <v>       0.11764706       0.11764706       0.00000000 </v>
   <v>       0.17647059       0.11764706       0.00000000 </v>
   <v>       0.23529412       0.11764706       0.00000000 </v>
   <v>       0.29411765       0.11764706       0.00000000 </v>
   <v>       0.35294118       0.11764706       0.00000000 </v>
   <v>       0.41176471       0.11764706       0.00000000 </v>
   <v>       0.17647059       0.17647059       0.00000000 </v>
   <v>       0.23529412       0.17647059       0.00000000 </v>
   <v>       0.29411765       0.17647059       0.00000000 </v>
   <v>       0.35294118       0.17647059       0.00000000 </v>
   <v>       0.41176471       0.17647059       0.00000000 </v>
   <v>       0.23529412       0.23529412       0.00000000 </v>
   <v>       0.29411765       0.23529412       0.00000000 </v>
   <v>       0.35294118       0.23529412       0.00000000 </v>
   <v>       0.29411765       0.29411765       0.00000000 </v>
   <v>       0.35294118       0.29411765       0.00000000 </v>
  </varray>
  <varray name="weights" >
   <v>       0.00346021 </v>
   <v>       0.02076125 </v>
   <v>       0.02076125 </v>
   <v>       0.02076125 </v>
   <v>       0.02076125 </v>
   <v>       0.02076125 </v>
   <v>       0.02076125 </v>
   <v>       0.02076125 </v>
   <v>       0.02076125 </v>
   <v>       0.02076125 </v>
   <v>       0.04152249 </v>
   <v>       0.04152249 </v>
   <v>       0.04152249 </v>
   <v>       0.04152249 </v>
   <v>       0.04152249 </v>
   <v>       0.04152249 </v>
   <v>       0.02076125 </v>
   <v>       0.02076125 </v>
   <v>       0.04152249 </v>
   <v>       0.04152249 </v>
   <v>       0.04152249 </v>
   <v>       0.04152249 </v>
   <v>       0.04152249 </v>
   <v>       0.02076125 </v>
   <v>       0.04152249 </v>
   <v>       0.04152249 </v>
   <v>       0.04152249 </v>
   <v>       0.02076125 </v>
   <v>       0.02076125 </v>
   <v>       0.04152249 </v>
   <v>       0.04152249 </v>
   <v>       0.02076125 </v>
   <v>       0.02076125 </v>
  </varray>
 </kpoints>
 <parameters>
  <separator name="general" >
   <i type="string" name="SYSTEM">Lattice</i>
   <i type="logical" name="LCOMPAT"> F  </i>
  </separator>
  <separator name="electronic" >
   <i type="string" name="PREC">accura</i>
   <i name="ENMAX">    450.00000000</i>
   <i name="ENAUG">    535.51400000</i>
   <i name="EDIFF">      0.00000100</i>
   <i type="int" name="IALGO">    38</i>
   <i type="int" name="IWAVPR">    11</i>
   <i type="int" name="NBANDS">    48</i>
   <i type="int" name="NBANDSLOW">    -1</i>
   <i type="int" name="NBANDSHIGH">    -1</i>
   <i name="NELECT">     24.00000000</i>
   <i type="int" name="TURBO">     0</i>
   <i type="int" name="IRESTART">     0</i>
   <i type="int" name="NREBOOT">     0</i>
   <i type="int" name="NMIN">     0</i>
   <i name="EREF">      0.00000000</i>
   <separator name="electronic smearing" >
    <i type="int" name="ISMEAR">     0</i>
    <i name="SIGMA">      0.10000000</i>
    <i name="KSPACING">      0.50000000</i>
    <i type="logical" name="KGAMMA"> T  </i>
    <i type="logical" name="KBLOWUP"> T  </i>
   </separator>
   <separator name="electronic projectors" >
    <i type="logical" name="LREAL"> F  </i>
    <v name="ROPT">      0.00000000</v>
    <i type="int" name="LMAXPAW">  -100</i>
    <i type="int" name="LMAXMIX">     2</i>
    <i type="logical" name="NLSPLINE"> F  </i>
   </separator>
   <separator name="electronic startup" >
    <i type="int" name="ISTART">     0</i>
    <i type="int" name="ICHARG">     2</i>
    <i type="int" name="INIWAV">     1</i>
   </separator>
   <separator name="electronic spin" >
    <i type="int" name="ISPIN">     1</i>
    <i type="logical" name="LNONCOLLINEAR"> F  </i>
    <v name="MAGMOM">      1.00000000      1.00000000      1.00000000      1.00000000      1.00000000      1.00000000      1.00000000      1.00000000</v>
    <i name="NUPDOWN">     -1.00000000</i>
    <i type="logical" name="LSORBIT"> F  </i>
    <v name="SAXIS">      0.00000000      0.00000000      1.00000000</v>
    <i type="logical" name="LSPIRAL"> F  </i>
    <v name="QSPIRAL">      0.00000000      0.00000000      0.00000000</v>
    <i type="logical" name="LZEROZ"> F  </i>
   </separator>
   <separator name="electronic exchange-correlation" >
    <i type="logical" name="LASPH"> F  </i>
    <i type="logical" name="LMETAGGA"> F  </i>
   </separator>
   <separator name="electronic convergence" >
    <i type="int" name="NELM">    64</i>
    <i type="int" name="NELMDL">    -5</i>
    <i type="int" name="NELMIN">     2</i>
    <i name="ENINI">    450.00000000</i>
    <separator name="electronic convergence detail" >
     <i type="logical" name="LDIAG"> T  </i>
     <i type="logical" name="LSUBROT"> F  </i>
     <i name="WEIMIN">      0.00100000</i>
     <i name="EBREAK">      0.00000001</i>
     <i name="DEPER">      0.30000000</i>
     <i type="int" name="NRMM">     4</i>
     <i name="TIME">      0.40000000</i>
    </separator>
   </separator>
   <separator name="electronic mixer" >
    <i name="AMIX">      0.40000000</i>
    <i name="BMIX">      1.00000000</i>
    <i name="AMIN">      0.10000000</i>
    <i name="AMIX_MAG">      1.60000000</i>
    <i name="BMIX_MAG">      1.00000000</i>
    <separator name="electronic mixer details" >
     <i type="int" name="IMIX">     4</i>
     <i type="logical" name="MIXFIRST"> F  </i>
     <i type="int" name="MAXMIX">   -45</i>
     <i name="WC">    100.00000000</i>
     <i type="int" name="INIMIX">     1</i>
     <i type="int" name="MIXPRE">     1</i>
     <i type="int" name="MREMOVE">     5</i>
    </separator>
   </separator>
   <separator name="electronic dipolcorrection" >
    <i type="logical" name="LDIPOL"> F  </i>
    <i type="logical" name="LMONO"> F  </i>
    <i type="int" name="IDIPOL">     0</i>
    <i name="EPSILON">      1.00000000</i>
    <v name="DIPOL">   -100.00000000   -100.00000000   -100.00000000</v>
    <i name="EFIELD">      0.00000000</i>
   </separator>
  </separator>
  <separator name="grids" >
   <i type="int" name="NGX">    36</i>
   <i type="int" name="NGY">    36</i>
   <i type="int" name="NGZ">   108</i>
   <i type="int" name="NGXF">    72</i>
   <i type="int" name="NGYF">    72</i>
   <i type="int" name="NGZF">   216</i>
   <i type="logical" name="ADDGRID"> F  </i>
  </separator>
  <separator name="ionic" >
   <i type="int" name="NSW">   256</i>
   <i type="int" name="IBRION">     2</i>
   <i type="int" name="MDALGO">     0</i>
   <i type="int" name="ISIF">     2</i>
   <i name="PSTRESS">      0.00000000</i>
   <i name="EDIFFG">     -0.00100000</i>
   <i type="int" name="NFREE">     1</i>
   <i name="POTIM">      0.50000000</i>
   <i name="SMASS">     -3.00000000</i>
   <i name="SCALEE">      1.00000000</i>
  </separator>
  <separator name="ionic md" >
   <i name="TEBEG">      0.00010000</i>
   <i name="TEEND">      0.00010000</i>
   <i type="int" name="NBLOCK">     1</i>
   <i type="int" name="KBLOCK">   256</i>
   <i type="int" name="NPACO">   256</i>
   <i name="APACO">     10.00000000</i>
  </separator>
  <separator name="symmetry" >
   <i type="int" name="ISYM">     2</i>
   <i name="SYMPREC">      0.00001000</i>
  </separator>
  <separator name="dos" >
   <i type="int" name="LORBIT">     0</i>
   <v name="RWIGS">     -1.00000000</v>
   <i type="int" name="NEDOS">   301</i>
   <i name="EMIN">     10.00000000</i>
   <i name="EMAX">    -10.00000000</i>
   <i name="EFERMI">      0.00000000</i>
  </separator>
  <separator name="writing" >
   <i type="int" name="NWRITE">     2</i>
   <i type="logical" name="LWAVE"> F  </i>
   <i type="logical" name="LDOWNSAMPLE"> F  </i>
   <i type="logical" name="LCHARG"> F  </i>
   <i type="logical" name="LPARD"> F  </i>
   <i type="logical" name="LVTOT"> F  </i>
   <i type="logical" name="LVHAR"> F  </i>
   <i type="logical" name="LELF"> F  </i>
   <i type="logical" name="LOPTICS"> F  </i>
   <v name="STM">      0.00000000      0.00000000      0.00000000      0.00000000      0.00000000      0.00000000      0.00000000</v>
  </separator>
  <separator name="performance" >
   <i type="int" name="NPAR">    48</i>
   <i type="int" name="NSIM">     4</i>
   <i type="int" name="NBLK">    -1</i>
   <i type="logical" name="LPLANE"> T  </i>
   <i type="logical" name="LSCALAPACK"> T  </i>
   <i type="logical" name="LSCAAWARE"> F  </i>
   <i type="logical" name="LSCALU"> F  </i>
   <i type="logical" name="LASYNC"> F  </i>
   <i type="logical" name="LORBITALREAL"> F  </i>
  </separator>
  <separator name="miscellaneous" >
   <i type="int" name="IDIOT">     3</i>
   <i type="int" name="PHON_NSTRUCT">    -1</i>
   <i type="logical" name="LMUSIC"> F  </i>
   <v name="POMASS">     10.81100000</v>
   <v name="DARWINR">      0.00000000</v>
   <v name="DARWINV">      1.00000000</v>
   <i type="logical" name="LCORR"> T  </i>
  </separator>
  <i type="logical" name="GGA_COMPAT"> T  </i>
  <i type="logical" name="LBERRY"> F  </i>
  <i type="int" name="ICORELEVEL">     0</i>
  <i type="logical" name="LDAU"> F  </i>
  <i type="int" name="I_CONSTRAINED_M">     0</i>
  <separator name="electronic exchange-correlation" >
   <i type="string" name="GGA">PE</i>
   <i type="int" name="VOSKOWN">     0</i>
   <i type="logical" name="LHFCALC"> F  </i>
   <i type="string" name="PRECFOCK"></i>
   <i type="logical" name="LSYMGRAD"> F  </i>
   <i type="logical" name="LHFONE"> F  </i>
   <i type="logical" name="LRHFCALC"> F  </i>
   <i type="logical" name="LTHOMAS"> F  </i>
   <i type="logical" name="LMODELHF"> F  </i>
   <i type="logical" name="LFOCKACE"> F  </i>
   <i name="ENCUT4O">     -1.00000000</i>
   <i type="int" name="EXXOEP">     0</i>
   <i type="int" name="FOURORBIT">     0</i>
   <i name="AEXX">      0.00000000</i>
   <i name="HFALPHA">      0.00000000</i>
   <i name="MCALPHA">      0.00000000</i>
   <i name="ALDAX">      1.00000000</i>
   <i name="AGGAX">      1.00000000</i>
   <i name="ALDAC">      1.00000000</i>
   <i name="AGGAC">      1.00000000</i>
   <i type="int" name="NKREDX">     1</i>
   <i type="int" name="NKREDY">     1</i>
   <i type="int" name="NKREDZ">     1</i>
   <i type="logical" name="SHIFTRED"> F  </i>
   <i type="logical" name="ODDONLY"> F  </i>
   <i type="logical" name="EVENONLY"> F  </i>
   <i type="int" name="LMAXFOCK">     0</i>
   <i type="int" name="NMAXFOCKAE">     0</i>
   <i type="logical" name="LFOCKAEDFT"> F  </i>
   <i name="HFSCREEN">      0.00000000</i>
   <i name="HFSCREENC">      0.00000000</i>
   <i type="int" name="NBANDSGWLOW">     0</i>
  </separator>
  <separator name="vdW DFT" >
   <i type="logical" name="LUSE_VDW"> F  </i>
   <i name="Zab_VDW">     -0.84910000</i>
   <i name="PARAM1">      0.12340000</i>
   <i name="PARAM2">      1.00000000</i>
   <i name="PARAM3">      0.00000000</i>
  </separator>
  <separator name="model GW" >
   <i type="int" name="MODEL_GW">     0</i>
   <i name="MODEL_EPS0">     24.85637887</i>
   <i name="MODEL_ALPHA">      1.00000000</i>
  </separator>
  <separator name="linear response parameters" >
   <i type="logical" name="LEPSILON"> F  </i>
   <i type="logical" name="LRPA"> F  </i>
   <i type="logical" name="LNABLA"> F  </i>
   <i type="logical" name="LVEL"> F  </i>
   <i name="CSHIFT">      0.10000000</i>
   <i name="OMEGAMAX">     -1.00000000</i>
   <i name="DEG_THRESHOLD">      0.00200000</i>
   <i name="RTIME">     -0.10000000</i>
   <i name="WPLASMAI">      0.00000000</i>
   <v name="DFIELD">      0.00000000      0.00000000      0.00000000</v>
   <v name="WPLASMA">      0.00000000      0.00000000      0.00000000      0.00000000      0.00000000      0.00000000      0.00000000      0.00000000      0.00000000</v>
  </separator>
  <separator name="orbital magnetization" >
   <i type="logical" name="NUCIND"> F  </i>
   <v name="MAGPOS">      0.00000000      0.00000000      0.00000000</v>
   <i type="logical" name="LNICSALL"> T  </i>
   <i type="logical" name="ORBITALMAG"> F  </i>
   <i type="logical" name="LMAGBLOCH"> F  </i>
   <i type="logical" name="LCHIMAG"> F  </i>
   <i type="logical" name="LGAUGE"> T  </i>
   <i type="int" name="MAGATOM">     0</i>
   <v name="MAGDIPOL">      0.00000000      0.00000000      0.00000000</v>
   <v name="AVECCONST">      0.00000000      0.00000000      0.00000000</v>
  </separator>
  <separator name="response functions" >
   <i type="logical" name="LFINITE_TEMPERATURE"> F  </i>
   <i type="logical" name="LADDER"> F  </i>
   <i type="logical" name="LRPAFORCE"> F  </i>
   <i type="logical" name="LFXC"> F  </i>
   <i type="logical" name="LHARTREE"> T  </i>
   <i type="int" name="IBSE">     0</i>
   <v type="int" name="KPOINT">    -1     0     0     0</v>
   <i type="logical" name="LTCTC"> F  </i>
   <i type="logical" name="LTCTE"> F  </i>
   <i type="logical" name="LTETE"> F  </i>
   <i type="logical" name="LTRIPLET"> F  </i>
   <i type="logical" name="LFXCEPS"> F  </i>
   <i type="logical" name="LFXHEG"> F  </i>
   <i type="int" name="NATURALO">     2</i>
   <i type="logical" name="LHOLEGF"> F  </i>
   <i type="logical" name="L2ORDER"> F  </i>
   <i type="logical" name="LDMP1"> F  </i>
   <i type="logical" name="LMP2LT"> F  </i>
   <i type="logical" name="LSMP2LT"> F  </i>
   <i type="logical" name="LGWLF"> F  </i>
   <i name="ENCUTGW">     -2.00000000</i>
   <i name="ENCUTGWSOFT">     -2.00000000</i>
   <i name="ENCUTLF">     -1.00000000</i>
   <i type="logical" name="LESF_SPLINES"> F  </i>
   <i type="int" name="LMAXMP2">    -1</i>
   <i name="SCISSOR">      0.00000000</i>
   <i type="int" name="NOMEGA">     0</i>
   <i type="int" name="NOMEGAR">     0</i>
   <i type="int" name="NBANDSGW">    -1</i>
   <i type="int" name="NBANDSO">    -1</i>
   <i type="int" name="NBANDSV">    -1</i>
   <i type="int" name="NELMGW">     1</i>
   <i type="int" name="NELMHF">     1</i>
   <i type="int" name="DIM">     3</i>
   <i type="int" name="IESPILON">     4</i>
   <i type="int" name="ANTIRES">     0</i>
   <i name="OMEGAMAX">    -30.00000000</i>
   <i name="OMEGAMIN">    -30.00000000</i>
   <i name="OMEGATL">   -200.00000000</i>
   <i type="int" name="OMEGAGRID">     0</i>
   <i name="CSHIFT">     -0.10000000</i>
   <i type="logical" name="LSELFENERGY"> F  </i>
   <i type="logical" name="LSPECTRAL"> F  </i>
   <i type="logical" name="LSPECTRALGW"> F  </i>
   <i type="logical" name="LSINGLES"> F  </i>
   <i type="logical" name="LFERMIGW"> F  </i>
   <i type="logical" name="ODDONLYGW"> F  </i>
   <i type="logical" name="EVENONLYGW"> F  </i>
   <i type="int" name="NKREDLFX">     1</i>
   <i type="int" name="NKREDLFY">     1</i>
   <i type="int" name="NKREDLFZ">     1</i>
   <i type="int" name="MAXMEM">  2800</i>
   <i type="int" name="TELESCOPE">     0</i>
   <i type="int" name="NTAUPAR">    -1</i>
   <i type="int" name="NOMEGAPAR">    -1</i>
   <i name="DAMP_NEWTON">      0.80000001</i>
   <i name="LAMBDA">      1.00000000</i>
  </separator>
  <separator name="External order field" >
   <i name="OFIELD_KAPPA">      0.00000000</i>
   <v name="OFIELD_K">      0.00000000      0.00000000      0.00000000</v>
   <i name="OFIELD_Q6_NEAR">      0.00000000</i>
   <i name="OFIELD_Q6_FAR">      0.00000000</i>
   <i name="OFIELD_A">      0.00000000</i>
  </separator>
  <separator name="optional k-points parameters" >
   <i type="int" name="KPOINTS_OPT_MODE">     1</i>
   <i type="logical" name="LKPOINTS_OPT"> F  </i>
  </separator>
  <separator name="solvation model" >
   <i type="logical" name="LSOL"> F  </i>
  </separator>
 </parameters>
 <atominfo>
  <atoms>       8 </atoms>
  <types>       1 </types>
  <array name="atoms" >
   <dimension dim="1">ion</dimension>
   <field type="string">element</field>
   <field type="int">atomtype</field>
   <set>
    <rc><c>B </c><c>   1</c></rc>
    <rc><c>B </c><c>   1</c></rc>
    <rc><c>B </c><c>   1</c></rc>
    <rc><c>B </c><c>   1</c></rc>
    <rc><c>B </c><c>   1</c></rc>
    <rc><c>B </c><c>   1</c></rc>
    <rc><c>B </c><c>   1</c></rc>
    <rc><c>B </c><c>   1</c></rc>
   </set>
  </array>
  <array name="atomtypes" >
   <dimension dim="1">type</dimension>
   <field type="int">atomspertype</field>
   <field type="string">element</field>
   <field>mass</field>
   <field>valence</field>
   <field type="string">pseudopotential</field>
   <set>
    <rc><c>   8</c><c>B </c><c>     10.81100000</c><c>      3.00000000</c><c>  PAW_PBE B 06Sep2000                   </c></rc>
   </set>
  </array>
 </atominfo>
 <structure name="initialpos" >
  <crystal>
   <varray name="basis" >
    <v>       4.37429400       2.52550000       0.00000000 </v>
    <v>      -4.37429400       2.52550000       0.00000000 </v>
    <v>       0.00000000       0.00000000      15.00000000 </v>
   </varray>
   <i name="volume">    331.41838491 </i>
   <varray name="rec_basis" >
    <v>       0.11430416       0.19798060       0.00000000 </v>
    <v>      -0.11430416       0.19798060       0.00000000 </v>
    <v>       0.00000000       0.00000000       0.06666667 </v>
   </varray>
  </crystal>
  <varray name="positions" >
   <v>       0.66666600       0.00000000       0.10000000 </v>
   <v>       0.33333300       0.00000000       0.10000000 </v>
   <v>       0.00000000       0.33333300       0.10000000 </v>
   <v>       0.00000000       0.66666600       0.10000000 </v>
   <v>       0.33333300       0.33333300       0.10000000 </v>
   <v>       0.66666600       0.66666600       0.10000000 </v>
   <v>       0.66666600       0.33333300       0.13300000 </v>
   <v>       0.33333300       0.66666600       0.06700000 </v>
  </varray>
 </structure>
 <calculation>
  <scstep>
   <time name="dav">    1.16    1.18</time>
   <time name="total">    1.19    1.20</time>
   <energy>
    <i name="alphaZ">     13.28497877 </i>
    <i name="ewald">   1701.32711669 </i>
    <i name="hartreedc">  -2073.95625294 </i>
    <i name="XCdc">     54.64655140 </i>
    <i name="pawpsdc">    347.99892404 </i>
    <i name="pawaedc">   -341.15636447 </i>
    <i name="eentropy">     -0.00807812 </i>
    <i name="bandstr">   -237.66325302 </i>
    <i name="atom">    569.35051449 </i>
    <i name="e_fr_energy">     33.82413686 </i>
    <i name="e_wo_entrp">     33.83221498 </i>
    <i name="e_0_energy">     33.82817592 </i>
   </energy>
  </scstep>
  <scstep>
   <time name="dav">    1.83    1.90</time>
   <time name="total">    1.83    1.90</time>
   <energy>
    <i name="e_fr_energy">    -54.14140047 </i>
    <i name="e_wo_entrp">    -54.14140047 </i>
    <i name="e_0_energy">    -54.14140047 </i>
   </energy>
  </scstep>
  <scstep>
   <time name="dav">    1.67    1.70</time>
   <time name="total">    1.67    1.70</time>
   <energy>
    <i name="e_fr_energy">    -55.12267120 </i>
    <i name="e_wo_entrp">    -55.12267120 </i>
    <i name="e_0_energy">    -55.12267120 </i>
   </energy>
  </scstep>
  <scstep>
   <time name="dav">    2.25    2.29</time>
   <time name="total">    2.25    2.29</time>
   <energy>
    <i name="e_fr_energy">    -55.12517793 </i>
    <i name="e_wo_entrp">    -55.12517793 </i>
    <i name="e_0_energy">    -55.12517793 </i>
   </energy>
  </scstep>
  <scstep>
   <time name="dav">    1.52    1.54</time>
   <time name="total">    1.64    1.69</time>
   <energy>
    <i name="e_fr_energy">    -55.12517837 </i>
    <i name="e_wo_entrp">    -55.12517837 </i>
    <i name="e_0_energy">    -55.12517837 </i>
   </energy>
  </scstep>
  <scstep>
   <time name="dav">    2.33    2.35</time>
   <time name="total">    2.43    2.47</time>
   <energy>
    <i name="e_fr_energy">    -51.62456694 </i>
    <i name="e_wo_entrp">    -51.62455201 </i>
    <i name="e_0_energy">    -51.62455947 </i>
   </energy>
  </scstep>
  <scstep>
   <time name="dav">    2.29    2.31</time>
   <time name="total">    2.38    2.41</time>
   <energy>
    <i name="e_fr_energy">    -50.16582027 </i>
    <i name="e_wo_entrp">    -50.16198401 </i>
    <i name="e_0_energy">    -50.16390214 </i>
   </energy>
  </scstep>
  <scstep>
   <time name="dav">    2.29    2.31</time>
   <time name="total">    2.39    2.42</time>
   <energy>
    <i name="e_fr_energy">    -50.08060586 </i>
    <i name="e_wo_entrp">    -50.07776568 </i>
    <i name="e_0_energy">    -50.07918577 </i>
   </energy>
  </scstep>
  <scstep>
   <time name="dav">    2.30    2.32</time>
   <time name="total">    2.39    2.42</time>
   <energy>
    <i name="e_fr_energy">    -50.05340846 </i>
    <i name="e_wo_entrp">    -50.04951512 </i>
    <i name="e_0_energy">    -50.05146179 </i>
   </energy>
  </scstep>
  <scstep>
   <time name="dav">    1.97    1.98</time>
   <time name="total">    2.05    2.07</time>
   <energy>
    <i name="e_fr_energy">    -50.04839329 </i>
    <i name="e_wo_entrp">    -50.04506500 </i>
    <i name="e_0_energy">    -50.04672915 </i>
   </energy>
  </scstep>
  <scstep>
   <time name="dav">    2.05    2.06</time>
   <time name="total">    2.15    2.16</time>
   <energy>
    <i name="e_fr_energy">    -50.04362718 </i>
    <i name="e_wo_entrp">    -50.03982447 </i>
    <i name="e_0_energy">    -50.04172583 </i>
   </energy>
  </scstep>
  <scstep>
   <time name="dav">    1.93    1.94</time>
   <time name="total">    2.01    2.03</time>
   <energy>
    <i name="e_fr_energy">    -50.04248171 </i>
    <i name="e_wo_entrp">    -50.03869133 </i>
    <i name="e_0_energy">    -50.04058652 </i>
   </energy>
  </scstep>
  <scstep>
   <time name="dav">    1.98    2.00</time>
   <time name="total">    2.07    2.09</time>
   <energy>
    <i name="e_fr_energy">    -50.04397619 </i>
    <i name="e_wo_entrp">    -50.04024921 </i>
    <i name="e_0_energy">    -50.04211270 </i>
   </energy>
  </scstep>
  <scstep>
   <time name="dav">    2.03    2.04</time>
   <time name="total">    2.12    2.14</time>
   <energy>
    <i name="e_fr_energy">    -50.04718855 </i>
    <i name="e_wo_entrp">    -50.04338954 </i>
    <i name="e_0_energy">    -50.04528904 </i>
   </energy>
  </scstep>
  <scstep>
   <time name="dav">    2.30    2.32</time>
   <time name="total">    2.39    2.40</time>
   <energy>
    <i name="e_fr_energy">    -50.04814085 </i>
    <i name="e_wo_entrp">    -50.04436094 </i>
    <i name="e_0_energy">    -50.04625089 </i>
   </energy>
  </scstep>
  <scstep>
   <time name="dav">    2.21    2.23</time>
   <time name="total">    2.30    2.32</time>
   <energy>
    <i name="e_fr_energy">    -50.04863305 </i>
    <i name="e_wo_entrp">    -50.04483226 </i>
    <i name="e_0_energy">    -50.04673265 </i>
   </energy>
  </scstep>
  <scstep>
   <time name="dav">    1.73    1.75</time>
   <time name="total">    1.82    1.84</time>
   <energy>
    <i name="e_fr_energy">    -50.04872411 </i>
    <i name="e_wo_entrp">    -50.04492453 </i>
    <i name="e_0_energy">    -50.04682432 </i>
   </energy>
  </scstep>
  <scstep>
   <time name="dav">    1.61    1.63</time>
   <time name="total">    1.70    1.71</time>
   <energy>
    <i name="e_fr_energy">    -50.04873694 </i>
    <i name="e_wo_entrp">    -50.04493742 </i>
    <i name="e_0_energy">    -50.04683718 </i>
   </energy>
  </scstep>
  <scstep>
   <time name="dav">    1.64    1.65</time>
   <time name="total">    1.72    1.74</time>
   <energy>
    <i name="e_fr_energy">    -50.04874001 </i>
    <i name="e_wo_entrp">    -50.04494011 </i>
    <i name="e_0_energy">    -50.04684006 </i>
   </energy>
  </scstep>
  <scstep>
   <time name="dav">    1.74    1.75</time>
   <time name="total">    1.76    1.77</time>
   <energy>
    <i name="alphaZ">     13.28497877 </i>
    <i name="ewald">   1701.32711669 </i>
    <i name="hartreedc">  -2173.86391545 </i>
    <i name="XCdc">     57.38092803 </i>
    <i name="pawpsdc">   2142.24721254 </i>
    <i name="pawaedc">  -2136.06722298 </i>
    <i name="eentropy">     -0.00379984 </i>
    <i name="bandstr">   -223.70455259 </i>
    <i name="atom">    569.35051449 </i>
    <i name="e_fr_energy">    -50.04874032 </i>
    <i name="e_wo_entrp">    -50.04494048 </i>
    <i name="e_0_energy">    -50.04684040 </i>
   </energy>
  </scstep>
  <structure>
   <crystal>
    <varray name="basis" >
     <v>       4.37429400       2.52550000       0.00000000 </v>
     <v>      -4.37429400       2.52550000       0.00000000 </v>
     <v>       0.00000000       0.00000000      15.00000000 </v>
    </varray>
    <i name="volume">    331.41838491 </i>
    <varray name="rec_basis" >
     <v>       0.11430416       0.19798060       0.00000000 </v>
     <v>      -0.11430416       0.19798060       0.00000000 </v>
     <v>       0.00000000       0.00000000       0.06666667 </v>
    </varray>
   </crystal>
   <varray name="positions" >
    <v>       0.66666600       0.00000000       0.10000000 </v>
    <v>       0.33333300       0.00000000       0.10000000 </v>
    <v>       0.00000000       0.33333300       0.10000000 </v>
    <v>       0.00000000       0.66666600       0.10000000 </v>
    <v>       0.33333300       0.33333300       0.10000000 </v>
    <v>       0.66666600       0.66666600       0.10000000 </v>
    <v>       0.66666600       0.33333300       0.13300000 </v>
    <v>       0.33333300       0.66666600       0.06700000 </v>
   </varray>
  </structure>
  <varray name="forces" >
   <v>      -0.06624959      -0.03824922       0.00000000 </v>
   <v>       0.06624959       0.03824922       0.00000000 </v>
   <v>      -0.06624959       0.03824922       0.00000000 </v>
   <v>       0.06624959      -0.03824922       0.00000000 </v>
   <v>       0.00000000       0.07649845       0.00000000 </v>
   <v>      -0.00000000      -0.07649845       0.00000000 </v>
   <v>       0.00000000       0.00000000      -1.60325291 </v>
   <v>       0.00000000       0.00000000       1.60325291 </v>
  </varray>
  <varray name="stress" >
   <v>     -11.62939767      -0.00000000       0.00000000 </v>
   <v>      -0.00000000     -11.62939934       0.00000000 </v>
   <v>       0.00000000       0.00000000      -7.76769533 </v>
  </varray>
  <energy>
   <i name="e_fr_energy">    -50.71028588 </i>
   <i name="e_wo_entrp">    -50.70648604 </i>
   <i name="e_0_energy">    -50.70838596 </i>
  </energy>
  <time name="totalsc">   41.43   41.93</time>
 </calculation>
 <calculation>
  <scstep>
   <time name="dav">    1.17    1.18</time>
   <time name="total">    1.25    1.27</time>
   <energy>
    <i name="alphaZ">     13.28497877 </i>
    <i name="ewald">   1718.08261674 </i>
    <i name="hartreedc">  -2187.36654119 </i>
    <i name="XCdc">     57.63788092 </i>
    <i name="pawpsdc">   2142.24332927 </i>
    <i name="pawaedc">  -2136.06334159 </i>
    <i name="eentropy">     -0.00164065 </i>
    <i name="bandstr">   -227.42589856 </i>
    <i name="atom">    569.35051449 </i>
    <i name="e_fr_energy">    -50.25810180 </i>
    <i name="e_wo_entrp">    -50.25646114 </i>
    <i name="e_0_energy">    -50.25728147 </i>
   </energy>
  </scstep>
  <scstep>
   <time name="dav">    2.48    2.49</time>
   <time name="total">    2.56    2.58</time>
   <energy>
    <i name="e_fr_energy">    -50.25285344 </i>
    <i name="e_wo_entrp">    -50.25127310 </i>
    <i name="e_0_energy">    -50.25206327 </i>
   </energy>
  </scstep>
  <scstep>
   <time name="dav">    1.49    1.50</time>
   <time name="total">    1.58    1.59</time>
   <energy>
    <i name="e_fr_energy">    -50.25166047 </i>
    <i name="e_wo_entrp">    -50.24998240 </i>
    <i name="e_0_energy">    -50.25082143 </i>
   </energy>
  </scstep>
  <scstep>
   <time name="dav">    2.35    2.36</time>
   <time name="total">    2.44    2.46</time>
   <energy>
    <i name="e_fr_energy">    -50.25175701 </i>
    <i name="e_wo_entrp">    -50.25005414 </i>
    <i name="e_0_energy">    -50.25090558 </i>
   </energy>
  </scstep>
  <scstep>
   <time name="dav">    2.16    2.18</time>
   <time name="total">    2.25    2.26</time>
   <energy>
    <i name="e_fr_energy">    -50.25176140 </i>
    <i name="e_wo_entrp">    -50.25006787 </i>
    <i name="e_0_energy">    -50.25091463 </i>
   </energy>
  </scstep>
  <scstep>
   <time name="dav">    2.09    2.11</time>
   <time name="total">    2.11    2.12</time>
   <energy>
    <i name="alphaZ">     13.28497877 </i>
    <i name="ewald">   1718.08261674 </i>
    <i name="hartreedc">  -2188.04554467 </i>
    <i name="XCdc">     57.63621781 </i>
    <i name="pawpsdc">   2214.75835992 </i>
    <i name="pawaedc">  -2208.60259096 </i>
    <i name="eentropy">     -0.00169048 </i>
    <i name="bandstr">   -226.71462264 </i>
    <i name="atom">    569.35051449 </i>
    <i name="e_fr_energy">    -50.25176101 </i>
    <i name="e_wo_entrp">    -50.25007053 </i>
    <i name="e_0_energy">    -50.25091577 </i>
   </energy>
  </scstep>
  <structure>
   <crystal>
    <varray name="basis" >
     <v>       4.37429400       2.52550000       0.00000000 </v>
     <v>      -4.37429400       2.52550000       0.00000000 </v>
     <v>       0.00000000       0.00000000      15.00000000 </v>
    </varray>
    <i name="volume">    331.41838491 </i>
    <varray name="rec_basis" >
     <v>       0.11430416       0.19798060       0.00000000 </v>
     <v>      -0.11430416       0.19798060       0.00000000 </v>
     <v>       0.00000000       0.00000000       0.06666667 </v>
    </varray>
   </crystal>
   <varray name="positions" >
    <v>       0.66593535      -0.00000000       0.10000000 </v>
    <v>       0.33406365      -0.00000000       0.10000000 </v>
    <v>      -0.00000000       0.33406365       0.10000000 </v>
    <v>      -0.00000000       0.66593535       0.10000000 </v>
    <v>       0.33406365       0.33406365       0.10000000 </v>
    <v>       0.66593535       0.66593535       0.10000000 </v>
    <v>       0.66666600       0.33333300       0.12784365 </v>
    <v>       0.33333300       0.66666600       0.07215635 </v>
   </varray>
  </structure>
  <varray name="forces" >
   <v>       0.11312607       0.06531337       0.00000000 </v>
   <v>      -0.11312607      -0.06531337       0.00000000 </v>
   <v>       0.11312607      -0.06531337       0.00000000 </v>
   <v>      -0.11312607       0.06531337       0.00000000 </v>
   <v>      -0.00000000      -0.13062675       0.00000000 </v>
   <v>      -0.00000000       0.13062675       0.00000000 </v>
   <v>      -0.00000000      -0.00000000      -1.05699917 </v>
   <v>      -0.00000000      -0.00000000       1.05699917 </v>
  </varray>
  <varray name="stress" >
   <v>      -7.75526189      -0.00000000       0.00000000 </v>
   <v>      -0.00000000      -7.75526301       0.00000000 </v>
   <v>       0.00000000       0.00000000      -4.40187783 </v>
  </varray>
  <energy>
   <i name="e_fr_energy">    -50.91479997 </i>
   <i name="e_wo_entrp">    -50.91310949 </i>
   <i name="e_0_energy">    -50.91395473 </i>
  </energy>
  <time name="totalsc">   13.34   13.45</time>
 </calculation>
 <calculation>
  <scstep>
   <time name="dav">    1.17    1.18</time>
   <time name="total">    1.26    1.27</time>
   <energy>
    <i name="alphaZ">     13.28497877 </i>
    <i name="ewald">   1745.40634540 </i>
    <i name="hartreedc">  -2209.56954475 </i>
    <i name="XCdc">     58.06836687 </i>
    <i name="pawpsdc">   2214.68920710 </i>
    <i name="pawaedc">  -2208.53341235 </i>
    <i name="eentropy">     -0.00095706 </i>
    <i name="bandstr">   -233.14087785 </i>
    <i name="atom">    569.35051449 </i>
    <i name="e_fr_energy">    -50.44537938 </i>
    <i name="e_wo_entrp">    -50.44442232 </i>
    <i name="e_0_energy">    -50.44490085 </i>
   </energy>
  </scstep>
  <scstep>
   <time name="dav">    2.28    2.30</time>
   <time name="total">    2.37    2.38</time>
   <energy>
    <i name="e_fr_energy">    -50.42642337 </i>
    <i name="e_wo_entrp">    -50.42555818 </i>
    <i name="e_0_energy">    -50.42599078 </i>
   </energy>
  </scstep>
  <scstep>
   <time name="dav">    1.54    1.55</time>
   <time name="total">    1.62    1.64</time>
   <energy>
    <i name="e_fr_energy">    -50.42170301 </i>
    <i name="e_wo_entrp">    -50.42081522 </i>
    <i name="e_0_energy">    -50.42125911 </i>
   </energy>
  </scstep>
  <scstep>
   <time name="dav">    2.29    2.30</time>
   <time name="total">    2.37    2.39</time>
   <energy>
    <i name="e_fr_energy">    -50.42213039 </i>
    <i name="e_wo_entrp">    -50.42121639 </i>
    <i name="e_0_energy">    -50.42167339 </i>
   </energy>
  </scstep>
  <scstep>
   <time name="dav">    2.08    2.09</time>
   <time name="total">    2.16    2.18</time>
   <energy>
    <i name="e_fr_energy">    -50.42215167 </i>
    <i name="e_wo_entrp">    -50.42123916 </i>
    <i name="e_0_energy">    -50.42169541 </i>
   </energy>
  </scstep>
  <scstep>
   <time name="dav">    1.66    1.67</time>
   <time name="total">    1.75    1.76</time>
   <energy>
    <i name="e_fr_energy">    -50.42215649 </i>
    <i name="e_wo_entrp">    -50.42124621 </i>
    <i name="e_0_energy">    -50.42170135 </i>
   </energy>
  </scstep>
  <scstep>
   <time name="dav">    1.59    1.61</time>
   <time name="total">    1.68    1.69</time>
   <energy>
    <i name="e_fr_energy">    -50.42216984 </i>
    <i name="e_wo_entrp">    -50.42125935 </i>
    <i name="e_0_energy">    -50.42171459 </i>
   </energy>
  </scstep>
  <scstep>
   <time name="dav">    1.85    1.86</time>
   <time name="total">    1.95    1.96</time>
   <energy>
    <i name="e_fr_energy">    -50.42217867 </i>
    <i name="e_wo_entrp">    -50.42126817 </i>
    <i name="e_0_energy">    -50.42172342 </i>
   </energy>
  </scstep>
  <scstep>
   <time name="dav">    1.48    1.49</time>
   <time name="total">    1.57    1.58</time>
   <energy>
    <i name="e_fr_energy">    -50.42218680 </i>
    <i name="e_wo_entrp">    -50.42127633 </i>
    <i name="e_0_energy">    -50.42173156 </i>
   </energy>
  </scstep>
  <scstep>
   <time name="dav">    1.64    1.65</time>
   <time name="total">    1.72    1.73</time>
   <energy>
    <i name="e_fr_energy">    -50.42219128 </i>
    <i name="e_wo_entrp">    -50.42128080 </i>
    <i name="e_0_energy">    -50.42173604 </i>
   </energy>
  </scstep>
  <scstep>
   <time name="dav">    2.03    2.04</time>
   <time name="total">    2.04    2.05</time>
   <energy>
    <i name="alphaZ">     13.28497877 </i>
    <i name="ewald">   1745.40634540 </i>
    <i name="hartreedc">  -2210.17655759 </i>
    <i name="XCdc">     58.04005275 </i>
    <i name="pawpsdc">   2341.44761489 </i>
    <i name="pawaedc">  -2335.33425633 </i>
    <i name="eentropy">     -0.00091046 </i>
    <i name="bandstr">   -232.43997353 </i>
    <i name="atom">    569.35051449 </i>
    <i name="e_fr_energy">    -50.42219161 </i>
    <i name="e_wo_entrp">    -50.42128115 </i>
    <i name="e_0_energy">    -50.42173638 </i>
   </energy>
  </scstep>
  <structure>
   <crystal>
    <varray name="basis" >
     <v>       4.37429400       2.52550000       0.00000000 </v>
     <v>      -4.37429400       2.52550000       0.00000000 </v>
     <v>       0.00000000       0.00000000      15.00000000 </v>
    </varray>
    <i name="volume">    331.41838491 </i>
    <varray name="rec_basis" >
     <v>       0.11430416       0.19798060       0.00000000 </v>
     <v>      -0.11430416       0.19798060       0.00000000 </v>
     <v>       0.00000000       0.00000000       0.06666667 </v>
    </varray>
   </crystal>
   <varray name="positions" >
    <v>       0.66441476      -0.00000000       0.10000000 </v>
    <v>       0.33558424      -0.00000000       0.10000000 </v>
    <v>      -0.00000000       0.33558424       0.10000000 </v>
    <v>      -0.00000000       0.66441476       0.10000000 </v>
    <v>       0.33558424       0.33558424       0.10000000 </v>
    <v>       0.66441476       0.66441476       0.10000000 </v>
    <v>       0.66666600       0.33333300       0.11711244 </v>
    <v>       0.33333300       0.66666600       0.08288756 </v>
   </varray>
  </structure>
  <varray name="forces" >
   <v>       0.49941472       0.28833724      -0.00000000 </v>
   <v>      -0.49941472      -0.28833724      -0.00000000 </v>
   <v>       0.49941472      -0.28833724      -0.00000000 </v>
   <v>      -0.49941472       0.28833724      -0.00000000 </v>
   <v>      -0.00000000      -0.57667449      -0.00000000 </v>
   <v>      -0.00000000       0.57667449      -0.00000000 </v>
   <v>      -0.00000000      -0.00000000      -0.19702726 </v>
   <v>      -0.00000000      -0.00000000       0.19702726 </v>
  </varray>
  <varray name="stress" >
   <v>       0.41616479      -0.00000000       0.00000000 </v>
   <v>      -0.00000000       0.41616485       0.00000000 </v>
   <v>       0.00000000       0.00000000      -0.58230212 </v>
  </varray>
  <energy>
   <i name="e_fr_energy">    -51.08744705 </i>
   <i name="e_wo_entrp">    -51.08653660 </i>
   <i name="e_0_energy">    -51.08699182 </i>
  </energy>
  <time name="totalsc">   21.63   21.79</time>
 </calculation>
 <calculation>
  <scstep>
   <time name="dav">    1.66    1.67</time>
   <time name="total">    1.74    1.75</time>
   <energy>
    <i name="alphaZ">     13.28497877 </i>
    <i name="ewald">   1743.65433330 </i>
    <i name="hartreedc">  -2210.26340727 </i>
    <i name="XCdc">     57.96147290 </i>
    <i name="pawpsdc">   2341.41621399 </i>
    <i name="pawaedc">  -2335.30284871 </i>
    <i name="eentropy">     -0.00597694 </i>
    <i name="bandstr">   -230.57410166 </i>
    <i name="atom">    569.35051449 </i>
    <i name="e_fr_energy">    -50.47882112 </i>
    <i name="e_wo_entrp">    -50.47284418 </i>
    <i name="e_0_energy">    -50.47583265 </i>
   </energy>
  </scstep>
  <scstep>
   <time name="dav">    1.82    1.83</time>
   <time name="total">    1.90    1.92</time>
   <energy>
    <i name="e_fr_energy">    -50.42398359 </i>
    <i name="e_wo_entrp">    -50.41790278 </i>
    <i name="e_0_energy">    -50.42094318 </i>
   </energy>
  </scstep>
  <scstep>
   <time name="dav">    2.12    2.14</time>
   <time name="total">    2.21    2.22</time>
   <energy>
    <i name="e_fr_energy">    -50.41551460 </i>
    <i name="e_wo_entrp">    -50.40967456 </i>
    <i name="e_0_energy">    -50.41259458 </i>
   </energy>
  </scstep>
  <scstep>
   <time name="dav">    2.27    2.28</time>
   <time name="total">    2.35    2.37</time>
   <energy>
    <i name="e_fr_energy">    -50.41524595 </i>
    <i name="e_wo_entrp">    -50.40949813 </i>
    <i name="e_0_energy">    -50.41237204 </i>
   </energy>
  </scstep>
  <scstep>
   <time name="dav">    1.68    1.70</time>
   <time name="total">    1.77    1.78</time>
   <energy>
    <i name="e_fr_energy">    -50.41528783 </i>
    <i name="e_wo_entrp">    -50.40952164 </i>
    <i name="e_0_energy">    -50.41240473 </i>
   </energy>
  </scstep>
  <scstep>
   <time name="dav">    1.83    1.84</time>
   <time name="total">    1.92    1.93</time>
   <energy>
    <i name="e_fr_energy">    -50.41531366 </i>
    <i name="e_wo_entrp">    -50.40954789 </i>
    <i name="e_0_energy">    -50.41243078 </i>
   </energy>
  </scstep>
  <scstep>
   <time name="dav">    1.78    1.79</time>
   <time name="total">    1.86    1.88</time>
   <energy>
    <i name="e_fr_energy">    -50.41536371 </i>
    <i name="e_wo_entrp">    -50.40960208 </i>
    <i name="e_0_energy">    -50.41248289 </i>
   </energy>
  </scstep>
  <scstep>
   <time name="dav">    1.70    1.71</time>
   <time name="total">    1.78    1.80</time>
   <energy>
    <i name="e_fr_energy">    -50.41539781 </i>
    <i name="e_wo_entrp">    -50.40963625 </i>
    <i name="e_0_energy">    -50.41251703 </i>
   </energy>
  </scstep>
  <scstep>
   <time name="dav">    1.64    1.65</time>
   <time name="total">    1.73    1.74</time>
   <energy>
    <i name="e_fr_energy">    -50.41540643 </i>
    <i name="e_wo_entrp">    -50.40964641 </i>
    <i name="e_0_energy">    -50.41252642 </i>
   </energy>
  </scstep>
  <scstep>
   <time name="dav">    1.77    1.78</time>
   <time name="total">    1.86    1.87</time>
   <energy>
    <i name="e_fr_energy">    -50.41540762 </i>
    <i name="e_wo_entrp">    -50.40964755 </i>
    <i name="e_0_energy">    -50.41252758 </i>
   </energy>
  </scstep>
  <scstep>
   <time name="dav">    1.98    1.99</time>
   <time name="total">    1.99    2.00</time>
   <energy>
    <i name="alphaZ">     13.28497877 </i>
    <i name="ewald">   1743.65433330 </i>
    <i name="hartreedc">  -2207.42684870 </i>
    <i name="XCdc">     57.89365666 </i>
    <i name="pawpsdc">   2296.58442405 </i>
    <i name="pawaedc">  -2290.45606565 </i>
    <i name="eentropy">     -0.00576008 </i>
    <i name="bandstr">   -233.29464041 </i>
    <i name="atom">    569.35051449 </i>
    <i name="e_fr_energy">    -50.41540757 </i>
    <i name="e_wo_entrp">    -50.40964748 </i>
    <i name="e_0_energy">    -50.41252753 </i>
   </energy>
  </scstep>
  <structure>
   <crystal>
    <varray name="basis" >
     <v>       4.37429400       2.52550000       0.00000000 </v>
     <v>      -4.37429400       2.52550000       0.00000000 </v>
     <v>       0.00000000       0.00000000      15.00000000 </v>
    </varray>
    <i name="volume">    331.41838491 </i>
    <varray name="rec_basis" >
     <v>       0.11430416       0.19798060       0.00000000 </v>
     <v>      -0.11430416       0.19798060       0.00000000 </v>
     <v>       0.00000000       0.00000000       0.06666667 </v>
    </varray>
   </crystal>
   <varray name="positions" >
    <v>       0.67187417      -0.00000000       0.10000000 </v>
    <v>       0.32812483      -0.00000000       0.10000000 </v>
    <v>       0.00000000       0.32812483       0.10000000 </v>
    <v>       0.00000000       0.67187417       0.10000000 </v>
    <v>       0.32812483       0.32812483       0.10000000 </v>
    <v>       0.67187417       0.67187417       0.10000000 </v>
    <v>       0.66666600       0.33333300       0.11380824 </v>
    <v>       0.33333300       0.66666600       0.08619176 </v>
   </varray>
  </structure>
  <varray name="forces" >
   <v>      -0.61742637      -0.35647131       0.00000000 </v>
   <v>       0.61742637       0.35647131       0.00000000 </v>
   <v>      -0.61742637       0.35647131       0.00000000 </v>
   <v>       0.61742637      -0.35647131       0.00000000 </v>
   <v>      -0.00000000       0.71294261       0.00000000 </v>
   <v>      -0.00000000      -0.71294261       0.00000000 </v>
   <v>      -0.00000000       0.00000000      -0.18571415 </v>
   <v>      -0.00000000       0.00000000       0.18571415 </v>
  </varray>
  <varray name="stress" >
   <v>      -4.31761564      -0.00000000       0.00000000 </v>
   <v>      -0.00000000      -4.31761626       0.00000000 </v>
   <v>       0.00000000       0.00000000      -0.46363477 </v>
  </varray>
  <energy>
   <i name="e_fr_energy">    -51.08208521 </i>
   <i name="e_wo_entrp">    -51.07632513 </i>
   <i name="e_0_energy">    -51.07920517 </i>
  </energy>
  <time name="totalsc">   22.26   22.42</time>
 </calculation>
 <calculation>
  <scstep>
   <time name="dav">    1.55    1.56</time>
   <time name="total">    1.63    1.64</time>
   <energy>
    <i name="alphaZ">     13.28497877 </i>
    <i name="ewald">   1744.52508870 </i>
    <i name="hartreedc">  -2207.30887804 </i>
    <i name="XCdc">     57.93275705 </i>
    <i name="pawpsdc">   2296.60806861 </i>
    <i name="pawaedc">  -2290.47971001 </i>
    <i name="eentropy">     -0.00121611 </i>
    <i name="bandstr">   -234.38554277 </i>
    <i name="atom">    569.35051449 </i>
    <i name="e_fr_energy">    -50.47393930 </i>
    <i name="e_wo_entrp">    -50.47272319 </i>
    <i name="e_0_energy">    -50.47333125 </i>
   </energy>
  </scstep>
  <scstep>
   <time name="dav">    2.06    2.07</time>
   <time name="total">    2.14    2.16</time>
   <energy>
    <i name="e_fr_energy">    -50.45834634 </i>
    <i name="e_wo_entrp">    -50.45704846 </i>
    <i name="e_0_energy">    -50.45769740 </i>
   </energy>
  </scstep>
  <scstep>
   <time name="dav">    1.94    1.95</time>
   <time name="total">    2.03    2.04</time>
   <energy>
    <i name="e_fr_energy">    -50.45580928 </i>
    <i name="e_wo_entrp">    -50.45441334 </i>
    <i name="e_0_energy">    -50.45511131 </i>
   </energy>
  </scstep>
  <scstep>
   <time name="dav">    1.93    1.94</time>
   <time name="total">    2.01    2.03</time>
   <energy>
    <i name="e_fr_energy">    -50.45574053 </i>
    <i name="e_wo_entrp">    -50.45431397 </i>
    <i name="e_0_energy">    -50.45502725 </i>
   </energy>
  </scstep>
  <scstep>
   <time name="dav">    1.86    1.87</time>
   <time name="total">    1.95    1.96</time>
   <energy>
    <i name="e_fr_energy">    -50.45574189 </i>
    <i name="e_wo_entrp">    -50.45432003 </i>
    <i name="e_0_energy">    -50.45503096 </i>
   </energy>
  </scstep>
  <scstep>
   <time name="dav">    1.85    1.87</time>
   <time name="total">    1.94    1.96</time>
   <energy>
    <i name="e_fr_energy">    -50.45574638 </i>
    <i name="e_wo_entrp">    -50.45432485 </i>
    <i name="e_0_energy">    -50.45503562 </i>
   </energy>
  </scstep>
  <scstep>
   <time name="dav">    1.38    1.39</time>
   <time name="total">    1.46    1.47</time>
   <energy>
    <i name="e_fr_energy">    -50.45575711 </i>
    <i name="e_wo_entrp">    -50.45433428 </i>
    <i name="e_0_energy">    -50.45504570 </i>
   </energy>
  </scstep>
  <scstep>
   <time name="dav">    1.62    1.63</time>
   <time name="total">    1.71    1.72</time>
   <energy>
    <i name="e_fr_energy">    -50.45576812 </i>
    <i name="e_wo_entrp">    -50.45434502 </i>
    <i name="e_0_energy">    -50.45505657 </i>
   </energy>
  </scstep>
  <scstep>
   <time name="dav">    1.38    1.39</time>
   <time name="total">    1.47    1.48</time>
   <energy>
    <i name="e_fr_energy">    -50.45577162 </i>
    <i name="e_wo_entrp">    -50.45434806 </i>
    <i name="e_0_energy">    -50.45505984 </i>
   </energy>
  </scstep>
  <scstep>
   <time name="dav">    2.12    2.13</time>
   <time name="total">    2.21    2.22</time>
   <energy>
    <i name="e_fr_energy">    -50.45577538 </i>
    <i name="e_wo_entrp">    -50.45435177 </i>
    <i name="e_0_energy">    -50.45506358 </i>
   </energy>
  </scstep>
  <scstep>
   <time name="dav">    2.16    2.17</time>
   <time name="total">    2.24    2.26</time>
   <energy>
    <i name="e_fr_energy">    -50.45577788 </i>
    <i name="e_wo_entrp">    -50.45435430 </i>
    <i name="e_0_energy">    -50.45506609 </i>
   </energy>
  </scstep>
  <scstep>
   <time name="dav">    1.90    1.91</time>
   <time name="total">    1.98    1.99</time>
   <energy>
    <i name="e_fr_energy">    -50.45577932 </i>
    <i name="e_wo_entrp">    -50.45435573 </i>
    <i name="e_0_energy">    -50.45506752 </i>
   </energy>
  </scstep>
  <scstep>
   <time name="dav">    1.55    1.56</time>
   <time name="total">    1.56    1.57</time>
   <energy>
    <i name="alphaZ">     13.28497877 </i>
    <i name="ewald">   1744.52508870 </i>
    <i name="hartreedc">  -2208.91236575 </i>
    <i name="XCdc">     57.96977939 </i>
    <i name="pawpsdc">   2318.71863445 </i>
    <i name="pawaedc">  -2312.59690813 </i>
    <i name="eentropy">     -0.00142359 </i>
    <i name="bandstr">   -232.79407822 </i>
    <i name="atom">    569.35051449 </i>
    <i name="e_fr_energy">    -50.45577988 </i>
    <i name="e_wo_entrp">    -50.45435630 </i>
    <i name="e_0_energy">    -50.45506809 </i>
   </energy>
  </scstep>
  <structure>
   <crystal>
    <varray name="basis" >
     <v>       4.37429400       2.52550000       0.00000000 </v>
     <v>      -4.37429400       2.52550000       0.00000000 </v>
     <v>       0.00000000       0.00000000      15.00000000 </v>
    </varray>
    <i name="volume">    331.41838491 </i>
    <varray name="rec_basis" >
     <v>       0.11430416       0.19798060       0.00000000 </v>
     <v>      -0.11430416       0.19798060       0.00000000 </v>
     <v>       0.00000000       0.00000000       0.06666667 </v>
    </varray>
   </crystal>
   <varray name="positions" >
    <v>       0.66789553      -0.00000000       0.10000000 </v>
    <v>       0.33210347      -0.00000000       0.10000000 </v>
    <v>      -0.00000000       0.33210347       0.10000000 </v>
    <v>       0.00000000       0.66789553       0.10000000 </v>
    <v>       0.33210347       0.33210347       0.10000000 </v>
    <v>       0.66789553       0.66789553       0.10000000 </v>
    <v>       0.66666600       0.33333300       0.11557061 </v>
    <v>       0.33333300       0.66666600       0.08442939 </v>
   </varray>
  </structure>
  <varray name="forces" >
   <v>      -0.06376297      -0.03681357       0.00000000 </v>
   <v>       0.06376297       0.03681357      -0.00000000 </v>
   <v>      -0.06376297       0.03681357      -0.00000000 </v>
   <v>       0.06376297      -0.03681357      -0.00000000 </v>
   <v>      -0.00000000       0.07362715      -0.00000000 </v>
   <v>      -0.00000000      -0.07362715      -0.00000000 </v>
   <v>      -0.00000000      -0.00000000      -0.16775989 </v>
   <v>      -0.00000000      -0.00000000       0.16775989 </v>
  </varray>
  <varray name="stress" >
   <v>      -2.32050612      -0.00000000       0.00000000 </v>
   <v>       0.00000000      -2.32050646       0.00000000 </v>
   <v>       0.00000000       0.00000000      -0.47170140 </v>
  </varray>
  <energy>
   <i name="e_fr_energy">    -51.12173349 </i>
   <i name="e_wo_entrp">    -51.12030990 </i>
   <i name="e_0_energy">    -51.12102170 </i>
  </energy>
  <time name="totalsc">   25.47   25.64</time>
 </calculation>
 <calculation>
  <scstep>
   <time name="dav">    1.19    1.19</time>
   <time name="total">    1.27    1.28</time>
   <energy>
    <i name="alphaZ">     13.28497877 </i>
    <i name="ewald">   1746.29226155 </i>
    <i name="hartreedc">  -2210.32443358 </i>
    <i name="XCdc">     57.99611715 </i>
    <i name="pawpsdc">   2318.71923552 </i>
    <i name="pawaedc">  -2312.59750929 </i>
    <i name="eentropy">     -0.00179239 </i>
    <i name="bandstr">   -233.17977318 </i>
    <i name="atom">    569.35051449 </i>
    <i name="e_fr_energy">    -50.46040095 </i>
    <i name="e_wo_entrp">    -50.45860856 </i>
    <i name="e_0_energy">    -50.45950476 </i>
   </energy>
  </scstep>
  <scstep>
   <time name="dav">    1.97    1.99</time>
   <time name="total">    2.06    2.07</time>
   <energy>
    <i name="e_fr_energy">    -50.46030682 </i>
    <i name="e_wo_entrp">    -50.45850861 </i>
    <i name="e_0_energy">    -50.45940772 </i>
   </energy>
  </scstep>
  <scstep>
   <time name="dav">    2.17    2.19</time>
   <time name="total">    2.26    2.27</time>
   <energy>
    <i name="e_fr_energy">    -50.46027194 </i>
    <i name="e_wo_entrp">    -50.45846518 </i>
    <i name="e_0_energy">    -50.45936856 </i>
   </energy>
  </scstep>
  <scstep>
   <time name="dav">    2.41    2.42</time>
   <time name="total">    2.49    2.50</time>
   <energy>
    <i name="e_fr_energy">    -50.46027389 </i>
    <i name="e_wo_entrp">    -50.45846804 </i>
    <i name="e_0_energy">    -50.45937096 </i>
   </energy>
  </scstep>
  <scstep>
   <time name="dav">    1.96    1.97</time>
   <time name="total">    1.97    1.98</time>
   <energy>
    <i name="alphaZ">     13.28497877 </i>
    <i name="ewald">   1746.29226155 </i>
    <i name="hartreedc">  -2210.29384235 </i>
    <i name="XCdc">     57.99243997 </i>
    <i name="pawpsdc">   2326.35106225 </i>
    <i name="pawaedc">  -2320.23179618 </i>
    <i name="eentropy">     -0.00180444 </i>
    <i name="bandstr">   -233.20408818 </i>
    <i name="atom">    569.35051449 </i>
    <i name="e_fr_energy">    -50.46027413 </i>
    <i name="e_wo_entrp">    -50.45846968 </i>
    <i name="e_0_energy">    -50.45937191 </i>
   </energy>
  </scstep>
  <structure>
   <crystal>
    <varray name="basis" >
     <v>       4.37429400       2.52550000       0.00000000 </v>
     <v>      -4.37429400       2.52550000       0.00000000 </v>
     <v>       0.00000000       0.00000000      15.00000000 </v>
    </varray>
    <i name="volume">    331.41838491 </i>
    <varray name="rec_basis" >
     <v>       0.11430416       0.19798060       0.00000000 </v>
     <v>      -0.11430416       0.19798060       0.00000000 </v>
     <v>       0.00000000       0.00000000       0.06666667 </v>
    </varray>
   </crystal>
   <varray name="positions" >
    <v>       0.66789776      -0.00000000       0.10000000 </v>
    <v>       0.33210124      -0.00000000       0.10000000 </v>
    <v>       0.00000000       0.33210124       0.10000000 </v>
    <v>       0.00000000       0.66789776       0.10000000 </v>
    <v>       0.33210124       0.33210124       0.10000000 </v>
    <v>       0.66789776       0.66789776       0.10000000 </v>
    <v>       0.66666600       0.33333300       0.11449292 </v>
    <v>       0.33333300       0.66666600       0.08550708 </v>
   </varray>
  </structure>
  <varray name="forces" >
   <v>      -0.04936577      -0.02850134      -0.00000000 </v>
   <v>       0.04936577       0.02850134      -0.00000000 </v>
   <v>      -0.04936577       0.02850134      -0.00000000 </v>
   <v>       0.04936577      -0.02850134      -0.00000000 </v>
   <v>       0.00000000       0.05700268      -0.00000000 </v>
   <v>       0.00000000      -0.05700268      -0.00000000 </v>
   <v>       0.00000000      -0.00000000      -0.12163153 </v>
   <v>       0.00000000      -0.00000000       0.12163153 </v>
  </varray>
  <varray name="stress" >
   <v>      -1.84428599      -0.00000000       0.00000000 </v>
   <v>      -0.00000000      -1.84428626       0.00000000 </v>
   <v>       0.00000000       0.00000000      -0.36372996 </v>
  </varray>
  <energy>
   <i name="e_fr_energy">    -51.12638902 </i>
   <i name="e_wo_entrp">    -51.12458458 </i>
   <i name="e_0_energy">    -51.12548680 </i>
  </energy>
  <time name="totalsc">   11.18   11.25</time>
 </calculation>
 <calculation>
  <scstep>
   <time name="dav">    1.19    1.20</time>
   <time name="total">    1.27    1.28</time>
   <energy>
    <i name="alphaZ">     13.28497877 </i>
    <i name="ewald">   1750.85915226 </i>
    <i name="hartreedc">  -2213.92391280 </i>
    <i name="XCdc">     58.06147753 </i>
    <i name="pawpsdc">   2326.35270155 </i>
    <i name="pawaedc">  -2320.23343762 </i>
    <i name="eentropy">     -0.00379543 </i>
    <i name="bandstr">   -234.21547242 </i>
    <i name="atom">    569.35051449 </i>
    <i name="e_fr_energy">    -50.46779367 </i>
    <i name="e_wo_entrp">    -50.46399824 </i>
    <i name="e_0_energy">    -50.46589595 </i>
   </energy>
  </scstep>
  <scstep>
   <time name="dav">    2.25    2.26</time>
   <time name="total">    2.34    2.35</time>
   <energy>
    <i name="e_fr_energy">    -50.46694264 </i>
    <i name="e_wo_entrp">    -50.46314707 </i>
    <i name="e_0_energy">    -50.46504486 </i>
   </energy>
  </scstep>
  <scstep>
   <time name="dav">    1.95    1.96</time>
   <time name="total">    2.03    2.05</time>
   <energy>
    <i name="e_fr_energy">    -50.46655533 </i>
    <i name="e_wo_entrp">    -50.46274943 </i>
    <i name="e_0_energy">    -50.46465238 </i>
   </energy>
  </scstep>
  <scstep>
   <time name="dav">    2.36    2.38</time>
   <time name="total">    2.45    2.46</time>
   <energy>
    <i name="e_fr_energy">    -50.46657223 </i>
    <i name="e_wo_entrp">    -50.46276835 </i>
    <i name="e_0_energy">    -50.46467029 </i>
   </energy>
  </scstep>
  <scstep>
   <time name="dav">    1.67    1.69</time>
   <time name="total">    1.76    1.77</time>
   <energy>
    <i name="e_fr_energy">    -50.46657562 </i>
    <i name="e_wo_entrp">    -50.46277489 </i>
    <i name="e_0_energy">    -50.46467526 </i>
   </energy>
  </scstep>
  <scstep>
   <time name="dav">    2.00    2.01</time>
   <time name="total">    2.09    2.10</time>
   <energy>
    <i name="e_fr_energy">    -50.46657805 </i>
    <i name="e_wo_entrp">    -50.46277701 </i>
    <i name="e_0_energy">    -50.46467753 </i>
   </energy>
  </scstep>
  <scstep>
   <time name="dav">    1.61    1.63</time>
   <time name="total">    1.70    1.71</time>
   <energy>
    <i name="e_fr_energy">    -50.46658248 </i>
    <i name="e_wo_entrp">    -50.46278064 </i>
    <i name="e_0_energy">    -50.46468156 </i>
   </energy>
  </scstep>
  <scstep>
   <time name="dav">    1.83    1.84</time>
   <time name="total">    1.91    1.93</time>
   <energy>
    <i name="e_fr_energy">    -50.46658511 </i>
    <i name="e_wo_entrp">    -50.46278395 </i>
    <i name="e_0_energy">    -50.46468453 </i>
   </energy>
  </scstep>
  <scstep>
   <time name="dav">    1.65    1.66</time>
   <time name="total">    1.74    1.75</time>
   <energy>
    <i name="e_fr_energy">    -50.46658660 </i>
    <i name="e_wo_entrp">    -50.46278563 </i>
    <i name="e_0_energy">    -50.46468612 </i>
   </energy>
  </scstep>
  <scstep>
   <time name="dav">    1.89    1.90</time>
   <time name="total">    1.90    1.91</time>
   <energy>
    <i name="alphaZ">     13.28497877 </i>
    <i name="ewald">   1750.85915226 </i>
    <i name="hartreedc">  -2213.68631247 </i>
    <i name="XCdc">     58.04676710 </i>
    <i name="pawpsdc">   2345.92972570 </i>
    <i name="pawaedc">  -2339.81671665 </i>
    <i name="eentropy">     -0.00380081 </i>
    <i name="bandstr">   -234.43089574 </i>
    <i name="atom">    569.35051449 </i>
    <i name="e_fr_energy">    -50.46658736 </i>
    <i name="e_wo_entrp">    -50.46278655 </i>
    <i name="e_0_energy">    -50.46468695 </i>
   </energy>
  </scstep>
  <structure>
   <crystal>
    <varray name="basis" >
     <v>       4.37429400       2.52550000       0.00000000 </v>
     <v>      -4.37429400       2.52550000       0.00000000 </v>
     <v>       0.00000000       0.00000000      15.00000000 </v>
    </varray>
    <i name="volume">    331.41838491 </i>
    <varray name="rec_basis" >
     <v>       0.11430416       0.19798060       0.00000000 </v>
     <v>      -0.11430416       0.19798060       0.00000000 </v>
     <v>       0.00000000       0.00000000       0.06666667 </v>
    </varray>
   </crystal>
   <varray name="positions" >
    <v>       0.66790444      -0.00000000       0.10000000 </v>
    <v>       0.33209456       0.00000000       0.10000000 </v>
    <v>       0.00000000       0.33209456       0.10000000 </v>
    <v>       0.00000000       0.66790444       0.10000000 </v>
    <v>       0.33209456       0.33209456       0.10000000 </v>
    <v>       0.66790444       0.66790444       0.10000000 </v>
    <v>       0.66666600       0.33333300       0.11125985 </v>
    <v>       0.33333300       0.66666600       0.08874015 </v>
   </varray>
  </structure>
  <varray name="forces" >
   <v>       0.00366757       0.00211747      -0.00000000 </v>
   <v>      -0.00366757      -0.00211747      -0.00000000 </v>
   <v>       0.00366757      -0.00211747      -0.00000000 </v>
   <v>      -0.00366757       0.00211747      -0.00000000 </v>
   <v>       0.00000000      -0.00423494      -0.00000000 </v>
   <v>       0.00000000       0.00423494      -0.00000000 </v>
   <v>       0.00000000      -0.00000000      -0.02944548 </v>
   <v>       0.00000000      -0.00000000       0.02944548 </v>
  </varray>
  <varray name="stress" >
   <v>      -0.65958577      -0.00000000       0.00000000 </v>
   <v>      -0.00000000      -0.65958587       0.00000000 </v>
   <v>       0.00000000       0.00000000      -0.14055610 </v>
  </varray>
  <energy>
   <i name="e_fr_energy">    -51.13311621 </i>
   <i name="e_wo_entrp">    -51.12931540 </i>
   <i name="e_0_energy">    -51.13121581 </i>
  </energy>
  <time name="totalsc">   20.33   20.46</time>
 </calculation>
 <calculation>
  <scstep>
   <time name="dav">    1.25    1.26</time>
   <time name="total">    1.33    1.34</time>
   <energy>
    <i name="alphaZ">     13.28497877 </i>
    <i name="ewald">   1752.08436162 </i>
    <i name="hartreedc">  -2214.65882570 </i>
    <i name="XCdc">     58.06502227 </i>
    <i name="pawpsdc">   2345.92774114 </i>
    <i name="pawaedc">  -2339.81473094 </i>
    <i name="eentropy">     -0.00441020 </i>
    <i name="bandstr">   -234.70194991 </i>
    <i name="atom">    569.35051449 </i>
    <i name="e_fr_energy">    -50.46729845 </i>
    <i name="e_wo_entrp">    -50.46288825 </i>
    <i name="e_0_energy">    -50.46509335 </i>
   </energy>
  </scstep>
  <scstep>
   <time name="dav">    2.23    2.24</time>
   <time name="total">    2.31    2.33</time>
   <energy>
    <i name="e_fr_energy">    -50.46720230 </i>
    <i name="e_wo_entrp">    -50.46279227 </i>
    <i name="e_0_energy">    -50.46499729 </i>
   </energy>
  </scstep>
  <scstep>
   <time name="dav">    2.18    2.19</time>
   <time name="total">    2.26    2.28</time>
   <energy>
    <i name="e_fr_energy">    -50.46716079 </i>
    <i name="e_wo_entrp">    -50.46274827 </i>
    <i name="e_0_energy">    -50.46495453 </i>
   </energy>
  </scstep>
  <scstep>
   <time name="dav">    2.47    2.49</time>
   <time name="total">    2.56    2.57</time>
   <energy>
    <i name="e_fr_energy">    -50.46716207 </i>
    <i name="e_wo_entrp">    -50.46274997 </i>
    <i name="e_0_energy">    -50.46495602 </i>
   </energy>
  </scstep>
  <scstep>
   <time name="dav">    2.10    2.12</time>
   <time name="total">    2.12    2.13</time>
   <energy>
    <i name="alphaZ">     13.28497877 </i>
    <i name="ewald">   1752.08436162 </i>
    <i name="hartreedc">  -2214.58706305 </i>
    <i name="XCdc">     58.06046963 </i>
    <i name="pawpsdc">   2351.10028844 </i>
    <i name="pawaedc">  -2344.98888833 </i>
    <i name="eentropy">     -0.00441148 </i>
    <i name="bandstr">   -234.76741233 </i>
    <i name="atom">    569.35051449 </i>
    <i name="e_fr_energy">    -50.46716224 </i>
    <i name="e_wo_entrp">    -50.46275076 </i>
    <i name="e_0_energy">    -50.46495650 </i>
   </energy>
  </scstep>
  <structure>
   <crystal>
    <varray name="basis" >
     <v>       4.37429400       2.52550000       0.00000000 </v>
     <v>      -4.37429400       2.52550000       0.00000000 </v>
     <v>       0.00000000       0.00000000      15.00000000 </v>
    </varray>
    <i name="volume">    331.41838491 </i>
    <varray name="rec_basis" >
     <v>       0.11430416       0.19798060       0.00000000 </v>
     <v>      -0.11430416       0.19798060       0.00000000 </v>
     <v>       0.00000000       0.00000000       0.06666667 </v>
    </varray>
   </crystal>
   <varray name="positions" >
    <v>       0.66790658      -0.00000000       0.10000000 </v>
    <v>       0.33209242       0.00000000       0.10000000 </v>
    <v>       0.00000000       0.33209242       0.10000000 </v>
    <v>       0.00000000       0.66790658       0.10000000 </v>
    <v>       0.33209242       0.33209242       0.10000000 </v>
    <v>       0.66790658       0.66790658       0.10000000 </v>
    <v>       0.66666600       0.33333300       0.11022542 </v>
    <v>       0.33333300       0.66666600       0.08977458 </v>
   </varray>
  </structure>
  <varray name="forces" >
   <v>       0.02429524       0.01402686      -0.00000000 </v>
   <v>      -0.02429524      -0.01402686       0.00000000 </v>
   <v>       0.02429524      -0.01402686       0.00000000 </v>
   <v>      -0.02429524       0.01402686      -0.00000000 </v>
   <v>       0.00000000      -0.02805373       0.00000000 </v>
   <v>       0.00000000       0.02805373      -0.00000000 </v>
   <v>       0.00000000       0.00000000      -0.01595173 </v>
   <v>       0.00000000       0.00000000       0.01595173 </v>
  </varray>
  <varray name="stress" >
   <v>      -0.36335229      -0.00000000       0.00000000 </v>
   <v>      -0.00000000      -0.36335235       0.00000000 </v>
   <v>       0.00000000       0.00000000      -0.12921058 </v>
  </varray>
  <energy>
   <i name="e_fr_energy">    -51.13380146 </i>
   <i name="e_wo_entrp">    -51.12938998 </i>
   <i name="e_0_energy">    -51.13159572 </i>
  </energy>
  <time name="totalsc">   11.73   11.81</time>
 </calculation>
 <calculation>
  <scstep>
   <time name="dav">    1.23    1.24</time>
   <time name="total">    1.32    1.33</time>
   <energy>
    <i name="alphaZ">     13.28497877 </i>
    <i name="ewald">   1753.57636679 </i>
    <i name="hartreedc">  -2215.76803029 </i>
    <i name="XCdc">     58.08274132 </i>
    <i name="pawpsdc">   2351.10122506 </i>
    <i name="pawaedc">  -2344.98982847 </i>
    <i name="eentropy">     -0.00476838 </i>
    <i name="bandstr">   -235.10098770 </i>
    <i name="atom">    569.35051449 </i>
    <i name="e_fr_energy">    -50.46778840 </i>
    <i name="e_wo_entrp">    -50.46302002 </i>
    <i name="e_0_energy">    -50.46540421 </i>
   </energy>
  </scstep>
  <scstep>
   <time name="dav">    2.34    2.36</time>
   <time name="total">    2.43    2.45</time>
   <energy>
    <i name="e_fr_energy">    -50.46758496 </i>
    <i name="e_wo_entrp">    -50.46280890 </i>
    <i name="e_0_energy">    -50.46519693 </i>
   </energy>
  </scstep>
  <scstep>
   <time name="dav">    2.05    2.06</time>
   <time name="total">    2.13    2.15</time>
   <energy>
    <i name="e_fr_energy">    -50.46749916 </i>
    <i name="e_wo_entrp">    -50.46271193 </i>
    <i name="e_0_energy">    -50.46510554 </i>
   </energy>
  </scstep>
  <scstep>
   <time name="dav">    2.39    2.41</time>
   <time name="total">    2.48    2.49</time>
   <energy>
    <i name="e_fr_energy">    -50.46750164 </i>
    <i name="e_wo_entrp">    -50.46271459 </i>
    <i name="e_0_energy">    -50.46510811 </i>
   </energy>
  </scstep>
  <scstep>
   <time name="dav">    1.62    1.63</time>
   <time name="total">    1.70    1.71</time>
   <energy>
    <i name="e_fr_energy">    -50.46750275 </i>
    <i name="e_wo_entrp">    -50.46271657 </i>
    <i name="e_0_energy">    -50.46510966 </i>
   </energy>
  </scstep>
  <scstep>
   <time name="dav">    1.67    1.68</time>
   <time name="total">    1.68    1.69</time>
   <energy>
    <i name="alphaZ">     13.28497877 </i>
    <i name="ewald">   1753.57636679 </i>
    <i name="hartreedc">  -2215.64766171 </i>
    <i name="XCdc">     58.07621849 </i>
    <i name="pawpsdc">   2357.37183079 </i>
    <i name="pawaedc">  -2351.26237233 </i>
    <i name="eentropy">     -0.00478618 </i>
    <i name="bandstr">   -235.21259269 </i>
    <i name="atom">    569.35051449 </i>
    <i name="e_fr_energy">    -50.46750357 </i>
    <i name="e_wo_entrp">    -50.46271739 </i>
    <i name="e_0_energy">    -50.46511048 </i>
   </energy>
  </scstep>
  <structure>
   <crystal>
    <varray name="basis" >
     <v>       4.37429400       2.52550000       0.00000000 </v>
     <v>      -4.37429400       2.52550000       0.00000000 </v>
     <v>       0.00000000       0.00000000      15.00000000 </v>
    </varray>
    <i name="volume">    331.41838491 </i>
    <varray name="rec_basis" >
     <v>       0.11430416       0.19798060       0.00000000 </v>
     <v>      -0.11430416       0.19798060       0.00000000 </v>
     <v>       0.00000000       0.00000000       0.06666667 </v>
    </varray>
   </crystal>
   <varray name="positions" >
    <v>       0.66790951      -0.00000000       0.10000000 </v>
    <v>       0.33208949       0.00000000       0.10000000 </v>
    <v>       0.00000000       0.33208949       0.10000000 </v>
    <v>       0.00000000       0.66790951       0.10000000 </v>
    <v>       0.33208949       0.33208949       0.10000000 </v>
    <v>       0.66790951       0.66790951       0.10000000 </v>
    <v>       0.66666600       0.33333300       0.10880658 </v>
    <v>       0.33333300       0.66666600       0.09119342 </v>
   </varray>
  </structure>
  <varray name="forces" >
   <v>       0.05406884       0.03121666       0.00000000 </v>
   <v>      -0.05406884      -0.03121666       0.00000000 </v>
   <v>       0.05406884      -0.03121666      -0.00000000 </v>
   <v>      -0.05406884       0.03121666       0.00000000 </v>
   <v>      -0.00000000      -0.06243333       0.00000000 </v>
   <v>      -0.00000000       0.06243333      -0.00000000 </v>
   <v>      -0.00000000      -0.00000000      -0.00786784 </v>
   <v>      -0.00000000       0.00000000       0.00786784 </v>
  </varray>
  <varray name="stress" >
   <v>      -0.02423713      -0.00000000      -0.00000000 </v>
   <v>      -0.00000000      -0.02423714       0.00000000 </v>
   <v>      -0.00000000       0.00000000      -0.11934566 </v>
  </varray>
  <energy>
   <i name="e_fr_energy">    -51.13427684 </i>
   <i name="e_wo_entrp">    -51.12949066 </i>
   <i name="e_0_energy">    -51.13188375 </i>
  </energy>
  <time name="totalsc">   12.88   12.97</time>
 </calculation>
 <calculation>
  <scstep>
   <time name="dav">    1.28    1.29</time>
   <time name="total">    1.36    1.37</time>
   <energy>
    <i name="alphaZ">     13.28497877 </i>
    <i name="ewald">   1753.19346218 </i>
    <i name="hartreedc">  -2215.65282575 </i>
    <i name="XCdc">     58.05995676 </i>
    <i name="pawpsdc">   2357.37080089 </i>
    <i name="pawaedc">  -2351.26134746 </i>
    <i name="eentropy">     -0.00488008 </i>
    <i name="bandstr">   -234.80908744 </i>
    <i name="atom">    569.35051449 </i>
    <i name="e_fr_energy">    -50.46842764 </i>
    <i name="e_wo_entrp">    -50.46354756 </i>
    <i name="e_0_energy">    -50.46598760 </i>
   </energy>
  </scstep>
  <scstep>
   <time name="dav">    2.24    2.25</time>
   <time name="total">    2.32    2.33</time>
   <energy>
    <i name="e_fr_energy">    -50.46595203 </i>
    <i name="e_wo_entrp">    -50.46107888 </i>
    <i name="e_0_energy">    -50.46351545 </i>
   </energy>
  </scstep>
  <scstep>
   <time name="dav">    1.81    1.82</time>
   <time name="total">    1.89    1.90</time>
   <energy>
    <i name="e_fr_energy">    -50.46547007 </i>
    <i name="e_wo_entrp">    -50.46061464 </i>
    <i name="e_0_energy">    -50.46304236 </i>
   </energy>
  </scstep>
  <scstep>
   <time name="dav">    2.20    2.21</time>
   <time name="total">    2.29    2.30</time>
   <energy>
    <i name="e_fr_energy">    -50.46546526 </i>
    <i name="e_wo_entrp">    -50.46061461 </i>
    <i name="e_0_energy">    -50.46303993 </i>
   </energy>
  </scstep>
  <scstep>
   <time name="dav">    1.67    1.68</time>
   <time name="total">    1.75    1.76</time>
   <energy>
    <i name="e_fr_energy">    -50.46546959 </i>
    <i name="e_wo_entrp">    -50.46061585 </i>
    <i name="e_0_energy">    -50.46304272 </i>
   </energy>
  </scstep>
  <scstep>
   <time name="dav">    1.87    1.88</time>
   <time name="total">    1.96    1.97</time>
   <energy>
    <i name="e_fr_energy">    -50.46547244 </i>
    <i name="e_wo_entrp">    -50.46061851 </i>
    <i name="e_0_energy">    -50.46304547 </i>
   </energy>
  </scstep>
  <scstep>
   <time name="dav">    1.65    1.66</time>
   <time name="total">    1.73    1.75</time>
   <energy>
    <i name="e_fr_energy">    -50.46547818 </i>
    <i name="e_wo_entrp">    -50.46062461 </i>
    <i name="e_0_energy">    -50.46305139 </i>
   </energy>
  </scstep>
  <scstep>
   <time name="dav">    1.63    1.65</time>
   <time name="total">    1.72    1.73</time>
   <energy>
    <i name="e_fr_energy">    -50.46548277 </i>
    <i name="e_wo_entrp">    -50.46062890 </i>
    <i name="e_0_energy">    -50.46305584 </i>
   </energy>
  </scstep>
  <scstep>
   <time name="dav">    1.92    1.93</time>
   <time name="total">    2.00    2.01</time>
   <energy>
    <i name="e_fr_energy">    -50.46548382 </i>
    <i name="e_wo_entrp">    -50.46063009 </i>
    <i name="e_0_energy">    -50.46305696 </i>
   </energy>
  </scstep>
  <scstep>
   <time name="dav">    1.77    1.78</time>
   <time name="total">    1.78    1.79</time>
   <energy>
    <i name="alphaZ">     13.28497877 </i>
    <i name="ewald">   1753.19346218 </i>
    <i name="hartreedc">  -2214.96301196 </i>
    <i name="XCdc">     58.04223206 </i>
    <i name="pawpsdc">   2347.56832355 </i>
    <i name="pawaedc">  -2341.45560161 </i>
    <i name="eentropy">     -0.00485373 </i>
    <i name="bandstr">   -235.48152800 </i>
    <i name="atom">    569.35051449 </i>
    <i name="e_fr_energy">    -50.46548426 </i>
    <i name="e_wo_entrp">    -50.46063053 </i>
    <i name="e_0_energy">    -50.46305739 </i>
   </energy>
  </scstep>
  <structure>
   <crystal>
    <varray name="basis" >
     <v>       4.37429400       2.52550000       0.00000000 </v>
     <v>      -4.37429400       2.52550000       0.00000000 </v>
     <v>       0.00000000       0.00000000      15.00000000 </v>
    </varray>
    <i name="volume">    331.41838491 </i>
    <varray name="rec_basis" >
     <v>       0.11430416       0.19798060       0.00000000 </v>
     <v>      -0.11430416       0.19798060       0.00000000 </v>
     <v>       0.00000000       0.00000000       0.06666667 </v>
    </varray>
   </crystal>
   <varray name="positions" >
    <v>       0.66946256      -0.00000000       0.10000000 </v>
    <v>       0.33053644       0.00000000       0.10000000 </v>
    <v>       0.00000000       0.33053644       0.10000000 </v>
    <v>       0.00000000       0.66946256       0.10000000 </v>
    <v>       0.33053644       0.33053644       0.10000000 </v>
    <v>       0.66946256       0.66946256       0.10000000 </v>
    <v>       0.66666600       0.33333300       0.10753240 </v>
    <v>       0.33333300       0.66666600       0.09246760 </v>
   </varray>
  </structure>
  <varray name="forces" >
   <v>      -0.15111359      -0.08724548      -0.00000000 </v>
   <v>       0.15111359       0.08724548      -0.00000000 </v>
   <v>      -0.15111359       0.08724548      -0.00000000 </v>
   <v>       0.15111359      -0.08724548      -0.00000000 </v>
   <v>      -0.00000000       0.17449096      -0.00000000 </v>
   <v>      -0.00000000      -0.17449096      -0.00000000 </v>
   <v>      -0.00000000       0.00000000      -0.03343580 </v>
   <v>      -0.00000000      -0.00000000       0.03343580 </v>
  </varray>
  <varray name="stress" >
   <v>      -1.11557577      -0.00000000       0.00000000 </v>
   <v>      -0.00000000      -1.11557593       0.00000000 </v>
   <v>       0.00000000       0.00000000      -0.12831371 </v>
  </varray>
  <energy>
   <i name="e_fr_energy">    -51.13254861 </i>
   <i name="e_wo_entrp">    -51.12769489 </i>
   <i name="e_0_energy">    -51.13012175 </i>
  </energy>
  <time name="totalsc">   19.95   20.08</time>
 </calculation>
 <calculation>
  <scstep>
   <time name="dav">    1.26    1.26</time>
   <time name="total">    1.34    1.35</time>
   <energy>
    <i name="alphaZ">     13.28497877 </i>
    <i name="ewald">   1753.46026855 </i>
    <i name="hartreedc">  -2214.95418369 </i>
    <i name="XCdc">     58.05313526 </i>
    <i name="pawpsdc">   2347.56451047 </i>
    <i name="pawaedc">  -2341.45178800 </i>
    <i name="eentropy">     -0.00486555 </i>
    <i name="bandstr">   -235.77180064 </i>
    <i name="atom">    569.35051449 </i>
    <i name="e_fr_energy">    -50.46923034 </i>
    <i name="e_wo_entrp">    -50.46436479 </i>
    <i name="e_0_energy">    -50.46679756 </i>
   </energy>
  </scstep>
  <scstep>
   <time name="dav">    2.26    2.27</time>
   <time name="total">    2.35    2.36</time>
   <energy>
    <i name="e_fr_energy">    -50.46815250 </i>
    <i name="e_wo_entrp">    -50.46328563 </i>
    <i name="e_0_energy">    -50.46571906 </i>
   </energy>
  </scstep>
  <scstep>
   <time name="dav">    1.61    1.62</time>
   <time name="total">    1.69    1.70</time>
   <energy>
    <i name="e_fr_energy">    -50.46794436 </i>
    <i name="e_wo_entrp">    -50.46306983 </i>
    <i name="e_0_energy">    -50.46550710 </i>
   </energy>
  </scstep>
  <scstep>
   <time name="dav">    1.78    1.80</time>
   <time name="total">    1.87    1.88</time>
   <energy>
    <i name="e_fr_energy">    -50.46794242 </i>
    <i name="e_wo_entrp">    -50.46306587 </i>
    <i name="e_0_energy">    -50.46550415 </i>
   </energy>
  </scstep>
  <scstep>
   <time name="dav">    1.76    1.77</time>
   <time name="total">    1.77    1.78</time>
   <energy>
    <i name="alphaZ">     13.28497877 </i>
    <i name="ewald">   1753.46026855 </i>
    <i name="hartreedc">  -2215.33945160 </i>
[...]
    <varray name="basis" >
     <v>       4.37429400       2.52550000       0.00000000 </v>
     <v>      -4.37429400       2.52550000       0.00000000 </v>
     <v>       0.00000000       0.00000000      15.00000000 </v>
    </varray>
    <i name="volume">    331.41838491 </i>
    <varray name="rec_basis" >
     <v>       0.11430416       0.19798060       0.00000000 </v>
     <v>      -0.11430416       0.19798060       0.00000000 </v>
     <v>       0.00000000       0.00000000       0.06666667 </v>
    </varray>
   </crystal>
   <varray name="positions" >
    <v>       0.66879684      -0.00000000       0.10000000 </v>
    <v>       0.33120216       0.00000000       0.10000000 </v>
    <v>       0.00000000       0.33120216       0.10000000 </v>
    <v>       0.00000000       0.66879684       0.10000000 </v>
    <v>       0.33120216       0.33120216       0.10000000 </v>
    <v>       0.66879684       0.66879684       0.10000000 </v>
    <v>       0.66666600       0.33333300       0.10153625 </v>
    <v>       0.33333300       0.66666600       0.09846375 </v>
   </varray>
  </structure>
  <varray name="forces" >
   <v>      -0.00508272      -0.00293451      -0.00000000 </v>
   <v>       0.00508272       0.00293451      -0.00000000 </v>
   <v>      -0.00508272       0.00293451      -0.00000000 </v>
   <v>       0.00508272      -0.00293451      -0.00000000 </v>
   <v>       0.00000000       0.00586902      -0.00000000 </v>
   <v>       0.00000000      -0.00586902      -0.00000000 </v>
   <v>       0.00000000      -0.00000000      -0.00075181 </v>
   <v>       0.00000000      -0.00000000       0.00075181 </v>
  </varray>
  <varray name="stress" >
   <v>       0.20374972      -0.00000000       0.00000000 </v>
   <v>      -0.00000000       0.20374975       0.00000000 </v>
   <v>       0.00000000       0.00000000      -0.09244393 </v>
  </varray>
  <energy>
   <i name="e_fr_energy">    -51.13646069 </i>
   <i name="e_wo_entrp">    -51.13148527 </i>
   <i name="e_0_energy">    -51.13397298 </i>
  </energy>
  <time name="totalsc">    4.88    4.92</time>
 </calculation>
 <calculation>
  <scstep>
   <time name="dav">    1.60    1.61</time>
   <time name="total">    1.68    1.69</time>
   <energy>
    <i name="alphaZ">     13.28497877 </i>
    <i name="ewald">   1756.86497314 </i>
    <i name="hartreedc">  -2217.82308518 </i>
    <i name="XCdc">     58.09632690 </i>
    <i name="pawpsdc">   2366.77892241 </i>
    <i name="pawaedc">  -2360.67227924 </i>
    <i name="eentropy">     -0.00497541 </i>
    <i name="bandstr">   -236.34458313 </i>
    <i name="atom">    569.35051449 </i>
    <i name="e_fr_energy">    -50.46920725 </i>
    <i name="e_wo_entrp">    -50.46423185 </i>
    <i name="e_0_energy">    -50.46671955 </i>
   </energy>
  </scstep>
  <scstep>
   <time name="dav">    1.81    1.82</time>
   <time name="total">    1.83    1.84</time>
   <energy>
    <i name="alphaZ">     13.28497877 </i>
    <i name="ewald">   1756.86497314 </i>
    <i name="hartreedc">  -2217.82308958 </i>
    <i name="XCdc">     58.09632702 </i>
    <i name="pawpsdc">   2366.77898040 </i>
    <i name="pawaedc">  -2360.67233724 </i>
    <i name="eentropy">     -0.00497541 </i>
    <i name="bandstr">   -236.34457884 </i>
    <i name="atom">    569.35051449 </i>
    <i name="e_fr_energy">    -50.46920725 </i>
    <i name="e_wo_entrp">    -50.46423185 </i>
    <i name="e_0_energy">    -50.46671955 </i>
   </energy>
  </scstep>
  <structure>
   <crystal>
    <varray name="basis" >
     <v>       4.37429400       2.52550000       0.00000000 </v>
     <v>      -4.37429400       2.52550000       0.00000000 </v>
     <v>       0.00000000       0.00000000      15.00000000 </v>
    </varray>
    <i name="volume">    331.41838491 </i>
    <varray name="rec_basis" >
     <v>       0.11430416       0.19798060       0.00000000 </v>
     <v>      -0.11430416       0.19798060       0.00000000 </v>
     <v>       0.00000000       0.00000000       0.06666667 </v>
    </varray>
   </crystal>
   <varray name="positions" >
    <v>       0.66879682      -0.00000000       0.10000000 </v>
    <v>       0.33120218       0.00000000       0.10000000 </v>
    <v>       0.00000000       0.33120218       0.10000000 </v>
    <v>       0.00000000       0.66879682       0.10000000 </v>
    <v>       0.33120218       0.33120218       0.10000000 </v>
    <v>       0.66879682       0.66879682       0.10000000 </v>
    <v>       0.66666600       0.33333300       0.10153635 </v>
    <v>       0.33333300       0.66666600       0.09846365 </v>
   </varray>
  </structure>
  <varray name="forces" >
   <v>      -0.00508009      -0.00293299      -0.00000000 </v>
   <v>       0.00508009       0.00293299      -0.00000000 </v>
   <v>      -0.00508009       0.00293299      -0.00000000 </v>
   <v>       0.00508009      -0.00293299      -0.00000000 </v>
   <v>       0.00000000       0.00586598      -0.00000000 </v>
   <v>       0.00000000      -0.00586598      -0.00000000 </v>
   <v>       0.00000000       0.00000000      -0.00075282 </v>
   <v>       0.00000000       0.00000000       0.00075282 </v>
  </varray>
  <varray name="stress" >
   <v>       0.20376077       0.00000000       0.00000000 </v>
   <v>      -0.00000000       0.20376080       0.00000000 </v>
   <v>       0.00000000       0.00000000      -0.09245942 </v>
  </varray>
  <energy>
   <i name="e_fr_energy">    -51.13646069 </i>
   <i name="e_wo_entrp">    -51.13148528 </i>
   <i name="e_0_energy">    -51.13397299 </i>
  </energy>
  <time name="totalsc">    4.65    4.68</time>
 </calculation>
 <calculation>
  <scstep>
   <time name="dav">    1.63    1.64</time>
   <time name="total">    1.71    1.72</time>
   <energy>
    <i name="alphaZ">     13.28497877 </i>
    <i name="ewald">   1756.86497275 </i>
    <i name="hartreedc">  -2217.82309347 </i>
    <i name="XCdc">     58.09632721 </i>
    <i name="pawpsdc">   2366.77899849 </i>
    <i name="pawaedc">  -2360.67235535 </i>
    <i name="eentropy">     -0.00497540 </i>
    <i name="bandstr">   -236.34457475 </i>
    <i name="atom">    569.35051449 </i>
    <i name="e_fr_energy">    -50.46920726 </i>
    <i name="e_wo_entrp">    -50.46423185 </i>
    <i name="e_0_energy">    -50.46671955 </i>
   </energy>
  </scstep>
  <scstep>
   <time name="dav">    0.84    0.84</time>
   <time name="total">    0.85    0.86</time>
   <energy>
    <i name="alphaZ">     13.28497877 </i>
    <i name="ewald">   1756.86497275 </i>
    <i name="hartreedc">  -2217.82309594 </i>
    <i name="XCdc">     58.09632727 </i>
    <i name="pawpsdc">   2366.77902724 </i>
    <i name="pawaedc">  -2360.67238410 </i>
    <i name="eentropy">     -0.00497540 </i>
    <i name="bandstr">   -236.34457233 </i>
    <i name="atom">    569.35051449 </i>
    <i name="e_fr_energy">    -50.46920726 </i>
    <i name="e_wo_entrp">    -50.46423185 </i>
    <i name="e_0_energy">    -50.46671955 </i>
   </energy>
  </scstep>
  <structure>
   <crystal>
    <varray name="basis" >
     <v>       4.37429400       2.52550000       0.00000000 </v>
     <v>      -4.37429400       2.52550000       0.00000000 </v>
     <v>       0.00000000       0.00000000      15.00000000 </v>
    </varray>
    <i name="volume">    331.41838491 </i>
    <varray name="rec_basis" >
     <v>       0.11430416       0.19798060       0.00000000 </v>
     <v>      -0.11430416       0.19798060       0.00000000 </v>
     <v>       0.00000000       0.00000000       0.06666667 </v>
    </varray>
   </crystal>
   <varray name="positions" >
    <v>       0.66879681      -0.00000000       0.10000000 </v>
    <v>       0.33120219       0.00000000       0.10000000 </v>
    <v>       0.00000000       0.33120219       0.10000000 </v>
    <v>       0.00000000       0.66879681       0.10000000 </v>
    <v>       0.33120219       0.33120219       0.10000000 </v>
    <v>       0.66879681       0.66879681       0.10000000 </v>
    <v>       0.66666600       0.33333300       0.10153641 </v>
    <v>       0.33333300       0.66666600       0.09846359 </v>
   </varray>
  </structure>
  <varray name="forces" >
   <v>      -0.00507879      -0.00293224      -0.00000000 </v>
   <v>       0.00507879       0.00293224       0.00000000 </v>
   <v>      -0.00507879       0.00293224      -0.00000000 </v>
   <v>       0.00507879      -0.00293224      -0.00000000 </v>
   <v>      -0.00000000       0.00586448      -0.00000000 </v>
   <v>      -0.00000000      -0.00586448      -0.00000000 </v>
   <v>      -0.00000000       0.00000000      -0.00075324 </v>
   <v>      -0.00000000       0.00000000       0.00075324 </v>
  </varray>
  <varray name="stress" >
   <v>       0.20376638      -0.00000000       0.00000000 </v>
   <v>      -0.00000000       0.20376640       0.00000000 </v>
   <v>       0.00000000       0.00000000      -0.09246774 </v>
  </varray>
  <energy>
   <i name="e_fr_energy">    -51.13646069 </i>
   <i name="e_wo_entrp">    -51.13148529 </i>
   <i name="e_0_energy">    -51.13397299 </i>
  </energy>
  <time name="totalsc">    3.71    3.74</time>
 </calculation>
 <calculation>
  <scstep>
   <time name="dav">    1.69    1.70</time>
   <time name="total">    1.77    1.78</time>
   <energy>
    <i name="alphaZ">     13.28497877 </i>
    <i name="ewald">   1756.86497256 </i>
    <i name="hartreedc">  -2217.82309850 </i>
    <i name="XCdc">     58.09632738 </i>
    <i name="pawpsdc">   2366.77903959 </i>
    <i name="pawaedc">  -2360.67239645 </i>
    <i name="eentropy">     -0.00497540 </i>
    <i name="bandstr">   -236.34456969 </i>
    <i name="atom">    569.35051449 </i>
    <i name="e_fr_energy">    -50.46920726 </i>
    <i name="e_wo_entrp">    -50.46423186 </i>
    <i name="e_0_energy">    -50.46671956 </i>
   </energy>
  </scstep>
  <scstep>
   <time name="dav">    0.70    0.71</time>
   <time name="total">    0.71    0.72</time>
   <energy>
    <i name="alphaZ">     13.28497877 </i>
    <i name="ewald">   1756.86497256 </i>
    <i name="hartreedc">  -2217.82309989 </i>
    <i name="XCdc">     58.09632741 </i>
    <i name="pawpsdc">   2366.77905096 </i>
    <i name="pawaedc">  -2360.67240783 </i>
    <i name="eentropy">     -0.00497540 </i>
    <i name="bandstr">   -236.34456833 </i>
    <i name="atom">    569.35051449 </i>
    <i name="e_fr_energy">    -50.46920726 </i>
    <i name="e_wo_entrp">    -50.46423186 </i>
    <i name="e_0_energy">    -50.46671956 </i>
   </energy>
  </scstep>
  <structure>
   <crystal>
    <varray name="basis" >
     <v>       4.37429400       2.52550000       0.00000000 </v>
     <v>      -4.37429400       2.52550000       0.00000000 </v>
     <v>       0.00000000       0.00000000      15.00000000 </v>
    </varray>
    <i name="volume">    331.41838491 </i>
    <varray name="rec_basis" >
     <v>       0.11430416       0.19798060       0.00000000 </v>
     <v>      -0.11430416       0.19798060       0.00000000 </v>
     <v>       0.00000000       0.00000000       0.06666667 </v>
    </varray>
   </crystal>
   <varray name="positions" >
    <v>       0.66879681      -0.00000000       0.10000000 </v>
    <v>       0.33120219       0.00000000       0.10000000 </v>
    <v>       0.00000000       0.33120219       0.10000000 </v>
    <v>       0.00000000       0.66879681       0.10000000 </v>
    <v>       0.33120219       0.33120219       0.10000000 </v>
    <v>       0.66879681       0.66879681       0.10000000 </v>
    <v>       0.66666600       0.33333300       0.10153643 </v>
    <v>       0.33333300       0.66666600       0.09846357 </v>
   </varray>
  </structure>
  <varray name="forces" >
   <v>      -0.00507812      -0.00293185       0.00000000 </v>
   <v>       0.00507812       0.00293185       0.00000000 </v>
   <v>      -0.00507812       0.00293185       0.00000000 </v>
   <v>       0.00507812      -0.00293185       0.00000000 </v>
   <v>       0.00000000       0.00586371       0.00000000 </v>
   <v>       0.00000000      -0.00586371       0.00000000 </v>
   <v>       0.00000000       0.00000000      -0.00075352 </v>
   <v>       0.00000000      -0.00000000       0.00075352 </v>
  </varray>
  <varray name="stress" >
   <v>       0.20376925      -0.00000000       0.00000000 </v>
   <v>      -0.00000000       0.20376928       0.00000000 </v>
   <v>       0.00000000       0.00000000      -0.09247275 </v>
  </varray>
  <energy>
   <i name="e_fr_energy">    -51.13646069 </i>
   <i name="e_wo_entrp">    -51.13148529 </i>
   <i name="e_0_energy">    -51.13397299 </i>
  </energy>
  <time name="totalsc">    3.63    3.66</time>
 </calculation>
 <calculation>
  <scstep>
   <time name="dav">    0.90    0.91</time>
   <time name="total">    0.98    0.99</time>
   <energy>
    <i name="alphaZ">     13.28497877 </i>
    <i name="ewald">   1756.86497247 </i>
    <i name="hartreedc">  -2217.82310150 </i>
    <i name="XCdc">     58.09632746 </i>
    <i name="pawpsdc">   2366.77905526 </i>
    <i name="pawaedc">  -2360.67241213 </i>
    <i name="eentropy">     -0.00497540 </i>
    <i name="bandstr">   -236.34456668 </i>
    <i name="atom">    569.35051449 </i>
    <i name="e_fr_energy">    -50.46920726 </i>
    <i name="e_wo_entrp">    -50.46423186 </i>
    <i name="e_0_energy">    -50.46671956 </i>
   </energy>
  </scstep>
  <scstep>
   <time name="dav">    0.70    0.71</time>
   <time name="total">    0.72    0.72</time>
   <energy>
    <i name="alphaZ">     13.28497877 </i>
    <i name="ewald">   1756.86497247 </i>
    <i name="hartreedc">  -2217.82310229 </i>
    <i name="XCdc">     58.09632748 </i>
    <i name="pawpsdc">   2366.77906893 </i>
    <i name="pawaedc">  -2360.67242580 </i>
    <i name="eentropy">     -0.00497540 </i>
    <i name="bandstr">   -236.34456590 </i>
    <i name="atom">    569.35051449 </i>
    <i name="e_fr_energy">    -50.46920726 </i>
    <i name="e_wo_entrp">    -50.46423186 </i>
    <i name="e_0_energy">    -50.46671956 </i>
   </energy>
  </scstep>
  <structure>
   <crystal>
    <varray name="basis" >
     <v>       4.37429400       2.52550000       0.00000000 </v>
     <v>      -4.37429400       2.52550000       0.00000000 </v>
     <v>       0.00000000       0.00000000      15.00000000 </v>
    </varray>
    <i name="volume">    331.41838491 </i>
    <varray name="rec_basis" >
     <v>       0.11430416       0.19798060       0.00000000 </v>
     <v>      -0.11430416       0.19798060       0.00000000 </v>
     <v>       0.00000000       0.00000000       0.06666667 </v>
    </varray>
   </crystal>
   <varray name="positions" >
    <v>       0.66879680      -0.00000000       0.10000000 </v>
    <v>       0.33120220       0.00000000       0.10000000 </v>
    <v>       0.00000000       0.33120220       0.10000000 </v>
    <v>       0.00000000       0.66879680       0.10000000 </v>
    <v>       0.33120220       0.33120220       0.10000000 </v>
    <v>       0.66879680       0.66879680       0.10000000 </v>
    <v>       0.66666600       0.33333300       0.10153644 </v>
    <v>       0.33333300       0.66666600       0.09846356 </v>
   </varray>
  </structure>
  <varray name="forces" >
   <v>      -0.00507774      -0.00293163       0.00000000 </v>
   <v>       0.00507774       0.00293163       0.00000000 </v>
   <v>      -0.00507774       0.00293163       0.00000000 </v>
   <v>       0.00507774      -0.00293163       0.00000000 </v>
   <v>      -0.00000000       0.00586327       0.00000000 </v>
   <v>      -0.00000000      -0.00586327       0.00000000 </v>
   <v>      -0.00000000      -0.00000000      -0.00075414 </v>
   <v>      -0.00000000      -0.00000000       0.00075414 </v>
  </varray>
  <varray name="stress" >
   <v>       0.20377066      -0.00000000       0.00000000 </v>
   <v>      -0.00000000       0.20377068       0.00000000 </v>
   <v>       0.00000000       0.00000000      -0.09247541 </v>
  </varray>
  <energy>
   <i name="e_fr_energy">    -51.13646069 </i>
   <i name="e_wo_entrp">    -51.13148529 </i>
   <i name="e_0_energy">    -51.13397299 </i>
  </energy>
  <time name="totalsc">    2.85    2.87</time>
 </calculation>
 <calculation>
  <scstep>
   <time name="dav">    1.15    1.16</time>
   <time name="total">    1.24    1.24</time>
   <energy>
    <i name="alphaZ">     13.28497877 </i>
    <i name="ewald">   1756.83297620 </i>
    <i name="hartreedc">  -2217.77278957 </i>
    <i name="XCdc">     58.09668014 </i>
    <i name="pawpsdc">   2366.77907021 </i>
    <i name="pawaedc">  -2360.67242708 </i>
    <i name="eentropy">     -0.00488826 </i>
    <i name="bandstr">   -236.36339393 </i>
    <i name="atom">    569.35051449 </i>
    <i name="e_fr_energy">    -50.46927902 </i>
    <i name="e_wo_entrp">    -50.46439076 </i>
    <i name="e_0_energy">    -50.46683489 </i>
   </energy>
  </scstep>
  <scstep>
   <time name="dav">    2.11    2.12</time>
   <time name="total">    2.19    2.20</time>
   <energy>
    <i name="e_fr_energy">    -50.46922826 </i>
    <i name="e_wo_entrp">    -50.46433747 </i>
    <i name="e_0_energy">    -50.46678286 </i>
   </energy>
  </scstep>
  <scstep>
   <time name="dav">    1.63    1.64</time>
   <time name="total">    1.72    1.73</time>
   <energy>
    <i name="e_fr_energy">    -50.46920447 </i>
    <i name="e_wo_entrp">    -50.46431004 </i>
    <i name="e_0_energy">    -50.46675725 </i>
   </energy>
  </scstep>
  <scstep>
   <time name="dav">    1.64    1.65</time>
   <time name="total">    1.65    1.66</time>
   <energy>
    <i name="alphaZ">     13.28497877 </i>
    <i name="ewald">   1756.83297620 </i>
    <i name="hartreedc">  -2217.81140670 </i>
    <i name="XCdc">     58.09783244 </i>
    <i name="pawpsdc">   2367.27346514 </i>
    <i name="pawaedc">  -2361.16699325 </i>
    <i name="eentropy">     -0.00489440 </i>
    <i name="bandstr">   -236.32567798 </i>
    <i name="atom">    569.35051449 </i>
    <i name="e_fr_energy">    -50.46920529 </i>
    <i name="e_wo_entrp">    -50.46431089 </i>
    <i name="e_0_energy">    -50.46675809 </i>
   </energy>
  </scstep>
  <structure>
   <crystal>
    <varray name="basis" >
     <v>       4.37429400       2.52550000       0.00000000 </v>
     <v>      -4.37429400       2.52550000       0.00000000 </v>
     <v>       0.00000000       0.00000000      15.00000000 </v>
    </varray>
    <i name="volume">    331.41838491 </i>
    <varray name="rec_basis" >
     <v>       0.11430416       0.19798060       0.00000000 </v>
     <v>      -0.11430416       0.19798060       0.00000000 </v>
     <v>       0.00000000       0.00000000       0.06666667 </v>
    </varray>
   </crystal>
   <varray name="positions" >
    <v>       0.66868214      -0.00000000       0.10000000 </v>
    <v>       0.33131686       0.00000000       0.10000000 </v>
    <v>       0.00000000       0.33131686       0.10000000 </v>
    <v>       0.00000000       0.66868214       0.10000000 </v>
    <v>       0.33131686       0.33131686       0.10000000 </v>
    <v>       0.66868214       0.66868214       0.10000000 </v>
    <v>       0.66666600       0.33333300       0.10223285 </v>
    <v>       0.33333300       0.66666600       0.09776715 </v>
   </varray>
  </structure>
  <varray name="forces" >
   <v>       0.01005908       0.00580761       0.00000000 </v>
   <v>      -0.01005908      -0.00580761       0.00000000 </v>
   <v>       0.01005908      -0.00580761       0.00000000 </v>
   <v>      -0.01005908       0.00580761       0.00000000 </v>
   <v>       0.00000000      -0.01161522       0.00000000 </v>
   <v>       0.00000000       0.01161522       0.00000000 </v>
   <v>       0.00000000       0.00000000      -0.00100154 </v>
   <v>       0.00000000       0.00000000       0.00100154 </v>
  </varray>
  <varray name="stress" >
   <v>       0.26305977      -0.00000000       0.00000000 </v>
   <v>      -0.00000000       0.26305981       0.00000000 </v>
   <v>       0.00000000       0.00000000      -0.08829876 </v>
  </varray>
  <energy>
   <i name="e_fr_energy">    -51.13643188 </i>
   <i name="e_wo_entrp">    -51.13153749 </i>
   <i name="e_0_energy">    -51.13398469 </i>
  </energy>
