Lattice                                 
           1
     4.374294    2.525500    0.000000
    -4.374294    2.525500    0.000000
     0.000000    0.000000   15.000000
   B 
     8
Direct configuration=     1
   0.66666600  0.00000000  0.10000000
   0.33333300  0.00000000  0.10000000
   0.00000000  0.33333300  0.10000000
   0.00000000  0.66666600  0.10000000
   0.33333300  0.33333300  0.10000000
   0.66666600  0.66666600  0.10000000
   0.66666600  0.33333300  0.13300000
   0.33333300  0.66666600  0.06700000
Direct configuration=     2
   0.66593535 -0.00000000  0.10000000
   0.33406365 -0.00000000  0.10000000
  -0.00000000  0.33406365  0.10000000
  -0.00000000  0.66593535  0.10000000
   0.33406365  0.33406365  0.10000000
   0.66593535  0.66593535  0.10000000
   0.66666600  0.33333300  0.12784365
   0.33333300  0.66666600  0.07215635
Direct configuration=     3
   0.66441476 -0.00000000  0.10000000
   0.33558424 -0.00000000  0.10000000
  -0.00000000  0.33558424  0.10000000
  -0.00000000  0.66441476  0.10000000
   0.33558424  0.33558424  0.10000000
   0.66441476  0.66441476  0.10000000
   0.66666600  0.33333300  0.11711244
   0.33333300  0.66666600  0.08288756
Direct configuration=     4
   0.67187417 -0.00000000  0.10000000
   0.32812483 -0.00000000  0.10000000
   0.00000000  0.32812483  0.10000000
   0.00000000  0.67187417  0.10000000
   0.32812483  0.32812483  0.10000000
   0.67187417  0.67187417  0.10000000
   0.66666600  0.33333300  0.11380824
   0.33333300  0.66666600  0.08619176
Direct configuration=     5
   0.66789553 -0.00000000  0.10000000
   0.33210347 -0.00000000  0.10000000
  -0.00000000  0.33210347  0.10000000
   0.00000000  0.66789553  0.10000000
   0.33210347  0.33210347  0.10000000
   0.66789553  0.66789553  0.10000000
   0.66666600  0.33333300  0.11557061
   0.33333300  0.66666600  0.08442939
Direct configuration=     6
   0.66789776 -0.00000000  0.10000000
   0.33210124 -0.00000000  0.10000000
   0.00000000  0.33210124  0.10000000
   0.00000000  0.66789776  0.10000000
   0.33210124  0.33210124  0.10000000
   0.66789776  0.66789776  0.10000000
   0.66666600  0.33333300  0.11449292
   0.33333300  0.66666600  0.08550708
Direct configuration=     7
   0.66790444 -0.00000000  0.10000000
   0.33209456  0.00000000  0.10000000
   0.00000000  0.33209456  0.10000000
   0.00000000  0.66790444  0.10000000
   0.33209456  0.33209456  0.10000000
   0.66790444  0.66790444  0.10000000
   0.66666600  0.33333300  0.11125985
   0.33333300  0.66666600  0.08874015
Direct configuration=     8
   0.66790658 -0.00000000  0.10000000
   0.33209242  0.00000000  0.10000000
   0.00000000  0.33209242  0.10000000
   0.00000000  0.66790658  0.10000000
   0.33209242  0.33209242  0.10000000
   0.66790658  0.66790658  0.10000000
   0.66666600  0.33333300  0.11022542
   0.33333300  0.66666600  0.08977458
Direct configuration=     9
   0.66790951 -0.00000000  0.10000000
   0.33208949  0.00000000  0.10000000
   0.00000000  0.33208949  0.10000000
   0.00000000  0.66790951  0.10000000
   0.33208949  0.33208949  0.10000000
   0.66790951  0.66790951  0.10000000
   0.66666600  0.33333300  0.10880658
   0.33333300  0.66666600  0.09119342
Direct configuration=    10
   0.66946256 -0.00000000  0.10000000
   0.33053644  0.00000000  0.10000000
   0.00000000  0.33053644  0.10000000
   0.00000000  0.66946256  0.10000000
   0.33053644  0.33053644  0.10000000
   0.66946256  0.66946256  0.10000000
   0.66666600  0.33333300  0.10753240
   0.33333300  0.66666600  0.09246760
Direct configuration=    11
   0.66842833 -0.00000000  0.10000000
   0.33157067  0.00000000  0.10000000
   0.00000000  0.33157067  0.10000000
   0.00000000  0.66842833  0.10000000
   0.33157067  0.33157067  0.10000000
   0.66842833  0.66842833  0.10000000
   0.66666600  0.33333300  0.10838092
   0.33333300  0.66666600  0.09161908
Direct configuration=    12
   0.66852812 -0.00000000  0.10000000
   0.33147088  0.00000000  0.10000000
   0.00000000  0.33147088  0.10000000
   0.00000000  0.66852812  0.10000000
   0.33147088  0.33147088  0.10000000
   0.66852812  0.66852812  0.10000000
   0.66666600  0.33333300  0.10789765
   0.33333300  0.66666600  0.09210235
Direct configuration=    13
   0.66882748 -0.00000000  0.10000000
   0.33117152  0.00000000  0.10000000
   0.00000000  0.33117152  0.10000000
   0.00000000  0.66882748  0.10000000
   0.33117152  0.33117152  0.10000000
   0.66882748  0.66882748  0.10000000
   0.66666600  0.33333300  0.10644781
   0.33333300  0.66666600  0.09355219
Direct configuration=    14
   0.66942622 -0.00000000  0.10000000
   0.33057278  0.00000000  0.10000000
   0.00000000  0.33057278  0.10000000
   0.00000000  0.66942622  0.10000000
   0.33057278  0.33057278  0.10000000
   0.66942622  0.66942622  0.10000000
   0.66666600  0.33333300  0.10354814
   0.33333300  0.66666600  0.09645186
Direct configuration=    15
   0.66897975 -0.00000000  0.10000000
   0.33101925  0.00000000  0.10000000
   0.00000000  0.33101925  0.10000000
   0.00000000  0.66897975  0.10000000
   0.33101925  0.33101925  0.10000000
   0.66897975  0.66897975  0.10000000
   0.66666600  0.33333300  0.10571040
   0.33333300  0.66666600  0.09428960
Direct configuration=    16
   0.66897210 -0.00000000  0.10000000
   0.33102690  0.00000000  0.10000000
   0.00000000  0.33102690  0.10000000
   0.00000000  0.66897210  0.10000000
   0.33102690  0.33102690  0.10000000
   0.66897210  0.66897210  0.10000000
   0.66666600  0.33333300  0.10562102
   0.33333300  0.66666600  0.09437898
Direct configuration=    17
   0.66894915 -0.00000000  0.10000000
   0.33104985  0.00000000  0.10000000
   0.00000000  0.33104985  0.10000000
   0.00000000  0.66894915  0.10000000
   0.33104985  0.33104985  0.10000000
   0.66894915  0.66894915  0.10000000
   0.66666600  0.33333300  0.10535287
   0.33333300  0.66666600  0.09464713
Direct configuration=    18
   0.66890326 -0.00000000  0.10000000
   0.33109574  0.00000000  0.10000000
   0.00000000  0.33109574  0.10000000
   0.00000000  0.66890326  0.10000000
   0.33109574  0.33109574  0.10000000
   0.66890326  0.66890326  0.10000000
   0.66666600  0.33333300  0.10481659
   0.33333300  0.66666600  0.09518341
Direct configuration=    19
   0.66881147 -0.00000000  0.10000000
   0.33118753  0.00000000  0.10000000
   0.00000000  0.33118753  0.10000000
   0.00000000  0.66881147  0.10000000
   0.33118753  0.33118753  0.10000000
   0.66881147  0.66881147  0.10000000
   0.66666600  0.33333300  0.10374401
   0.33333300  0.66666600  0.09625599
Direct configuration=    20
   0.66862789 -0.00000000  0.10000000
   0.33137111  0.00000000  0.10000000
   0.00000000  0.33137111  0.10000000
   0.00000000  0.66862789  0.10000000
   0.33137111  0.33137111  0.10000000
   0.66862789  0.66862789  0.10000000
   0.66666600  0.33333300  0.10159887
   0.33333300  0.66666600  0.09840113
Direct configuration=    21
   0.66866944 -0.00000000  0.10000000
   0.33132956  0.00000000  0.10000000
   0.00000000  0.33132956  0.10000000
   0.00000000  0.66866944  0.10000000
   0.33132956  0.33132956  0.10000000
   0.66866944  0.66866944  0.10000000
   0.66666600  0.33333300  0.10208436
   0.33333300  0.66666600  0.09791564
Direct configuration=    22
   0.66868214 -0.00000000  0.10000000
   0.33131686  0.00000000  0.10000000
   0.00000000  0.33131686  0.10000000
   0.00000000  0.66868214  0.10000000
   0.33131686  0.33131686  0.10000000
   0.66868214  0.66868214  0.10000000
   0.66666600  0.33333300  0.10223285
   0.33333300  0.66666600  0.09776715
Direct configuration=    23
   0.66870649 -0.00000000  0.10000000
   0.33129251  0.00000000  0.10000000
   0.00000000  0.33129251  0.10000000
   0.00000000  0.66870649  0.10000000
   0.33129251  0.33129251  0.10000000
   0.66870649  0.66870649  0.10000000
   0.66666600  0.33333300  0.10208496
   0.33333300  0.66666600  0.09791504
Direct configuration=    24
   0.66877954 -0.00000000  0.10000000
   0.33121946  0.00000000  0.10000000
   0.00000000  0.33121946  0.10000000
   0.00000000  0.66877954  0.10000000
   0.33121946  0.33121946  0.10000000
   0.66877954  0.66877954  0.10000000
   0.66666600  0.33333300  0.10164128
   0.33333300  0.66666600  0.09835872
Direct configuration=    25
   0.66878530 -0.00000000  0.10000000
   0.33121370  0.00000000  0.10000000
   0.00000000  0.33121370  0.10000000
   0.00000000  0.66878530  0.10000000
   0.33121370  0.33121370  0.10000000
   0.66878530  0.66878530  0.10000000
   0.66666600  0.33333300  0.10160634
   0.33333300  0.66666600  0.09839366
Direct configuration=    26
   0.66879680 -0.00000000  0.10000000
   0.33120220  0.00000000  0.10000000
   0.00000000  0.33120220  0.10000000
   0.00000000  0.66879680  0.10000000
   0.33120220  0.33120220  0.10000000
   0.66879680  0.66879680  0.10000000
   0.66666600  0.33333300  0.10153646
   0.33333300  0.66666600  0.09846354
Direct configuration=    27
   0.66881981 -0.00000000  0.10000000
   0.33117919  0.00000000  0.10000000
   0.00000000  0.33117919  0.10000000
   0.00000000  0.66881981  0.10000000
   0.33117919  0.33117919  0.10000000
   0.66881981  0.66881981  0.10000000
   0.66666600  0.33333300  0.10139669
   0.33333300  0.66666600  0.09860331
Direct configuration=    28
   0.66880463 -0.00000000  0.10000000
   0.33119437  0.00000000  0.10000000
   0.00000000  0.33119437  0.10000000
   0.00000000  0.66880463  0.10000000
   0.33119437  0.33119437  0.10000000
   0.66880463  0.66880463  0.10000000
   0.66666600  0.33333300  0.10148891
   0.33333300  0.66666600  0.09851109
Direct configuration=    29
   0.66880115 -0.00000000  0.10000000
   0.33119785  0.00000000  0.10000000
   0.00000000  0.33119785  0.10000000
   0.00000000  0.66880115  0.10000000
   0.33119785  0.33119785  0.10000000
   0.66880115  0.66880115  0.10000000
   0.66666600  0.33333300  0.10151006
   0.33333300  0.66666600  0.09848994
Direct configuration=    30
   0.66879884 -0.00000000  0.10000000
   0.33120016  0.00000000  0.10000000
   0.00000000  0.33120016  0.10000000
   0.00000000  0.66879884  0.10000000
   0.33120016  0.33120016  0.10000000
   0.66879884  0.66879884  0.10000000
   0.66666600  0.33333300  0.10152410
   0.33333300  0.66666600  0.09847590
Direct configuration=    31
   0.66879790 -0.00000000  0.10000000
   0.33120110  0.00000000  0.10000000
   0.00000000  0.33120110  0.10000000
   0.00000000  0.66879790  0.10000000
   0.33120110  0.33120110  0.10000000
   0.66879790  0.66879790  0.10000000
   0.66666600  0.33333300  0.10152982
   0.33333300  0.66666600  0.09847018
Direct configuration=    32
   0.66879735 -0.00000000  0.10000000
   0.33120165  0.00000000  0.10000000
   0.00000000  0.33120165  0.10000000
   0.00000000  0.66879735  0.10000000
   0.33120165  0.33120165  0.10000000
   0.66879735  0.66879735  0.10000000
   0.66666600  0.33333300  0.10153314
   0.33333300  0.66666600  0.09846686
Direct configuration=    33
   0.66879708 -0.00000000  0.10000000
   0.33120192  0.00000000  0.10000000
   0.00000000  0.33120192  0.10000000
   0.00000000  0.66879708  0.10000000
   0.33120192  0.33120192  0.10000000
   0.66879708  0.66879708  0.10000000
   0.66666600  0.33333300  0.10153480
   0.33333300  0.66666600  0.09846520
Direct configuration=    34
   0.66879694 -0.00000000  0.10000000
   0.33120206  0.00000000  0.10000000
   0.00000000  0.33120206  0.10000000
   0.00000000  0.66879694  0.10000000
   0.33120206  0.33120206  0.10000000
   0.66879694  0.66879694  0.10000000
   0.66666600  0.33333300  0.10153563
   0.33333300  0.66666600  0.09846437
Direct configuration=    35
   0.66879687 -0.00000000  0.10000000
   0.33120213  0.00000000  0.10000000
   0.00000000  0.33120213  0.10000000
   0.00000000  0.66879687  0.10000000
   0.33120213  0.33120213  0.10000000
   0.66879687  0.66879687  0.10000000
   0.66666600  0.33333300  0.10153604
   0.33333300  0.66666600  0.09846396
Direct configuration=    36
   0.66879684 -0.00000000  0.10000000
   0.33120216  0.00000000  0.10000000
   0.00000000  0.33120216  0.10000000
   0.00000000  0.66879684  0.10000000
   0.33120216  0.33120216  0.10000000
   0.66879684  0.66879684  0.10000000
   0.66666600  0.33333300  0.10153625
   0.33333300  0.66666600  0.09846375
Direct configuration=    37
   0.66879682 -0.00000000  0.10000000
   0.33120218  0.00000000  0.10000000
   0.00000000  0.33120218  0.10000000
   0.00000000  0.66879682  0.10000000
   0.33120218  0.33120218  0.10000000
   0.66879682  0.66879682  0.10000000
   0.66666600  0.33333300  0.10153635
   0.33333300  0.66666600  0.09846365
Direct configuration=    38
   0.66879681 -0.00000000  0.10000000
   0.33120219  0.00000000  0.10000000
   0.00000000  0.33120219  0.10000000
   0.00000000  0.66879681  0.10000000
   0.33120219  0.33120219  0.10000000
   0.66879681  0.66879681  0.10000000
   0.66666600  0.33333300  0.10153641
   0.33333300  0.66666600  0.09846359
Direct configuration=    39
   0.66879681 -0.00000000  0.10000000
   0.33120219  0.00000000  0.10000000
   0.00000000  0.33120219  0.10000000
   0.00000000  0.66879681  0.10000000
   0.33120219  0.33120219  0.10000000
   0.66879681  0.66879681  0.10000000
   0.66666600  0.33333300  0.10153643
   0.33333300  0.66666600  0.09846357
Direct configuration=    40
   0.66879680 -0.00000000  0.10000000
   0.33120220  0.00000000  0.10000000
   0.00000000  0.33120220  0.10000000
   0.00000000  0.66879680  0.10000000
   0.33120220  0.33120220  0.10000000
   0.66879680  0.66879680  0.10000000
   0.66666600  0.33333300  0.10153644
   0.33333300  0.66666600  0.09846356
