Lattice                                 
           1
     4.365634    2.520500    0.000000
    -4.365634    2.520500    0.000000
     0.000000    0.000000   15.000000
   B    C 
     2    14
Direct configuration=     1
   0.33833034  0.66916432  0.10000000
   0.67165522  0.33584146  0.10000000
   0.16373946  0.31999962  0.10000000
   0.32250218  0.16126397  0.10000000
   0.16376430  0.84376384  0.10000000
   0.84623863  0.16123684  0.10000000
   0.68749850  0.84373000  0.10000000
   0.84626736  0.68499594  0.10000000
   0.33333267  0.16666633  0.32553333
   0.49999967  0.99999933  0.32553333
   0.33333267  0.66666633  0.32553333
   0.49999967  0.49999933  0.32553333
   0.83333267  0.16666633  0.32553333
   0.99999967  0.99999933  0.32553333
   0.83333267  0.66666633  0.32553333
   0.99999967  0.49999933  0.32553333
Direct configuration=     2
   0.33834432  0.66917093  0.10017207
   0.67169313  0.33582100  0.09997919
   0.16705178  0.32662917  0.09994331
   0.32885913  0.16443864  0.10001560
   0.16708224  0.84044073  0.09994331
   0.84303279  0.16442523  0.10001515
   0.68086732  0.84043389  0.09994302
   0.84305767  0.67863254  0.10001513
   0.33337701  0.16668741  0.32554316
   0.50012656  0.00027076  0.32558600
   0.33332897  0.66666345  0.32532626
   0.50012656  0.49985697  0.32558599
   0.83331974  0.16669148  0.32553965
   0.00000493  0.00000304  0.32553176
   0.83331978  0.66662616  0.32553968
   0.99973339  0.49986727  0.32558738
Direct configuration=     3
   0.33833411  0.66916611  0.10004641
   0.67166544  0.33583594  0.09999439
   0.16463291  0.32178785  0.09998471
   0.32421688  0.16212029  0.10000421
   0.16465927  0.84286748  0.09998471
   0.84537391  0.16209686  0.10000409
   0.68570984  0.84284092  0.09998463
   0.84540159  0.68327951  0.10000408
   0.33334463  0.16667202  0.32553598
   0.50003390  0.00007255  0.32554754
   0.33333167  0.66666555  0.32547748
   0.50003390  0.49996093  0.32554754
   0.83332918  0.16667312  0.32553504
   0.00000109  0.00000033  0.32553291
   0.83332919  0.66665550  0.32553504
   0.99992784  0.49996371  0.32554791
Direct configuration=     4
   0.33833411  0.66916610  0.10004639
   0.67166544  0.33583594  0.09999439
   0.16463245  0.32178693  0.09998472
   0.32421600  0.16211985  0.10000421
   0.16465881  0.84286794  0.09998472
   0.84537435  0.16209642  0.10000408
   0.68571075  0.84284138  0.09998464
   0.84540203  0.68328039  0.10000408
   0.33334462  0.16667202  0.32553598
   0.50003388  0.00007251  0.32554753
   0.33333167  0.66666556  0.32547751
   0.50003388  0.49996095  0.32554753
   0.83332918  0.16667311  0.32553504
   0.00000109  0.00000033  0.32553291
   0.83332919  0.66665550  0.32553504
   0.99992788  0.49996373  0.32554790
Direct configuration=     5
   0.33833842  0.66916639  0.10015646
   0.67166868  0.33583241  0.09997817
   0.16463018  0.32178911  0.09995758
   0.32420587  0.16210901  0.10000635
   0.16464843  0.84285900  0.09995758
   0.84538968  0.16209435  0.10000600
   0.68570096  0.84284647  0.09995718
   0.84540596  0.68329525  0.10000600
   0.33335714  0.16667843  0.32554885
   0.50004482  0.00009362  0.32557444
   0.33333091  0.66666530  0.32534791
   0.50004483  0.49995055  0.32557444
   0.83332352  0.16668019  0.32554562
   0.00000324  0.00000129  0.32552883
   0.83332351  0.66664303  0.32554563
   0.99990917  0.49995426  0.32557564
Direct configuration=     6
   0.33833968  0.66916648  0.10018866
   0.67166963  0.33583137  0.09997342
   0.16462951  0.32178974  0.09994964
   0.32420291  0.16210584  0.10000697
   0.16464540  0.84285639  0.09994964
   0.84539416  0.16209374  0.10000655
   0.68569810  0.84284796  0.09994914
   0.84540711  0.68329960  0.10000656
   0.33336080  0.16668031  0.32555262
   0.50004803  0.00009980  0.32558232
   0.33333068  0.66666522  0.32530999
   0.50004803  0.49994750  0.32558232
   0.83332187  0.16668226  0.32554872
   0.00000387  0.00000158  0.32552763
   0.83332185  0.66663938  0.32554872
   0.99990369  0.49995149  0.32558375
Direct configuration=     7
   0.33831642  0.66916340  0.10024980
   0.67167214  0.33583867  0.09997792
   0.16465839  0.32177005  0.09996361
   0.32420858  0.16211301  0.09998055
   0.16465476  0.84287540  0.09996362
   0.84536330  0.16210181  0.09997978
   0.68574141  0.84285604  0.09996272
   0.84536380  0.68326880  0.09997979
   0.33333722  0.16666805  0.32557798
   0.50002488  0.00005254  0.32556318
   0.33333592  0.66666740  0.32526856
   0.50002485  0.49997257  0.32556318
   0.83333740  0.16666845  0.32557315
   0.00000070  0.00000046  0.32552520
   0.83333743  0.66666788  0.32557314
   0.99994813  0.49997416  0.32556448
Direct configuration=     8
   0.33832150  0.66916407  0.10023645
   0.67167159  0.33583708  0.09997694
   0.16465208  0.32177435  0.09996056
   0.32420734  0.16211145  0.09998632
   0.16465271  0.84287125  0.09996056
   0.84537005  0.16210004  0.09998563
   0.68573195  0.84285427  0.09995976
   0.84537326  0.68327553  0.09998563
   0.33334237  0.16667072  0.32557244
   0.50002994  0.00006286  0.32556736
   0.33333478  0.66666692  0.32527761
   0.50002992  0.49996709  0.32556736
   0.83333401  0.16667147  0.32556781
   0.00000139  0.00000070  0.32552573
   0.83333402  0.66666165  0.32556780
   0.99993842  0.49996921  0.32556869
