Lattice                                 
           1
     4.200223    2.425000    0.000000
    -4.200223    2.425000    0.000000
     0.000000    0.000000   15.000000
   B    C 
     4    11
Direct configuration=     1
   0.00415361  0.00267210  0.12034134
   0.35695335  0.00285503  0.09748893
   0.00423858  0.35550699  0.09749256
   0.65142295  0.65006557  0.09747688
   0.32808646  0.32671938  0.10030508
   0.68027775  0.00278085  0.10027562
   0.00416530  0.67883808  0.10026559
   0.16666600  0.33333300  0.33720000
   0.33333300  0.16666600  0.33720000
   0.16666600  0.83333300  0.33720000
   0.33333300  0.66666600  0.33720000
   0.66666600  0.33333300  0.33720000
   0.83333300  0.16666600  0.33720000
   0.66666600  0.83333300  0.33720000
   0.83333300  0.66666600  0.33720000
Direct configuration=     2
   0.00418443  0.00274961  0.11895040
   0.35586432  0.00280368  0.09785687
   0.00419566  0.35443082  0.09785973
   0.65248337  0.65109484  0.09785245
   0.32463729  0.32323473  0.10032187
   0.68374707  0.00280173  0.10030305
   0.00420249  0.68233388  0.10029674
   0.16659213  0.33342304  0.33726174
   0.33342347  0.16659486  0.33726279
   0.16682209  0.83339376  0.33726450
   0.33333492  0.66667220  0.33711409
   0.66667134  0.33333138  0.33711407
   0.83339108  0.16681971  0.33726437
   0.66657390  0.83317511  0.33726213
   0.83317045  0.66657466  0.33726120
Direct configuration=     3
   0.00416985  0.00271294  0.11960851
   0.35637959  0.00282797  0.09768278
   0.00421597  0.35494000  0.09768601
   0.65198164  0.65060785  0.09767475
   0.32626924  0.32488346  0.10031393
   0.68210559  0.00279185  0.10029007
   0.00418490  0.68067987  0.10028200
   0.16662708  0.33338044  0.33723253
   0.33338067  0.16662852  0.33723308
   0.16674824  0.83336501  0.33723398
   0.33333401  0.66666927  0.33715474
   0.66666881  0.33333215  0.33715473
   0.83336360  0.16674698  0.33723392
   0.66661747  0.83324981  0.33723274
   0.83324736  0.66661788  0.33723225
