  16  16   0   4
  0.2066447E+02  0.5045000E-09  0.5045000E-09  0.1500000E-08  0.5000000E-15
  1.000000000000000E-004
  CAR 
 Lattice                                 
      9.75776327    -21.29520749  301     -0.97461753      1.00000000
    -21.295  0.0000E+00  0.0000E+00  0.0000E+00  0.0000E+00
    -21.192  0.0000E+00  0.0000E+00  0.0000E+00  0.0000E+00
    -21.088  0.0000E+00  0.0000E+00  0.0000E+00  0.0000E+00
    -20.985  0.0000E+00  0.0000E+00  0.0000E+00  0.0000E+00
    -20.881  0.0000E+00  0.0000E+00  0.0000E+00  0.0000E+00
    -20.778  0.0000E+00  0.0000E+00  0.0000E+00  0.0000E+00
    -20.674  0.0000E+00  0.0000E+00  0.0000E+00  0.0000E+00
    -20.571  0.0000E+00  0.0000E+00  0.0000E+00  0.0000E+00
    -20.467  0.2910E-19  0.2910E-19  0.3012E-20  0.3012E-20
    -20.364  0.3326E-14  0.3326E-14  0.3442E-15  0.3442E-15
    -20.260  0.3315E-10  0.3315E-10  0.3432E-11  0.3432E-11
    -20.157  0.4556E-07  0.4556E-07  0.4719E-08  0.4719E-08
    -20.053  0.9331E-05  0.9331E-05  0.9706E-06  0.9706E-06
    -19.950  0.3142E-03  0.3142E-03  0.3349E-04  0.3349E-04
    -19.846  0.2129E-02  0.2129E-02  0.2538E-03  0.2538E-03
    -19.743  0.4407E-02  0.4407E-02  0.7100E-03  0.7100E-03
    -19.639  0.4908E-02  0.4908E-02  0.1218E-02  0.1218E-02
    -19.536  0.5168E-02  0.5168E-02  0.1753E-02  0.1753E-02
    -19.432  0.4652E-02  0.4652E-02  0.2235E-02  0.2235E-02
    -19.329  0.5675E-02  0.5675E-02  0.2822E-02  0.2822E-02
    -19.225  0.4274E-02  0.4274E-02  0.3264E-02  0.3264E-02
    -19.121  0.5271E-02  0.5271E-02  0.3810E-02  0.3810E-02
    -19.018  0.5898E-02  0.5898E-02  0.4421E-02  0.4421E-02
    -18.914  0.3662E-02  0.3662E-02  0.4800E-02  0.4800E-02
    -18.811  0.5340E-02  0.5340E-02  0.5352E-02  0.5352E-02
    -18.707  0.6356E-02  0.6356E-02  0.6010E-02  0.6010E-02
    -18.604  0.4419E-02  0.4419E-02  0.6468E-02  0.6468E-02
    -18.500  0.3412E-02  0.3412E-02  0.6821E-02  0.6821E-02
    -18.397  0.6770E-02  0.6770E-02  0.7521E-02  0.7521E-02
    -18.293  0.5984E-02  0.5984E-02  0.8141E-02  0.8141E-02
    -18.190  0.4238E-02  0.4238E-02  0.8579E-02  0.8579E-02
    -18.086  0.3525E-02  0.3525E-02  0.8944E-02  0.8944E-02
    -17.983  0.7868E-02  0.7868E-02  0.9759E-02  0.9759E-02
    -17.879  0.1281E-01  0.1281E-01  0.1108E-01  0.1108E-01
    -17.776  0.1151E-01  0.1151E-01  0.1228E-01  0.1228E-01
    -17.672  0.1139E-01  0.1139E-01  0.1345E-01  0.1345E-01
    -17.569  0.1337E-01  0.1337E-01  0.1484E-01  0.1484E-01
    -17.465  0.1757E-01  0.1757E-01  0.1666E-01  0.1666E-01
    -17.362  0.2171E-01  0.2171E-01  0.1890E-01  0.1890E-01
    -17.258  0.1835E-01  0.1835E-01  0.2080E-01  0.2080E-01
    -17.155  0.7185E-02  0.7185E-02  0.2155E-01  0.2155E-01
    -17.051  0.4645E-02  0.4645E-02  0.2203E-01  0.2203E-01
    -16.948  0.7255E-02  0.7255E-02  0.2278E-01  0.2278E-01
    -16.844  0.6757E-02  0.6757E-02  0.2348E-01  0.2348E-01
    -16.741  0.5526E-02  0.5526E-02  0.2405E-01  0.2405E-01
    -16.637  0.4581E-02  0.4581E-02  0.2452E-01  0.2452E-01
    -16.534  0.2696E-02  0.2696E-02  0.2480E-01  0.2480E-01
    -16.430  0.4436E-02  0.4436E-02  0.2526E-01  0.2526E-01
    -16.327  0.9285E-02  0.9285E-02  0.2622E-01  0.2622E-01
    -16.223  0.6267E-02  0.6267E-02  0.2687E-01  0.2687E-01
    -16.120  0.4787E-02  0.4787E-02  0.2737E-01  0.2737E-01
    -16.016  0.4311E-02  0.4311E-02  0.2781E-01  0.2781E-01
    -15.913  0.4179E-02  0.4179E-02  0.2825E-01  0.2825E-01
    -15.809  0.3851E-02  0.3851E-02  0.2865E-01  0.2865E-01
    -15.706  0.9486E-02  0.9486E-02  0.2963E-01  0.2963E-01
    -15.602  0.1375E-01  0.1375E-01  0.3105E-01  0.3105E-01
    -15.499  0.1436E-01  0.1436E-01  0.3254E-01  0.3254E-01
    -15.395  0.1640E-01  0.1640E-01  0.3424E-01  0.3424E-01
    -15.292  0.1388E-01  0.1388E-01  0.3567E-01  0.3567E-01
    -15.188  0.1199E-01  0.1199E-01  0.3691E-01  0.3691E-01
    -15.085  0.1438E-01  0.1438E-01  0.3840E-01  0.3840E-01
    -14.981  0.1861E-01  0.1861E-01  0.4033E-01  0.4033E-01
    -14.878  0.1514E-01  0.1514E-01  0.4190E-01  0.4190E-01
    -14.774  0.1337E-01  0.1337E-01  0.4328E-01  0.4328E-01
    -14.671  0.9869E-02  0.9869E-02  0.4430E-01  0.4430E-01
    -14.567  0.1055E-01  0.1055E-01  0.4539E-01  0.4539E-01
    -14.464  0.1632E-01  0.1632E-01  0.4708E-01  0.4708E-01
    -14.360  0.2068E-01  0.2068E-01  0.4922E-01  0.4922E-01
    -14.257  0.1400E-01  0.1400E-01  0.5067E-01  0.5067E-01
    -14.153  0.9128E-02  0.9128E-02  0.5162E-01  0.5162E-01
    -14.050  0.7461E-02  0.7461E-02  0.5239E-01  0.5239E-01
    -13.946  0.8182E-02  0.8182E-02  0.5324E-01  0.5324E-01
    -13.842  0.7583E-02  0.7583E-02  0.5402E-01  0.5402E-01
    -13.739  0.5190E-02  0.5190E-02  0.5456E-01  0.5456E-01
    -13.635  0.3154E-02  0.3154E-02  0.5488E-01  0.5488E-01
    -13.532  0.4671E-02  0.4671E-02  0.5537E-01  0.5537E-01
    -13.428  0.4485E-02  0.4485E-02  0.5583E-01  0.5583E-01
    -13.325  0.6180E-02  0.6180E-02  0.5647E-01  0.5647E-01
    -13.221  0.5885E-02  0.5885E-02  0.5708E-01  0.5708E-01
    -13.118  0.6433E-02  0.6433E-02  0.5775E-01  0.5775E-01
    -13.014  0.8133E-02  0.8133E-02  0.5859E-01  0.5859E-01
    -12.911  0.7536E-02  0.7536E-02  0.5937E-01  0.5937E-01
    -12.807  0.8368E-02  0.8368E-02  0.6023E-01  0.6023E-01
    -12.704  0.5899E-02  0.5899E-02  0.6085E-01  0.6085E-01
    -12.600  0.6876E-02  0.6876E-02  0.6156E-01  0.6156E-01
    -12.497  0.5120E-02  0.5120E-02  0.6209E-01  0.6209E-01
    -12.393  0.4227E-02  0.4227E-02  0.6252E-01  0.6252E-01
    -12.290  0.8641E-02  0.8641E-02  0.6342E-01  0.6342E-01
    -12.186  0.6928E-02  0.6928E-02  0.6414E-01  0.6414E-01
    -12.083  0.7050E-02  0.7050E-02  0.6487E-01  0.6487E-01
    -11.979  0.1240E-01  0.1240E-01  0.6615E-01  0.6615E-01
    -11.876  0.1637E-01  0.1637E-01  0.6784E-01  0.6784E-01
    -11.772  0.1503E-01  0.1503E-01  0.6940E-01  0.6940E-01
    -11.669  0.1472E-01  0.1472E-01  0.7092E-01  0.7092E-01
    -11.565  0.1649E-01  0.1649E-01  0.7263E-01  0.7263E-01
    -11.462  0.1499E-01  0.1499E-01  0.7418E-01  0.7418E-01
    -11.358  0.8032E-02  0.8032E-02  0.7501E-01  0.7501E-01
    -11.255  0.9512E-02  0.9512E-02  0.7600E-01  0.7600E-01
    -11.151  0.1185E-01  0.1185E-01  0.7723E-01  0.7723E-01
    -11.048  0.1177E-01  0.1177E-01  0.7844E-01  0.7844E-01
    -10.944  0.5820E-02  0.5820E-02  0.7905E-01  0.7905E-01
    -10.841  0.5880E-02  0.5880E-02  0.7965E-01  0.7965E-01
    -10.737  0.1530E-01  0.1530E-01  0.8124E-01  0.8124E-01
    -10.634  0.1821E-01  0.1821E-01  0.8312E-01  0.8312E-01
    -10.530  0.8319E-02  0.8319E-02  0.8398E-01  0.8398E-01
    -10.427  0.6236E-02  0.6236E-02  0.8463E-01  0.8463E-01
    -10.323  0.1182E-01  0.1182E-01  0.8585E-01  0.8585E-01
    -10.220  0.1940E-01  0.1940E-01  0.8786E-01  0.8786E-01
    -10.116  0.1560E-01  0.1560E-01  0.8948E-01  0.8948E-01
    -10.013  0.8548E-02  0.8548E-02  0.9036E-01  0.9036E-01
     -9.909  0.8786E-02  0.8786E-02  0.9127E-01  0.9127E-01
     -9.806  0.1026E-01  0.1026E-01  0.9233E-01  0.9233E-01
     -9.702  0.1141E-01  0.1141E-01  0.9351E-01  0.9351E-01
     -9.599  0.8796E-02  0.8796E-02  0.9442E-01  0.9442E-01
     -9.495  0.1048E-01  0.1048E-01  0.9551E-01  0.9551E-01
     -9.392  0.9893E-02  0.9893E-02  0.9653E-01  0.9653E-01
     -9.288  0.9824E-02  0.9824E-02  0.9755E-01  0.9755E-01
     -9.185  0.8975E-02  0.8975E-02  0.9848E-01  0.9848E-01
     -9.081  0.3088E-02  0.3088E-02  0.9880E-01  0.9880E-01
     -8.978  0.5242E-02  0.5242E-02  0.9934E-01  0.9934E-01
     -8.874  0.1334E-01  0.1334E-01  0.1007E+00  0.1007E+00
     -8.771  0.1906E-01  0.1906E-01  0.1027E+00  0.1027E+00
     -8.667  0.1598E-01  0.1598E-01  0.1043E+00  0.1043E+00
     -8.563  0.8636E-02  0.8636E-02  0.1052E+00  0.1052E+00
     -8.460  0.8495E-02  0.8495E-02  0.1061E+00  0.1061E+00
     -8.356  0.1039E-01  0.1039E-01  0.1072E+00  0.1072E+00
     -8.253  0.1854E-01  0.1854E-01  0.1091E+00  0.1091E+00
     -8.149  0.2326E-01  0.2326E-01  0.1115E+00  0.1115E+00
     -8.046  0.2278E-01  0.2278E-01  0.1139E+00  0.1139E+00
     -7.942  0.1565E-01  0.1565E-01  0.1155E+00  0.1155E+00
     -7.839  0.1355E-01  0.1355E-01  0.1169E+00  0.1169E+00
     -7.735  0.1454E-01  0.1454E-01  0.1184E+00  0.1184E+00
     -7.632  0.2562E-01  0.2562E-01  0.1211E+00  0.1211E+00
     -7.528  0.2789E-01  0.2789E-01  0.1239E+00  0.1239E+00
     -7.425  0.2107E-01  0.2107E-01  0.1261E+00  0.1261E+00
     -7.321  0.2074E-01  0.2074E-01  0.1283E+00  0.1283E+00
     -7.218  0.2411E-01  0.2411E-01  0.1308E+00  0.1308E+00
     -7.114  0.2446E-01  0.2446E-01  0.1333E+00  0.1333E+00
     -7.011  0.2643E-01  0.2643E-01  0.1360E+00  0.1360E+00
     -6.907  0.2214E-01  0.2214E-01  0.1383E+00  0.1383E+00
     -6.804  0.2043E-01  0.2043E-01  0.1404E+00  0.1404E+00
     -6.700  0.2791E-01  0.2791E-01  0.1433E+00  0.1433E+00
     -6.597  0.2276E-01  0.2276E-01  0.1457E+00  0.1457E+00
     -6.493  0.2186E-01  0.2186E-01  0.1480E+00  0.1480E+00
     -6.390  0.2524E-01  0.2524E-01  0.1506E+00  0.1506E+00
     -6.286  0.2427E-01  0.2427E-01  0.1531E+00  0.1531E+00
     -6.183  0.2268E-01  0.2268E-01  0.1554E+00  0.1554E+00
     -6.079  0.1781E-01  0.1781E-01  0.1573E+00  0.1573E+00
     -5.976  0.1714E-01  0.1714E-01  0.1590E+00  0.1590E+00
     -5.872  0.2175E-01  0.2175E-01  0.1613E+00  0.1613E+00
     -5.769  0.2652E-01  0.2652E-01  0.1640E+00  0.1640E+00
     -5.665  0.2021E-01  0.2021E-01  0.1661E+00  0.1661E+00
     -5.562  0.1993E-01  0.1993E-01  0.1682E+00  0.1682E+00
     -5.458  0.2242E-01  0.2242E-01  0.1705E+00  0.1705E+00
     -5.355  0.2792E-01  0.2792E-01  0.1734E+00  0.1734E+00
     -5.251  0.2657E-01  0.2657E-01  0.1762E+00  0.1762E+00
     -5.148  0.1518E-01  0.1518E-01  0.1777E+00  0.1777E+00
     -5.044  0.1198E-01  0.1198E-01  0.1790E+00  0.1790E+00
     -4.941  0.1786E-01  0.1786E-01  0.1808E+00  0.1808E+00
     -4.837  0.1901E-01  0.1901E-01  0.1828E+00  0.1828E+00
     -4.734  0.1725E-01  0.1725E-01  0.1846E+00  0.1846E+00
     -4.630  0.1603E-01  0.1603E-01  0.1862E+00  0.1862E+00
     -4.527  0.1664E-01  0.1664E-01  0.1879E+00  0.1879E+00
     -4.423  0.1923E-01  0.1923E-01  0.1899E+00  0.1899E+00
     -4.320  0.2034E-01  0.2034E-01  0.1920E+00  0.1920E+00
     -4.216  0.2678E-01  0.2678E-01  0.1948E+00  0.1948E+00
     -4.113  0.4099E-01  0.4099E-01  0.1991E+00  0.1991E+00
     -4.009  0.3641E-01  0.3641E-01  0.2028E+00  0.2028E+00
     -3.906  0.2614E-01  0.2614E-01  0.2055E+00  0.2055E+00
     -3.802  0.1761E-01  0.1761E-01  0.2074E+00  0.2074E+00
     -3.699  0.1341E-01  0.1341E-01  0.2087E+00  0.2087E+00
     -3.595  0.1462E-01  0.1462E-01  0.2103E+00  0.2103E+00
     -3.492  0.1787E-01  0.1787E-01  0.2121E+00  0.2121E+00
     -3.388  0.2223E-01  0.2223E-01  0.2144E+00  0.2144E+00
     -3.284  0.1582E-01  0.1582E-01  0.2160E+00  0.2160E+00
     -3.181  0.1441E-01  0.1441E-01  0.2175E+00  0.2175E+00
     -3.077  0.1632E-01  0.1632E-01  0.2192E+00  0.2192E+00
     -2.974  0.2026E-01  0.2026E-01  0.2213E+00  0.2213E+00
     -2.870  0.2575E-01  0.2575E-01  0.2240E+00  0.2240E+00
     -2.767  0.1595E-01  0.1595E-01  0.2256E+00  0.2256E+00
     -2.663  0.1372E-01  0.1372E-01  0.2271E+00  0.2271E+00
     -2.560  0.2145E-01  0.2145E-01  0.2293E+00  0.2293E+00
     -2.456  0.2116E-01  0.2116E-01  0.2315E+00  0.2315E+00
     -2.353  0.1893E-01  0.1893E-01  0.2334E+00  0.2334E+00
     -2.249  0.2212E-01  0.2212E-01  0.2357E+00  0.2357E+00
     -2.146  0.1725E-01  0.1725E-01  0.2375E+00  0.2375E+00
     -2.042  0.5397E-02  0.5397E-02  0.2381E+00  0.2381E+00
     -1.939  0.3985E-02  0.3985E-02  0.2385E+00  0.2385E+00
     -1.835  0.8194E-02  0.8194E-02  0.2393E+00  0.2393E+00
     -1.732  0.5618E-02  0.5618E-02  0.2399E+00  0.2399E+00
     -1.628  0.4561E-02  0.4561E-02  0.2404E+00  0.2404E+00
     -1.525  0.7562E-02  0.7562E-02  0.2412E+00  0.2412E+00
     -1.421  0.5580E-02  0.5580E-02  0.2417E+00  0.2417E+00
     -1.318  0.2613E-02  0.2613E-02  0.2420E+00  0.2420E+00
     -1.214  0.6316E-03  0.6316E-03  0.2421E+00  0.2421E+00
     -1.111  0.6710E-04  0.6710E-04  0.2421E+00  0.2421E+00
     -1.007  0.4996E-03  0.4996E-03  0.2421E+00  0.2421E+00
     -0.904  0.2604E-02  0.2604E-02  0.2424E+00  0.2424E+00
     -0.800  0.3916E-02  0.3916E-02  0.2428E+00  0.2428E+00
     -0.697  0.4917E-02  0.4917E-02  0.2433E+00  0.2433E+00
     -0.593  0.1017E-01  0.1017E-01  0.2444E+00  0.2444E+00
     -0.490  0.1043E-01  0.1043E-01  0.2454E+00  0.2454E+00
     -0.386  0.9929E-02  0.9929E-02  0.2465E+00  0.2465E+00
     -0.283  0.1268E-01  0.1268E-01  0.2478E+00  0.2478E+00
     -0.179  0.1141E-01  0.1141E-01  0.2490E+00  0.2490E+00
     -0.076  0.6501E-02  0.6501E-02  0.2496E+00  0.2496E+00
      0.028  0.2567E-02  0.2567E-02  0.2499E+00  0.2499E+00
      0.131  0.8093E-03  0.8093E-03  0.2500E+00  0.2500E+00
      0.235  0.1153E-02  0.1153E-02  0.2501E+00  0.2501E+00
      0.338  0.5819E-02  0.5819E-02  0.2507E+00  0.2507E+00
      0.442  0.1019E-01  0.1019E-01  0.2518E+00  0.2518E+00
      0.545  0.7724E-02  0.7724E-02  0.2526E+00  0.2526E+00
      0.649  0.3456E-02  0.3456E-02  0.2529E+00  0.2529E+00
      0.752  0.6071E-02  0.6071E-02  0.2536E+00  0.2536E+00
      0.856  0.1229E-01  0.1229E-01  0.2548E+00  0.2548E+00
      0.959  0.1336E-01  0.1336E-01  0.2562E+00  0.2562E+00
      1.063  0.1135E-01  0.1135E-01  0.2574E+00  0.2574E+00
      1.166  0.5320E-02  0.5320E-02  0.2579E+00  0.2579E+00
      1.270  0.4699E-02  0.4699E-02  0.2584E+00  0.2584E+00
      1.373  0.5482E-02  0.5482E-02  0.2590E+00  0.2590E+00
      1.477  0.5175E-02  0.5175E-02  0.2595E+00  0.2595E+00
      1.580  0.6589E-02  0.6589E-02  0.2602E+00  0.2602E+00
      1.684  0.1065E-01  0.1065E-01  0.2613E+00  0.2613E+00
      1.788  0.9605E-02  0.9605E-02  0.2623E+00  0.2623E+00
      1.891  0.3808E-02  0.3808E-02  0.2627E+00  0.2627E+00
      1.995  0.2556E-02  0.2556E-02  0.2630E+00  0.2630E+00
      2.098  0.8007E-02  0.8007E-02  0.2638E+00  0.2638E+00
      2.202  0.1636E-01  0.1636E-01  0.2655E+00  0.2655E+00
      2.305  0.1434E-01  0.1434E-01  0.2670E+00  0.2670E+00
      2.409  0.1131E-01  0.1131E-01  0.2681E+00  0.2681E+00
      2.512  0.1171E-01  0.1171E-01  0.2694E+00  0.2694E+00
      2.616  0.1194E-01  0.1194E-01  0.2706E+00  0.2706E+00
      2.719  0.1114E-01  0.1114E-01  0.2717E+00  0.2717E+00
      2.823  0.7397E-02  0.7397E-02  0.2725E+00  0.2725E+00
      2.926  0.7323E-02  0.7322E-02  0.2733E+00  0.2733E+00
      3.030  0.1284E-01  0.1283E-01  0.2746E+00  0.2746E+00
      3.133  0.1332E-01  0.1332E-01  0.2760E+00  0.2760E+00
      3.237  0.1358E-01  0.1358E-01  0.2774E+00  0.2774E+00
      3.340  0.1223E-01  0.1223E-01  0.2786E+00  0.2786E+00
      3.444  0.7719E-02  0.7720E-02  0.2794E+00  0.2794E+00
      3.547  0.1042E-01  0.1042E-01  0.2805E+00  0.2805E+00
      3.651  0.1294E-01  0.1294E-01  0.2819E+00  0.2819E+00
      3.754  0.1003E-01  0.1003E-01  0.2829E+00  0.2829E+00
      3.858  0.1114E-01  0.1115E-01  0.2840E+00  0.2840E+00
      3.961  0.1808E-01  0.1808E-01  0.2859E+00  0.2859E+00
      4.065  0.1686E-01  0.1686E-01  0.2877E+00  0.2877E+00
      4.168  0.1235E-01  0.1235E-01  0.2889E+00  0.2889E+00
      4.272  0.1573E-01  0.1573E-01  0.2906E+00  0.2906E+00
      4.375  0.1713E-01  0.1713E-01  0.2923E+00  0.2923E+00
      4.479  0.1331E-01  0.1331E-01  0.2937E+00  0.2937E+00
      4.582  0.1400E-01  0.1400E-01  0.2952E+00  0.2952E+00
      4.686  0.1269E-01  0.1268E-01  0.2965E+00  0.2965E+00
      4.789  0.1548E-01  0.1546E-01  0.2981E+00  0.2981E+00
      4.893  0.1785E-01  0.1784E-01  0.2999E+00  0.2999E+00
      4.996  0.2042E-01  0.2043E-01  0.3020E+00  0.3020E+00
      5.100  0.1765E-01  0.1763E-01  0.3039E+00  0.3039E+00
      5.203  0.1631E-01  0.1633E-01  0.3056E+00  0.3056E+00
      5.307  0.1443E-01  0.1443E-01  0.3071E+00  0.3071E+00
      5.410  0.1785E-01  0.1783E-01  0.3089E+00  0.3089E+00
      5.514  0.1994E-01  0.1996E-01  0.3110E+00  0.3110E+00
      5.617  0.1558E-01  0.1559E-01  0.3126E+00  0.3126E+00
      5.721  0.1417E-01  0.1414E-01  0.3140E+00  0.3140E+00
      5.824  0.1850E-01  0.1850E-01  0.3160E+00  0.3160E+00
      5.928  0.2389E-01  0.2392E-01  0.3184E+00  0.3184E+00
      6.031  0.2487E-01  0.2487E-01  0.3210E+00  0.3210E+00
      6.135  0.2769E-01  0.2767E-01  0.3239E+00  0.3239E+00
      6.238  0.2657E-01  0.2656E-01  0.3266E+00  0.3266E+00
      6.342  0.2532E-01  0.2533E-01  0.3292E+00  0.3292E+00
      6.445  0.2142E-01  0.2144E-01  0.3315E+00  0.3315E+00
      6.549  0.1725E-01  0.1725E-01  0.3333E+00  0.3332E+00
      6.652  0.2574E-01  0.2570E-01  0.3359E+00  0.3359E+00
      6.756  0.3378E-01  0.3378E-01  0.3394E+00  0.3394E+00
      6.859  0.2940E-01  0.2943E-01  0.3425E+00  0.3425E+00
      6.963  0.2927E-01  0.2926E-01  0.3455E+00  0.3455E+00
      7.067  0.3420E-01  0.3420E-01  0.3490E+00  0.3490E+00
      7.170  0.3070E-01  0.3069E-01  0.3522E+00  0.3522E+00
      7.274  0.2761E-01  0.2757E-01  0.3551E+00  0.3550E+00
      7.377  0.3871E-01  0.3873E-01  0.3591E+00  0.3591E+00
      7.481  0.3441E-01  0.3442E-01  0.3626E+00  0.3626E+00
      7.584  0.2453E-01  0.2456E-01  0.3652E+00  0.3652E+00
      7.688  0.2554E-01  0.2553E-01  0.3678E+00  0.3678E+00
      7.791  0.2638E-01  0.2637E-01  0.3705E+00  0.3705E+00
      7.895  0.1887E-01  0.1890E-01  0.3725E+00  0.3725E+00
      7.998  0.1248E-01  0.1247E-01  0.3738E+00  0.3738E+00
      8.102  0.6212E-02  0.6214E-02  0.3744E+00  0.3744E+00
      8.205  0.2034E-02  0.2045E-02  0.3746E+00  0.3746E+00
      8.309  0.1272E-02  0.1268E-02  0.3748E+00  0.3748E+00
      8.412  0.1677E-02  0.1679E-02  0.3749E+00  0.3749E+00
      8.516  0.5205E-03  0.5256E-03  0.3750E+00  0.3750E+00
      8.619  0.2532E-04  0.2581E-04  0.3750E+00  0.3750E+00
      8.723  0.1725E-06  0.1774E-06  0.3750E+00  0.3750E+00
      8.826  0.1529E-09  0.1589E-09  0.3750E+00  0.3750E+00
      8.930  0.1696E-13  0.1780E-13  0.3750E+00  0.3750E+00
      9.033  0.0000E+00  0.0000E+00  0.3750E+00  0.3750E+00
      9.137  0.0000E+00  0.0000E+00  0.3750E+00  0.3750E+00
      9.240  0.0000E+00  0.0000E+00  0.3750E+00  0.3750E+00
      9.344  0.0000E+00  0.0000E+00  0.3750E+00  0.3750E+00
      9.447  0.0000E+00  0.0000E+00  0.3750E+00  0.3750E+00
      9.551  0.0000E+00  0.0000E+00  0.3750E+00  0.3750E+00
      9.654  0.0000E+00  0.0000E+00  0.3750E+00  0.3750E+00
      9.758  0.0000E+00  0.0000E+00  0.3750E+00  0.3750E+00
