  15  15   0  16
  0.1978729E+02  0.4780000E-09  0.4780000E-09  0.1500000E-08  0.5000000E-15
  1.000000000000000E-004
  CAR 
 Lattice                                 
     10.62806784    -21.92834333  301     -0.19363864      1.00000000
    -21.928  0.0000E+00  0.0000E+00  0.0000E+00  0.0000E+00
    -21.820  0.0000E+00  0.0000E+00  0.0000E+00  0.0000E+00
    -21.711  0.0000E+00  0.0000E+00  0.0000E+00  0.0000E+00
    -21.603  0.0000E+00  0.0000E+00  0.0000E+00  0.0000E+00
    -21.494  0.0000E+00  0.0000E+00  0.0000E+00  0.0000E+00
    -21.386  0.0000E+00  0.0000E+00  0.0000E+00  0.0000E+00
    -21.277  0.0000E+00  0.0000E+00  0.0000E+00  0.0000E+00
    -21.169  0.0000E+00  0.0000E+00  0.0000E+00  0.0000E+00
    -21.060  0.0000E+00  0.0000E+00  0.0000E+00  0.0000E+00
    -20.952  0.2950E-15  0.2950E-15  0.3201E-16  0.3201E-16
    -20.843  0.6863E-11  0.6863E-11  0.7448E-12  0.7448E-12
    -20.735  0.1777E-07  0.1777E-07  0.1930E-08  0.1930E-08
    -20.626  0.5680E-05  0.5680E-05  0.6183E-06  0.6183E-06
    -20.518  0.2525E-03  0.2525E-03  0.2802E-04  0.2802E-04
    -20.409  0.1920E-02  0.1920E-02  0.2364E-03  0.2364E-03
    -20.301  0.4070E-02  0.4070E-02  0.6781E-03  0.6781E-03
    -20.192  0.4396E-02  0.4396E-02  0.1155E-02  0.1155E-02
    -20.083  0.4851E-02  0.4851E-02  0.1682E-02  0.1682E-02
    -19.975  0.4013E-02  0.4013E-02  0.2117E-02  0.2117E-02
    -19.866  0.5266E-02  0.5266E-02  0.2689E-02  0.2689E-02
    -19.758  0.4178E-02  0.4178E-02  0.3142E-02  0.3142E-02
    -19.649  0.4015E-02  0.4015E-02  0.3578E-02  0.3578E-02
    -19.541  0.5925E-02  0.5925E-02  0.4221E-02  0.4221E-02
    -19.432  0.3863E-02  0.3863E-02  0.4640E-02  0.4640E-02
    -19.324  0.3572E-02  0.3572E-02  0.5028E-02  0.5028E-02
    -19.215  0.5945E-02  0.5945E-02  0.5673E-02  0.5673E-02
    -19.107  0.5251E-02  0.5251E-02  0.6243E-02  0.6243E-02
    -18.998  0.3038E-02  0.3038E-02  0.6572E-02  0.6572E-02
    -18.890  0.3810E-02  0.3810E-02  0.6986E-02  0.6986E-02
    -18.781  0.6842E-02  0.6842E-02  0.7728E-02  0.7728E-02
    -18.673  0.4700E-02  0.4700E-02  0.8238E-02  0.8238E-02
    -18.564  0.3797E-02  0.3797E-02  0.8651E-02  0.8651E-02
    -18.456  0.2753E-02  0.2753E-02  0.8949E-02  0.8949E-02
    -18.347  0.5920E-02  0.5920E-02  0.9592E-02  0.9592E-02
    -18.239  0.6874E-02  0.6874E-02  0.1034E-01  0.1034E-01
    -18.130  0.3865E-02  0.3865E-02  0.1076E-01  0.1076E-01
    -18.022  0.2942E-02  0.2942E-02  0.1108E-01  0.1108E-01
    -17.913  0.3917E-02  0.3917E-02  0.1150E-01  0.1150E-01
    -17.805  0.5510E-02  0.5510E-02  0.1210E-01  0.1210E-01
    -17.696  0.6900E-02  0.6900E-02  0.1285E-01  0.1285E-01
    -17.587  0.5048E-02  0.5048E-02  0.1340E-01  0.1340E-01
    -17.479  0.4142E-02  0.4142E-02  0.1385E-01  0.1385E-01
    -17.370  0.7179E-02  0.7179E-02  0.1462E-01  0.1462E-01
    -17.262  0.1304E-01  0.1304E-01  0.1604E-01  0.1604E-01
    -17.153  0.1454E-01  0.1454E-01  0.1762E-01  0.1762E-01
    -17.045  0.1458E-01  0.1458E-01  0.1920E-01  0.1920E-01
    -16.936  0.1654E-01  0.1654E-01  0.2100E-01  0.2100E-01
    -16.828  0.2034E-01  0.2034E-01  0.2320E-01  0.2320E-01
    -16.719  0.1286E-01  0.1286E-01  0.2460E-01  0.2460E-01
    -16.611  0.7040E-02  0.7040E-02  0.2536E-01  0.2536E-01
    -16.502  0.9016E-02  0.9016E-02  0.2634E-01  0.2634E-01
    -16.394  0.5022E-02  0.5022E-02  0.2689E-01  0.2689E-01
    -16.285  0.4196E-02  0.4196E-02  0.2734E-01  0.2734E-01
    -16.177  0.3601E-02  0.3601E-02  0.2773E-01  0.2773E-01
    -16.068  0.4059E-02  0.4059E-02  0.2817E-01  0.2817E-01
    -15.960  0.3017E-02  0.3017E-02  0.2850E-01  0.2850E-01
    -15.851  0.6063E-02  0.6063E-02  0.2916E-01  0.2916E-01
    -15.743  0.8838E-02  0.8838E-02  0.3012E-01  0.3012E-01
    -15.634  0.5107E-02  0.5107E-02  0.3067E-01  0.3067E-01
    -15.526  0.3583E-02  0.3583E-02  0.3106E-01  0.3106E-01
    -15.417  0.3255E-02  0.3255E-02  0.3141E-01  0.3141E-01
    -15.309  0.3651E-02  0.3651E-02  0.3181E-01  0.3181E-01
    -15.200  0.5321E-02  0.5321E-02  0.3239E-01  0.3239E-01
    -15.091  0.6923E-02  0.6923E-02  0.3314E-01  0.3314E-01
    -14.983  0.1003E-01  0.1003E-01  0.3423E-01  0.3423E-01
    -14.874  0.1546E-01  0.1546E-01  0.3590E-01  0.3590E-01
    -14.766  0.1664E-01  0.1664E-01  0.3771E-01  0.3771E-01
    -14.657  0.1667E-01  0.1667E-01  0.3952E-01  0.3952E-01
    -14.549  0.1054E-01  0.1054E-01  0.4066E-01  0.4066E-01
    -14.440  0.8155E-02  0.8155E-02  0.4155E-01  0.4155E-01
    -14.332  0.1587E-01  0.1587E-01  0.4327E-01  0.4327E-01
    -14.223  0.1359E-01  0.1359E-01  0.4474E-01  0.4474E-01
    -14.115  0.9231E-02  0.9231E-02  0.4574E-01  0.4574E-01
    -14.006  0.1120E-01  0.1120E-01  0.4696E-01  0.4696E-01
    -13.898  0.1221E-01  0.1221E-01  0.4829E-01  0.4829E-01
    -13.789  0.1945E-01  0.1945E-01  0.5040E-01  0.5040E-01
    -13.681  0.2170E-01  0.2170E-01  0.5275E-01  0.5275E-01
    -13.572  0.1800E-01  0.1800E-01  0.5470E-01  0.5470E-01
    -13.464  0.1373E-01  0.1373E-01  0.5619E-01  0.5619E-01
    -13.355  0.5269E-02  0.5269E-02  0.5677E-01  0.5677E-01
    -13.247  0.3718E-02  0.3718E-02  0.5717E-01  0.5717E-01
    -13.138  0.5760E-02  0.5760E-02  0.5779E-01  0.5779E-01
    -13.030  0.6911E-02  0.6911E-02  0.5854E-01  0.5854E-01
    -12.921  0.5093E-02  0.5093E-02  0.5910E-01  0.5910E-01
    -12.813  0.5596E-02  0.5596E-02  0.5970E-01  0.5970E-01
    -12.704  0.5917E-02  0.5917E-02  0.6035E-01  0.6035E-01
    -12.596  0.6444E-02  0.6444E-02  0.6105E-01  0.6105E-01
    -12.487  0.5414E-02  0.5414E-02  0.6163E-01  0.6163E-01
    -12.378  0.4107E-02  0.4107E-02  0.6208E-01  0.6208E-01
    -12.270  0.4583E-02  0.4583E-02  0.6258E-01  0.6258E-01
    -12.161  0.7888E-02  0.7888E-02  0.6343E-01  0.6343E-01
    -12.053  0.4648E-02  0.4648E-02  0.6394E-01  0.6394E-01
    -11.944  0.3381E-02  0.3381E-02  0.6430E-01  0.6430E-01
    -11.836  0.3619E-02  0.3619E-02  0.6470E-01  0.6470E-01
    -11.727  0.3837E-02  0.3837E-02  0.6511E-01  0.6511E-01
    -11.619  0.6357E-02  0.6357E-02  0.6580E-01  0.6580E-01
    -11.510  0.6219E-02  0.6219E-02  0.6648E-01  0.6648E-01
    -11.402  0.2518E-02  0.2518E-02  0.6675E-01  0.6675E-01
    -11.293  0.2813E-02  0.2813E-02  0.6706E-01  0.6706E-01
    -11.185  0.5942E-02  0.5942E-02  0.6770E-01  0.6770E-01
    -11.076  0.7718E-02  0.7718E-02  0.6854E-01  0.6854E-01
    -10.968  0.5844E-02  0.5844E-02  0.6917E-01  0.6917E-01
    -10.859  0.5611E-02  0.5611E-02  0.6978E-01  0.6978E-01
    -10.751  0.3993E-02  0.3993E-02  0.7021E-01  0.7021E-01
    -10.642  0.4719E-02  0.4719E-02  0.7073E-01  0.7073E-01
    -10.534  0.8579E-02  0.8579E-02  0.7166E-01  0.7166E-01
    -10.425  0.1406E-01  0.1406E-01  0.7318E-01  0.7318E-01
    -10.317  0.1770E-01  0.1770E-01  0.7510E-01  0.7510E-01
    -10.208  0.1356E-01  0.1356E-01  0.7658E-01  0.7658E-01
    -10.100  0.1415E-01  0.1415E-01  0.7811E-01  0.7811E-01
     -9.991  0.1999E-01  0.1999E-01  0.8028E-01  0.8028E-01
     -9.882  0.1285E-01  0.1285E-01  0.8167E-01  0.8167E-01
     -9.774  0.5861E-02  0.5862E-02  0.8231E-01  0.8231E-01
     -9.665  0.8569E-02  0.8569E-02  0.8324E-01  0.8324E-01
     -9.557  0.1858E-01  0.1858E-01  0.8526E-01  0.8526E-01
     -9.448  0.1742E-01  0.1742E-01  0.8715E-01  0.8715E-01
     -9.340  0.1244E-01  0.1244E-01  0.8850E-01  0.8850E-01
     -9.231  0.1358E-01  0.1358E-01  0.8997E-01  0.8997E-01
     -9.123  0.1348E-01  0.1348E-01  0.9143E-01  0.9143E-01
     -9.014  0.6807E-02  0.6807E-02  0.9217E-01  0.9217E-01
     -8.906  0.1065E-01  0.1065E-01  0.9333E-01  0.9333E-01
     -8.797  0.1921E-01  0.1921E-01  0.9541E-01  0.9541E-01
     -8.689  0.2039E-01  0.2039E-01  0.9762E-01  0.9762E-01
     -8.580  0.1305E-01  0.1305E-01  0.9904E-01  0.9904E-01
     -8.472  0.8266E-02  0.8266E-02  0.9994E-01  0.9994E-01
     -8.363  0.1394E-01  0.1394E-01  0.1015E+00  0.1015E+00
     -8.255  0.2596E-01  0.2596E-01  0.1043E+00  0.1043E+00
     -8.146  0.1536E-01  0.1536E-01  0.1059E+00  0.1059E+00
     -8.038  0.9922E-02  0.9922E-02  0.1070E+00  0.1070E+00
     -7.929  0.1918E-01  0.1918E-01  0.1091E+00  0.1091E+00
     -7.821  0.2464E-01  0.2464E-01  0.1118E+00  0.1118E+00
     -7.712  0.2232E-01  0.2232E-01  0.1142E+00  0.1142E+00
     -7.604  0.1688E-01  0.1688E-01  0.1160E+00  0.1160E+00
     -7.495  0.1273E-01  0.1273E-01  0.1174E+00  0.1174E+00
     -7.386  0.1700E-01  0.1700E-01  0.1192E+00  0.1192E+00
     -7.278  0.1451E-01  0.1451E-01  0.1208E+00  0.1208E+00
     -7.169  0.1289E-01  0.1289E-01  0.1222E+00  0.1222E+00
     -7.061  0.1472E-01  0.1472E-01  0.1238E+00  0.1238E+00
     -6.952  0.1620E-01  0.1620E-01  0.1256E+00  0.1256E+00
     -6.844  0.1555E-01  0.1555E-01  0.1273E+00  0.1273E+00
     -6.735  0.1604E-01  0.1604E-01  0.1290E+00  0.1290E+00
     -6.627  0.2520E-01  0.2520E-01  0.1317E+00  0.1317E+00
     -6.518  0.1995E-01  0.1995E-01  0.1339E+00  0.1339E+00
     -6.410  0.1757E-01  0.1757E-01  0.1358E+00  0.1358E+00
     -6.301  0.1762E-01  0.1762E-01  0.1377E+00  0.1377E+00
     -6.193  0.1386E-01  0.1386E-01  0.1392E+00  0.1392E+00
     -6.084  0.2267E-01  0.2267E-01  0.1417E+00  0.1417E+00
     -5.976  0.2637E-01  0.2637E-01  0.1445E+00  0.1445E+00
     -5.867  0.2422E-01  0.2422E-01  0.1472E+00  0.1472E+00
     -5.759  0.2535E-01  0.2535E-01  0.1499E+00  0.1499E+00
     -5.650  0.2069E-01  0.2069E-01  0.1522E+00  0.1522E+00
     -5.542  0.2028E-01  0.2028E-01  0.1544E+00  0.1544E+00
     -5.433  0.2620E-01  0.2620E-01  0.1572E+00  0.1572E+00
     -5.325  0.2688E-01  0.2688E-01  0.1601E+00  0.1601E+00
     -5.216  0.3342E-01  0.3342E-01  0.1638E+00  0.1638E+00
     -5.108  0.2272E-01  0.2272E-01  0.1662E+00  0.1662E+00
     -4.999  0.9904E-02  0.9904E-02  0.1673E+00  0.1673E+00
     -4.890  0.6931E-02  0.6931E-02  0.1681E+00  0.1681E+00
     -4.782  0.1302E-01  0.1302E-01  0.1695E+00  0.1695E+00
     -4.673  0.1518E-01  0.1518E-01  0.1711E+00  0.1711E+00
     -4.565  0.1189E-01  0.1189E-01  0.1724E+00  0.1724E+00
     -4.456  0.7848E-02  0.7848E-02  0.1733E+00  0.1733E+00
     -4.348  0.8046E-02  0.8046E-02  0.1741E+00  0.1741E+00
     -4.239  0.1723E-01  0.1723E-01  0.1760E+00  0.1760E+00
     -4.131  0.1816E-01  0.1816E-01  0.1780E+00  0.1780E+00
     -4.022  0.1965E-01  0.1965E-01  0.1801E+00  0.1801E+00
     -3.914  0.2539E-01  0.2539E-01  0.1829E+00  0.1829E+00
     -3.805  0.2637E-01  0.2637E-01  0.1857E+00  0.1857E+00
     -3.697  0.2088E-01  0.2088E-01  0.1880E+00  0.1880E+00
     -3.588  0.1672E-01  0.1672E-01  0.1898E+00  0.1898E+00
     -3.480  0.1671E-01  0.1671E-01  0.1916E+00  0.1916E+00
     -3.371  0.1677E-01  0.1677E-01  0.1934E+00  0.1934E+00
     -3.263  0.1580E-01  0.1580E-01  0.1951E+00  0.1951E+00
     -3.154  0.1520E-01  0.1520E-01  0.1968E+00  0.1968E+00
     -3.046  0.1812E-01  0.1812E-01  0.1988E+00  0.1988E+00
     -2.937  0.1623E-01  0.1623E-01  0.2005E+00  0.2005E+00
     -2.829  0.1212E-01  0.1212E-01  0.2018E+00  0.2018E+00
     -2.720  0.1256E-01  0.1256E-01  0.2032E+00  0.2032E+00
     -2.612  0.7133E-02  0.7133E-02  0.2040E+00  0.2040E+00
     -2.503  0.1234E-01  0.1234E-01  0.2053E+00  0.2053E+00
     -2.394  0.1980E-01  0.1980E-01  0.2075E+00  0.2075E+00
     -2.286  0.1114E-01  0.1114E-01  0.2087E+00  0.2087E+00
     -2.177  0.3148E-02  0.3148E-02  0.2090E+00  0.2090E+00
     -2.069  0.5756E-02  0.5756E-02  0.2096E+00  0.2096E+00
     -1.960  0.1078E-01  0.1078E-01  0.2108E+00  0.2108E+00
     -1.852  0.9819E-02  0.9819E-02  0.2119E+00  0.2119E+00
     -1.743  0.1108E-01  0.1108E-01  0.2131E+00  0.2131E+00
     -1.635  0.1102E-01  0.1102E-01  0.2143E+00  0.2143E+00
     -1.526  0.8640E-02  0.8640E-02  0.2152E+00  0.2152E+00
     -1.418  0.6757E-02  0.6757E-02  0.2159E+00  0.2159E+00
     -1.309  0.4109E-02  0.4109E-02  0.2164E+00  0.2164E+00
     -1.201  0.3864E-02  0.3864E-02  0.2168E+00  0.2168E+00
     -1.092  0.3917E-02  0.3917E-02  0.2172E+00  0.2172E+00
     -0.984  0.3903E-02  0.3903E-02  0.2177E+00  0.2177E+00
     -0.875  0.5753E-02  0.5754E-02  0.2183E+00  0.2183E+00
     -0.767  0.2715E-02  0.2715E-02  0.2186E+00  0.2186E+00
     -0.658  0.5396E-03  0.5396E-03  0.2186E+00  0.2186E+00
     -0.550  0.5080E-04  0.5081E-04  0.2186E+00  0.2186E+00
     -0.441  0.1285E-05  0.1285E-05  0.2186E+00  0.2186E+00
     -0.333  0.5057E-04  0.5057E-04  0.2186E+00  0.2186E+00
     -0.224  0.6181E-03  0.6181E-03  0.2187E+00  0.2187E+00
     -0.116  0.1058E-02  0.1058E-02  0.2188E+00  0.2188E+00
     -0.007  0.2641E-03  0.2641E-03  0.2189E+00  0.2189E+00
      0.101  0.8758E-05  0.8757E-05  0.2189E+00  0.2189E+00
      0.210  0.8121E-07  0.8121E-07  0.2189E+00  0.2189E+00
      0.319  0.1604E-04  0.1604E-04  0.2189E+00  0.2189E+00
      0.427  0.6171E-03  0.6171E-03  0.2189E+00  0.2189E+00
      0.536  0.3036E-02  0.3036E-02  0.2193E+00  0.2193E+00
      0.644  0.2160E-02  0.2160E-02  0.2195E+00  0.2195E+00
      0.753  0.1024E-02  0.1024E-02  0.2196E+00  0.2196E+00
      0.861  0.3598E-02  0.3598E-02  0.2200E+00  0.2200E+00
      0.970  0.5433E-02  0.5433E-02  0.2206E+00  0.2206E+00
      1.078  0.8766E-02  0.8766E-02  0.2215E+00  0.2215E+00
      1.187  0.2371E-01  0.2371E-01  0.2241E+00  0.2241E+00
      1.295  0.2117E-01  0.2117E-01  0.2264E+00  0.2264E+00
      1.404  0.5712E-02  0.5712E-02  0.2270E+00  0.2270E+00
      1.512  0.3601E-02  0.3602E-02  0.2274E+00  0.2274E+00
      1.621  0.7359E-02  0.7359E-02  0.2282E+00  0.2282E+00
      1.729  0.1253E-01  0.1253E-01  0.2296E+00  0.2296E+00
      1.838  0.1864E-01  0.1864E-01  0.2316E+00  0.2316E+00
      1.946  0.1464E-01  0.1464E-01  0.2332E+00  0.2332E+00
      2.055  0.7295E-02  0.7295E-02  0.2340E+00  0.2340E+00
      2.163  0.7709E-02  0.7709E-02  0.2348E+00  0.2348E+00
      2.272  0.1010E-01  0.1010E-01  0.2359E+00  0.2359E+00
      2.380  0.7346E-02  0.7346E-02  0.2367E+00  0.2367E+00
      2.489  0.9238E-02  0.9237E-02  0.2377E+00  0.2377E+00
      2.597  0.7637E-02  0.7637E-02  0.2385E+00  0.2385E+00
      2.706  0.6659E-02  0.6659E-02  0.2393E+00  0.2393E+00
      2.815  0.1103E-01  0.1103E-01  0.2405E+00  0.2405E+00
      2.923  0.9888E-02  0.9888E-02  0.2415E+00  0.2415E+00
      3.032  0.7217E-02  0.7216E-02  0.2423E+00  0.2423E+00
      3.140  0.9100E-02  0.9099E-02  0.2433E+00  0.2433E+00
      3.249  0.1062E-01  0.1063E-01  0.2445E+00  0.2445E+00
      3.357  0.1002E-01  0.1001E-01  0.2455E+00  0.2455E+00
      3.466  0.9505E-02  0.9505E-02  0.2466E+00  0.2466E+00
      3.574  0.9343E-02  0.9345E-02  0.2476E+00  0.2476E+00
      3.683  0.8846E-02  0.8845E-02  0.2485E+00  0.2485E+00
      3.791  0.1522E-01  0.1522E-01  0.2502E+00  0.2502E+00
      3.900  0.2092E-01  0.2092E-01  0.2525E+00  0.2525E+00
      4.008  0.1625E-01  0.1625E-01  0.2542E+00  0.2542E+00
      4.117  0.1276E-01  0.1276E-01  0.2556E+00  0.2556E+00
      4.225  0.1599E-01  0.1599E-01  0.2574E+00  0.2574E+00
      4.334  0.2481E-01  0.2482E-01  0.2600E+00  0.2600E+00
      4.442  0.2344E-01  0.2344E-01  0.2626E+00  0.2626E+00
      4.551  0.2224E-01  0.2225E-01  0.2650E+00  0.2650E+00
      4.659  0.2380E-01  0.2380E-01  0.2676E+00  0.2676E+00
      4.768  0.3026E-01  0.3026E-01  0.2709E+00  0.2709E+00
      4.876  0.2422E-01  0.2422E-01  0.2735E+00  0.2735E+00
      4.985  0.2416E-01  0.2416E-01  0.2761E+00  0.2761E+00
      5.093  0.2558E-01  0.2558E-01  0.2789E+00  0.2789E+00
      5.202  0.2650E-01  0.2649E-01  0.2818E+00  0.2818E+00
      5.311  0.2486E-01  0.2487E-01  0.2845E+00  0.2845E+00
      5.419  0.2495E-01  0.2496E-01  0.2872E+00  0.2872E+00
      5.528  0.2104E-01  0.2103E-01  0.2895E+00  0.2895E+00
      5.636  0.2276E-01  0.2275E-01  0.2919E+00  0.2919E+00
      5.745  0.2380E-01  0.2380E-01  0.2945E+00  0.2945E+00
      5.853  0.2360E-01  0.2360E-01  0.2971E+00  0.2971E+00
      5.962  0.2365E-01  0.2365E-01  0.2996E+00  0.2996E+00
      6.070  0.1979E-01  0.1979E-01  0.3018E+00  0.3018E+00
      6.179  0.1550E-01  0.1550E-01  0.3035E+00  0.3035E+00
      6.287  0.1711E-01  0.1712E-01  0.3053E+00  0.3053E+00
      6.396  0.2337E-01  0.2338E-01  0.3079E+00  0.3079E+00
      6.504  0.2185E-01  0.2185E-01  0.3102E+00  0.3102E+00
      6.613  0.1661E-01  0.1661E-01  0.3120E+00  0.3120E+00
      6.721  0.2214E-01  0.2213E-01  0.3144E+00  0.3144E+00
      6.830  0.2783E-01  0.2782E-01  0.3175E+00  0.3175E+00
      6.938  0.2628E-01  0.2629E-01  0.3203E+00  0.3203E+00
      7.047  0.2614E-01  0.2614E-01  0.3231E+00  0.3231E+00
      7.155  0.2821E-01  0.2821E-01  0.3262E+00  0.3262E+00
      7.264  0.2698E-01  0.2699E-01  0.3291E+00  0.3291E+00
      7.372  0.2040E-01  0.2041E-01  0.3314E+00  0.3314E+00
      7.481  0.2443E-01  0.2443E-01  0.3340E+00  0.3340E+00
      7.589  0.2017E-01  0.2016E-01  0.3362E+00  0.3362E+00
      7.698  0.1902E-01  0.1902E-01  0.3383E+00  0.3383E+00
      7.807  0.2417E-01  0.2416E-01  0.3409E+00  0.3409E+00
      7.915  0.1928E-01  0.1929E-01  0.3430E+00  0.3430E+00
      8.024  0.2236E-01  0.2234E-01  0.3454E+00  0.3454E+00
      8.132  0.3005E-01  0.3002E-01  0.3487E+00  0.3487E+00
      8.241  0.3020E-01  0.3023E-01  0.3519E+00  0.3519E+00
      8.349  0.3424E-01  0.3426E-01  0.3557E+00  0.3557E+00
      8.458  0.3358E-01  0.3358E-01  0.3593E+00  0.3593E+00
      8.566  0.3022E-01  0.3024E-01  0.3626E+00  0.3626E+00
      8.675  0.3219E-01  0.3220E-01  0.3661E+00  0.3661E+00
      8.783  0.2593E-01  0.2592E-01  0.3689E+00  0.3689E+00
      8.892  0.2191E-01  0.2191E-01  0.3713E+00  0.3713E+00
      9.000  0.1948E-01  0.1948E-01  0.3734E+00  0.3734E+00
      9.109  0.1018E-01  0.1018E-01  0.3745E+00  0.3745E+00
      9.217  0.4068E-02  0.4067E-02  0.3749E+00  0.3749E+00
      9.326  0.6883E-03  0.6882E-03  0.3750E+00  0.3750E+00
      9.434  0.2106E-04  0.2106E-04  0.3750E+00  0.3750E+00
      9.543  0.8343E-07  0.8345E-07  0.3750E+00  0.3750E+00
      9.651  0.3684E-10  0.3686E-10  0.3750E+00  0.3750E+00
      9.760  0.1686E-14  0.1687E-14  0.3750E+00  0.3750E+00
      9.868  0.0000E+00  0.0000E+00  0.3750E+00  0.3750E+00
      9.977  0.0000E+00  0.0000E+00  0.3750E+00  0.3750E+00
     10.085  0.0000E+00  0.0000E+00  0.3750E+00  0.3750E+00
     10.194  0.0000E+00  0.0000E+00  0.3750E+00  0.3750E+00
     10.303  0.0000E+00  0.0000E+00  0.3750E+00  0.3750E+00
     10.411  0.0000E+00  0.0000E+00  0.3750E+00  0.3750E+00
     10.520  0.0000E+00  0.0000E+00  0.3750E+00  0.3750E+00
     10.628  0.0000E+00  0.0000E+00  0.3750E+00  0.3750E+00
