Lattice                                 
           1
     4.304146    2.485000    0.000000
    -4.304146    2.485000    0.000000
     0.000000    0.000000   15.000000
   B    C 
     2    14
Direct configuration=     1
   0.33833034  0.66916432  0.10000000
   0.67165522  0.33584146  0.10000000
   0.16373946  0.31999962  0.10000000
   0.32250218  0.16126397  0.10000000
   0.16376430  0.84376384  0.10000000
   0.84623863  0.16123684  0.10000000
   0.68749850  0.84373000  0.10000000
   0.84626736  0.68499594  0.10000000
   0.33333267  0.16666633  0.32553333
   0.49999967  0.99999933  0.32553333
   0.33333267  0.66666633  0.32553333
   0.49999967  0.49999933  0.32553333
   0.83333267  0.16666633  0.32553333
   0.99999967  0.99999933  0.32553333
   0.83333267  0.66666633  0.32553333
   0.99999967  0.49999933  0.32553333
Direct configuration=     2
   0.33834486  0.66917133  0.10015797
   0.67169562  0.33581830  0.09997808
   0.16925489  0.33104055  0.09995362
   0.33328339  0.16665065  0.10002088
   0.16928756  0.83823406  0.09995362
   0.84081878  0.16663534  0.10002023
   0.67645583  0.83822904  0.09995347
   0.84084606  0.67421217  0.10002022
   0.33337972  0.16668864  0.32554022
   0.50012462  0.00026570  0.32557809
   0.33332849  0.66666308  0.32533314
   0.50012462  0.49986035  0.32557808
   0.83331792  0.16669224  0.32553687
   0.00000506  0.00000324  0.32552586
   0.83331796  0.66662332  0.32553689
   0.99973993  0.49987068  0.32557941
Direct configuration=     3
   0.33833385  0.66916602  0.10003815
   0.67166497  0.33583587  0.09999471
   0.16507159  0.32266630  0.09998880
   0.32510613  0.16256499  0.10000504
   0.16509832  0.84242825  0.09998880
   0.84492960  0.16254072  0.10000489
   0.68483140  0.84240137  0.09998876
   0.84495797  0.68239137  0.10000488
   0.33334403  0.16667172  0.32553500
   0.50002985  0.00006367  0.32554414
   0.33333166  0.66666555  0.32548498
   0.50002985  0.49996576  0.32554414
   0.83332911  0.16667259  0.32553419
   0.00000097  0.00000028  0.32553153
   0.83332912  0.66665594  0.32553419
   0.99993693  0.49996826  0.32554446
Direct configuration=     4
   0.33833384  0.66916601  0.10003810
   0.67166496  0.33583587  0.09999471
   0.16506969  0.32266251  0.09998881
   0.32510243  0.16256314  0.10000504
   0.16509642  0.84243015  0.09998881
   0.84493146  0.16253887  0.10000488
   0.68483519  0.84240326  0.09998878
   0.84495983  0.68239507  0.10000488
   0.33334402  0.16667171  0.32553499
   0.50002980  0.00006358  0.32554413
   0.33333166  0.66666555  0.32548505
   0.50002980  0.49996581  0.32554413
   0.83332911  0.16667258  0.32553419
   0.00000097  0.00000028  0.32553153
   0.83332912  0.66665596  0.32553419
   0.99993702  0.49996830  0.32554445
Direct configuration=     5
   0.33833823  0.66916611  0.10013832
   0.67166955  0.33583213  0.09997366
   0.16507040  0.32267144  0.09996756
   0.32508939  0.16255146  0.10001434
   0.16508986  0.84241760  0.09996757
   0.84494580  0.16253555  0.10001384
   0.68482051  0.84240632  0.09996724
   0.84496258  0.68241046  0.10001384
   0.33335240  0.16667608  0.32554357
   0.50004036  0.00008279  0.32556844
   0.33333092  0.66666533  0.32535674
   0.50004037  0.49995687  0.32556844
   0.83332517  0.16667756  0.32554055
   0.00000369  0.00000150  0.32552239
   0.83332515  0.66664735  0.32554056
   0.99992094  0.49996012  0.32556960
Direct configuration=     6
   0.33833961  0.66916614  0.10016965
   0.67167098  0.33583096  0.09996708
   0.16507062  0.32267423  0.09996092
   0.32508532  0.16254780  0.10001725
   0.16508781  0.84241367  0.09996092
   0.84495029  0.16253451  0.10001664
   0.68481592  0.84240728  0.09996051
   0.84496344  0.68241527  0.10001664
   0.33335502  0.16667745  0.32554625
   0.50004366  0.00008880  0.32557604
   0.33333069  0.66666526  0.32531663
   0.50004367  0.49995408  0.32557604
   0.83332393  0.16667912  0.32554254
   0.00000455  0.00000188  0.32551954
   0.83332391  0.66664466  0.32554255
   0.99991592  0.49995757  0.32557746
Direct configuration=     7
   0.33831601  0.66916402  0.10023693
   0.67166608  0.33583811  0.09996996
   0.16509323  0.32264031  0.09997833
   0.32510700  0.16256185  0.09999768
   0.16508729  0.84243860  0.09997833
   0.84491783  0.16255166  0.09999656
   0.68486839  0.84241732  0.09997749
   0.84491781  0.68237267  0.09999657
   0.33333870  0.16666863  0.32556877
   0.50001731  0.00003789  0.32555463
   0.33333815  0.66666837  0.32526402
   0.50001729  0.49997998  0.32555463
   0.83333953  0.16666857  0.32556397
  -0.00000065 -0.00000005  0.32550883
   0.83333956  0.66666958  0.32556395
   0.99996179  0.49998116  0.32555603
Direct configuration=     8
   0.33832181  0.66916454  0.10022042
   0.67166728  0.33583635  0.09996925
   0.16508768  0.32264864  0.09997405
   0.32510168  0.16255840  0.10000248
   0.16508742  0.84243248  0.09997405
   0.84492580  0.16254745  0.10000149
   0.68485550  0.84241485  0.09997332
   0.84492902  0.68238313  0.10000150
   0.33334270  0.16667079  0.32556324
   0.50002378  0.00005039  0.32555988
   0.33333632  0.66666761  0.32527693
   0.50002377  0.49997362  0.32555989
   0.83333570  0.16667116  0.32555871
   0.00000063  0.00000042  0.32551146
   0.83333572  0.66666346  0.32555870
   0.99995053  0.49997537  0.32556129
Direct configuration=     9
   0.33834382  0.66916778  0.10027723
   0.67164858  0.33583003  0.09997472
   0.16504348  0.32266153  0.09999589
   0.32511587  0.16254113  0.09998534
   0.16504707  0.84240426  0.09999600
   0.84497925  0.16255360  0.09998374
   0.68480072  0.84241589  0.09999469
   0.84498438  0.68240500  0.09998377
   0.33335054  0.16667549  0.32557639
   0.50004270  0.00007920  0.32553247
   0.33333179  0.66666618  0.32524682
   0.50004275  0.49996219  0.32553246
   0.83332703  0.16667680  0.32557127
   0.00000850  0.00000359  0.32551110
   0.83332706  0.66665073  0.32557127
   0.99993180  0.49996527  0.32553352
Direct configuration=    10
   0.33833248  0.66916611  0.10024796
   0.67165821  0.33583329  0.09997190
   0.16506625  0.32265489  0.09998464
   0.32510856  0.16255003  0.09999417
   0.16506785  0.84241880  0.09998469
   0.84495172  0.16255043  0.09999288
   0.68482894  0.84241536  0.09998368
   0.84495586  0.68239374  0.09999290
   0.33334650  0.16667307  0.32556962
   0.50003296  0.00006436  0.32554659
   0.33333412  0.66666692  0.32526233
   0.50003297  0.49996808  0.32554659
   0.83333150  0.16667389  0.32556480
   0.00000444  0.00000196  0.32551129
   0.83333152  0.66665729  0.32556479
   0.99994145  0.49997047  0.32554783
Direct configuration=    11
   0.33832573  0.66916450  0.10027903
   0.67167760  0.33582961  0.09997400
   0.16509263  0.32267660  0.09999777
   0.32506686  0.16253820  0.09999137
   0.16509451  0.84240836  0.09999784
   0.84494047  0.16253390  0.09998952
   0.68482256  0.84241025  0.09999628
   0.84493892  0.68241570  0.09998957
   0.33336024  0.16668014  0.32556571
   0.50004950  0.00009610  0.32553016
   0.33333358  0.66666674  0.32525223
   0.50004950  0.49995269  0.32553016
   0.83332587  0.16668198  0.32556089
   0.00000803  0.00000365  0.32552023
   0.83332583  0.66664385  0.32556089
   0.99991351  0.49995640  0.32553099
Direct configuration=    12
   0.33832850  0.66916516  0.10026627
   0.67166963  0.33583112  0.09997314
   0.16508179  0.32266768  0.09999237
   0.32508399  0.16254306  0.09999252
   0.16508356  0.84241265  0.09999244
   0.84494509  0.16254069  0.09999090
   0.68482518  0.84241235  0.09999110
   0.84494588  0.68240668  0.09999094
   0.33335460  0.16667723  0.32556732
   0.50004271  0.00008306  0.32553691
   0.33333380  0.66666681  0.32525638
   0.50004271  0.49995901  0.32553691
   0.83332818  0.16667866  0.32556250
   0.00000656  0.00000295  0.32551656
   0.83332817  0.66664937  0.32556249
   0.99992499  0.49996218  0.32553791
Direct configuration=    13
   0.33833032  0.66916348  0.10028903
   0.67166685  0.33583080  0.09997387
   0.16507912  0.32266383  0.10000096
   0.32508720  0.16254460  0.09999724
   0.16507795  0.84241280  0.10000099
   0.84494413  0.16254193  0.09999509
   0.68482557  0.84241337  0.09999922
   0.84494083  0.68240254  0.09999515
   0.33335467  0.16667700  0.32555645
   0.50003934  0.00007696  0.32552564
   0.33333742  0.66666835  0.32525089
   0.50003934  0.49996239  0.32552564
   0.83333325  0.16667815  0.32555178
   0.00000565  0.00000283  0.32552668
   0.83333322  0.66665438  0.32555177
   0.99993048  0.49996524  0.32552627
Direct configuration=    14
   0.33833417  0.66915992  0.10033742
   0.67166094  0.33583011  0.09997545
   0.16507345  0.32265564  0.10001921
   0.32509402  0.16254789  0.10000727
   0.16506602  0.84241313  0.10001917
   0.84494208  0.16254456  0.10000399
   0.68482640  0.84241555  0.10001648
   0.84493009  0.68239375  0.10000409
   0.33335481  0.16667650  0.32553334
   0.50003220  0.00006401  0.32550166
   0.33334510  0.66667161  0.32523922
   0.50003217  0.49996956  0.32550167
   0.83334401  0.16667708  0.32552898
   0.00000372  0.00000258  0.32554821
   0.83334396  0.66666502  0.32552898
   0.99994217  0.49997175  0.32550152
Direct configuration=    15
   0.33833262  0.66916135  0.10031794
   0.67166332  0.33583039  0.09997481
   0.16507574  0.32265894  0.10001186
   0.32509127  0.16254657  0.10000323
   0.16507082  0.84241300  0.10001185
   0.84494290  0.16254350  0.10000041
   0.68482607  0.84241467  0.10000953
   0.84493441  0.68239729  0.10000049
   0.33335475  0.16667670  0.32554265
   0.50003508  0.00006922  0.32551131
   0.33334201  0.66667030  0.32524392
   0.50003506  0.49996668  0.32551132
   0.83333968  0.16667751  0.32553816
   0.00000450  0.00000268  0.32553954
   0.83333964  0.66666074  0.32553816
   0.99993746  0.49996913  0.32551149
Direct configuration=    16
   0.33831894  0.66916416  0.10033431
   0.67165618  0.33582937  0.09997954
   0.16507083  0.32265607  0.10002170
   0.32509040  0.16253678  0.10001684
   0.16506723  0.84241001  0.10002170
   0.84494454  0.16254855  0.10001322
   0.68482400  0.84241579  0.10001866
   0.84494552  0.68239515  0.10001332
   0.33335224  0.16667715  0.32553038
   0.50005264  0.00008211  0.32549999
   0.33333288  0.66666753  0.32523383
   0.50005265  0.49996788  0.32549999
   0.83332687  0.16667862  0.32552592
   0.00001942  0.00000833  0.32553124
   0.83332695  0.66665047  0.32552592
   0.99994404  0.49997071  0.32550012
Direct configuration=    17
   0.33831526  0.66916492  0.10033871
   0.67165426  0.33582910  0.09998081
   0.16506951  0.32265530  0.10002435
   0.32509017  0.16253415  0.10002050
   0.16506627  0.84240921  0.10002435
   0.84494498  0.16254991  0.10001666
   0.68482345  0.84241609  0.10002111
   0.84494850  0.68239457  0.10001676
   0.33335157  0.16667728  0.32552708
   0.50005736  0.00008557  0.32549694
   0.33333043  0.66666678  0.32523112
   0.50005738  0.49996820  0.32549695
   0.83332343  0.16667891  0.32552263
   0.00002343  0.00000984  0.32552900
   0.83332354  0.66664771  0.32552263
   0.99994581  0.49997114  0.32549706
Direct configuration=    18
   0.33831292  0.66916473  0.10034318
   0.67165338  0.33582871  0.09998343
   0.16507034  0.32265513  0.10002830
   0.32508806  0.16253332  0.10002565
   0.16506681  0.84240874  0.10002830
   0.84494342  0.16254937  0.10002150
   0.68482326  0.84241512  0.10002477
   0.84494715  0.68239459  0.10002161
   0.33335401  0.16667833  0.32552292
   0.50005755  0.00008650  0.32549302
   0.33333238  0.66666760  0.32522707
   0.50005758  0.49996778  0.32549303
   0.83332515  0.16668003  0.32551845
   0.00002325  0.00000992  0.32552381
   0.83332527  0.66664800  0.32551845
   0.99994480  0.49997080  0.32549317
Direct configuration=    19
   0.33830589  0.66916416  0.10035659
   0.67165075  0.33582755  0.09999127
   0.16507285  0.32265463  0.10004013
   0.32508174  0.16253083  0.10004111
   0.16506843  0.84240735  0.10004014
   0.84493871  0.16254773  0.10003603
   0.68482268  0.84241221  0.10003575
   0.84494311  0.68239463  0.10003616
   0.33336134  0.16668151  0.32551044
   0.50005812  0.00008930  0.32548126
   0.33333824  0.66667003  0.32521493
   0.50005816  0.49996654  0.32548127
   0.83333034  0.16668337  0.32550592
   0.00002272  0.00001015  0.32550824
   0.83333046  0.66664889  0.32550593
   0.99994179  0.49996978  0.32548150
Direct configuration=    20
   0.33829183  0.66916304  0.10038341
   0.67164550  0.33582523  0.10000696
   0.16507786  0.32265361  0.10006381
   0.32506910  0.16252586  0.10007202
   0.16507168  0.84240456  0.10006383
   0.84492930  0.16254446  0.10006507
   0.68482153  0.84240639  0.10005772
   0.84493503  0.68239472  0.10006525
   0.33337599  0.16668787  0.32548546
   0.50005928  0.00009489  0.32545775
   0.33334996  0.66667491  0.32519064
   0.50005934  0.49996404  0.32545775
   0.83334071  0.16669005  0.32548087
   0.00002164  0.00001062  0.32547710
   0.83334084  0.66665066  0.32548088
   0.99993575  0.49996775  0.32545815
Direct configuration=    21
   0.33826372  0.66916079  0.10043705
   0.67163499  0.33582060  0.10003835
   0.16508789  0.32265159  0.10011116
   0.32504381  0.16251591  0.10013385
   0.16507817  0.84239898  0.10011120
   0.84491048  0.16253793  0.10012316
   0.68481922  0.84239475  0.10010164
   0.84491887  0.68239491  0.10012344
   0.33340530  0.16670058  0.32543552
   0.50006158  0.00010607  0.32541072
   0.33337339  0.66668466  0.32514205
   0.50006169  0.49995906  0.32541071
   0.83336145  0.16670342  0.32543076
   0.00001949  0.00001156  0.32541481
   0.83336160  0.66665420  0.32543078
   0.99992368  0.49996368  0.32541146
Direct configuration=    22
   0.33826399  0.66916016  0.10044074
   0.67163389  0.33582024  0.10004121
   0.16508616  0.32265127  0.10011502
   0.32504369  0.16251572  0.10013820
   0.16507649  0.84239856  0.10011506
   0.84491041  0.16253737  0.10012722
   0.68481764  0.84239443  0.10010524
   0.84491849  0.68239450  0.10012751
   0.33340581  0.16670082  0.32543177
   0.50006208  0.00010601  0.32540718
   0.33337430  0.66668510  0.32513834
   0.50006219  0.49995965  0.32540717
   0.83336255  0.16670364  0.32542700
   0.00002012  0.00001189  0.32541005
   0.83336270  0.66665504  0.32542701
   0.99992483  0.49996427  0.32540795
Direct configuration=    23
   0.33826480  0.66915826  0.10045180
   0.67163062  0.33581914  0.10004979
   0.16508095  0.32265033  0.10012660
   0.32504331  0.16251512  0.10015125
   0.16507143  0.84239731  0.10012664
   0.84491022  0.16253570  0.10013941
   0.68481289  0.84239349  0.10011602
   0.84491734  0.68239326  0.10013972
   0.33340735  0.16670156  0.32542051
   0.50006357  0.00010582  0.32539656
   0.33337706  0.66668642  0.32512720
   0.50006370  0.49996142  0.32539655
   0.83336583  0.16670432  0.32541571
   0.00002202  0.00001291  0.32539576
   0.83336597  0.66665755  0.32541573
   0.99992828  0.49996604  0.32539740
Direct configuration=    24
   0.33826642  0.66915448  0.10047392
   0.67162407  0.33581695  0.10006695
   0.16507053  0.32264844  0.10014975
   0.32504256  0.16251394  0.10017737
   0.16506132  0.84239480  0.10014980
   0.84490982  0.16253237  0.10016379
   0.68480338  0.84239161  0.10013758
   0.84491506  0.68239080  0.10016415
   0.33341044  0.16670302  0.32539801
   0.50006656  0.00010543  0.32537533
   0.33338256  0.66668907  0.32510493
   0.50006670  0.49996497  0.32537531
   0.83337241  0.16670568  0.32539313
   0.00002581  0.00001494  0.32536719
   0.83337252  0.66666258  0.32539316
   0.99993518  0.49996959  0.32537631
Direct configuration=    25
   0.33826966  0.66914690  0.10051816
   0.67161097  0.33581258  0.10010127
   0.16504970  0.32264466  0.10019605
   0.32504107  0.16251156  0.10022960
   0.16504110  0.84238978  0.10019612
   0.84490903  0.16252571  0.10021255
   0.68478437  0.84238785  0.10018069
   0.84491048  0.68238588  0.10021300
   0.33341660  0.16670595  0.32535299
   0.50007254  0.00010466  0.32533286
   0.33339356  0.66669437  0.32506037
   0.50007270  0.49997207  0.32533284
   0.83338556  0.16670839  0.32534798
   0.00003339  0.00001899  0.32531004
   0.83338562  0.66667263  0.32534802
   0.99994898  0.49997667  0.32533413
Direct configuration=    26
   0.33827614  0.66913176  0.10060664
   0.67158477  0.33580382  0.10016991
   0.16500804  0.32263711  0.10028866
   0.32503807  0.16250682  0.10033405
   0.16500065  0.84237975  0.10028876
   0.84490744  0.16251239  0.10031006
   0.68474635  0.84238032  0.10026693
   0.84490132  0.68237603  0.10031070
   0.33342893  0.16671182  0.32526297
   0.50008450  0.00010312  0.32524792
   0.33341558  0.66670496  0.32497127
   0.50008471  0.49998627  0.32524788
   0.83341186  0.16671381  0.32525768
   0.00004856  0.00002710  0.32519575
   0.83341183  0.66669273  0.32525774
   0.99997659  0.49999084  0.32524977
Direct configuration=    27
   0.33827126  0.66912650  0.10063933
   0.67158550  0.33579863  0.10020673
   0.16500228  0.32263015  0.10033091
   0.32502769  0.16250844  0.10037121
   0.16499577  0.84237760  0.10033104
   0.84489025  0.16250752  0.10034422
   0.68474507  0.84237820  0.10030636
   0.84488122  0.68236903  0.10034493
   0.33342366  0.16671075  0.32522535
   0.50010053  0.00010540  0.32521252
   0.33341342  0.66670545  0.32493433
   0.50010071  0.49999691  0.32521248
   0.83341052  0.16671266  0.32522004
   0.00006684  0.00003465  0.32515265
   0.83341053  0.66669577  0.32522009
   0.00000009  0.50000103  0.32521446
Direct configuration=    28
   0.33825916  0.66911345  0.10072037
   0.67158732  0.33578576  0.10029798
   0.16498801  0.32261288  0.10043563
   0.32500195  0.16251246  0.10046329
   0.16498366  0.84237227  0.10043582
   0.84484764  0.16249546  0.10042890
   0.68474189  0.84237293  0.10040410
   0.84483140  0.68235168  0.10042977
   0.33341058  0.16670809  0.32513211
   0.50014026  0.00011104  0.32512478
   0.33340809  0.66670667  0.32484280
   0.50014036  0.50002328  0.32512474
   0.83340718  0.16670979  0.32512675
   0.00011215  0.00005334  0.32504586
   0.83340733  0.66670330  0.32512680
   0.00005835  0.50002627  0.32512697
Direct configuration=    29
   0.33826267  0.66911723  0.10069687
   0.67158679  0.33578949  0.10027152
   0.16499215  0.32261789  0.10040525
   0.32500941  0.16251129  0.10043658
   0.16498717  0.84237382  0.10040543
   0.84485999  0.16249896  0.10040434
   0.68474281  0.84237446  0.10037575
   0.84484585  0.68235671  0.10040517
   0.33341438  0.16670886  0.32515915
   0.50012873  0.00010940  0.32515023
   0.33340964  0.66670632  0.32486935
   0.50012886  0.50001563  0.32515019
   0.83340814  0.16671062  0.32515381
   0.00009901  0.00004792  0.32507683
   0.83340826  0.66670112  0.32515386
   0.00004145  0.50001894  0.32515235
Direct configuration=    30
   0.33825034  0.66911884  0.10070437
   0.67158321  0.33578775  0.10029323
   0.16499054  0.32261627  0.10042101
   0.32500449  0.16250503  0.10044232
   0.16498784  0.84237111  0.10042122
   0.84485716  0.16250019  0.10040891
   0.68474306  0.84237363  0.10039029
   0.84484955  0.68235667  0.10040973
   0.33343016  0.16671564  0.32514687
   0.50012736  0.00011536  0.32513825
   0.33341915  0.66671004  0.32485787
   0.50012749  0.50001053  0.32513822
   0.83341508  0.16671768  0.32514162
   0.00009530  0.00004707  0.32507089
   0.83341524  0.66669885  0.32514167
   0.00002936  0.50001401  0.32514019
Direct configuration=    31
   0.33823085  0.66912137  0.10071622
   0.67157756  0.33578499  0.10032756
   0.16498799  0.32261371  0.10044590
   0.32499671  0.16249512  0.10045138
   0.16498890  0.84236684  0.10044619
   0.84485267  0.16250214  0.10041614
   0.68474346  0.84237232  0.10041327
   0.84485539  0.68235660  0.10041696
   0.33345510  0.16672635  0.32512747
   0.50012519  0.00012477  0.32511932
   0.33343419  0.66671592  0.32483973
   0.50012533  0.50000247  0.32511930
   0.83342605  0.16672884  0.32512236
   0.00008943  0.00004573  0.32506150
   0.83342628  0.66669527  0.32512240
   0.00001023  0.50000622  0.32512098
Direct configuration=    32
   0.33823613  0.66911929  0.10071872
   0.67157154  0.33578602  0.10034136
   0.16498507  0.32261471  0.10044868
   0.32499949  0.16249619  0.10045129
   0.16498381  0.84236802  0.10044895
   0.84485701  0.16249964  0.10041534
   0.68473638  0.84236947  0.10041521
   0.84485681  0.68235617  0.10041613
   0.33344628  0.16672296  0.32512430
   0.50013099  0.00012374  0.32511459
   0.33342833  0.66671397  0.32483639
   0.50013108  0.50000729  0.32511458
   0.83342229  0.16672478  0.32511929
   0.00009649  0.00004833  0.32506651
   0.83342239  0.66669736  0.32511932
   0.00002126  0.50001071  0.32511601
Direct configuration=    33
   0.33824407  0.66911614  0.10072248
   0.67156247  0.33578757  0.10036214
   0.16498067  0.32261623  0.10045287
   0.32500368  0.16249781  0.10045114
   0.16497614  0.84236981  0.10045311
   0.84486354  0.16249586  0.10041412
   0.68472572  0.84236517  0.10041813
   0.84485896  0.68235554  0.10041488
   0.33343298  0.16671786  0.32511952
   0.50013971  0.00012219  0.32510748
   0.33341951  0.66671102  0.32483137
   0.50013974  0.50001456  0.32510748
   0.83341663  0.16671867  0.32511467
   0.00010711  0.00005225  0.32507406
   0.83341652  0.66670050  0.32511468
   0.00003788  0.50001747  0.32510854
Direct configuration=    34
   0.33824272  0.66911545  0.10072540
   0.67156361  0.33578702  0.10037522
   0.16498352  0.32261576  0.10045366
   0.32500012  0.16249904  0.10045197
   0.16497842  0.84237011  0.10045391
   0.84485906  0.16249441  0.10041411
   0.68472738  0.84236367  0.10041794
   0.84485347  0.68235534  0.10041484
   0.33343407  0.16671824  0.32511726
   0.50013901  0.00012102  0.32510296
   0.33342131  0.66671175  0.32482810
   0.50013899  0.50001533  0.32510297
   0.83341906  0.16671886  0.32511250
   0.00010704  0.00005233  0.32507952
   0.83341892  0.66670236  0.32511251
   0.00003864  0.50001797  0.32510379
Direct configuration=    35
   0.33824046  0.66911430  0.10073031
   0.67156553  0.33578609  0.10039715
   0.16498832  0.32261497  0.10045499
   0.32499415  0.16250110  0.10045337
   0.16498225  0.84237061  0.10045524
   0.84485155  0.16249197  0.10041409
   0.68473016  0.84236115  0.10041761
   0.84484426  0.68235500  0.10041478
   0.33343589  0.16671889  0.32511349
   0.50013782  0.00011905  0.32509539
   0.33342433  0.66671298  0.32482261
   0.50013773  0.50001662  0.32509542
   0.83342313  0.16671916  0.32510886
   0.00010692  0.00005248  0.32508866
   0.83342294  0.66670549  0.32510885
   0.00003990  0.50001882  0.32509583
Direct configuration=    36
   0.33823611  0.66911586  0.10073211
   0.67156791  0.33578444  0.10039956
   0.16498336  0.32261352  0.10045319
   0.32499425  0.16249803  0.10045587
   0.16498130  0.84236824  0.10045344
   0.84485086  0.16249436  0.10041601
   0.68473207  0.84236484  0.10041517
   0.84484829  0.68235464  0.10041668
   0.33344626  0.16672310  0.32511376
   0.50013402  0.00012137  0.32509415
   0.33343065  0.66671528  0.32482081
   0.50013397  0.50001234  0.32509417
   0.83342737  0.16672380  0.32510909
   0.00010175  0.00005072  0.32508904
   0.83342730  0.66670337  0.32510908
   0.00002984  0.50001474  0.32509456
Direct configuration=    37
   0.33823274  0.66911706  0.10073350
   0.67156976  0.33578316  0.10040142
   0.16497952  0.32261240  0.10045179
   0.32499432  0.16249565  0.10045780
   0.16498057  0.84236641  0.10045205
   0.84485032  0.16249621  0.10041749
   0.68473356  0.84236771  0.10041327
   0.84485141  0.68235436  0.10041815
   0.33345431  0.16672637  0.32511397
   0.50013107  0.00012317  0.32509318
   0.33343556  0.66671706  0.32481942
   0.50013106  0.50000903  0.32509320
   0.83343066  0.16672739  0.32510926
   0.00009774  0.00004936  0.32508933
   0.83343068  0.66670173  0.32510926
   0.00002204  0.50001158  0.32509358
Direct configuration=    38
   0.33823187  0.66911711  0.10073474
   0.67156949  0.33578305  0.10040233
   0.16497907  0.32261200  0.10045010
   0.32499373  0.16249507  0.10046029
   0.16498035  0.84236637  0.10045039
   0.84485007  0.16249632  0.10041927
   0.68473329  0.84236758  0.10041086
   0.84485158  0.68235409  0.10041992
   0.33345291  0.16672603  0.32511457
   0.50013410  0.00012482  0.32509259
   0.33343358  0.66671642  0.32481761
   0.50013410  0.50000970  0.32509261
   0.83342829  0.16672706  0.32510979
   0.00010046  0.00005037  0.32508879
   0.83342833  0.66670042  0.32510979
   0.00002411  0.50001226  0.32509301
Direct configuration=    39
   0.33823079  0.66911716  0.10073629
   0.67156914  0.33578291  0.10040347
   0.16497850  0.32261149  0.10044798
   0.32499299  0.16249436  0.10046340
   0.16498008  0.84236632  0.10044831
   0.84484976  0.16249646  0.10042150
   0.68473295  0.84236741  0.10040783
   0.84485180  0.68235375  0.10042214
   0.33345114  0.16672559  0.32511532
   0.50013790  0.00012690  0.32509186
   0.33343109  0.66671562  0.32481534
   0.50013793  0.50001054  0.32509187
   0.83342532  0.16672664  0.32511046
   0.00010388  0.00005164  0.32508812
   0.83342537  0.66669877  0.32511047
   0.00002670  0.50001311  0.32509230
Direct configuration=    40
   0.33823242  0.66911606  0.10073636
   0.67156741  0.33578331  0.10040445
   0.16498043  0.32261202  0.10044791
   0.32499267  0.16249593  0.10046461
   0.16497999  0.84236707  0.10044828
   0.84484929  0.16249482  0.10042182
   0.68473167  0.84236525  0.10040689
   0.84484901  0.68235380  0.10042245
   0.33344981  0.16672488  0.32511559
   0.50013668  0.00012461  0.32509169
   0.33343202  0.66671598  0.32481378
   0.50013669  0.50001175  0.32509171
   0.83342742  0.16672581  0.32511068
   0.00010347  0.00005155  0.32508761
   0.83342742  0.66670152  0.32511068
   0.00002894  0.50001429  0.32509216
