Lattice                                 
           1
     4.169912    2.407500    0.000000
    -4.169912    2.407500    0.000000
     0.000000    0.000000   15.000000
   B    C 
     4    11
Direct configuration=     1
   0.00415361  0.00267210  0.12034134
   0.35695335  0.00285503  0.09748893
   0.00423858  0.35550699  0.09749256
   0.65142295  0.65006557  0.09747688
   0.32808646  0.32671938  0.10030508
   0.68027775  0.00278085  0.10027562
   0.00416530  0.67883808  0.10026559
   0.08333267  0.41666633  0.33646667
   0.24999967  0.24999933  0.33646667
   0.08333267  0.91666633  0.33646667
   0.24999967  0.74999933  0.33646667
   0.58333267  0.41666633  0.33646667
   0.74999967  0.24999933  0.33646667
   0.58333267  0.91666633  0.33646667
   0.74999967  0.74999933  0.33646667
Direct configuration=     2
   0.00414568  0.00267826  0.11933337
   0.35590860  0.00282558  0.09775784
   0.00413725  0.35466461  0.09781791
   0.65238661  0.65086987  0.09778899
   0.32539988  0.32380111  0.10029580
   0.68333541  0.00285564  0.10031927
   0.00417491  0.68157015  0.10027100
   0.08331827  0.41678094  0.33646145
   0.25018514  0.25027224  0.33655565
   0.08349944  0.91678881  0.33644759
   0.25029592  0.74995468  0.33643431
   0.58328152  0.41664396  0.33642000
   0.74993179  0.24999882  0.33645996
   0.58309352  0.91662040  0.33653423
   0.74953339  0.74977560  0.33648196
Direct configuration=     3
   0.00414991  0.00267498  0.11987073
   0.35646557  0.00284128  0.09761448
   0.00419127  0.35511369  0.09764447
   0.65187287  0.65044109  0.09762260
   0.32683213  0.32535687  0.10030075
   0.68170534  0.00281577  0.10029600
   0.00416979  0.68011365  0.10026811
   0.08332594  0.41671984  0.33646423
   0.25008626  0.25012675  0.33650821
   0.08341053  0.91672352  0.33645776
   0.25013798  0.74997848  0.33645156
   0.58330879  0.41665589  0.33644488
   0.74996798  0.24999909  0.33646354
   0.58322101  0.91664489  0.33649821
   0.74978197  0.74989487  0.33647381
Direct configuration=     4
   0.00415248  0.00270217  0.11896859
   0.35689699  0.00280126  0.09787191
   0.00415765  0.35551656  0.09795960
   0.65153966  0.64993668  0.09792338
   0.32693115  0.32528587  0.10026491
   0.68174066  0.00285036  0.10031169
   0.00418403  0.68006644  0.10024665
   0.08328052  0.41665628  0.33646456
   0.24988924  0.24998907  0.33658170
   0.08321721  0.91664364  0.33644975
   0.24984199  0.75005755  0.33642336
   0.58332225  0.41667671  0.33641161
   0.74997055  0.25002931  0.33645630
   0.58340029  0.91675571  0.33655907
   0.75010267  0.75013306  0.33648624
Direct configuration=     5
   0.00415799  0.00276032  0.11703982
   0.35781937  0.00271569  0.09842229
   0.00408576  0.35637789  0.09863337
   0.65082725  0.64885825  0.09856644
   0.32714286  0.32513407  0.10018830
   0.68181619  0.00292433  0.10034524
   0.00421448  0.67996552  0.10020075
   0.08318340  0.41652037  0.33646525
   0.24946802  0.24969470  0.33673883
   0.08280388  0.91647287  0.33643261
   0.24920915  0.75022660  0.33636306
   0.58335104  0.41672123  0.33634050
   0.74997605  0.25009390  0.33644084
   0.58378358  0.91699265  0.33668920
   0.75078832  0.75064230  0.33651283
Direct configuration=     6
   0.00416173  0.00276480  0.11679691
   0.35791860  0.00270470  0.09848260
   0.00408751  0.35646202  0.09870659
   0.65075464  0.64874924  0.09863641
   0.32720422  0.32516465  0.10018976
   0.68177527  0.00292196  0.10035887
   0.00422104  0.67991435  0.10020570
   0.08318472  0.41656124  0.33646631
   0.24951312  0.24973800  0.33675223
   0.08285143  0.91652695  0.33643308
   0.24928958  0.75021899  0.33635855
   0.58332633  0.41673792  0.33633617
   0.74996474  0.25009836  0.33643970
   0.58370237  0.91696422  0.33670104
   0.75067203  0.75057325  0.33651541
Direct configuration=     7
   0.00417295  0.00277826  0.11606816
   0.35821628  0.00267176  0.09866353
   0.00409275  0.35671440  0.09892627
   0.65053681  0.64842224  0.09884631
   0.32738829  0.32525641  0.10019415
   0.68165251  0.00291486  0.10039975
   0.00424073  0.67976085  0.10022055
   0.08318867  0.41668384  0.33646950
   0.24964845  0.24986788  0.33679242
   0.08299408  0.91668920  0.33643448
   0.24953088  0.75019619  0.33634502
   0.58325219  0.41678800  0.33632318
   0.74993083  0.25011173  0.33643628
   0.58345875  0.91687895  0.33673658
   0.75032317  0.75036609  0.33652316
Direct configuration=     8
   0.00419540  0.00280518  0.11461066
   0.35881165  0.00260587  0.09902541
   0.00410323  0.35721916  0.09936563
   0.65010115  0.64776822  0.09926610
   0.32775643  0.32543992  0.10020291
   0.68140697  0.00290065  0.10048152
   0.00428010  0.67945386  0.10025026
   0.08319658  0.41692905  0.33647586
   0.24991911  0.25012766  0.33687280
   0.08327937  0.91701371  0.33643729
   0.25001347  0.75015058  0.33631795
   0.58310392  0.41688815  0.33629721
   0.74986300  0.25013847  0.33642944
   0.58297152  0.91670841  0.33680766
   0.74962543  0.74995178  0.33653864
Direct configuration=     9
   0.00419887  0.00280934  0.11438520
   0.35890375  0.00259568  0.09908139
   0.00410485  0.35729725  0.09943359
   0.65003375  0.64766705  0.09933104
   0.32781338  0.32546831  0.10020426
   0.68136899  0.00289845  0.10049417
   0.00428619  0.67940637  0.10025485
   0.08319781  0.41696698  0.33647684
   0.24996097  0.25016784  0.33688524
   0.08332351  0.91706391  0.33643772
   0.25008813  0.75014352  0.33631376
   0.58308098  0.41690364  0.33629319
   0.74985251  0.25014261  0.33642838
   0.58289614  0.91668203  0.33681866
   0.74951749  0.74988769  0.33654104
Direct configuration=    10
   0.00421760  0.00279658  0.11398495
   0.35889877  0.00257820  0.09914282
   0.00414489  0.35726255  0.09950282
   0.65006435  0.64768279  0.09939811
   0.32788294  0.32554359  0.10025628
   0.68129286  0.00285142  0.10055712
   0.00430868  0.67933416  0.10030999
   0.08318842  0.41694727  0.33648202
   0.24995792  0.25026944  0.33687946
   0.08330264  0.91700394  0.33644832
   0.25006393  0.75016169  0.33632112
   0.58308663  0.41685218  0.33630562
   0.74980638  0.25015646  0.33643113
   0.58292356  0.91671750  0.33681676
   0.74948777  0.74994291  0.33654282
Direct configuration=    11
   0.00427381  0.00275827  0.11278422
   0.35888383  0.00252578  0.09932712
   0.00426498  0.35715845  0.09971052
   0.65015614  0.64773003  0.09959933
   0.32809160  0.32576943  0.10041231
   0.68106448  0.00271033  0.10074595
   0.00437614  0.67911752  0.10047541
   0.08316025  0.41688812  0.33649754
   0.24994874  0.25057426  0.33686214
   0.08324002  0.91682402  0.33648011
   0.24999134  0.75021617  0.33634318
   0.58310359  0.41669781  0.33634292
   0.74966798  0.25019800  0.33643936
   0.58300582  0.91682391  0.33681106
   0.74939862  0.75010857  0.33654816
Direct configuration=    12
   0.00438621  0.00268167  0.11038276
   0.35885393  0.00242094  0.09969573
   0.00450517  0.35695025  0.10012591
   0.65033973  0.64782449  0.10000175
   0.32850894  0.32622111  0.10072438
   0.68060772  0.00242816  0.10112361
   0.00451105  0.67868423  0.10080625
   0.08310391  0.41676983  0.33652858
   0.24993039  0.25118388  0.33682749
   0.08311479  0.91646420  0.33654371
   0.24984616  0.75032515  0.33638730
   0.58313749  0.41638907  0.33641751
   0.74939120  0.25028107  0.33645583
   0.58317034  0.91703673  0.33679967
   0.74922030  0.75043988  0.33655884
Direct configuration=    13
   0.00440605  0.00266261  0.11000652
   0.35885012  0.00240619  0.09975199
   0.00454206  0.35692542  0.10018481
   0.65036071  0.64783993  0.10005996
   0.32855471  0.32627202  0.10077859
   0.68056374  0.00238656  0.10118462
   0.00453275  0.67862748  0.10086256
   0.08306887  0.41679862  0.33653296
   0.24989318  0.25110184  0.33681811
   0.08308204  0.91652043  0.33655434
   0.24981578  0.75032094  0.33639842
   0.58311996  0.41645561  0.33643166
   0.74941321  0.25027876  0.33646066
   0.58315717  0.91706629  0.33679286
   0.74926697  0.75043797  0.33656127
Direct configuration=    14
   0.00446556  0.00260545  0.10887781
   0.35883870  0.00236192  0.09992077
   0.00465274  0.35685091  0.10036151
   0.65042366  0.64788625  0.10023458
   0.32869203  0.32642473  0.10094122
   0.68043181  0.00226173  0.10136766
   0.00459783  0.67845722  0.10103147
   0.08296374  0.41688499  0.33654609
   0.24978155  0.25085573  0.33678999
   0.08298378  0.91668914  0.33658623
   0.24972466  0.75030833  0.33643178
   0.58306737  0.41665523  0.33647410
   0.74947925  0.25027182  0.33647516
   0.58311767  0.91715498  0.33677241
   0.74940700  0.75043223  0.33656855
Direct configuration=    15
   0.00458458  0.00249111  0.10662039
   0.35881584  0.00227338  0.10025832
   0.00487410  0.35670191  0.10071491
   0.65054955  0.64797888  0.10058382
   0.32896665  0.32673015  0.10126648
   0.68016794  0.00201209  0.10173373
   0.00472799  0.67811671  0.10136930
   0.08275348  0.41705774  0.33657237
   0.24955829  0.25036350  0.33673373
   0.08278727  0.91702656  0.33665001
   0.24954242  0.75028309  0.33649850
   0.58296219  0.41705446  0.33655898
   0.74961134  0.25025795  0.33650417
   0.58303866  0.91733237  0.33673152
   0.74968705  0.75042076  0.33658311
Direct configuration=    16
   0.00454305  0.00253101  0.10740808
   0.35882382  0.00230428  0.10014053
   0.00479686  0.35675390  0.10059160
   0.65050562  0.64794656  0.10046196
   0.32887082  0.32662358  0.10115298
   0.68026002  0.00209920  0.10160600
   0.00468257  0.67823552  0.10125142
   0.08282684  0.41699746  0.33656320
   0.24963619  0.25053525  0.33675336
   0.08285584  0.91690882  0.33662775
   0.24960601  0.75029190  0.33647522
   0.58299889  0.41691516  0.33652936
   0.74956525  0.25026279  0.33649405
   0.58306623  0.91727047  0.33674579
   0.74958933  0.75042476  0.33657803
Direct configuration=    17
   0.00454447  0.00251676  0.10740378
   0.35889487  0.00230940  0.10015533
   0.00477766  0.35683111  0.10059478
   0.65042820  0.64787633  0.10046859
   0.32881346  0.32654007  0.10114898
   0.68035726  0.00212939  0.10159243
   0.00467802  0.67828050  0.10124547
   0.08286826  0.41701552  0.33656079
   0.24962490  0.25046562  0.33675194
   0.08290704  0.91698442  0.33662520
   0.24963247  0.75033019  0.33648291
   0.58296857  0.41696610  0.33652932
   0.74957948  0.25030766  0.33649965
   0.58299051  0.91716235  0.33673833
   0.74956215  0.75038522  0.33658184
Direct configuration=    18
   0.00454840  0.00247752  0.10739192
   0.35909063  0.00232352  0.10019611
   0.00472476  0.35704383  0.10060353
   0.65021489  0.64768285  0.10048686
   0.32865542  0.32630999  0.10113796
   0.68062516  0.00221257  0.10155506
   0.00466547  0.67840441  0.10122908
   0.08298235  0.41706529  0.33655414
   0.24959382  0.25027377  0.33674800
   0.08304812  0.91719272  0.33661818
   0.24970538  0.75043569  0.33650409
   0.58288505  0.41710646  0.33652921
   0.74961868  0.25043130  0.33651508
   0.58278192  0.91686446  0.33671778
   0.74948728  0.75027628  0.33659233
Direct configuration=    19
   0.00455147  0.00245603  0.10738560
   0.35920785  0.00233086  0.10022207
   0.00469686  0.35713912  0.10060741
   0.65010072  0.64757721  0.10049712
   0.32859962  0.32621563  0.10113224
   0.68073276  0.00225887  0.10153025
   0.00465798  0.67845580  0.10121959
   0.08298049  0.41706169  0.33655180
   0.24959908  0.25031879  0.33674412
   0.08301019  0.91714436  0.33661527
   0.24967208  0.75042552  0.33651570
   0.58288328  0.41707865  0.33653073
   0.74959639  0.25040907  0.33652329
   0.58282223  0.91691703  0.33670688
   0.74951633  0.75031205  0.33659726
Direct configuration=    20
   0.00455760  0.00241318  0.10737301
   0.35944154  0.00234550  0.10027382
   0.00464123  0.35732910  0.10061513
   0.64987310  0.64736660  0.10051758
   0.32848839  0.32602750  0.10112084
   0.68094727  0.00235115  0.10148079
   0.00464305  0.67855823  0.10120068
   0.08297678  0.41705452  0.33654714
   0.24960956  0.25040853  0.33673637
   0.08293456  0.91704796  0.33660947
   0.24960570  0.75040524  0.33653884
   0.58287977  0.41702319  0.33653376
   0.74955194  0.25036476  0.33653965
   0.58290259  0.91702183  0.33668516
   0.74957425  0.75038336  0.33660709
Direct configuration=    21
   0.00456328  0.00240123  0.10736234
   0.35949009  0.00234916  0.10029453
   0.00463239  0.35732555  0.10061489
   0.64984426  0.64733785  0.10052321
   0.32850899  0.32603207  0.10112104
   0.68094106  0.00236957  0.10146111
   0.00463965  0.67855003  0.10119722
   0.08292459  0.41705451  0.33654914
   0.24959995  0.25039972  0.33673091
   0.08294121  0.91707502  0.33661072
   0.24962972  0.75039176  0.33654431
   0.58290501  0.41703561  0.33653816
   0.74957119  0.25036669  0.33654288
   0.58289535  0.91704841  0.33668133
   0.74954060  0.75036349  0.33660753
Direct configuration=    22
   0.00456792  0.00239147  0.10735364
   0.35952974  0.00235216  0.10031145
   0.00462516  0.35732265  0.10061469
   0.64982070  0.64731436  0.10052781
   0.32852581  0.32603580  0.10112121
   0.68093599  0.00238461  0.10144504
   0.00463687  0.67854333  0.10119440
   0.08288196  0.41705450  0.33655078
   0.24959210  0.25039253  0.33672645
   0.08294664  0.91709711  0.33661174
   0.24964934  0.75038075  0.33654877
   0.58292562  0.41704575  0.33654175
   0.74958691  0.25036826  0.33654552
   0.58288944  0.91707012  0.33667821
   0.74951312  0.75034726  0.33660788
Direct configuration=    23
   0.00457756  0.00237644  0.10733491
   0.35954870  0.00235629  0.10033646
   0.00462089  0.35729198  0.10061208
   0.64982355  0.64731454  0.10053291
   0.32855454  0.32605004  0.10112530
   0.68092427  0.00239569  0.10142129
   0.00463509  0.67852009  0.10119344
   0.08288968  0.41705582  0.33655470
   0.24958786  0.25040380  0.33671982
   0.08294727  0.91709804  0.33661445
   0.24964345  0.75039715  0.33655410
   0.58291487  0.41704580  0.33654797
   0.74957671  0.25038256  0.33654854
   0.58287861  0.91705552  0.33667591
   0.74950431  0.75035690  0.33660746
Direct configuration=    24
   0.00460321  0.00233645  0.10728505
   0.35959918  0.00236730  0.10040305
   0.00460950  0.35721033  0.10060513
   0.64983114  0.64731500  0.10054648
   0.32863100  0.32608795  0.10113620
   0.68089305  0.00242521  0.10135807
   0.00463037  0.67845820  0.10119090
   0.08291021  0.41705935  0.33656513
   0.24957656  0.25043381  0.33670218
   0.08294893  0.91710051  0.33662168
   0.24962778  0.75044081  0.33656827
   0.58288625  0.41704593  0.33656452
   0.74954955  0.25042063  0.33655656
   0.58284977  0.91701663  0.33666979
   0.74948083  0.75038257  0.33660634
Direct configuration=    25
   0.00461238  0.00232319  0.10726439
   0.35959547  0.00236903  0.10042270
   0.00461033  0.35718844  0.10060166
   0.64984681  0.64732709  0.10054943
   0.32863623  0.32608260  0.10114249
   0.68090717  0.00242542  0.10133970
   0.00463259  0.67844427  0.10119275
   0.08290923  0.41707216  0.33656821
   0.24957311  0.25043385  0.33669844
   0.08293452  0.91710510  0.33662366
   0.24961433  0.75043859  0.33657244
   0.58287495  0.41705548  0.33656884
   0.74954181  0.25041486  0.33655930
   0.58284905  0.91703308  0.33666886
   0.74948935  0.75038753  0.33660647
Direct configuration=    26
   0.00463988  0.00228339  0.10720240
   0.35958435  0.00237422  0.10048166
   0.00461279  0.35712277  0.10059126
   0.64989383  0.64736336  0.10055826
   0.32865190  0.32606655  0.10116134
   0.68094956  0.00242606  0.10128460
   0.00463925  0.67840247  0.10119831
   0.08290628  0.41711057  0.33657743
   0.24956275  0.25043398  0.33668724
   0.08289127  0.91711886  0.33662959
   0.24957400  0.75043193  0.33658496
   0.58284107  0.41708412  0.33658182
   0.74951859  0.25039753  0.33656755
   0.58284690  0.91708242  0.33666608
   0.74951489  0.75040242  0.33660684
Direct configuration=    27
   0.00464762  0.00227597  0.10717846
   0.35957615  0.00236897  0.10048999
   0.00462266  0.35712504  0.10058721
   0.64990708  0.64736734  0.10055754
   0.32863894  0.32604741  0.10117074
   0.68097699  0.00240984  0.10127688
   0.00464863  0.67840085  0.10120483
   0.08288153  0.41710599  0.33657864
   0.24955103  0.25044017  0.33668976
   0.08289258  0.91712764  0.33662991
   0.24957804  0.75043912  0.33658705
   0.58284991  0.41708649  0.33658213
   0.74952144  0.25041218  0.33657004
   0.58284055  0.91708792  0.33666771
   0.74949419  0.75040574  0.33660845
Direct configuration=    28
   0.00466988  0.00225462  0.10710965
   0.35955257  0.00235388  0.10051393
   0.00465102  0.35713158  0.10057559
   0.64994514  0.64737877  0.10055547
   0.32860168  0.32599240  0.10119774
   0.68105585  0.00236319  0.10125469
   0.00467557  0.67839619  0.10122358
   0.08281041  0.41709281  0.33658210
   0.24951733  0.25045798  0.33669701
   0.08289635  0.91715288  0.33663083
   0.24958962  0.75045977  0.33659308
   0.58287531  0.41709328  0.33658301
   0.74952962  0.25045431  0.33657719
   0.58282228  0.91710373  0.33667239
   0.74943470  0.75041529  0.33661305
Direct configuration=    29
   0.00467689  0.00225069  0.10708495
   0.35956033  0.00234524  0.10051844
   0.00466290  0.35713636  0.10057265
   0.64994841  0.64736833  0.10055444
   0.32860208  0.32598565  0.10120679
   0.68106339  0.00234604  0.10125021
   0.00468611  0.67839310  0.10123051
   0.08280929  0.41710086  0.33658310
   0.24951416  0.25046658  0.33670108
   0.08288906  0.91715652  0.33663113
   0.24958271  0.75046468  0.33659427
   0.58286566  0.41709836  0.33658258
   0.74952042  0.25045730  0.33657923
   0.58281613  0.91710968  0.33667504
   0.74942978  0.75042126  0.33661490
Direct configuration=    30
   0.00469791  0.00223889  0.10701085
   0.35958361  0.00231932  0.10053198
   0.00469853  0.35715073  0.10056385
   0.64995821  0.64733702  0.10055135
   0.32860330  0.32596542  0.10123393
   0.68108604  0.00229459  0.10123675
   0.00471774  0.67838382  0.10125131
   0.08280593  0.41712502  0.33658609
   0.24950466  0.25049238  0.33671332
   0.08286721  0.91716746  0.33663200
   0.24956198  0.75047941  0.33659783
   0.58283672  0.41711358  0.33658129
   0.74949279  0.25046628  0.33658535
   0.58279768  0.91712756  0.33668301
   0.74941503  0.75043920  0.33662042
Direct configuration=    31
   0.00473994  0.00221530  0.10686264
   0.35963017  0.00226747  0.10055906
   0.00476978  0.35717945  0.10054624
   0.64997781  0.64727438  0.10054515
   0.32860572  0.32592496  0.10128822
   0.68113133  0.00219168  0.10120984
   0.00478100  0.67836527  0.10129292
   0.08279922  0.41717332  0.33659206
   0.24948564  0.25054400  0.33673779
   0.08282349  0.91718933  0.33663376
   0.24952052  0.75050888  0.33660495
   0.58277884  0.41714402  0.33657870
   0.74943754  0.25048423  0.33659758
   0.58276078  0.91716330  0.33669894
   0.74938554  0.75047507  0.33663148
Direct configuration=    32
   0.00475408  0.00221180  0.10680516
   0.35969800  0.00224071  0.10056415
   0.00478988  0.35716055  0.10055209
   0.64996471  0.64721487  0.10055026
   0.32867370  0.32595584  0.10129716
   0.68107723  0.00217934  0.10120381
   0.00479900  0.67834221  0.10130009
   0.08278884  0.41719004  0.33659683
   0.24945941  0.25052903  0.33674499
   0.08280329  0.91721343  0.33663829
   0.24949017  0.75052598  0.33660509
   0.58275835  0.41717181  0.33658131
   0.74942938  0.25050173  0.33659902
   0.58274596  0.91717201  0.33670704
   0.74939534  0.75049133  0.33663405
Direct configuration=    33
   0.00476895  0.00220813  0.10674476
   0.35976929  0.00221259  0.10056949
   0.00481100  0.35714069  0.10055824
   0.64995094  0.64715232  0.10055564
   0.32874514  0.32598829  0.10130655
   0.68102036  0.00216636  0.10119746
   0.00481792  0.67831797  0.10130762
   0.08277794  0.41720762  0.33660184
   0.24943184  0.25051330  0.33675255
   0.08278205  0.91723876  0.33664305
   0.24945827  0.75054395  0.33660525
   0.58273681  0.41720102  0.33658404
   0.74942080  0.25052013  0.33660054
   0.58273040  0.91718116  0.33671555
   0.74940564  0.75050840  0.33663675
Direct configuration=    34
   0.00478244  0.00219729  0.10668678
   0.35979698  0.00218862  0.10057100
   0.00481975  0.35711065  0.10057813
   0.64996852  0.64712289  0.10056995
   0.32879070  0.32597601  0.10130120
   0.68102431  0.00217522  0.10119630
   0.00482937  0.67829479  0.10130375
   0.08275229  0.41721177  0.33660806
   0.24941908  0.25055208  0.33675651
   0.08277454  0.91724481  0.33665051
   0.24945576  0.75056345  0.33660510
   0.58273158  0.41720135  0.33659034
   0.74940271  0.25054259  0.33660029
   0.58271418  0.91719352  0.33672273
   0.74936511  0.75052561  0.33663868
Direct configuration=    35
   0.00481286  0.00217288  0.10655612
   0.35985937  0.00213461  0.10057439
   0.00483947  0.35704297  0.10062297
   0.65000813  0.64705656  0.10060220
   0.32889339  0.32594834  0.10128914
   0.68103320  0.00219518  0.10119369
   0.00485518  0.67824256  0.10129503
   0.08269450  0.41722113  0.33662207
   0.24939035  0.25063947  0.33676544
   0.08275761  0.91725846  0.33666734
   0.24945012  0.75060741  0.33660476
   0.58271979  0.41720211  0.33660454
   0.74936192  0.25059322  0.33659971
   0.58267765  0.91722138  0.33673891
   0.74927378  0.75056438  0.33664301
Direct configuration=    36
   0.00482002  0.00216512  0.10652792
   0.35986257  0.00212462  0.10057487
   0.00484404  0.35703282  0.10063332
   0.65002196  0.64704971  0.10060963
   0.32890478  0.32593274  0.10128549
   0.68105008  0.00219680  0.10119424
   0.00486107  0.67823202  0.10129239
   0.08268609  0.41723144  0.33662457
   0.24938406  0.25064613  0.33676735
   0.08274843  0.91726728  0.33667056
   0.24944290  0.75061157  0.33660547
   0.58271108  0.41721120  0.33660743
   0.74935387  0.25059684  0.33660017
   0.58266989  0.91723285  0.33674145
   0.74926648  0.75056955  0.33664447
Direct configuration=    37
   0.00484150  0.00214184  0.10644332
   0.35987215  0.00209463  0.10057629
   0.00485775  0.35700236  0.10066438
   0.65006342  0.64702913  0.10063190
   0.32893896  0.32588594  0.10127454
   0.68110072  0.00220164  0.10119591
   0.00487875  0.67820039  0.10128448
   0.08266085  0.41726236  0.33663209
   0.24936520  0.25066609  0.33677307
   0.08272092  0.91729375  0.33668023
   0.24942125  0.75062406  0.33660759
   0.58268494  0.41723849  0.33661610
   0.74932970  0.25060770  0.33660152
   0.58264662  0.91726725  0.33674908
   0.74924458  0.75058506  0.33664884
Direct configuration=    38
   0.00488445  0.00209528  0.10627412
   0.35989133  0.00203464  0.10057913
   0.00488518  0.35694144  0.10072649
   0.65014636  0.64698799  0.10067645
   0.32900731  0.32579234  0.10125264
   0.68120200  0.00221132  0.10119924
   0.00491411  0.67813712  0.10126865
   0.08261038  0.41732421  0.33664712
   0.24932746  0.25070603  0.33678452
   0.08266588  0.91734668  0.33669956
   0.24937795  0.75064903  0.33661183
   0.58263267  0.41729306  0.33663343
   0.74928137  0.25062941  0.33660423
   0.58260009  0.91733605  0.33676433
   0.74920079  0.75061607  0.33665758
Direct configuration=    39
   0.00497037  0.00200217  0.10593572
   0.35992968  0.00191468  0.10058482
   0.00494003  0.35681960  0.10085072
   0.65031223  0.64690569  0.10076554
   0.32914402  0.32560514  0.10120885
   0.68140455  0.00223068  0.10120590
   0.00498483  0.67801059  0.10123700
   0.08250943  0.41744791  0.33667719
   0.24925200  0.25078589  0.33680741
   0.08255582  0.91745254  0.33673823
   0.24929135  0.75069897  0.33662031
   0.58252812  0.41740221  0.33666810
   0.74918472  0.25067285  0.33660966
   0.58250701  0.91747365  0.33679483
   0.74911319  0.75067810  0.33667506
Direct configuration=    40
   0.00494430  0.00203042  0.10603839
   0.35991804  0.00195107  0.10058309
   0.00492339  0.35685656  0.10081303
   0.65026190  0.64693066  0.10073851
   0.32910255  0.32566193  0.10122213
   0.68134310  0.00222480  0.10120388
   0.00496337  0.67804898  0.10124660
   0.08254006  0.41741038  0.33666807
   0.24927490  0.25076166  0.33680047
   0.08258921  0.91742042  0.33672650
   0.24931763  0.75068382  0.33661774
   0.58255984  0.41736909  0.33665759
   0.74921404  0.25065967  0.33660801
   0.58253525  0.91743190  0.33678558
   0.74913977  0.75065928  0.33666976
Direct configuration=    41
   0.00497721  0.00199568  0.10593456
   0.35994083  0.00192129  0.10058514
   0.00495523  0.35684464  0.10084385
   0.65029806  0.64690004  0.10076099
   0.32912978  0.32561805  0.10121179
   0.68139411  0.00219439  0.10121196
   0.00499411  0.67801096  0.10124005
   0.08252685  0.41742626  0.33667271
   0.24922948  0.25077047  0.33680972
   0.08256003  0.91744466  0.33673350
   0.24926667  0.75073359  0.33662653
   0.58252506  0.41739769  0.33666451
   0.74918694  0.25070782  0.33661548
   0.58250731  0.91743056  0.33678901
   0.74913567  0.75070457  0.33667955
Direct configuration=    42
   0.00504812  0.00192083  0.10571083
   0.35998992  0.00185710  0.10058955
   0.00502384  0.35681893  0.10091027
   0.65037596  0.64683407  0.10080944
   0.32918848  0.32552350  0.10118949
   0.68150404  0.00212884  0.10122937
   0.00506034  0.67792902  0.10122593
   0.08249840  0.41746047  0.33668270
   0.24913162  0.25078946  0.33682965
   0.08249715  0.91749690  0.33674860
   0.24915686  0.75084085  0.33664548
   0.58245012  0.41745930  0.33667942
   0.74912854  0.25081157  0.33663156
   0.58244710  0.91742767  0.33679640
   0.74912685  0.75080216  0.33670065
Direct configuration=    43
   0.00509250  0.00188186  0.10559682
   0.36006062  0.00183132  0.10059435
   0.00508139  0.35681831  0.10092940
   0.65038072  0.64677685  0.10082474
   0.32921758  0.32551963  0.10118598
   0.68150695  0.00204688  0.10124666
   0.00510789  0.67789506  0.10122605
   0.08246488  0.41749296  0.33668331
   0.24910201  0.25082093  0.33684092
   0.08246828  0.91753138  0.33675074
   0.24913180  0.75086909  0.33666160
   0.58241846  0.41749127  0.33668312
   0.74909685  0.25084079  0.33664605
   0.58241030  0.91745764  0.33679439
   0.74908710  0.75082670  0.33671520
Direct configuration=    44
   0.00522563  0.00176493  0.10525477
   0.36027273  0.00175398  0.10060875
   0.00525406  0.35681644  0.10098681
   0.65039501  0.64660518  0.10087065
   0.32930487  0.32550801  0.10117547
   0.68151569  0.00180102  0.10129851
   0.00525053  0.67779319  0.10122642
   0.08236432  0.41759044  0.33668513
   0.24901317  0.25091536  0.33687472
   0.08238168  0.91763482  0.33675717
   0.24905662  0.75095381  0.33670996
   0.58232349  0.41758715  0.33669423
   0.74900179  0.25092846  0.33668953
   0.58229989  0.91754755  0.33678835
   0.74896786  0.75090033  0.33675888
Direct configuration=    45
   0.00549191  0.00153108  0.10457068
   0.36069694  0.00159929  0.10063755
   0.00559939  0.35681269  0.10110163
   0.65042360  0.64626185  0.10096246
   0.32947946  0.32548479  0.10115445
   0.68153316  0.00130929  0.10140221
   0.00553582  0.67758944  0.10122716
   0.08216321  0.41778539  0.33668877
   0.24883550  0.25110421  0.33694232
   0.08220847  0.91784170  0.33677002
   0.24890624  0.75112325  0.33680668
   0.58213353  0.41777893  0.33671645
   0.74881166  0.25110381  0.33677647
   0.58207908  0.91772736  0.33677626
   0.74872937  0.75104757  0.33684622
Direct configuration=    46
   0.00533402  0.00166975  0.10497632
   0.36044540  0.00169102  0.10062047
   0.00539462  0.35681491  0.10103355
   0.65040665  0.64646543  0.10090802
   0.32937593  0.32549856  0.10116692
   0.68152280  0.00160087  0.10134072
   0.00536665  0.67771026  0.10122672
   0.08228246  0.41766979  0.33668661
   0.24894085  0.25099223  0.33690223
   0.08231117  0.91771903  0.33676240
   0.24899541  0.75102277  0.33674933
   0.58224617  0.41766521  0.33670327
   0.74892440  0.25099984  0.33672491
   0.58221002  0.91762074  0.33678343
   0.74887078  0.75096026  0.33679443
Direct configuration=    47
   0.00542197  0.00160292  0.10473681
   0.36055621  0.00162972  0.10065157
   0.00549356  0.35670810  0.10104765
   0.65046185  0.64639640  0.10092840
   0.32940094  0.32543234  0.10117155
   0.68159453  0.00147983  0.10137577
   0.00546830  0.67768139  0.10123540
   0.08219373  0.41773261  0.33670731
   0.24888285  0.25109441  0.33690596
   0.08221358  0.91774455  0.33678200
   0.24890816  0.75106352  0.33676464
   0.58218685  0.41770512  0.33672681
   0.74884444  0.25103397  0.33673908
   0.58218537  0.91774859  0.33680193
   0.74881500  0.75104720  0.33680445
Direct configuration=    48
   0.00551119  0.00153515  0.10449389
   0.36066860  0.00156754  0.10068311
   0.00559390  0.35659976  0.10106195
   0.65051783  0.64632638  0.10094907
   0.32942629  0.32536518  0.10117625
   0.68166728  0.00135707  0.10141132
   0.00557140  0.67765212  0.10124421
   0.08210374  0.41779633  0.33672830
   0.24882402  0.25119805  0.33690974
   0.08211459  0.91777044  0.33680189
   0.24881966  0.75110484  0.33678017
   0.58212669  0.41774560  0.33675068
   0.74876334  0.25106858  0.33675344
   0.58216037  0.91787826  0.33682069
   0.74875843  0.75113537  0.33681461
Direct configuration=    49
   0.00557006  0.00147875  0.10432590
   0.36072246  0.00151770  0.10071591
   0.00564573  0.35652432  0.10106647
   0.65057457  0.64628851  0.10096300
   0.32947119  0.32530995  0.10118115
   0.68173428  0.00130883  0.10142953
   0.00563500  0.67760101  0.10125028
   0.08205883  0.41783958  0.33674784
   0.24876399  0.25122124  0.33690856
   0.08208065  0.91783867  0.33681893
   0.24878078  0.75116703  0.33678543
   0.58207698  0.41780612  0.33677004
   0.74872356  0.25113645  0.33675909
   0.58208743  0.91789036  0.33684083
   0.74870184  0.75117213  0.33681637
Direct configuration=    50
   0.00572814  0.00132732  0.10387482
   0.36086710  0.00138387  0.10080398
   0.00578489  0.35632176  0.10107858
   0.65072692  0.64618684  0.10100039
   0.32959175  0.32516164  0.10119433
   0.68191420  0.00117928  0.10147842
   0.00580576  0.67746379  0.10126659
   0.08193824  0.41795573  0.33680032
   0.24860280  0.25128350  0.33690539
   0.08198949  0.91802187  0.33686468
   0.24867639  0.75133402  0.33679955
   0.58194349  0.41796864  0.33682203