Lattice                                 
           1
     4.295486    2.480000    0.000000
    -4.295486    2.480000    0.000000
     0.000000    0.000000   15.000000
   B    C 
     2    14
Direct configuration=     1
   0.33833034  0.66916432  0.10000000
   0.67165522  0.33584146  0.10000000
   0.16373946  0.31999962  0.10000000
   0.32250218  0.16126397  0.10000000
   0.16376430  0.84376384  0.10000000
   0.84623863  0.16123684  0.10000000
   0.68749850  0.84373000  0.10000000
   0.84626736  0.68499594  0.10000000
   0.24999933  0.24999967  0.32633333
   0.41666633  0.08333267  0.32633333
   0.24999933  0.74999967  0.32633333
   0.41666633  0.58333267  0.32633333
   0.74999933  0.24999967  0.32633333
   0.91666633  0.08333267  0.32633333
   0.74999933  0.74999967  0.32633333
   0.91666633  0.58333267  0.32633333
Direct configuration=     2
   0.33843559  0.66906394  0.10013226
   0.67178873  0.33570776  0.10007739
   0.16965944  0.33179664  0.09995373
   0.33400488  0.16704287  0.09998504
   0.16950106  0.83801980  0.09996681
   0.84031384  0.16714009  0.09996548
   0.67571684  0.83783315  0.09995442
   0.84046311  0.67350808  0.09998524
   0.24987298  0.24961772  0.32639739
   0.41631257  0.08327898  0.32638705
   0.24982078  0.75018903  0.32626840
   0.41677591  0.58322010  0.32622893
   0.75003447  0.24995542  0.32621009
   0.91685898  0.08313296  0.32637356
   0.75038216  0.75013303  0.32639877
   0.91671732  0.58368575  0.32638210
Direct configuration=     3
   0.33835539  0.66914044  0.10003147
   0.67168699  0.33580965  0.10001842
   0.16514817  0.32280682  0.09998899
   0.32523934  0.16263910  0.09999644
   0.16512941  0.84239700  0.09999210
   0.84482878  0.16264157  0.09999179
   0.68469496  0.84232680  0.09998915
   0.84488619  0.68226231  0.09999649
   0.24996927  0.24990878  0.32634858
   0.41658215  0.08331989  0.32634612
   0.24995685  0.75004473  0.32631788
   0.41669241  0.58330588  0.32630849
   0.75000769  0.24998914  0.32630401
   0.91671218  0.08328515  0.32634291
   0.75009043  0.75003140  0.32634890
   0.91667847  0.58341669  0.32634494
Direct configuration=     4
   0.33835535  0.66914047  0.10003143
   0.67168694  0.33580969  0.10001839
   0.16514620  0.32280289  0.09998900
   0.32523551  0.16263718  0.09999645
   0.16512750  0.84239891  0.09999211
   0.84483076  0.16263960  0.09999180
   0.68469889  0.84232877  0.09998917
   0.84488812  0.68226614  0.09999649
   0.24996931  0.24990891  0.32634855
   0.41658227  0.08331991  0.32634610
   0.24995691  0.75004466  0.32631790
   0.41669237  0.58330592  0.32630853
   0.75000768  0.24998915  0.32630405
   0.91671211  0.08328521  0.32634289
   0.75009030  0.75003136  0.32634888
   0.91667845  0.58341657  0.32634492
Direct configuration=     5
   0.33835535  0.66914048  0.10003142
   0.67168693  0.33580970  0.10001839
   0.16514587  0.32280224  0.09998901
   0.32523488  0.16263686  0.09999645
   0.16512718  0.84239923  0.09999212
   0.84483108  0.16263928  0.09999180
   0.68469953  0.84232909  0.09998917
   0.84488844  0.68226677  0.09999649
   0.24996932  0.24990893  0.32634855
   0.41658229  0.08331991  0.32634609
   0.24995692  0.75004465  0.32631791
   0.41669237  0.58330592  0.32630853
   0.75000768  0.24998916  0.32630405
   0.91671210  0.08328522  0.32634289
   0.75009028  0.75003135  0.32634888
   0.91667845  0.58341655  0.32634492
Direct configuration=     6
   0.33835480  0.66914657  0.10011587
   0.67168433  0.33581412  0.10006576
   0.16510041  0.32281031  0.09996060
   0.32524161  0.16267412  0.09998582
   0.16511142  0.84240069  0.09997563
   0.84485562  0.16263005  0.09996775
   0.68468554  0.84238051  0.09996114
   0.84484382  0.68226150  0.09998618
   0.24996159  0.24986593  0.32639208
   0.41656629  0.08329724  0.32637983
   0.24994517  0.75005573  0.32627622
   0.41671418  0.58328510  0.32623862
   0.75001180  0.24998316  0.32622416
   0.91674874  0.08324906  0.32636832
   0.75013159  0.75003786  0.32639329
   0.91670175  0.58343340  0.32637540
Direct configuration=     7
   0.33835459  0.66914899  0.10014941
   0.67168330  0.33581587  0.10008457
   0.16508235  0.32281352  0.09994932
   0.32524428  0.16268891  0.09998160
   0.16510516  0.84240127  0.09996908
   0.84486537  0.16262638  0.09995820
   0.68467998  0.84240093  0.09995001
   0.84482610  0.68225941  0.09998209
   0.24995852  0.24984885  0.32640937
   0.41655994  0.08328824  0.32639323
   0.24994051  0.75006012  0.32625966
   0.41672284  0.58327683  0.32621086
   0.75001344  0.24998078  0.32619243
   0.91676329  0.08323470  0.32637841
   0.75014800  0.75004044  0.32641093
   0.91671100  0.58344009  0.32638751
Direct configuration=     8
   0.33830645  0.66918132  0.10022255
   0.67168916  0.33581249  0.10013132
   0.16520275  0.32285197  0.09992971
   0.32517196  0.16264955  0.09996843
   0.16506914  0.84244454  0.09996630
   0.84477583  0.16270473  0.09992686
   0.68466242  0.84230854  0.09993092
   0.84484204  0.68232664  0.09996935
   0.25001612  0.24989011  0.32644185
   0.41662450  0.08329930  0.32640321
   0.25000424  0.74999786  0.32622941
   0.41671259  0.58328298  0.32616339
   0.75004872  0.24994931  0.32614881
   0.91672620  0.08326879  0.32639581
   0.75010982  0.74998514  0.32644356
   0.91669675  0.58337205  0.32639520
Direct configuration=     9
   0.33833204  0.66916414  0.10018367
   0.67168604  0.33581429  0.10010647
   0.16513875  0.32283153  0.09994013
   0.32521040  0.16267048  0.09997543
   0.16508828  0.84242154  0.09996778
   0.84482343  0.16266308  0.09994352
   0.68467176  0.84235765  0.09994106
   0.84483357  0.68229090  0.09997612
   0.24998550  0.24986818  0.32642458
   0.41659018  0.08329342  0.32639790
   0.24997036  0.75003096  0.32624549
   0.41671804  0.58327971  0.32618862
   0.75002997  0.24996604  0.32617200
   0.91674591  0.08325067  0.32638656
   0.75013012  0.75001454  0.32642621
   0.91670433  0.58340822  0.32639111
Direct configuration=    10
   0.33831396  0.66918489  0.10020639
   0.67165225  0.33584311  0.10012418
   0.16511656  0.32284344  0.09993679
   0.32522028  0.16265665  0.09997019
   0.16506374  0.84243572  0.09997666
   0.84483170  0.16266822  0.09992522
   0.68465395  0.84237673  0.09993811
   0.84485192  0.68228679  0.09997120
   0.25000616  0.24988453  0.32642929
   0.41662518  0.08328890  0.32638663
   0.24999315  0.75000734  0.32623914
   0.41672407  0.58327315  0.32618547
   0.75004201  0.24995417  0.32617752
   0.91674133  0.08325523  0.32638987
   0.75011364  0.74999347  0.32643046
   0.91670878  0.58337300  0.32637955
Direct configuration=    11
   0.33831818  0.66918004  0.10020109
   0.67166014  0.33583638  0.10012005
   0.16512174  0.32284066  0.09993757
   0.32521798  0.16265988  0.09997141
   0.16506947  0.84243241  0.09997459
   0.84482977  0.16266702  0.09992949
   0.68465810  0.84237228  0.09993880
   0.84484763  0.68228775  0.09997235
   0.25000134  0.24988071  0.32642819
   0.41661701  0.08328996  0.32638926
   0.24998783  0.75001286  0.32624062
   0.41672266  0.58327468  0.32618621
   0.75003920  0.24995694  0.32617623
   0.91674240  0.08325416  0.32638910
   0.75011748  0.74999839  0.32642947
   0.91670774  0.58338122  0.32638224
Direct configuration=    12
   0.33830214  0.66919542  0.10021870
   0.67164890  0.33584911  0.10013338
   0.16511252  0.32284446  0.09993465
   0.32520853  0.16267881  0.09996907
   0.16506659  0.84243532  0.09998431
   0.84482230  0.16267610  0.09991377
   0.68465526  0.84238602  0.09993629
   0.84482468  0.68229526  0.09997034
   0.25000865  0.24986735  0.32642856
   0.41662492  0.08327728  0.32637752
   0.24999457  0.75000564  0.32623565
   0.41673497  0.58326250  0.32618835
   0.75004752  0.24994799  0.32618480
   0.91675643  0.08324014  0.32639150
   0.75013023  0.74999052  0.32642935
   0.91672047  0.58337341  0.32637043
Direct configuration=    13
   0.33828107  0.66921562  0.10024184
   0.67163413  0.33586582  0.10015089
   0.16510041  0.32284945  0.09993081
   0.32519612  0.16270369  0.09996600
   0.16506281  0.84243915  0.09999708
   0.84481250  0.16268804  0.09989313
   0.68465151  0.84240407  0.09993300
   0.84479454  0.68230513  0.09996770
   0.25001825  0.24984979  0.32642904
   0.41663531  0.08326062  0.32636210
   0.25000341  0.74999617  0.32622912
   0.41675113  0.58324649  0.32619116
   0.75005844  0.24993624  0.32619606
   0.91677486  0.08322173  0.32639465
   0.75014698  0.74998019  0.32642919
   0.91673718  0.58336314  0.32635490
Direct configuration=    14
   0.33828099  0.66921652  0.10025671
   0.67163132  0.33586866  0.10015945
   0.16509248  0.32287271  0.09992578
   0.32517710  0.16270618  0.09996904
   0.16503970  0.84245859  0.10000714
   0.84479565  0.16270660  0.09988038
   0.68462917  0.84241343  0.09992845
   0.84479100  0.68232630  0.09997114
   0.25002883  0.24982755  0.32642582
   0.41663737  0.08324841  0.32635418
   0.25001342  0.74998649  0.32622283
   0.41676242  0.58323453  0.32619507
   0.75007190  0.24992281  0.32620061
   0.91678937  0.08320641  0.32639752
   0.75016934  0.74996982  0.32642560
   0.91674861  0.58336033  0.32634695
Direct configuration=    15
   0.33828091  0.66921738  0.10027084
   0.67162864  0.33587136  0.10016759
   0.16508493  0.32289482  0.09992100
   0.32515901  0.16270855  0.09997193
   0.16501772  0.84247707  0.10001672
   0.84477962  0.16272425  0.09986826
   0.68460793  0.84242232  0.09992413
   0.84478763  0.68234643  0.09997441
   0.25003890  0.24980640  0.32642276
   0.41663933  0.08323679  0.32634664
   0.25002294  0.74997729  0.32621684
   0.41677315  0.58322316  0.32619879
   0.75008470  0.24991004  0.32620494
   0.91680317  0.08319185  0.32640024
   0.75019060  0.74995996  0.32642218
   0.91675948  0.58335766  0.32633939
Direct configuration=    16
   0.33826768  0.66923196  0.10028297
   0.67161426  0.33588619  0.10017111
   0.16506447  0.32290917  0.09991273
   0.32514448  0.16272852  0.09998291
   0.16500175  0.84249188  0.10003114
   0.84476529  0.16274036  0.09985613
   0.68459315  0.84244350  0.09991654
   0.84476731  0.68236167  0.09998599
   0.25005624  0.24979388  0.32641629
   0.41665912  0.08322140  0.32634312
   0.25004095  0.74995879  0.32620864
   0.41678872  0.58320716  0.32620210
   0.75010113  0.24989327  0.32620305
   0.91681680  0.08317791  0.32640260
   0.75020279  0.74994220  0.32641549
   0.91677452  0.58333746  0.32633586
Direct configuration=    17
   0.33822799  0.66927569  0.10031937
   0.67157110  0.33593066  0.10018169
   0.16500309  0.32295222  0.09988790
   0.32510089  0.16278846  0.10001584
   0.16495382  0.84253632  0.10007441
   0.84472230  0.16278869  0.09981974
   0.68454883  0.84250705  0.09989379
   0.84470636  0.68240736  0.10002074
   0.25010829  0.24975634  0.32639685
   0.41671850  0.08317521  0.32633255
   0.25009498  0.74990329  0.32618401
   0.41683544  0.58315916  0.32621202
   0.75015042  0.24984297  0.32619739
   0.91685768  0.08313609  0.32640969
   0.75023935  0.74988894  0.32639544
   0.91681964  0.58327687  0.32632524
Direct configuration=    18
   0.33814860  0.66936315  0.10039218
   0.67148480  0.33601959  0.10020284
   0.16488033  0.32303833  0.09983826
   0.32501370  0.16290832  0.10008169
   0.16485795  0.84262521  0.10016095
   0.84463631  0.16288535  0.09974697
   0.68446017  0.84263414  0.09984828
   0.84458446  0.68249876  0.10009024
   0.25021238  0.24968127  0.32635798
   0.41683725  0.08308284  0.32631140
   0.25020304  0.74979229  0.32613476
   0.41692888  0.58306315  0.32623187
   0.75024900  0.24974237  0.32618605
   0.91693944  0.08305245  0.32642386
   0.75031246  0.74978242  0.32635532
   0.91690988  0.58315570  0.32630401
Direct configuration=    19
   0.33818775  0.66932002  0.10035628
   0.67152736  0.33597574  0.10019241
   0.16494087  0.32299587  0.09986274
   0.32505669  0.16284922  0.10004922
   0.16490522  0.84258138  0.10011828
   0.84467871  0.16283769  0.09978286
   0.68450389  0.84257147  0.09987072
   0.84464457  0.68245369  0.10005597
   0.25016105  0.24971829  0.32637715
   0.41677869  0.08312839  0.32632183
   0.25014975  0.74984703  0.32615905
   0.41688281  0.58311049  0.32622208
   0.75020039  0.24979198  0.32619164
   0.91689913  0.08309370  0.32641687
   0.75027641  0.74983495  0.32637510
   0.91686539  0.58321545  0.32631448
Direct configuration=    20
   0.33817455  0.66933245  0.10036063
   0.67151536  0.33598831  0.10019406
   0.16493410  0.32300617  0.09985879
   0.32504581  0.16285774  0.10005608
   0.16489634  0.84259135  0.10012945
   0.84466787  0.16284821  0.09977457
   0.68449469  0.84257981  0.09986721
   0.84463525  0.68246403  0.10006325
   0.25017060  0.24970720  0.32637484
   0.41678817  0.08311741  0.32631977
   0.25015903  0.74983746  0.32615596
   0.41689345  0.58309973  0.32622110
   0.75020989  0.24978213  0.32618984
   0.91691020  0.08308244  0.32641595
   0.75028718  0.74982509  0.32637276
   0.91687619  0.58320579  0.32631240
Direct configuration=    21
   0.33813497  0.66936975  0.10037368
   0.67147936  0.33602603  0.10019901
   0.16491380  0.32303706  0.09984694
   0.32501317  0.16288333  0.10007669
   0.16486970  0.84262129  0.10016297
   0.84463532  0.16287977  0.09974970
   0.68446709  0.84260483  0.09985670
   0.84460729  0.68249507  0.10008509
   0.25019925  0.24967393  0.32636792
   0.41681662  0.08308446  0.32631360
   0.25018686  0.74980877  0.32614670
   0.41692537  0.58306744  0.32621815
   0.75023839  0.24975259  0.32618444
   0.91694341  0.08304866  0.32641318
   0.75031948  0.74979553  0.32636572
   0.91690859  0.58317683  0.32630617
Direct configuration=    22
   0.33805580  0.66944435  0.10039980
   0.67140736  0.33610147  0.10020892
   0.16487320  0.32309884  0.09982323
   0.32494790  0.16293450  0.10011790
   0.16481640  0.84268116  0.10023000
   0.84457023  0.16294289  0.09969997
   0.68441190  0.84265487  0.09983568
   0.84455136  0.68255713  0.10012878
   0.25025655  0.24960738  0.32635408
   0.41687351  0.08301858  0.32630125
   0.25024253  0.74975139  0.32612818
   0.41698922  0.58300285  0.32621226
   0.75029539  0.24969352  0.32617363
   0.91700984  0.08298110  0.32640763
   0.75038409  0.74973639  0.32635165
   0.91697339  0.58311891  0.32629372
Direct configuration=    23
   0.33789746  0.66959354  0.10045202
   0.67126336  0.33625235  0.10022873
   0.16479200  0.32322241  0.09977583
   0.32481735  0.16303684  0.10020031
   0.16470982  0.84280090  0.10036406
   0.84444005  0.16306913  0.09960050
   0.68430152  0.84275496  0.09979363
   0.84443951  0.68268126  0.10021615
   0.25037116  0.24947430  0.32632639
   0.41698729  0.08288680  0.32627656
   0.25035386  0.74963662  0.32609114
   0.41711692  0.58287368  0.32620048
   0.75040938  0.24957538  0.32615201
   0.91714269  0.08284598  0.32639655
   0.75051332  0.74961813  0.32632350
   0.91710300  0.58300307  0.32626881
Direct configuration=    24
   0.33758077  0.66989192  0.10055648
   0.67097537  0.33655411  0.10026836
   0.16462960  0.32346954  0.09968101
   0.32455625  0.16324152  0.10036514
   0.16449665  0.84304038  0.10063218
   0.84417968  0.16332160  0.09940156
   0.68408075  0.84295513  0.09970953
   0.84421580  0.68292951  0.10039089
   0.25060036  0.24920813  0.32627101
   0.41721485  0.08262324  0.32622717
   0.25057652  0.74940708  0.32601706
   0.41737231  0.58261535  0.32617691
   0.75063737  0.24933910  0.32610878
   0.91740839  0.08257575  0.32637438
   0.75077176  0.74938159  0.32626721
   0.91736221  0.58277138  0.32621900
Direct configuration=    25
   0.33694741  0.67048869  0.10076538
   0.67039938  0.33715764  0.10034762
   0.16430481  0.32396380  0.09949138
   0.32403405  0.16365089  0.10069480
   0.16407031  0.84351934  0.10116843
   0.84365895  0.16382656  0.09900369
   0.68363922  0.84335548  0.09954134
   0.84376839  0.68342602  0.10074036
   0.25105878  0.24867578  0.32616025
   0.41766997  0.08209613  0.32612840
   0.25102185  0.74894800  0.32586889
   0.41788309  0.58209868  0.32612977
   0.75109336  0.24886653  0.32602232
   0.91793980  0.08203528  0.32633004
   0.75128865  0.74890852  0.32615463
   0.91788064  0.58230800  0.32611936
Direct configuration=    26
   0.33732763  0.67013044  0.10063997
   0.67074516  0.33679533  0.10030004
   0.16449979  0.32366708  0.09960522
   0.32434754  0.16340514  0.10049690
   0.16432625  0.84323181  0.10084651
   0.84397156  0.16352342  0.09924254
   0.68390428  0.84311514  0.09964231
   0.84403698  0.68312796  0.10053056
   0.25078358  0.24899536  0.32622674
   0.41739675  0.08241256  0.32618769
   0.25075451  0.74922359  0.32595784
   0.41757646  0.58240885  0.32615807
   0.75081962  0.24915022  0.32607423
   0.91762079  0.08235974  0.32635666
   0.75097835  0.74919251  0.32622222
   0.91756942  0.58258618  0.32617918
Direct configuration=    27
   0.33731995  0.67013810  0.10064264
   0.67073742  0.33680317  0.10030119
   0.16449376  0.32367416  0.09960265
   0.32434063  0.16341126  0.10050151
   0.16431939  0.84323870  0.10085431
   0.84396478  0.16353061  0.09923678
   0.68389740  0.84312155  0.09964005
   0.84403092  0.68313502  0.10053545
   0.25079031  0.24898801  0.32622532
   0.41740331  0.08240538  0.32618627
   0.25076115  0.74921679  0.32595594
   0.41758344  0.58240172  0.32615718
   0.75082633  0.24914332  0.32607301
   0.91762790  0.08235246  0.32635584
   0.75098552  0.74918561  0.32622078
   0.91757644  0.58257947  0.32617774
Direct configuration=    28
   0.33729690  0.67016110  0.10065066
   0.67071421  0.33682668  0.10030465
   0.16447565  0.32369539  0.09959495
   0.32431993  0.16342963  0.10051533
   0.16429880  0.84325937  0.10087772
   0.84394446  0.16355216  0.09921950
   0.68387676  0.84314075  0.09963326
   0.84401272  0.68315623  0.10055012
   0.25081050  0.24896597  0.32622106
   0.41742298  0.08238384  0.32618201
   0.25078106  0.74919637  0.32595023
   0.41760441  0.58238036  0.32615451
   0.75084647  0.24912263  0.32606937
   0.91764926  0.08233062  0.32635338
   0.75100704  0.74916491  0.32621646
   0.91759752  0.58255933  0.32617345
Direct configuration=    29
   0.33725080  0.67020709  0.10066670
   0.67066779  0.33687371  0.10031156
   0.16443944  0.32373784  0.09957954
   0.32427851  0.16346637  0.10054297
   0.16425762  0.84330070  0.10092454
   0.84390380  0.16359528  0.09918494
   0.68383547  0.84317916  0.09961968
   0.84397634  0.68319863  0.10057947
   0.25085089  0.24892190  0.32621254
   0.41746232  0.08234074  0.32617350
   0.25082090  0.74915554  0.32593881
   0.41764633  0.58233762  0.32614917
   0.75088675  0.24908123  0.32606208
   0.91769197  0.08228696  0.32634847
   0.75105008  0.74912351  0.32620782
   0.91763967  0.58251905  0.32616486
Direct configuration=    30
   0.33715859  0.67029907  0.10069878
   0.67057495  0.33696776  0.10032538
   0.16436703  0.32382275  0.09954872
   0.32419568  0.16353984  0.10059826
   0.16417525  0.84338338  0.10101819
   0.84382248  0.16368150  0.09911582
   0.68375288  0.84325599  0.09959252
   0.84390356  0.68328345  0.10063815
   0.25093166  0.24883374  0.32619551
   0.41754100  0.08225456  0.32615646
   0.25090057  0.74907389  0.32591598
   0.41773017  0.58225214  0.32613850
   0.75096731  0.24899844  0.32604750
   0.91777739  0.08219962  0.32633865
   0.75113615  0.74904071  0.32619055
   0.91772398  0.58243850  0.32614768
Direct configuration=    31
   0.33697419  0.67048304  0.10076294
   0.67038927  0.33715587  0.10035304
   0.16422219  0.32399257  0.09948709
   0.32403001  0.16368680  0.10070884
   0.16401052  0.84354872  0.10120547
   0.84365985  0.16385395  0.09897759
   0.68358772  0.84340963  0.09953820
   0.84375802  0.68345308  0.10075552
   0.25109320  0.24865742  0.32616144
   0.41769838  0.08208218  0.32612239
   0.25105990  0.74891057  0.32587032
   0.41789786  0.58208119  0.32611715
   0.75112842  0.24883285  0.32601835
   0.91794823  0.08202495  0.32631900
   0.75130831  0.74887512  0.32615600
   0.91789259  0.58227739  0.32611333
Direct configuration=    32
   0.33660537  0.67085097  0.10089126
   0.67001792  0.33753208  0.10040834
   0.16393253  0.32433221  0.09936382
   0.32369868  0.16398070  0.10092999
   0.16368107  0.84387940  0.10158004
   0.84333460  0.16419886  0.09870112
   0.68325739  0.84371692  0.09942957
   0.84346693  0.68379234  0.10099026
   0.25141629  0.24830479  0.32609331
   0.41801312  0.08173744  0.32605424
   0.25137858  0.74858394  0.32577899
   0.41823323  0.58173929  0.32607446
   0.75145064  0.24850168  0.32596004
   0.91828991  0.08167561  0.32627970
   0.75165261  0.74854392  0.32608691
   0.91822981  0.58195517  0.32604462
Direct configuration=    33
   0.33586774  0.67158684  0.10114790
   0.66927520  0.33828451  0.10051894
   0.16335319  0.32501149  0.09911728
   0.32303602  0.16456851  0.10137229
   0.16302215  0.84454078  0.10232919
   0.84268408  0.16488866  0.09814818
   0.68259673  0.84433150  0.09921229
   0.84288475  0.68447087  0.10145974
   0.25206246  0.24759953  0.32595703
   0.41864260  0.08104794  0.32591795
   0.25201593  0.74793067  0.32559634
   0.41890398  0.58105549  0.32598907
   0.75209509  0.24783934  0.32584342
   0.91897328  0.08097693  0.32620111
   0.75234121  0.74788152  0.32594872
   0.91890426  0.58131074  0.32590720
Direct configuration=    34
   0.33439247  0.67305858  0.10166118
   0.66778976  0.33978937  0.10074015
   0.16219452  0.32637005  0.09862421
   0.32171070  0.16574414  0.10225690
   0.16170432  0.84586352  0.10382747
   0.84138305  0.16626827  0.09704229
   0.68127542  0.84556066  0.09877775
   0.84172038  0.68582792  0.10239869
   0.25335479  0.24618900  0.32568449
   0.41990157  0.07966896  0.32564536
   0.25329063  0.74662414  0.32523104
   0.42024547  0.57968789  0.32581830
   0.75338400  0.24651466  0.32561019
   0.92034000  0.07957957  0.32604393
   0.75371842  0.74655673  0.32567234
   0.92025317  0.58002187  0.32563237
Direct configuration=    35
   0.33144194  0.67600205  0.10268774
   0.66481889  0.34279908  0.10118258
   0.15987718  0.32908717  0.09763805
   0.31906006  0.16809538  0.10402612
   0.15906866  0.84850901  0.10682404
   0.83878098  0.16902749  0.09483053
   0.67863278  0.84801898  0.09790867
   0.83939166  0.68854201  0.10427660
   0.25593947  0.24336795  0.32513940
   0.42241950  0.07691099  0.32510019
   0.25584003  0.74401108  0.32450043
   0.42292845  0.57695269  0.32547675
   0.75596180  0.24386530  0.32514371
   0.92307346  0.07678486  0.32572958
   0.75647283  0.74390715  0.32511958
   0.92295097  0.57744413  0.32508270
Direct configuration=    36
   0.33187378  0.67557124  0.10253749
   0.66525371  0.34235858  0.10111782
   0.16021635  0.32868949  0.09778239
   0.31944801  0.16775125  0.10376718
   0.15945442  0.84812182  0.10638546
   0.83916182  0.16862365  0.09515424
   0.67901956  0.84765918  0.09803587
   0.83973249  0.68814478  0.10400175
   0.25556117  0.24378084  0.32521918
   0.42205098  0.07731465  0.32517999
   0.25546690  0.74439353  0.32460736
   0.42253577  0.57735302  0.32552674
   0.75558451  0.24425306  0.32521199
   0.92267339  0.07719389  0.32577559
   0.75606969  0.74429495  0.32520048
   0.92255611  0.57782141  0.32516315
Direct configuration=    37
   0.33180333  0.67564231  0.10256236
   0.66518141  0.34243181  0.10112906
   0.16015539  0.32875794  0.09775798
   0.31938204  0.16781248  0.10381138
   0.15938739  0.84818864  0.10646127
   0.83909695  0.16869259  0.09509837
   0.67895249  0.84772303  0.09801440
   0.83967216  0.68821271  0.10404868
   0.25562666  0.24371116  0.32520585
   0.42211508  0.07724619  0.32516626
   0.25553182  0.74432705  0.32458958
   0.42260255  0.57728481  0.32551766
   0.75564978  0.24418610  0.32520034
   0.92274080  0.07712490  0.32576721
   0.75613779  0.74422789  0.32518697
   0.92262301  0.57775574  0.32514931
Direct configuration=    38
   0.33159197  0.67585549  0.10263696
   0.66496452  0.34265151  0.10116278
   0.15997254  0.32896327  0.09768475
   0.31918414  0.16799618  0.10394397
   0.15918631  0.84838910  0.10668868
   0.83890234  0.16889939  0.09493074
   0.67875129  0.84791460  0.09794999
   0.83949115  0.68841652  0.10418948
   0.25582313  0.24350211  0.32516587
   0.42230739  0.07704082  0.32512509
   0.25572659  0.74412758  0.32453622
   0.42280289  0.57708019  0.32549040
   0.75584559  0.24398521  0.32516540
   0.92294305  0.07691791  0.32574207
   0.75634208  0.74402672  0.32514646
   0.92282369  0.57755872  0.32510781
Direct configuration=    39
   0.33116925  0.67628186  0.10278616
   0.66453072  0.34309090  0.10123022
   0.15960684  0.32937394  0.09753828
   0.31878833  0.16836358  0.10420917
   0.15878415  0.84879002  0.10714351
   0.83851311  0.16931299  0.09459547
   0.67834889  0.84829774  0.09782118
   0.83912913  0.68882415  0.10447109
   0.25621607  0.24308402  0.32508590
   0.42269202  0.07663009  0.32504274
   0.25611613  0.74372865  0.32442950
   0.42320358  0.57667096  0.32543589
   0.75623720  0.24358343  0.32509553
   0.92334754  0.07650394  0.32569180
   0.75675066  0.74362439  0.32506543
   0.92322505  0.57716468  0.32502481
Direct configuration=    40
   0.33032381  0.67713461  0.10308457
   0.66366313  0.34396968  0.10136509
   0.15887542  0.33019529  0.09724536
   0.31799672  0.16909837  0.10473956
   0.15797982  0.84959188  0.10805317
   0.83773465  0.17014019  0.09392495
   0.67754408  0.84906402  0.09756355
   0.83840509  0.68963939  0.10503429
   0.25700194  0.24224783  0.32492597
   0.42346128  0.07580861  0.32487804
   0.25689520  0.74293080  0.32421607
   0.42400494  0.57585250  0.32532687
   0.75702044  0.24277986  0.32495577
   0.92415653  0.07567600  0.32559125
   0.75756784  0.74281972  0.32490336
   0.92402778  0.57637660  0.32485880
Direct configuration=    41
   0.33027586  0.67718750  0.10310338
   0.66360562  0.34402821  0.10137694
   0.15879977  0.33026459  0.09722362
   0.31793446  0.16917264  0.10478171
   0.15790906  0.84966051  0.10813130
   0.83767265  0.17020607  0.09386795
   0.67747374  0.84913940  0.09754471
   0.83833308  0.68970530  0.10507917
   0.25707014  0.24218599  0.32491499
   0.42353018  0.07574556  0.32486429
   0.25696474  0.74285988  0.32420196
   0.42406762  0.57578776  0.32531478
   0.75708809  0.24271112  0.32494466
   0.92421604  0.07561471  0.32557997
   0.75762860  0.74275032  0.32489230
   0.92408901  0.57630577  0.32484496
Direct configuration=    42
   0.33013200  0.67734619  0.10315978
   0.66343310  0.34420383  0.10141252
   0.15857281  0.33047250  0.09715839
   0.31774768  0.16939546  0.10490815
   0.15769680  0.84986640  0.10836570
   0.83748666  0.17040371  0.09369697
   0.67726273  0.84936556  0.09748820
   0.83811705  0.68990301  0.10521379
   0.25727474  0.24200047  0.32488204
   0.42373688  0.07555642  0.32482303
   0.25717335  0.74264711  0.32415962
   0.42425564  0.57559355  0.32527850
   0.75729106  0.24250488  0.32491130
   0.92439458  0.07543083  0.32554611
   0.75781091  0.74254212  0.32485910
   0.92427268  0.57609330  0.32480346
Direct configuration=    43
   0.32984427  0.67766357  0.10327260
   0.66308805  0.34455505  0.10148367
   0.15811890  0.33088832  0.09702794
   0.31737413  0.16984109  0.10516105
   0.15727228  0.85027819  0.10883449
   0.83711467  0.17079898  0.09335500
   0.67684070  0.84981787  0.09737518
   0.83768499  0.69029845  0.10548303
   0.25768394  0.24162942  0.32481614
   0.42415028  0.07517815  0.32474053
   0.25759058  0.74222157  0.32407495
   0.42463169  0.57520513  0.32520594
   0.75769701  0.24209241  0.32484460
   0.92475166  0.07506306  0.32547839
   0.75817552  0.74212572  0.32479270
   0.92464002  0.57566836  0.32472046
Direct configuration=    44
   0.32926882  0.67829832  0.10349823
   0.66239795  0.34525749  0.10162596
   0.15721107  0.33171995  0.09676704
   0.31662702  0.17073235  0.10566684
   0.15642323  0.85110178  0.10977207
   0.83637069  0.17158953  0.09267106
   0.67599664  0.85072251  0.09714914
   0.83682087  0.69108931  0.10602152
   0.25850233  0.24088734  0.32468434
   0.42497707  0.07442159  0.32457551
   0.25842504  0.74137049  0.32390561
   0.42538378  0.57442829  0.32506083
   0.75850889  0.24126747  0.32471120
   0.92546582  0.07432753  0.32534296
   0.75890474  0.74129292  0.32465991
   0.92537471  0.57481847  0.32455445
Direct configuration=    45
   0.32811793  0.67956782  0.10394948
   0.66101774  0.34666239  0.10191055
   0.15539540  0.33338322  0.09624523
   0.31513281  0.17251488  0.10667843
   0.15472513  0.85274894  0.11164724
   0.83488273  0.17317062  0.09130317
   0.67430852  0.85253177  0.09669706
   0.83509262  0.69267105  0.10709849
   0.26013912  0.23940317  0.32442075
   0.42663067  0.07290848  0.32424548
   0.26009396  0.73966833  0.32356692
   0.42688798  0.57287461  0.32477061
   0.76013267  0.23961758  0.32444439
   0.92689413  0.07285648  0.32507209
   0.76036317  0.73962732  0.32439433
   0.92684408  0.57311869  0.32422244
Direct configuration=    46
   0.32824337  0.67943850  0.10386383
   0.66117353  0.34652021  0.10190011
   0.15546710  0.33329156  0.09630008
   0.31519442  0.17249580  0.10660733
   0.15483364  0.85266807  0.11156949
   0.83493434  0.17307750  0.09136995
   0.67441467  0.85247007  0.09674757
   0.83509389  0.69259098  0.10702404
   0.26005235  0.23950961  0.32445373
   0.42656624  0.07299623  0.32426605
   0.26000965  0.73975302  0.32362031
   0.42680526  0.57295974  0.32475724
   0.76004558  0.23970616  0.32445869
   0.92680739  0.07294667  0.32505632
   0.76025742  0.73971473  0.32442847
   0.92675982  0.57318648  0.32424348
Direct configuration=    47
   0.32861970  0.67905054  0.10360686
   0.66164091  0.34609368  0.10186878
   0.15568220  0.33301656  0.09646460
   0.31537928  0.17243857  0.10639402
   0.15515917  0.85242545  0.11133624
   0.83508917  0.17279815  0.09157027
   0.67473313  0.85228497  0.09689909
   0.83509768  0.69235080  0.10680068
   0.25979202  0.23982894  0.32455266
   0.42637293  0.07325948  0.32432777
   0.25975671  0.74000712  0.32378045
   0.42655709  0.57321512  0.32471714
   0.75978433  0.23997192  0.32450159