       N       E                     dE             d eps       ncg     rms          rms(c)
DAV:   1     0.203684826429E+03    0.20368E+03   -0.25661E+04 14208   0.859E+02
DAV:   2    -0.116264221635E+03   -0.31995E+03   -0.31840E+03 20304   0.162E+02
DAV:   3    -0.129311504453E+03   -0.13047E+02   -0.13032E+02 26592   0.431E+01
DAV:   4    -0.129336366360E+03   -0.24862E-01   -0.24860E-01 20544   0.183E+00
DAV:   5    -0.129336423622E+03   -0.57262E-04   -0.57262E-04 25680   0.867E-02    0.244E+01
DAV:   6    -0.920010761070E+02    0.37335E+02   -0.72256E+01 25632   0.255E+01    0.138E+01
DAV:   7    -0.100412485241E+03   -0.84114E+01   -0.98114E+00 21600   0.101E+01    0.808E+00
DAV:   8    -0.110466728540E+03   -0.10054E+02   -0.89087E+00 24192   0.900E+00    0.434E+00
DAV:   9    -0.117137114642E+03   -0.66704E+01   -0.38223E+00 19536   0.605E+00    0.277E+00
DAV:  10    -0.123460777350E+03   -0.63237E+01   -0.80929E+00 23904   0.704E+00    0.159E+00
DAV:  11    -0.125278120422E+03   -0.18173E+01   -0.29234E+00 24768   0.386E+00    0.997E-01
DAV:  12    -0.125433792119E+03   -0.15567E+00   -0.22185E-01 19440   0.134E+00    0.472E-01
DAV:  13    -0.125460185746E+03   -0.26394E-01   -0.23216E-02 18144   0.550E-01    0.190E-01
DAV:  14    -0.125483220164E+03   -0.23034E-01   -0.61164E-03 20304   0.282E-01    0.847E-02
DAV:  15    -0.125490980903E+03   -0.77607E-02   -0.31575E-03 19584   0.157E-01    0.444E-02
DAV:  16    -0.125492980764E+03   -0.19999E-02   -0.63849E-04 16320   0.804E-02    0.223E-02
DAV:  17    -0.125494251420E+03   -0.12707E-02   -0.17481E-04 15072   0.514E-02    0.171E-02
DAV:  18    -0.125494948630E+03   -0.69721E-03   -0.82629E-05 16560   0.373E-02    0.124E-02
DAV:  19    -0.125495393823E+03   -0.44519E-03   -0.40705E-05 19440   0.242E-02    0.730E-03
DAV:  20    -0.125495440202E+03   -0.46379E-04   -0.21537E-05 22272   0.176E-02    0.443E-03
DAV:  21    -0.125495461499E+03   -0.21298E-04   -0.59577E-06 20448   0.946E-03    0.219E-03
DAV:  22    -0.125495483205E+03   -0.21705E-04   -0.21920E-06 21936   0.552E-03    0.138E-03
DAV:  23    -0.125495498944E+03   -0.15739E-04   -0.17191E-06 21168   0.399E-03    0.725E-04
DAV:  24    -0.125495502114E+03   -0.31694E-05   -0.33545E-07 22992   0.213E-03    0.380E-04
DAV:  25    -0.125495503071E+03   -0.95776E-06   -0.11690E-07 22368   0.113E-03
   1 F= -.12708220E+03 E0= -.12708142E+03  d E =-.127082E+03  mag=    -0.0000
       N       E                     dE             d eps       ncg     rms          rms(c)
DAV:   1    -0.125506087749E+03   -0.10586E-01   -0.32380E+00 14208   0.550E+00    0.489E-01
DAV:   2    -0.125497564387E+03    0.85234E-02   -0.65117E-02 26016   0.713E-01    0.215E-01
DAV:   3    -0.125496617609E+03    0.94678E-03   -0.52872E-03 20256   0.200E-01    0.845E-02
DAV:   4    -0.125496578376E+03    0.39233E-04   -0.62202E-04 27072   0.695E-02    0.218E-02
DAV:   5    -0.125496581790E+03   -0.34140E-05   -0.17412E-05 24432   0.129E-02    0.714E-03
DAV:   6    -0.125496581792E+03   -0.25038E-08   -0.40093E-06 22512   0.573E-03
   2 F= -.12708266E+03 E0= -.12708188E+03  d E =-.459660E-03  mag=    -0.0000
       N       E                     dE             d eps       ncg     rms          rms(c)
DAV:   1    -0.125505779544E+03   -0.91978E-02   -0.78650E-01 14208   0.271E+00    0.241E-01
DAV:   2    -0.125503659485E+03    0.21201E-02   -0.15738E-02 26112   0.348E-01    0.106E-01
DAV:   3    -0.125503437339E+03    0.22215E-03   -0.12614E-03 23472   0.982E-02    0.422E-02
DAV:   4    -0.125503428043E+03    0.92965E-05   -0.14361E-04 23136   0.333E-02    0.105E-02
DAV:   5    -0.125503428785E+03   -0.74246E-06   -0.47296E-06 22080   0.666E-03
   3 F= -.12708981E+03 E0= -.12708903E+03  d E =-.760730E-02  mag=    -0.0000
       N       E                     dE             d eps       ncg     rms          rms(c)
DAV:   1    -0.125510299266E+03   -0.68712E-02   -0.33319E-01 14208   0.199E+00    0.120E-01
DAV:   2    -0.125510366364E+03   -0.67098E-04   -0.20503E-03 27936   0.179E-01    0.701E-02
DAV:   3    -0.125510364392E+03    0.19720E-05   -0.20170E-04 22368   0.495E-02    0.155E-02
DAV:   4    -0.125510365466E+03   -0.10741E-05   -0.26224E-05 26544   0.190E-02    0.610E-03
DAV:   5    -0.125510365819E+03   -0.35232E-06   -0.10273E-06 22512   0.430E-03
   4 F= -.12709658E+03 E0= -.12709580E+03  d E =-.677377E-02  mag=    -0.0000
       N       E                     dE             d eps       ncg     rms          rms(c)
DAV:   1    -0.125520057960E+03   -0.96925E-02   -0.30172E+00 14208   0.597E+00    0.357E-01
DAV:   2    -0.125520810782E+03   -0.75282E-03   -0.18989E-02 27120   0.542E-01    0.210E-01
DAV:   3    -0.125520779261E+03    0.31521E-04   -0.18590E-03 21216   0.150E-01    0.463E-02
DAV:   4    -0.125520790341E+03   -0.11080E-04   -0.23711E-04 27840   0.566E-02    0.184E-02
DAV:   5    -0.125520793842E+03   -0.35006E-05   -0.85473E-06 22128   0.124E-02    0.840E-03
DAV:   6    -0.125520794034E+03   -0.19239E-06   -0.58995E-06 25344   0.878E-03
   5 F= -.12710652E+03 E0= -.12710573E+03  d E =-.167051E-01  mag=     0.0000
       N       E                     dE             d eps       ncg     rms          rms(c)
DAV:   1    -0.125523500245E+03   -0.27064E-02   -0.60269E-02 14304   0.947E-01    0.552E-02
DAV:   2    -0.125523503130E+03   -0.28856E-05   -0.54606E-04 26880   0.101E-01    0.307E-02
DAV:   3    -0.125523496351E+03    0.67795E-05   -0.56437E-05 21696   0.285E-02    0.958E-03
DAV:   4    -0.125523496801E+03   -0.44958E-06   -0.90370E-06 26496   0.111E-02
   6 F= -.12710916E+03 E0= -.12710837E+03  d E =-.264087E-02  mag=     0.0000
       N       E                     dE             d eps       ncg     rms          rms(c)
DAV:   1    -0.125528240987E+03   -0.47446E-02   -0.54321E-01 14208   0.284E+00    0.165E-01
DAV:   2    -0.125528265328E+03   -0.24341E-04   -0.48079E-03 27264   0.301E-01    0.918E-02
DAV:   3    -0.125528206489E+03    0.58838E-04   -0.49360E-04 20880   0.842E-02    0.284E-02
DAV:   4    -0.125528208697E+03   -0.22072E-05   -0.78065E-05 26832   0.324E-02    0.123E-02
DAV:   5    -0.125528210134E+03   -0.14372E-05   -0.27575E-06 19296   0.703E-03    0.492E-03
DAV:   6    -0.125528209938E+03    0.19608E-06   -0.14735E-06 26256   0.479E-03
   7 F= -.12711366E+03 E0= -.12711288E+03  d E =-.714561E-02  mag=     0.0000
       N       E                     dE             d eps       ncg     rms          rms(c)
DAV:   1    -0.125528691916E+03   -0.48178E-03   -0.81670E-02 14304   0.110E+00    0.638E-02
DAV:   2    -0.125528694624E+03   -0.27078E-05   -0.73541E-04 25632   0.118E-01    0.355E-02
DAV:   3    -0.125528686126E+03    0.84979E-05   -0.76443E-05 21504   0.332E-02    0.111E-02
DAV:   4    -0.125528686626E+03   -0.49963E-06   -0.11823E-05 22608   0.127E-02    0.478E-03
DAV:   5    -0.125528686918E+03   -0.29247E-06   -0.56697E-07 22752   0.306E-03
   8 F= -.12711405E+03 E0= -.12711327E+03  d E =-.753270E-02  mag=     0.0000
       N       E                     dE             d eps       ncg     rms          rms(c)
DAV:   1    -0.125530644615E+03   -0.19580E-02   -0.78689E-02 14208   0.922E-01    0.530E-02
DAV:   2    -0.125530661281E+03   -0.16665E-04   -0.42462E-04 22944   0.749E-02    0.317E-02
DAV:   3    -0.125530659694E+03    0.15866E-05   -0.50917E-05 20544   0.219E-02    0.509E-03
DAV:   4    -0.125530659847E+03   -0.15315E-06   -0.33662E-06 23808   0.714E-03
   9 F= -.12711589E+03 E0= -.12711511E+03  d E =-.184020E-02  mag=     0.0000
       N       E                     dE             d eps       ncg     rms          rms(c)
DAV:   1    -0.125535019465E+03   -0.43598E-02   -0.70899E-01 14208   0.276E+00    0.158E-01
DAV:   2    -0.125535182886E+03   -0.16342E-03   -0.37134E-03 27360   0.222E-01    0.945E-02
DAV:   3    -0.125535161780E+03    0.21106E-04   -0.45654E-04 21264   0.644E-02    0.145E-02
DAV:   4    -0.125535161873E+03   -0.92545E-07   -0.26996E-05 23328   0.205E-02    0.767E-03
DAV:   5    -0.125535160220E+03    0.16529E-05   -0.36353E-06 22272   0.730E-03    0.290E-03
DAV:   6    -0.125535159708E+03    0.51176E-06   -0.11763E-06 23952   0.394E-03
  10 F= -.12711999E+03 E0= -.12711921E+03  d E =-.594550E-02  mag=     0.0000
       N       E                     dE             d eps       ncg     rms          rms(c)
DAV:   1    -0.125537988710E+03   -0.28285E-02   -0.28383E+00 14208   0.551E+00    0.311E-01
DAV:   2    -0.125538657618E+03   -0.66891E-03   -0.14308E-02 26784   0.439E-01    0.187E-01
DAV:   3    -0.125538575710E+03    0.81909E-04   -0.18589E-03 21840   0.130E-01    0.268E-02
DAV:   4    -0.125538574019E+03    0.16911E-05   -0.10581E-04 22944   0.408E-02    0.150E-02
DAV:   5    -0.125538569062E+03    0.49571E-05   -0.14188E-05 23952   0.146E-02    0.489E-03
DAV:   6    -0.125538568035E+03    0.10264E-05   -0.45082E-06 24960   0.773E-03    0.218E-03
DAV:   7    -0.125538569693E+03   -0.16576E-05   -0.18303E-06 23280   0.442E-03    0.178E-03
DAV:   8    -0.125538573382E+03   -0.36896E-05   -0.20415E-06 19776   0.444E-03    0.942E-04
DAV:   9    -0.125538577525E+03   -0.41428E-05   -0.48192E-07 19104   0.213E-03    0.465E-04
DAV:  10    -0.125538580479E+03   -0.29536E-05   -0.16776E-07 21648   0.110E-03    0.274E-04
DAV:  11    -0.125538582097E+03   -0.16183E-05   -0.51683E-08 20928   0.604E-04    0.178E-04
DAV:  12    -0.125538583245E+03   -0.11478E-05   -0.42260E-08 21216   0.465E-04    0.945E-05
DAV:  13    -0.125538583629E+03   -0.38394E-06   -0.10258E-08 22560   0.247E-04
  11 F= -.12712265E+03 E0= -.12712188E+03  d E =-.859745E-02  mag=    -0.0000
       N       E                     dE             d eps       ncg     rms          rms(c)
DAV:   1    -0.125541029867E+03   -0.24466E-02   -0.23944E-01 14208   0.185E+00    0.974E-02
DAV:   2    -0.125541079984E+03   -0.50117E-04   -0.18027E-03 27264   0.180E-01    0.572E-02
DAV:   3    -0.125541064502E+03    0.15482E-04   -0.19395E-04 18960   0.512E-02    0.155E-02
DAV:   4    -0.125541064977E+03   -0.47465E-06   -0.30346E-05 24192   0.202E-02    0.706E-03
DAV:   5    -0.125541065348E+03   -0.37121E-06   -0.10327E-06 22656   0.425E-03
  12 F= -.12712494E+03 E0= -.12712415E+03  d E =-.228997E-02  mag=     0.0000
       N       E                     dE             d eps       ncg     rms          rms(c)
DAV:   1    -0.125541896849E+03   -0.83187E-03   -0.19783E-01 14208   0.168E+00    0.884E-02
DAV:   2    -0.125541939614E+03   -0.42765E-04   -0.14786E-03 26688   0.163E-01    0.519E-02
DAV:   3    -0.125541926630E+03    0.12984E-04   -0.16247E-04 21552   0.467E-02    0.141E-02
DAV:   4    -0.125541926720E+03   -0.89663E-07   -0.24664E-05 24720   0.183E-02    0.645E-03
DAV:   5    -0.125541927077E+03   -0.35754E-06   -0.92786E-07 23808   0.406E-03
  13 F= -.12712561E+03 E0= -.12712483E+03  d E =-.296925E-02  mag=    -0.0000
       N       E                     dE             d eps       ncg     rms          rms(c)
DAV:   1    -0.125542310552E+03   -0.38383E-03   -0.85083E-03 14832   0.379E-01    0.215E-02
DAV:   2    -0.125542306319E+03    0.42334E-05   -0.98248E-05 27360   0.398E-02    0.109E-02
DAV:   3    -0.125542305447E+03    0.87141E-06   -0.76823E-06 20448   0.106E-02
  14 F= -.12712596E+03 E0= -.12712518E+03  d E =-.349751E-03  mag=     0.0000
       N       E                     dE             d eps       ncg     rms          rms(c)
DAV:   1    -0.125542644693E+03   -0.33837E-03   -0.30430E-02 14208   0.718E-01    0.414E-02
DAV:   2    -0.125542628812E+03    0.15881E-04   -0.34881E-04 27600   0.752E-02    0.212E-02
DAV:   3    -0.125542624674E+03    0.41376E-05   -0.28030E-05 18768   0.203E-02    0.802E-03
DAV:   4    -0.125542625296E+03   -0.62172E-06   -0.40978E-06 23568   0.787E-03
  15 F= -.12712623E+03 E0= -.12712545E+03  d E =-.614461E-03  mag=    -0.0000
       N       E                     dE             d eps       ncg     rms          rms(c)
DAV:   1    -0.125542942176E+03   -0.31750E-03   -0.12049E-02 14208   0.449E-01    0.241E-02
DAV:   2    -0.125542939220E+03    0.29567E-05   -0.10867E-04 28320   0.429E-02    0.129E-02
DAV:   3    -0.125542937920E+03    0.12992E-05   -0.93418E-06 20640   0.117E-02    0.468E-03
DAV:   4    -0.125542938230E+03   -0.30981E-06   -0.13893E-06 22080   0.474E-03
  16 F= -.12712652E+03 E0= -.12712573E+03  d E =-.287812E-03  mag=    -0.0000
       N       E                     dE             d eps       ncg     rms          rms(c)
DAV:   1    -0.125543047239E+03   -0.10932E-03   -0.97102E-03 14304   0.403E-01    0.216E-02
DAV:   2    -0.125543045035E+03    0.22048E-05   -0.87041E-05 27888   0.384E-02    0.114E-02
DAV:   3    -0.125543043995E+03    0.10401E-05   -0.72488E-06 21024   0.104E-02    0.423E-03
DAV:   4    -0.125543044137E+03   -0.14234E-06   -0.11253E-06 21456   0.451E-03
  17 F= -.12712660E+03 E0= -.12712582E+03  d E =-.370727E-03  mag=     0.0000
       N       E                     dE             d eps       ncg     rms          rms(c)
DAV:   1    -0.125543145100E+03   -0.10111E-03   -0.40197E-03 16080   0.242E-01    0.152E-02
DAV:   2    -0.125543140310E+03    0.47906E-05   -0.62454E-05 19872   0.295E-02    0.752E-03
DAV:   3    -0.125543139626E+03    0.68351E-06   -0.67215E-06 23568   0.947E-03
  18 F= -.12712668E+03 E0= -.12712590E+03  d E =-.837214E-04  mag=    -0.0000
       N       E                     dE             d eps       ncg     rms          rms(c)
DAV:   1    -0.125543174412E+03   -0.34102E-04   -0.26038E-03 17136   0.194E-01    0.130E-02
DAV:   2    -0.125543171148E+03    0.32636E-05   -0.39402E-05 15696   0.237E-02    0.649E-03
DAV:   3    -0.125543170738E+03    0.40950E-06   -0.49572E-06 20256   0.835E-03
  19 F= -.12712671E+03 E0= -.12712592E+03  d E =-.105330E-03  mag=     0.0000
       N       E                     dE             d eps       ncg     rms          rms(c)
DAV:   1    -0.125543246921E+03   -0.75773E-04   -0.20743E-03 14592   0.191E-01    0.986E-03
DAV:   2    -0.125543246703E+03    0.21777E-06   -0.23988E-05 15456   0.210E-02    0.541E-03
DAV:   3    -0.125543246698E+03    0.59345E-08   -0.27865E-06 15744   0.707E-03
  20 F= -.12712675E+03 E0= -.12712597E+03  d E =-.448105E-04  mag=     0.0000
       N       E                     dE             d eps       ncg     rms          rms(c)
DAV:   1    -0.125543286292E+03   -0.39588E-04   -0.15148E-03 14208   0.163E-01    0.907E-03
DAV:   2    -0.125543286210E+03    0.81561E-07   -0.17674E-05 17136   0.182E-02    0.502E-03
DAV:   3    -0.125543286222E+03   -0.11757E-07   -0.22305E-06 15552   0.641E-03
  21 F= -.12712676E+03 E0= -.12712598E+03  d E =-.576455E-04  mag=     0.0000
       N       E                     dE             d eps       ncg     rms          rms(c)
DAV:   1    -0.125543369825E+03   -0.83615E-04   -0.17565E-03 14208   0.159E-01    0.951E-03
DAV:   2    -0.125543369665E+03    0.15980E-06   -0.21712E-05 19968   0.183E-02    0.535E-03
DAV:   3    -0.125543369540E+03    0.12532E-06   -0.18715E-06 15744   0.551E-03
  22 F= -.12712680E+03 E0= -.12712602E+03  d E =-.380177E-04  mag=     0.0000
       N       E                     dE             d eps       ncg     rms          rms(c)
DAV:   1    -0.125543470508E+03   -0.10084E-03   -0.48222E-03 14208   0.263E-01    0.156E-02
DAV:   2    -0.125543469833E+03    0.67453E-06   -0.58156E-05 21216   0.299E-02    0.870E-03
DAV:   3    -0.125543469332E+03    0.50085E-06   -0.47791E-06 17088   0.858E-03
  23 F= -.12712683E+03 E0= -.12712604E+03  d E =-.629011E-04  mag=     0.0000
       N       E                     dE             d eps       ncg     rms          rms(c)
DAV:   1    -0.125543575234E+03   -0.10540E-03   -0.30627E-03 14208   0.217E-01    0.109E-02
DAV:   2    -0.125543576022E+03   -0.78858E-06   -0.26072E-05 19104   0.225E-02    0.677E-03
DAV:   3    -0.125543576209E+03   -0.18665E-06   -0.37403E-06 15168   0.902E-03
  24 F= -.12712687E+03 E0= -.12712608E+03  d E =-.420328E-04  mag=    -0.0000
       N       E                     dE             d eps       ncg     rms          rms(c)
DAV:   1    -0.125543732607E+03   -0.15658E-03   -0.11513E-02 14208   0.419E-01    0.205E-02
DAV:   2    -0.125543735700E+03   -0.30933E-05   -0.94973E-05 24576   0.422E-02    0.127E-02
DAV:   3    -0.125543735303E+03    0.39650E-06   -0.10798E-05 16272   0.138E-02    0.273E-03
DAV:   4    -0.125543735164E+03    0.13983E-06   -0.29025E-06 14688   0.880E-03
  25 F= -.12712690E+03 E0= -.12712612E+03  d E =-.754101E-04  mag=    -0.0000
       N       E                     dE             d eps       ncg     rms          rms(c)
DAV:   1    -0.125543781223E+03   -0.45920E-04   -0.47681E-04 15072   0.816E-02    0.418E-03
DAV:   2    -0.125543781288E+03   -0.64842E-07   -0.43310E-06 22368   0.922E-03
  26 F= -.12712692E+03 E0= -.12712614E+03  d E =-.192277E-04  mag=     0.0000
       N       E                     dE             d eps       ncg     rms          rms(c)
DAV:   1    -0.125543913559E+03   -0.13234E-03   -0.42499E-03 14208   0.243E-01    0.123E-02
DAV:   2    -0.125543914743E+03   -0.11843E-05   -0.33669E-05 14544   0.245E-02    0.766E-03
DAV:   3    -0.125543915742E+03   -0.99836E-06   -0.46931E-06 16224   0.102E-02
  27 F= -.12712697E+03 E0= -.12712619E+03  d E =-.729838E-04  mag=     0.0000
       N       E                     dE             d eps       ncg     rms          rms(c)
DAV:   1    -0.125544149620E+03   -0.23488E-03   -0.17116E-02 14208   0.488E-01    0.239E-02
DAV:   2    -0.125544155350E+03   -0.57302E-05   -0.13009E-04 18816   0.472E-02    0.149E-02
DAV:   3    -0.125544156533E+03   -0.11830E-05   -0.12399E-05 15360   0.150E-02    0.311E-03
DAV:   4    -0.125544156280E+03    0.25257E-06   -0.59061E-06 14208   0.123E-02
  28 F= -.12712705E+03 E0= -.12712627E+03  d E =-.152315E-03  mag=     0.0000
       N       E                     dE             d eps       ncg     rms          rms(c)
DAV:   1    -0.125544506522E+03   -0.34999E-03   -0.68465E-02 14208   0.975E-01    0.476E-02
DAV:   2    -0.125544531247E+03   -0.24725E-04   -0.51566E-04 25488   0.928E-02    0.297E-02
DAV:   3    -0.125544529011E+03    0.22367E-05   -0.37657E-05 19680   0.218E-02    0.581E-03
DAV:   4    -0.125544529264E+03   -0.25354E-06   -0.57226E-06 19536   0.113E-02
  29 F= -.12712710E+03 E0= -.12712632E+03  d E =-.203388E-03  mag=     0.0000
       N       E                     dE             d eps       ncg     rms          rms(c)
DAV:   1    -0.125544680856E+03   -0.15185E-03   -0.75309E-03 14208   0.331E-01    0.163E-02
DAV:   2    -0.125544684098E+03   -0.32423E-05   -0.67525E-05 18192   0.353E-02    0.103E-02
DAV:   3    -0.125544686150E+03   -0.20515E-05   -0.77666E-06 15552   0.137E-02    0.229E-03
DAV:   4    -0.125544685437E+03    0.71287E-06   -0.54482E-06 14208   0.119E-02
  30 F= -.12712715E+03 E0= -.12712637E+03  d E =-.443248E-04  mag=    -0.0000
       N       E                     dE             d eps       ncg     rms          rms(c)
DAV:   1    -0.125544896927E+03   -0.21078E-03   -0.22700E-02 14208   0.574E-01    0.280E-02
DAV:   2    -0.125544908356E+03   -0.11429E-04   -0.19942E-04 24336   0.590E-02    0.176E-02
DAV:   3    -0.125544908268E+03    0.88137E-07   -0.13162E-05 21552   0.139E-02    0.344E-03
DAV:   4    -0.125544908527E+03   -0.25902E-06   -0.19359E-06 16464   0.676E-03
  31 F= -.12712718E+03 E0= -.12712639E+03  d E =-.731752E-04  mag=    -0.0000
       N       E                     dE             d eps       ncg     rms          rms(c)
DAV:   1    -0.125545055564E+03   -0.14730E-03   -0.55135E-03 14208   0.280E-01    0.134E-02
DAV:   2    -0.125545058440E+03   -0.28760E-05   -0.49783E-05 16272   0.292E-02    0.851E-03
DAV:   3    -0.125545059618E+03   -0.11782E-05   -0.41663E-06 19008   0.945E-03    0.206E-03
DAV:   4    -0.125545059621E+03   -0.36353E-08   -0.25651E-06 14304   0.813E-03
  32 F= -.12712723E+03 E0= -.12712645E+03  d E =-.533464E-04  mag=    -0.0000
       N       E                     dE             d eps       ncg     rms          rms(c)
DAV:   1    -0.125545439103E+03   -0.37949E-03   -0.49539E-02 14208   0.838E-01    0.400E-02
DAV:   2    -0.125545465615E+03   -0.26512E-04   -0.42502E-04 23424   0.839E-02    0.253E-02
DAV:   3    -0.125545466459E+03   -0.84457E-06   -0.23520E-05 22848   0.173E-02    0.540E-03
DAV:   4    -0.125545467043E+03   -0.58389E-06   -0.30453E-06 16416   0.767E-03
  33 F= -.12712735E+03 E0= -.12712656E+03  d E =-.168092E-03  mag=    -0.0000
       N       E                     dE             d eps       ncg     rms          rms(c)
DAV:   1    -0.125545989414E+03   -0.52296E-03   -0.19820E-01 14208   0.168E+00    0.799E-02
DAV:   2    -0.125546092860E+03   -0.10345E-03   -0.16407E-03 22368   0.164E-01    0.503E-02
DAV:   3    -0.125546093171E+03   -0.31148E-06   -0.94874E-05 20592   0.349E-02    0.105E-02
DAV:   4    -0.125546095015E+03   -0.18437E-05   -0.12388E-05 16608   0.151E-02    0.371E-03
DAV:   5    -0.125546095863E+03   -0.84812E-06   -0.38411E-06 15600   0.966E-03
  34 F= -.12712739E+03 E0= -.12712661E+03  d E =-.213186E-03  mag=    -0.0000
       N       E                     dE             d eps       ncg     rms          rms(c)
DAV:   1    -0.125545912567E+03    0.18245E-03   -0.19824E-02 14208   0.530E-01    0.252E-02
DAV:   2    -0.125545922704E+03   -0.10137E-04   -0.17440E-04 20976   0.540E-02    0.159E-02
DAV:   3    -0.125545924078E+03   -0.13741E-05   -0.11579E-05 19584   0.143E-02    0.359E-03
DAV:   4    -0.125545924266E+03   -0.18816E-06   -0.46512E-06 14208   0.110E-02
  35 F= -.12712740E+03 E0= -.12712662E+03  d E =-.226164E-03  mag=     0.0000
       N       E                     dE             d eps       ncg     rms          rms(c)
DAV:   1    -0.125546180848E+03   -0.25677E-03   -0.27869E-02 14208   0.638E-01    0.299E-02
DAV:   2    -0.125546193358E+03   -0.12510E-04   -0.24972E-04 20256   0.654E-02    0.187E-02
DAV:   3    -0.125546193705E+03   -0.34704E-06   -0.17076E-05 14544   0.164E-02    0.451E-03
DAV:   4    -0.125546194039E+03   -0.33354E-06   -0.40519E-06 15456   0.975E-03
  36 F= -.12712746E+03 E0= -.12712668E+03  d E =-.562773E-04  mag=     0.0000
       N       E                     dE             d eps       ncg     rms          rms(c)
DAV:   1    -0.125546316070E+03   -0.12236E-03   -0.85989E-03 14208   0.354E-01    0.170E-02
DAV:   2    -0.125546320146E+03   -0.40764E-05   -0.77746E-05 15648   0.370E-02    0.106E-02
DAV:   3    -0.125546321193E+03   -0.10471E-05   -0.68416E-06 15408   0.118E-02    0.276E-03
DAV:   4    -0.125546321196E+03   -0.31760E-08   -0.33188E-06 14208   0.929E-03
  37 F= -.12712747E+03 E0= -.12712669E+03  d E =-.650941E-04  mag=     0.0000
       N       E                     dE             d eps       ncg     rms          rms(c)
DAV:   1    -0.125546441321E+03   -0.12013E-03   -0.59509E-03 14208   0.302E-01    0.139E-02
DAV:   2    -0.125546443461E+03   -0.21394E-05   -0.52197E-05 15600   0.305E-02    0.875E-03
DAV:   3    -0.125546443825E+03   -0.36369E-06   -0.47599E-06 14640   0.947E-03
  38 F= -.12712750E+03 E0= -.12712671E+03  d E =-.272392E-04  mag=     0.0000
       N       E                     dE             d eps       ncg     rms          rms(c)
DAV:   1    -0.125546565127E+03   -0.12167E-03   -0.81655E-03 14208   0.354E-01    0.165E-02
DAV:   2    -0.125546567878E+03   -0.27514E-05   -0.68655E-05 15456   0.353E-02    0.104E-02
DAV:   3    -0.125546568460E+03   -0.58246E-06   -0.67753E-06 14688   0.114E-02
  39 F= -.12712751E+03 E0= -.12712673E+03  d E =-.401897E-04  mag=    -0.0000
       N       E                     dE             d eps       ncg     rms          rms(c)
DAV:   1    -0.125546705354E+03   -0.13748E-03   -0.82285E-03 14208   0.359E-01    0.162E-02
DAV:   2    -0.125546707303E+03   -0.19495E-05   -0.63624E-05 15456   0.341E-02    0.102E-02
DAV:   3    -0.125546707939E+03   -0.63613E-06   -0.73380E-06 15024   0.123E-02
  40 F= -.12712754E+03 E0= -.12712675E+03  d E =-.275838E-04  mag=     0.0000
       N       E                     dE             d eps       ncg     rms          rms(c)
DAV:   1    -0.125546768341E+03   -0.61038E-04   -0.21665E-03 14208   0.184E-01    0.839E-03
DAV:   2    -0.125546768624E+03   -0.28233E-06   -0.18623E-05 16896   0.193E-02    0.535E-03
DAV:   3    -0.125546769883E+03   -0.12594E-05   -0.40057E-06 15648   0.100E-02    0.160E-03
DAV:   4    -0.125546768888E+03    0.99500E-06   -0.32669E-06 15168   0.900E-03
  41 F= -.12712754E+03 E0= -.12712676E+03  d E =-.312452E-04  mag=    -0.0000
       N       E                     dE             d eps       ncg     rms          rms(c)
DAV:   1    -0.125546853850E+03   -0.83967E-04   -0.41042E-03 15408   0.259E-01    0.115E-02
DAV:   2    -0.125546854154E+03   -0.30448E-06   -0.32818E-05 22608   0.241E-02    0.705E-03
DAV:   3    -0.125546853777E+03    0.37721E-06   -0.31693E-06 23424   0.662E-03
  42 F= -.12712755E+03 E0= -.12712677E+03  d E =-.105595E-04  mag=    -0.0000
       N       E                     dE             d eps       ncg     rms          rms(c)
DAV:   1    -0.125546852926E+03    0.12287E-05   -0.93769E-07 17424   0.423E-03    0.669E-04
DAV:   2    -0.125546852942E+03   -0.16364E-07   -0.71502E-08 20160   0.135E-03
  43 F= -.12712755E+03 E0= -.12712677E+03  d E =-.106311E-04  mag=    -0.0000
       N       E                     dE             d eps       ncg     rms          rms(c)
DAV:   1    -0.125546888694E+03   -0.35768E-04   -0.89722E-04 14256   0.125E-01    0.509E-03
DAV:   2    -0.125546888764E+03   -0.69500E-07   -0.71194E-06 22128   0.117E-02
  44 F= -.12712756E+03 E0= -.12712677E+03  d E =-.525312E-05  mag=    -0.0000
       N       E                     dE             d eps       ncg     rms          rms(c)
DAV:   1    -0.125546919465E+03   -0.30771E-04   -0.81406E-04 14208   0.120E-01    0.534E-03
DAV:   2    -0.125546919472E+03   -0.70622E-08   -0.62374E-06 19872   0.111E-02
  45 F= -.12712756E+03 E0= -.12712677E+03  d E =-.646782E-05  mag=     0.0000
       N       E                     dE             d eps       ncg     rms          rms(c)
DAV:   1    -0.125546959122E+03   -0.39656E-04   -0.12256E-03 14976   0.146E-01    0.636E-03
DAV:   2    -0.125546959054E+03    0.67837E-07   -0.10526E-05 14496   0.144E-02    0.399E-03
DAV:   3    -0.125546959124E+03   -0.70198E-07   -0.14796E-06 19680   0.559E-03
  46 F= -.12712756E+03 E0= -.12712678E+03  d E =-.428792E-05  mag=     0.0000
       N       E                     dE             d eps       ncg     rms          rms(c)
DAV:   1    -0.125546975204E+03   -0.16150E-04   -0.24104E-04 14208   0.649E-02    0.291E-03
DAV:   2    -0.125546975159E+03    0.45224E-07   -0.24562E-06 14448   0.751E-03
  47 F= -.12712756E+03 E0= -.12712678E+03  d E =-.480360E-05  mag=    -0.0000
       N       E                     dE             d eps       ncg     rms          rms(c)
DAV:   1    -0.125547007405E+03   -0.32202E-04   -0.67103E-04 18000   0.111E-01    0.481E-03
DAV:   2    -0.125547007304E+03    0.10102E-06   -0.46439E-06 14640   0.100E-02
  48 F= -.12712757E+03 E0= -.12712678E+03  d E =-.539539E-05  mag=    -0.0000
       N       E                     dE             d eps       ncg     rms          rms(c)
DAV:   1    -0.125547091015E+03   -0.83609E-04   -0.57221E-03 15072   0.324E-01    0.131E-02
DAV:   2    -0.125547091707E+03   -0.69219E-06   -0.43287E-05 14256   0.290E-02    0.859E-03
DAV:   3    -0.125547091993E+03   -0.28631E-06   -0.54005E-06 18816   0.109E-02
  49 F= -.12712757E+03 E0= -.12712679E+03  d E =-.119025E-04  mag=    -0.0000
       N       E                     dE             d eps       ncg     rms          rms(c)
DAV:   1    -0.125547111118E+03   -0.19411E-04   -0.27014E-04 14208   0.711E-02    0.320E-03
DAV:   2    -0.125547110947E+03    0.17064E-06   -0.37611E-06 14208   0.102E-02
  50 F= -.12712758E+03 E0= -.12712679E+03  d E =-.207625E-05  mag=     0.0000
       N       E                     dE             d eps       ncg     rms          rms(c)
DAV:   1    -0.125547166132E+03   -0.55014E-04   -0.23925E-03 14304   0.209E-01    0.903E-03
DAV:   2    -0.125547166472E+03   -0.34007E-06   -0.20891E-05 14208   0.211E-02    0.606E-03
DAV:   3    -0.125547166847E+03   -0.37475E-06   -0.35589E-06 17376   0.966E-03
  51 F= -.12712758E+03 E0= -.12712680E+03  d E =-.734205E-05  mag=     0.0000
       N       E                     dE             d eps       ncg     rms          rms(c)
DAV:   1    -0.125547262554E+03   -0.96082E-04   -0.95872E-03 14208   0.419E-01    0.167E-02
DAV:   2    -0.125547265290E+03   -0.27360E-05   -0.80356E-05 17376   0.392E-02    0.113E-02
DAV:   3    -0.125547264987E+03    0.30293E-06   -0.75614E-06 16512   0.128E-02
  52 F= -.12712758E+03 E0= -.12712680E+03  d E =-.422352E-05  mag=    -0.0000
       N       E                     dE             d eps       ncg     rms          rms(c)
DAV:   1    -0.125547193598E+03    0.71693E-04   -0.51750E-03 14208   0.308E-01    0.118E-02
DAV:   2    -0.125547194503E+03   -0.90514E-06   -0.45843E-05 17472   0.304E-02    0.796E-03
DAV:   3    -0.125547194523E+03   -0.20072E-07   -0.56025E-06 20544   0.117E-02
  53 F= -.12712758E+03 E0= -.12712680E+03  d E =-.815680E-05  mag=     0.0000
       N       E                     dE             d eps       ncg     rms          rms(c)
DAV:   1    -0.125547225058E+03   -0.30555E-04   -0.58783E-04 14208   0.104E-01    0.380E-03
DAV:   2    -0.125547224857E+03    0.20070E-06   -0.74599E-06 18912   0.139E-02
  54 F= -.12712759E+03 E0= -.12712680E+03  d E =-.488546E-05  mag=    -0.0000
       N       E                     dE             d eps       ncg     rms          rms(c)
DAV:   1    -0.125547313119E+03   -0.88061E-04   -0.52316E-03 14208   0.310E-01    0.132E-02
DAV:   2    -0.125547314334E+03   -0.12151E-05   -0.44661E-05 16224   0.298E-02    0.897E-03
DAV:   3    -0.125547314566E+03   -0.23119E-06   -0.55264E-06 15552   0.116E-02
  55 F= -.12712760E+03 E0= -.12712682E+03  d E =-.182558E-04  mag=    -0.0000
       N       E                     dE             d eps       ncg     rms          rms(c)
DAV:   1    -0.125547473142E+03   -0.15881E-03   -0.21003E-02 14208   0.620E-01    0.247E-02
DAV:   2    -0.125547479986E+03   -0.68443E-05   -0.17376E-04 17664   0.570E-02    0.170E-02
DAV:   3    -0.125547479118E+03    0.86795E-06   -0.14482E-05 16128   0.172E-02    0.450E-03
DAV:   4    -0.125547478975E+03    0.14291E-06   -0.61075E-06 14208   0.125E-02
  56 F= -.12712761E+03 E0= -.12712683E+03  d E =-.299601E-04  mag=    -0.0000
       N       E                     dE             d eps       ncg     rms          rms(c)
DAV:   1    -0.125547508301E+03   -0.29183E-04   -0.56234E-04 14208   0.102E-01    0.429E-03
DAV:   2    -0.125547508437E+03   -0.13609E-06   -0.56329E-06 19104   0.116E-02
  57 F= -.12712762E+03 E0= -.12712683E+03  d E =-.435773E-05  mag=     0.0000
       N       E                     dE             d eps       ncg     rms          rms(c)
DAV:   1    -0.125547595738E+03   -0.87437E-04   -0.49941E-03 14496   0.303E-01    0.126E-02
DAV:   2    -0.125547597218E+03   -0.14800E-05   -0.40086E-05 14208   0.283E-02    0.864E-03
DAV:   3    -0.125547597599E+03   -0.38138E-06   -0.49103E-06 15168   0.113E-02
  58 F= -.12712763E+03 E0= -.12712685E+03  d E =-.182135E-04  mag=     0.0000
       N       E                     dE             d eps       ncg     rms          rms(c)
DAV:   1    -0.125547760229E+03   -0.16301E-03   -0.20044E-02 14208   0.606E-01    0.238E-02
DAV:   2    -0.125547767921E+03   -0.76915E-05   -0.16098E-04 17232   0.547E-02    0.166E-02
DAV:   3    -0.125547767293E+03    0.62803E-06   -0.12205E-05 15792   0.163E-02    0.428E-03
DAV:   4    -0.125547767127E+03    0.16536E-06   -0.53257E-06 14208   0.118E-02
  59 F= -.12712765E+03 E0= -.12712687E+03  d E =-.371527E-04  mag=    -0.0000
       N       E                     dE             d eps       ncg     rms          rms(c)
DAV:   1    -0.125548051146E+03   -0.28385E-03   -0.80218E-02 14208   0.121E+00    0.476E-02
DAV:   2    -0.125548082613E+03   -0.31467E-04   -0.63858E-04 21648   0.107E-01    0.332E-02
DAV:   3    -0.125548075590E+03    0.70233E-05   -0.38904E-05 15072   0.249E-02    0.765E-03
DAV:   4    -0.125548075735E+03   -0.14550E-06   -0.71371E-06 14496   0.124E-02
  60 F= -.12712766E+03 E0= -.12712687E+03  d E =-.447677E-04  mag=    -0.0000
       N       E                     dE             d eps       ncg     rms          rms(c)
DAV:   1    -0.125547967641E+03    0.10795E-03   -0.10138E-02 14208   0.431E-01    0.166E-02
DAV:   2    -0.125547970847E+03   -0.32065E-05   -0.82117E-05 19200   0.393E-02    0.115E-02
DAV:   3    -0.125547970433E+03    0.41416E-06   -0.67930E-06 20256   0.122E-02
  61 F= -.12712766E+03 E0= -.12712688E+03  d E =-.465799E-04  mag=    -0.0000
       N       E                     dE             d eps       ncg     rms          rms(c)
DAV:   1    -0.125548035411E+03   -0.64563E-04   -0.26953E-03 14208   0.222E-01    0.829E-03
DAV:   2    -0.125548036061E+03   -0.65031E-06   -0.24381E-05 19296   0.227E-02    0.581E-03
DAV:   3    -0.125548036385E+03   -0.32417E-06   -0.34343E-06 15648   0.951E-03
  62 F= -.12712767E+03 E0= -.12712689E+03  d E =-.102577E-04  mag=     0.0000
       N       E                     dE             d eps       ncg     rms          rms(c)
DAV:   1    -0.125548223093E+03   -0.18703E-03   -0.24181E-02 14208   0.665E-01    0.261E-02
DAV:   2    -0.125548232457E+03   -0.93641E-05   -0.19156E-04 16080   0.595E-02    0.183E-02
DAV:   3    -0.125548231441E+03    0.10165E-05   -0.13609E-05 15504   0.170E-02    0.475E-03
DAV:   4    -0.125548231316E+03    0.12522E-06   -0.52553E-06 14208   0.118E-02
  63 F= -.12712770E+03 E0= -.12712691E+03  d E =-.381490E-04  mag=     0.0000
       N       E                     dE             d eps       ncg     rms          rms(c)
DAV:   1    -0.125548579641E+03   -0.34820E-03   -0.96858E-02 14208   0.133E+00    0.522E-02
DAV:   2    -0.125548618609E+03   -0.38968E-04   -0.76293E-04 20064   0.117E-01    0.365E-02
DAV:   3    -0.125548610393E+03    0.82157E-05   -0.44757E-05 14592   0.270E-02    0.852E-03
DAV:   4    -0.125548610577E+03   -0.18345E-06   -0.82442E-06 14208   0.134E-02
  64 F= -.12712774E+03 E0= -.12712696E+03  d E =-.835357E-04  mag=     0.0000
       N       E                     dE             d eps       ncg     rms          rms(c)
DAV:   1    -0.125549213020E+03   -0.60263E-03   -0.38745E-01 14208   0.266E+00    0.104E-01
DAV:   2    -0.125549363995E+03   -0.15098E-03   -0.29758E-03 18432   0.231E-01    0.727E-02
DAV:   3    -0.125549327570E+03    0.36426E-04   -0.17824E-04 15936   0.529E-02    0.170E-02
DAV:   4    -0.125549328277E+03   -0.70683E-06   -0.25899E-05 14208   0.223E-02    0.553E-03
DAV:   5    -0.125549328534E+03   -0.25794E-06   -0.65939E-06 14544   0.126E-02
  65 F= -.12712779E+03 E0= -.12712701E+03  d E =-.134365E-03  mag=    -0.0000
       N       E                     dE             d eps       ncg     rms          rms(c)
DAV:   1    -0.125549518011E+03   -0.18973E-03   -0.23313E-02 14208   0.653E-01    0.255E-02
DAV:   2    -0.125549526718E+03   -0.87066E-05   -0.18485E-04 16416   0.587E-02    0.178E-02
DAV:   3    -0.125549526269E+03    0.44942E-06   -0.13953E-05 15168   0.175E-02    0.467E-03
DAV:   4    -0.125549525995E+03    0.27400E-06   -0.61071E-06 14256   0.127E-02
  66 F= -.12712783E+03 E0= -.12712705E+03  d E =-.369060E-04  mag=     0.0000
       N       E                     dE             d eps       ncg     rms          rms(c)
DAV:   1    -0.125550042740E+03   -0.51647E-03   -0.20977E-01 14208   0.196E+00    0.766E-02
DAV:   2    -0.125550122273E+03   -0.79533E-04   -0.16067E-03 15024   0.170E-01    0.531E-02
DAV:   3    -0.125550103747E+03    0.18526E-04   -0.10451E-04 21984   0.409E-02    0.134E-02
DAV:   4    -0.125550104175E+03   -0.42786E-06   -0.11428E-05 14496   0.148E-02    0.426E-03
DAV:   5    -0.125550104451E+03   -0.27600E-06   -0.30185E-06 17328   0.837E-03
  67 F= -.12712793E+03 E0= -.12712714E+03  d E =-.133918E-03  mag=     0.0000
       N       E                     dE             d eps       ncg     rms          rms(c)
DAV:   1    -0.125550976924E+03   -0.87275E-03   -0.83893E-01 14208   0.392E+00    0.153E-01
DAV:   2    -0.125551280236E+03   -0.30331E-03   -0.62750E-03 15936   0.337E-01    0.106E-01
DAV:   3    -0.125551199704E+03    0.80532E-04   -0.41405E-04 23520   0.796E-02    0.259E-02
DAV:   4    -0.125551200795E+03   -0.10917E-05   -0.40375E-05 16032   0.259E-02    0.823E-03
DAV:   5    -0.125551201053E+03   -0.25794E-06   -0.66802E-06 17088   0.115E-02
  68 F= -.12712806E+03 E0= -.12712728E+03  d E =-.268794E-03  mag=    -0.0000
       N       E                     dE             d eps       ncg     rms          rms(c)
DAV:   1    -0.125552268167E+03   -0.10674E-02   -0.33553E+00 14208   0.783E+00    0.307E-01
DAV:   2    -0.125553477583E+03   -0.12094E-02   -0.25007E-02 16464   0.672E-01    0.211E-01
DAV:   3    -0.125553146899E+03    0.33068E-03   -0.16347E-03 23904   0.157E-01    0.517E-02
DAV:   4    -0.125553148586E+03   -0.16866E-05   -0.15800E-04 17616   0.510E-02    0.162E-02
DAV:   5    -0.125553148793E+03   -0.20743E-06   -0.24171E-05 16944   0.216E-02    0.596E-03
DAV:   6    -0.125553150705E+03   -0.19115E-05   -0.12987E-05 15072   0.183E-02    0.249E-03
DAV:   7    -0.125553145220E+03    0.54844E-05   -0.44830E-06 19248   0.105E-02    0.857E-04
DAV:   8    -0.125553145293E+03   -0.72707E-07   -0.16802E-07 22656   0.192E-03
  69 F= -.12712809E+03 E0= -.12712731E+03  d E =-.294852E-03  mag=    -0.0000
       N       E                     dE             d eps       ncg     rms          rms(c)
DAV:   1    -0.125552238458E+03    0.90676E-03   -0.56821E-01 14208   0.322E+00    0.126E-01
DAV:   2    -0.125552445408E+03   -0.20695E-03   -0.42685E-03 22560   0.275E-01    0.877E-02
DAV:   3    -0.125552385282E+03    0.60126E-04   -0.25504E-04 18624   0.596E-02    0.187E-02
DAV:   4    -0.125552385806E+03   -0.52476E-06   -0.31561E-05 16848   0.209E-02    0.649E-03
DAV:   5    -0.125552385832E+03   -0.25719E-07   -0.26124E-06 21504   0.593E-03
  70 F= -.12712812E+03 E0= -.12712733E+03  d E =-.323876E-03  mag=    -0.0000
       N       E                     dE             d eps       ncg     rms          rms(c)
DAV:   1    -0.125552627413E+03   -0.24161E-03   -0.43906E-02 14208   0.896E-01    0.350E-02
DAV:   2    -0.125552642460E+03   -0.15047E-04   -0.33196E-04 27648   0.766E-02    0.245E-02
DAV:   3    -0.125552638163E+03    0.42969E-05   -0.19834E-05 14208   0.165E-02    0.503E-03
DAV:   4    -0.125552638308E+03   -0.14482E-06   -0.27500E-06 17328   0.643E-03
  71 F= -.12712815E+03 E0= -.12712737E+03  d E =-.367173E-04  mag=     0.0000
       N       E                     dE             d eps       ncg     rms          rms(c)
DAV:   1    -0.125553272626E+03   -0.63446E-03   -0.39555E-01 14208   0.269E+00    0.105E-01
DAV:   2    -0.125553412327E+03   -0.13970E-03   -0.29330E-03 14880   0.230E-01    0.725E-02
DAV:   3    -0.125553375134E+03    0.37193E-04   -0.19585E-04 23424   0.547E-02    0.180E-02
DAV:   4    -0.125553375893E+03   -0.75879E-06   -0.18313E-05 15888   0.167E-02    0.569E-03
DAV:   5    -0.125553375829E+03    0.64732E-07   -0.24068E-06 16800   0.599E-03
  72 F= -.12712824E+03 E0= -.12712746E+03  d E =-.127454E-03  mag=    -0.0000
       N       E                     dE             d eps       ncg     rms          rms(c)
DAV:   1    -0.125554365973E+03   -0.99008E-03   -0.15819E+00 14208   0.538E+00    0.210E-01
DAV:   2    -0.125554921357E+03   -0.55538E-03   -0.11693E-02 15264   0.459E-01    0.145E-01
DAV:   3    -0.125554767848E+03    0.15351E-03   -0.78281E-04 24192   0.109E-01    0.359E-02
DAV:   4    -0.125554769483E+03   -0.16341E-05   -0.71910E-05 18624   0.333E-02    0.113E-02
DAV:   5    -0.125554769119E+03    0.36351E-06   -0.91685E-06 16464   0.119E-02
  73 F= -.12712835E+03 E0= -.12712756E+03  d E =-.229769E-03  mag=     0.0000
       N       E                     dE             d eps       ncg     rms          rms(c)
DAV:   1    -0.125555243790E+03   -0.47431E-03   -0.27648E-01 14208   0.225E+00    0.875E-02
DAV:   2    -0.125555343944E+03   -0.10015E-03   -0.20806E-03 14880   0.195E-01    0.604E-02
DAV:   3    -0.125555319272E+03    0.24672E-04   -0.13681E-04 14592   0.477E-02    0.153E-02
DAV:   4    -0.125555320011E+03   -0.73927E-06   -0.18820E-05 14592   0.197E-02    0.503E-03
DAV:   5    -0.125555320552E+03   -0.54040E-06   -0.61295E-06 17952   0.123E-02
  74 F= -.12712836E+03 E0= -.12712758E+03  d E =-.242527E-03  mag=     0.0000
       N       E                     dE             d eps       ncg     rms          rms(c)
DAV:   1    -0.125555578951E+03   -0.25894E-03   -0.49874E-02 14208   0.956E-01    0.371E-02
DAV:   2    -0.125555597781E+03   -0.18831E-04   -0.38463E-04 14784   0.834E-02    0.258E-02
DAV:   3    -0.125555594444E+03    0.33377E-05   -0.25377E-05 14304   0.213E-02    0.673E-03
DAV:   4    -0.125555594650E+03   -0.20691E-06   -0.47257E-06 14688   0.106E-02
  75 F= -.12712842E+03 E0= -.12712764E+03  d E =-.602005E-04  mag=     0.0000
       N       E                     dE             d eps       ncg     rms          rms(c)
DAV:   1    -0.125556248808E+03   -0.65436E-03   -0.44897E-01 14208   0.287E+00    0.112E-01
DAV:   2    -0.125556409860E+03   -0.16105E-03   -0.33225E-03 15936   0.245E-01    0.773E-02
DAV:   3    -0.125556368508E+03    0.41352E-04   -0.21775E-04 17520   0.587E-02    0.189E-02
DAV:   4    -0.125556369529E+03   -0.10207E-05   -0.26189E-05 14304   0.221E-02    0.614E-03
DAV:   5    -0.125556369914E+03   -0.38531E-06   -0.62631E-06 20640   0.121E-02
  76 F= -.12712855E+03 E0= -.12712777E+03  d E =-.194345E-03  mag=     0.0000
       N       E                     dE             d eps       ncg     rms          rms(c)
DAV:   1    -0.125557222897E+03   -0.85337E-03   -0.17950E+00 14208   0.574E+00    0.223E-01
DAV:   2    -0.125557865487E+03   -0.64259E-03   -0.13266E-02 17232   0.488E-01    0.155E-01
DAV:   3    -0.125557692645E+03    0.17284E-03   -0.86991E-04 22992   0.114E-01    0.371E-02
DAV:   4    -0.125557694123E+03   -0.14780E-05   -0.87602E-05 14832   0.381E-02    0.118E-02
DAV:   5    -0.125557694408E+03   -0.28513E-06   -0.13845E-05 19728   0.166E-02    0.450E-03
DAV:   6    -0.125557694992E+03   -0.58335E-06   -0.72047E-06 14304   0.136E-02
  77 F= -.12712860E+03 E0= -.12712782E+03  d E =-.239075E-03  mag=     0.0000
       N       E                     dE             d eps       ncg     rms          rms(c)
DAV:   1    -0.125557197965E+03    0.49644E-03   -0.22433E-01 14208   0.203E+00    0.788E-02
DAV:   2    -0.125557281998E+03   -0.84033E-04   -0.17104E-03 20880   0.174E-01    0.552E-02
DAV:   3    -0.125557259250E+03    0.22747E-04   -0.99201E-05 16128   0.375E-02    0.123E-02
DAV:   4    -0.125557259704E+03   -0.45361E-06   -0.13219E-05 16032   0.138E-02    0.412E-03
DAV:   5    -0.125557259756E+03   -0.51997E-07   -0.13112E-06 20400   0.478E-03
  78 F= -.12712862E+03 E0= -.12712783E+03  d E =-.256238E-03  mag=     0.0000
       N       E                     dE             d eps       ncg     rms          rms(c)
DAV:   1    -0.125557699509E+03   -0.43980E-03   -0.19960E-01 14208   0.191E+00    0.748E-02
DAV:   2    -0.125557766355E+03   -0.66846E-04   -0.14641E-03 15168   0.163E-01    0.515E-02
DAV:   3    -0.125557747489E+03    0.18866E-04   -0.99718E-05 16032   0.397E-02    0.129E-02
DAV:   4    -0.125557748087E+03   -0.59801E-06   -0.11548E-05 14400   0.142E-02    0.434E-03
DAV:   5    -0.125557748131E+03   -0.44211E-07   -0.21785E-06 20928   0.700E-03
  79 F= -.12712870E+03 E0= -.12712792E+03  d E =-.864108E-04  mag=     0.0000
       N       E                     dE             d eps       ncg     rms          rms(c)
DAV:   1    -0.125557982479E+03   -0.23439E-03   -0.70658E-02 14208   0.114E+00    0.445E-02
DAV:   2    -0.125558006973E+03   -0.24494E-04   -0.52572E-04 14880   0.978E-02    0.307E-02
DAV:   3    -0.125558001140E+03    0.58322E-05   -0.35927E-05 14304   0.247E-02    0.781E-03
DAV:   4    -0.125558001357E+03   -0.21665E-06   -0.54428E-06 14496   0.110E-02
  80 F= -.12712872E+03 E0= -.12712793E+03  d E =-.100535E-03  mag=     0.0000
       N       E                     dE             d eps       ncg     rms          rms(c)
DAV:   1    -0.125558105737E+03   -0.10460E-03   -0.14703E-02 14208   0.520E-01    0.208E-02
DAV:   2    -0.125558110487E+03   -0.47502E-05   -0.10712E-04 14496   0.450E-02    0.142E-02
DAV:   3    -0.125558109851E+03    0.63545E-06   -0.87442E-06 16416   0.137E-02
  81 F= -.12712874E+03 E0= -.12712796E+03  d E =-.282706E-04  mag=    -0.0000
       N       E                     dE             d eps       ncg     rms          rms(c)
DAV:   1    -0.125558265359E+03   -0.15487E-03   -0.48724E-02 14208   0.947E-01    0.376E-02
DAV:   2    -0.125558280957E+03   -0.15597E-04   -0.34618E-04 15504   0.797E-02    0.257E-02
DAV:   3    -0.125558277460E+03    0.34966E-05   -0.25324E-05 15456   0.217E-02    0.658E-03
DAV:   4    -0.125558277381E+03    0.78794E-07   -0.56989E-06 14208   0.120E-02
  82 F= -.12712877E+03 E0= -.12712798E+03  d E =-.494458E-04  mag=    -0.0000
       N       E                     dE             d eps       ncg     rms          rms(c)
DAV:   1    -0.125558367140E+03   -0.89679E-04   -0.26378E-02 14208   0.699E-01    0.276E-02
DAV:   2    -0.125558376395E+03   -0.92556E-05   -0.18195E-04 16224   0.580E-02    0.190E-02
DAV:   3    -0.125558375066E+03    0.13293E-05   -0.13629E-05 16800   0.168E-02    0.482E-03
DAV:   4    -0.125558374861E+03    0.20481E-06   -0.41297E-06 14304   0.105E-02
  83 F= -.12712880E+03 E0= -.12712801E+03  d E =-.314428E-04  mag=    -0.0000
       N       E                     dE             d eps       ncg     rms          rms(c)
DAV:   1    -0.125558408498E+03   -0.33432E-04   -0.60415E-03 14688   0.335E-01    0.133E-02
DAV:   2    -0.125558410533E+03   -0.20344E-05   -0.41685E-05 14784   0.282E-02    0.911E-03
DAV:   3    -0.125558410467E+03    0.65287E-07   -0.38757E-06 14880   0.974E-03
  84 F= -.12712880E+03 E0= -.12712802E+03  d E =-.353817E-04  mag=     0.0000
       N       E                     dE             d eps       ncg     rms          rms(c)
DAV:   1    -0.125558421239E+03   -0.10707E-04   -0.84037E-03 14208   0.393E-01    0.159E-02
DAV:   2    -0.125558423844E+03   -0.26049E-05   -0.60218E-05 14976   0.334E-02    0.109E-02
DAV:   3    -0.125558423372E+03    0.47191E-06   -0.45272E-06 18480   0.101E-02
  85 F= -.12712882E+03 E0= -.12712804E+03  d E =-.195936E-04  mag=     0.0000
       N       E                     dE             d eps       ncg     rms          rms(c)
DAV:   1    -0.125558417308E+03    0.65359E-05   -0.37675E-02 14208   0.831E-01    0.335E-02
DAV:   2    -0.125558429078E+03   -0.11770E-04   -0.26280E-04 15168   0.687E-02    0.229E-02
DAV:   3    -0.125558426102E+03    0.29763E-05   -0.16938E-05 18912   0.179E-02    0.667E-03
DAV:   4    -0.125558426112E+03   -0.10321E-07   -0.38520E-06 14208   0.991E-03
  86 F= -.12712884E+03 E0= -.12712805E+03  d E =-.364382E-04  mag=    -0.0000
       N       E                     dE             d eps       ncg     rms          rms(c)
DAV:   1    -0.125558426531E+03   -0.42921E-06   -0.22282E-03 14784   0.203E-01    0.814E-03
DAV:   2    -0.125558427228E+03   -0.69656E-06   -0.15494E-05 14496   0.180E-02    0.562E-03
DAV:   3    -0.125558427393E+03   -0.16521E-06   -0.23415E-06 14784   0.804E-03
  87 F= -.12712885E+03 E0= -.12712807E+03  d E =-.110529E-04  mag=     0.0000
       N       E                     dE             d eps       ncg     rms          rms(c)
DAV:   1    -0.125558421543E+03    0.56849E-05   -0.19964E-02 14352   0.606E-01    0.237E-02
DAV:   2    -0.125558428220E+03   -0.66773E-05   -0.13000E-04 14784   0.485E-02    0.164E-02
DAV:   3    -0.125558426782E+03    0.14384E-05   -0.88216E-06 16752   0.134E-02    0.430E-03
DAV:   4    -0.125558426785E+03   -0.29904E-08   -0.24672E-06 14592   0.808E-03
  88 F= -.12712888E+03 E0= -.12712809E+03  d E =-.397861E-04  mag=    -0.0000
       N       E                     dE             d eps       ncg     rms          rms(c)
DAV:   1    -0.125558385705E+03    0.41076E-04   -0.79946E-02 14208   0.121E+00    0.475E-02
DAV:   2    -0.125558412956E+03   -0.27251E-04   -0.52006E-04 15072   0.964E-02    0.328E-02
DAV:   3    -0.125558406015E+03    0.69407E-05   -0.31964E-05 17040   0.232E-02    0.836E-03
DAV:   4    -0.125558406152E+03   -0.13702E-06   -0.44165E-06 14832   0.985E-03
  89 F= -.12712892E+03 E0= -.12712813E+03  d E =-.777059E-04  mag=     0.0000
       N       E                     dE             d eps       ncg     rms          rms(c)
DAV:   1    -0.125558210846E+03    0.19517E-03   -0.31981E-01 14208   0.243E+00    0.952E-02
DAV:   2    -0.125558319041E+03   -0.10820E-03   -0.20622E-03 15552   0.192E-01    0.656E-02
DAV:   3    -0.125558289472E+03    0.29569E-04   -0.12546E-04 17136   0.449E-02    0.163E-02
DAV:   4    -0.125558289701E+03   -0.22809E-06   -0.14901E-05 15360   0.169E-02    0.481E-03
DAV:   5    -0.125558289697E+03    0.30523E-08   -0.34164E-06 14640   0.915E-03
  90 F= -.12712892E+03 E0= -.12712813E+03  d E =-.782558E-04  mag=     0.0000
       N       E                     dE             d eps       ncg     rms          rms(c)
DAV:   1    -0.125558343233E+03   -0.53532E-04   -0.92350E-02 14208   0.130E+00    0.509E-02
DAV:   2    -0.125558374164E+03   -0.30932E-04   -0.60780E-04 21312   0.104E-01    0.354E-02
DAV:   3    -0.125558365255E+03    0.89088E-05   -0.36644E-05 16800   0.243E-02    0.810E-03
DAV:   4    -0.125558365233E+03    0.22506E-07   -0.61215E-06 14352   0.118E-02
  91 F= -.12712893E+03 E0= -.12712815E+03  d E =-.909409E-04  mag=    -0.0000
       N       E                     dE             d eps       ncg     rms          rms(c)
DAV:   1    -0.125558361403E+03    0.38524E-05   -0.95253E-03 14208   0.419E-01    0.161E-02
DAV:   2    -0.125558363953E+03   -0.25500E-05   -0.64179E-05 14496   0.347E-02    0.110E-02
DAV:   3    -0.125558363205E+03    0.74836E-06   -0.54368E-06 18192   0.111E-02
  92 F= -.12712895E+03 E0= -.12712817E+03  d E =-.245915E-04  mag=     0.0000
       N       E                     dE             d eps       ncg     rms          rms(c)
DAV:   1    -0.125558328112E+03    0.35841E-04   -0.85859E-02 14208   0.126E+00    0.495E-02
DAV:   2    -0.125558355226E+03   -0.27113E-04   -0.55870E-04 14784   0.100E-01    0.340E-02
DAV:   3    -0.125558347476E+03    0.77498E-05   -0.37465E-05 18480   0.255E-02    0.857E-03
DAV:   4    -0.125558347490E+03   -0.14381E-07   -0.62142E-06 14592   0.122E-02
  93 F= -.12712902E+03 E0= -.12712823E+03  d E =-.884849E-04  mag=     0.0000
       N       E                     dE             d eps       ncg     rms          rms(c)
DAV:   1    -0.125558197209E+03    0.15027E-03   -0.34392E-01 14208   0.251E+00    0.990E-02
DAV:   2    -0.125558305773E+03   -0.10856E-03   -0.22361E-03 18624   0.200E-01    0.681E-02
DAV:   3    -0.125558270595E+03    0.35178E-04   -0.14266E-04 18912   0.466E-02    0.155E-02
DAV:   4    -0.125558270600E+03   -0.45675E-08   -0.18263E-05 14400   0.193E-02    0.506E-03
DAV:   5    -0.125558270425E+03    0.17490E-06   -0.44138E-06 15456   0.104E-02
  94 F= -.12712910E+03 E0= -.12712832E+03  d E =-.170742E-03  mag=     0.0000
       N       E                     dE             d eps       ncg     rms          rms(c)
DAV:   1    -0.125557656204E+03    0.61440E-03   -0.13750E+00 14208   0.503E+00    0.198E-01
DAV:   2    -0.125558086219E+03   -0.43002E-03   -0.89121E-03 22752   0.397E-01    0.136E-01
DAV:   3    -0.125557933699E+03    0.15252E-03   -0.54875E-04 19392   0.868E-02    0.287E-02
DAV:   4    -0.125557933592E+03    0.10688E-06   -0.58490E-05 16512   0.291E-02    0.944E-03
DAV:   5    -0.125557933479E+03    0.11343E-06   -0.55858E-06 15024   0.100E-02
  95 F= -.12712908E+03 E0= -.12712830E+03  d E =-.152653E-03  mag=     0.0000
       N       E                     dE             d eps       ncg     rms          rms(c)
DAV:   1    -0.125558067716E+03   -0.13412E-03   -0.46439E-01 14208   0.292E+00    0.115E-01
DAV:   2    -0.125558209650E+03   -0.14193E-03   -0.30153E-03 20112   0.232E-01    0.789E-02
DAV:   3    -0.125558159473E+03    0.50177E-04   -0.19232E-04 18480   0.530E-02    0.175E-02
DAV:   4    -0.125558159474E+03   -0.11578E-08   -0.23750E-05 14208   0.211E-02    0.571E-03
DAV:   5    -0.125558159355E+03    0.11886E-06   -0.51014E-06 14208   0.111E-02
  96 F= -.12712912E+03 E0= -.12712834E+03  d E =-.193197E-03  mag=    -0.0000
       N       E                     dE             d eps       ncg     rms          rms(c)
DAV:   1    -0.125558108489E+03    0.50985E-04   -0.69865E-02 14208   0.113E+00    0.440E-02
DAV:   2    -0.125558131632E+03   -0.23143E-04   -0.45704E-04 14208   0.909E-02    0.304E-02
DAV:   3    -0.125558125328E+03    0.63041E-05   -0.29767E-05 20736   0.236E-02    0.803E-03
DAV:   4    -0.125558125284E+03    0.43912E-07   -0.58730E-06 14304   0.123E-02
  97 F= -.12712918E+03 E0= -.12712840E+03  d E =-.598963E-04  mag=    -0.0000
       N       E                     dE             d eps       ncg     rms          rms(c)
DAV:   1    -0.125557846110E+03    0.27922E-03   -0.62927E-01 14208   0.340E+00    0.133E-01
DAV:   2    -0.125558064258E+03   -0.21815E-03   -0.40705E-03 19056   0.269E-01    0.926E-02
DAV:   3    -0.125558000333E+03    0.63926E-04   -0.23853E-04 19728   0.597E-02    0.201E-02
DAV:   4    -0.125558000300E+03    0.33191E-07   -0.28579E-05 14880   0.230E-02    0.627E-03
DAV:   5    -0.125558000172E+03    0.12745E-06   -0.57851E-06 14304   0.118E-02
  98 F= -.12712934E+03 E0= -.12712856E+03  d E =-.216877E-03  mag=     0.0000
       N       E                     dE             d eps       ncg     rms          rms(c)
DAV:   1    -0.125557045330E+03    0.95497E-03   -0.25160E+00 14208   0.680E+00    0.266E-01
DAV:   2    -0.125557907821E+03   -0.86249E-03   -0.16167E-02 19296   0.536E-01    0.185E-01
DAV:   3    -0.125557643468E+03    0.26435E-03   -0.94657E-04 19104   0.117E-01    0.399E-02
DAV:   4    -0.125557643247E+03    0.22125E-06   -0.10504E-04 21936   0.411E-02    0.124E-02
DAV:   5    -0.125557642299E+03    0.94785E-06   -0.12231E-05 16800   0.164E-02    0.542E-03
DAV:   6    -0.125557643274E+03   -0.97442E-06   -0.87505E-06 17520   0.149E-02
  99 F= -.12712955E+03 E0= -.12712876E+03  d E =-.423413E-03  mag=     0.0000
       N       E                     dE             d eps       ncg     rms          rms(c)
DAV:   1    -0.125554090994E+03    0.35513E-02   -0.10057E+01 14208   0.136E+01    0.533E-01
DAV:   2    -0.125557585624E+03   -0.34946E-02   -0.65192E-02 21360   0.107E+00    0.370E-01
DAV:   3    -0.125556496400E+03    0.10892E-02   -0.37746E-03 18768   0.229E-01    0.803E-02
DAV:   4    -0.125556496026E+03    0.37441E-06   -0.40923E-04 26496   0.750E-02    0.245E-02
DAV:   5    -0.125556491856E+03    0.41697E-05   -0.25003E-05 23040   0.190E-02    0.105E-02
DAV:   6    -0.125556491526E+03    0.33004E-06   -0.54276E-06 23520   0.964E-03
 100 F= -.12712952E+03 E0= -.12712874E+03  d E =-.397801E-03  mag=     0.0000
       N       E                     dE             d eps       ncg     rms          rms(c)
DAV:   1    -0.125556516415E+03   -0.24559E-04   -0.28722E+00 14208   0.727E+00    0.285E-01
DAV:   2    -0.125557485618E+03   -0.96920E-03   -0.18381E-02 20784   0.570E-01    0.197E-01
DAV:   3    -0.125557178185E+03    0.30743E-03   -0.10803E-03 19728   0.123E-01    0.412E-02
DAV:   4    -0.125557178688E+03   -0.50316E-06   -0.11401E-04 20448   0.400E-02    0.131E-02
DAV:   5    -0.125557177860E+03    0.82809E-06   -0.82787E-06 16704   0.115E-02
 101 F= -.12712960E+03 E0= -.12712882E+03  d E =-.482809E-03  mag=    -0.0000
       N       E                     dE             d eps       ncg     rms          rms(c)
DAV:   1    -0.125557153217E+03    0.25471E-04   -0.21103E-02 14208   0.623E-01    0.242E-02
DAV:   2    -0.125557160630E+03   -0.74134E-05   -0.13962E-04 18864   0.500E-02    0.169E-02
DAV:   3    -0.125557158334E+03    0.22965E-05   -0.86456E-06 15504   0.126E-02    0.423E-03
DAV:   4    -0.125557158523E+03   -0.18949E-06   -0.22767E-06 15936   0.765E-03
 102 F= -.12712964E+03 E0= -.12712886E+03  d E =-.343509E-04  mag=    -0.0000
       N       E                     dE             d eps       ncg     rms          rms(c)
DAV:   1    -0.125557049473E+03    0.10886E-03   -0.19043E-01 14208   0.187E+00    0.731E-02
DAV:   2    -0.125557116186E+03   -0.66712E-04   -0.12277E-03 17088   0.148E-01    0.508E-02
DAV:   3    -0.125557098116E+03    0.18070E-04   -0.71103E-05 16272   0.330E-02    0.117E-02
DAV:   4    -0.125557098446E+03   -0.33039E-06   -0.77360E-06 14304   0.113E-02
 103 F= -.12712974E+03 E0= -.12712896E+03  d E =-.135369E-03  mag=    -0.0000
       N       E                     dE             d eps       ncg     rms          rms(c)
DAV:   1    -0.125556778792E+03    0.31932E-03   -0.76194E-01 14208   0.374E+00    0.147E-01
DAV:   2    -0.125557045307E+03   -0.26652E-03   -0.48827E-03 17856   0.294E-01    0.102E-01
DAV:   3    -0.125556969628E+03    0.75680E-04   -0.28065E-04 18720   0.642E-02    0.224E-02
DAV:   4    -0.125556970048E+03   -0.42025E-06   -0.30250E-05 17328   0.214E-02    0.679E-03
DAV:   5    -0.125556969715E+03    0.33261E-06   -0.33844E-06 16704   0.785E-03
 104 F= -.12712993E+03 E0= -.12712915E+03  d E =-.328918E-03  mag=    -0.0000
       N       E                     dE             d eps       ncg     rms          rms(c)
DAV:   1    -0.125555943642E+03    0.10264E-02   -0.30458E+00 14208   0.748E+00    0.293E-01
DAV:   2    -0.125557005947E+03   -0.10623E-02   -0.19498E-02 19248   0.588E-01    0.203E-01
DAV:   3    -0.125556688513E+03    0.31743E-03   -0.11131E-03 19008   0.126E-01    0.439E-02
DAV:   4    -0.125556689043E+03   -0.53006E-06   -0.12105E-04 24672   0.417E-02    0.133E-02
DAV:   5    -0.125556687572E+03    0.14710E-05   -0.91983E-06 14976   0.127E-02    0.579E-03
DAV:   6    -0.125556687420E+03    0.15145E-06   -0.37674E-06 20976   0.965E-03
 105 F= -.12713030E+03 E0= -.12712951E+03  d E =-.691836E-03  mag=     0.0000
       N       E                     dE             d eps       ncg     rms          rms(c)
DAV:   1    -0.125552997541E+03    0.36900E-02   -0.12173E+01 14208   0.150E+01    0.585E-01
DAV:   2    -0.125557312530E+03   -0.43150E-02   -0.78762E-02 21120   0.118E+00    0.407E-01
DAV:   3    -0.125556012394E+03    0.13001E-02   -0.44458E-03 19104   0.249E-01    0.892E-02
DAV:   4    -0.125556011257E+03    0.11368E-05   -0.48635E-04 25728   0.816E-02    0.264E-02
DAV:   5    -0.125556005865E+03    0.53926E-05   -0.31887E-05 21792   0.211E-02    0.114E-02
DAV:   6    -0.125556005580E+03    0.28444E-06   -0.66564E-06 22368   0.104E-02
 106 F= -.12713091E+03 E0= -.12713013E+03  d E =-.130303E-02  mag=    -0.0000
       N       E                     dE             d eps       ncg     rms          rms(c)
DAV:   1    -0.125541128777E+03    0.14877E-01   -0.48549E+01 14208   0.299E+01    0.117E+00
DAV:   2    -0.125559311284E+03   -0.18183E-01   -0.32475E-01 19104   0.240E+00    0.812E-01
DAV:   3    -0.125554165924E+03    0.51454E-02   -0.17451E-02 21696   0.491E-01    0.211E-01
DAV:   4    -0.125554117029E+03    0.48895E-04   -0.18785E-03 24480   0.163E-01    0.530E-02
DAV:   5    -0.125554087454E+03    0.29575E-04   -0.16191E-04 26400   0.463E-02    0.226E-02
DAV:   6    -0.125554087108E+03    0.34597E-06   -0.25327E-05 19440   0.196E-02    0.389E-03
DAV:   7    -0.125554087813E+03   -0.70473E-06   -0.29387E-06 15840   0.795E-03
 107 F= -.12713159E+03 E0= -.12713080E+03  d E =-.198090E-02  mag=     0.0000
       N       E                     dE             d eps       ncg     rms          rms(c)
DAV:   1    -0.125550486608E+03    0.36005E-02   -0.10260E+01 14208   0.137E+01    0.538E-01
DAV:   2    -0.125554064914E+03   -0.35783E-02   -0.65795E-02 21360   0.108E+00    0.373E-01
DAV:   3    -0.125552965076E+03    0.10998E-02   -0.37745E-03 20112   0.229E-01    0.800E-02
DAV:   4    -0.125552963747E+03    0.13290E-05   -0.40532E-04 26064   0.744E-02    0.243E-02
DAV:   5    -0.125552959575E+03    0.41724E-05   -0.25706E-05 18240   0.192E-02    0.105E-02
DAV:   6    -0.125552959837E+03   -0.26188E-06   -0.59259E-06 18048   0.101E-02
 108 F= -.12713165E+03 E0= -.12713087E+03  d E =-.204890E-02  mag=     0.0000
       N       E                     dE             d eps       ncg     rms          rms(c)
DAV:   1    -0.125550538175E+03    0.24214E-02   -0.80917E+00 14208   0.122E+01    0.477E-01
DAV:   2    -0.125553399878E+03   -0.28617E-02   -0.52302E-02 21360   0.960E-01    0.332E-01
DAV:   3    -0.125552539169E+03    0.86071E-03   -0.29956E-03 20016   0.204E-01    0.719E-02
DAV:   4    -0.125552537049E+03    0.21197E-05   -0.33233E-04 25392   0.675E-02    0.217E-02
DAV:   5    -0.125552533932E+03    0.31173E-05   -0.21713E-05 19440   0.178E-02    0.946E-03
DAV:   6    -0.125552533753E+03    0.17892E-06   -0.51002E-06 17664   0.994E-03
 109 F= -.12713229E+03 E0= -.12713151E+03  d E =-.637209E-03  mag=     0.0000
       N       E                     dE             d eps       ncg     rms          rms(c)
DAV:   1    -0.125529718426E+03    0.22816E-01   -0.72434E+01 14208   0.365E+01    0.144E+00
DAV:   2    -0.125558221988E+03   -0.28504E-01   -0.49904E-01 17760   0.300E+00    0.991E-01
DAV:   3    -0.125550633478E+03    0.75885E-02   -0.25704E-02 21792   0.599E-01    0.285E-01
DAV:   4    -0.125550506743E+03    0.12674E-03   -0.29405E-03 24000   0.208E-01    0.659E-02
DAV:   5    -0.125550455260E+03    0.51483E-04   -0.29848E-04 27072   0.617E-02    0.279E-02
DAV:   6    -0.125550454159E+03    0.11001E-05   -0.40564E-05 21696   0.241E-02    0.511E-03
DAV:   7    -0.125550454821E+03   -0.66130E-06   -0.41861E-06 17232   0.888E-03
 110 F= -.12713341E+03 E0= -.12713263E+03  d E =-.175821E-02  mag=     0.0000
       N       E                     dE             d eps       ncg     rms          rms(c)
DAV:   1    -0.125545873998E+03    0.45802E-02   -0.13326E+01 14208   0.157E+01    0.613E-01
DAV:   2    -0.125550605702E+03   -0.47317E-02   -0.86204E-02 21072   0.123E+00    0.425E-01
DAV:   3    -0.125549185260E+03    0.14204E-02   -0.48835E-03 19968   0.261E-01    0.944E-02
DAV:   4    -0.125549180489E+03    0.47716E-05   -0.54474E-04 26640   0.863E-02    0.278E-02
DAV:   5    -0.125549174786E+03    0.57025E-05   -0.34847E-05 18336   0.222E-02    0.121E-02
DAV:   6    -0.125549174889E+03   -0.10309E-06   -0.76453E-06 18768   0.115E-02
 111 F= -.12713351E+03 E0= -.12713272E+03  d E =-.185215E-02  mag=    -0.0000
       N       E                     dE             d eps       ncg     rms          rms(c)
DAV:   1    -0.125546035916E+03    0.31389E-02   -0.11073E+01 14208   0.143E+01    0.558E-01
DAV:   2    -0.125549903702E+03   -0.38678E-02   -0.71425E-02 21264   0.112E+00    0.387E-01
DAV:   3    -0.125548716984E+03    0.11867E-02   -0.41093E-03 19776   0.239E-01    0.844E-02
DAV:   4    -0.125548715018E+03    0.19657E-05   -0.44789E-04 25968   0.783E-02    0.254E-02
DAV:   5    -0.125548710402E+03    0.46167E-05   -0.29022E-05 19152   0.203E-02    0.110E-02
DAV:   6    -0.125548710345E+03    0.56277E-07   -0.61989E-06 18672   0.103E-02
 112 F= -.12713430E+03 E0= -.12713352E+03  d E =-.791911E-03  mag=    -0.0000
       N       E                     dE             d eps       ncg     rms          rms(c)
DAV:   1    -0.125516761371E+03    0.31949E-01   -0.98940E+01 14208   0.426E+01    0.168E+00
DAV:   2    -0.125556717174E+03   -0.39956E-01   -0.69702E-01 17280   0.355E+00    0.116E+00
DAV:   3    -0.125546234661E+03    0.10483E-01   -0.34866E-02 22080   0.696E-01    0.353E-01
DAV:   4    -0.125546008470E+03    0.22619E-03   -0.41378E-03 23328   0.248E-01    0.781E-02
DAV:   5    -0.125545931274E+03    0.77196E-04   -0.46073E-04 27312   0.758E-02    0.328E-02
DAV:   6    -0.125545929677E+03    0.15969E-05   -0.55304E-05 22224   0.274E-02    0.619E-03
DAV:   7    -0.125545930233E+03   -0.55651E-06   -0.50579E-06 19584   0.896E-03
 113 F= -.12713530E+03 E0= -.12713452E+03  d E =-.179491E-02  mag=    -0.0000
       N       E                     dE             d eps       ncg     rms          rms(c)
DAV:   1    -0.125545372659E+03    0.55702E-03   -0.21218E+00 14208   0.624E+00    0.245E-01
DAV:   2    -0.125546057893E+03   -0.68523E-03   -0.13525E-02 24144   0.488E-01    0.170E-01
DAV:   3    -0.125545817873E+03    0.24002E-03   -0.80716E-04 20352   0.104E-01    0.327E-02
DAV:   4    -0.125545818406E+03   -0.53342E-06   -0.80816E-05 20352   0.334E-02    0.113E-02
DAV:   5    -0.125545818221E+03    0.18552E-06   -0.61202E-06 20304   0.959E-03
 114 F= -.12713574E+03 E0= -.12713496E+03  d E =-.439676E-03  mag=    -0.0000
       N       E                     dE             d eps       ncg     rms          rms(c)
DAV:   1    -0.125542725099E+03    0.30933E-02   -0.10811E+01 14208   0.141E+01    0.554E-01
DAV:   2    -0.125546225428E+03   -0.35003E-02   -0.69045E-02 22224   0.111E+00    0.383E-01
DAV:   3    -0.125545007029E+03    0.12184E-02   -0.40662E-03 19728   0.235E-01    0.792E-02
DAV:   4    -0.125545010645E+03   -0.36164E-05   -0.40588E-04 25920   0.747E-02    0.254E-02
DAV:   5    -0.125545006078E+03    0.45670E-05   -0.25987E-05 17904   0.195E-02    0.109E-02
DAV:   6    -0.125545005842E+03    0.23553E-06   -0.61528E-06 18528   0.110E-02
 115 F= -.12713618E+03 E0= -.12713540E+03  d E =-.875365E-03  mag=    -0.0000
       N       E                     dE             d eps       ncg     rms          rms(c)
DAV:   1    -0.125544365972E+03    0.64011E-03   -0.22154E+00 14208   0.638E+00    0.250E-01
DAV:   2    -0.125545106349E+03   -0.74038E-03   -0.14230E-02 22224   0.502E-01    0.173E-01
DAV:   3    -0.125544865100E+03    0.24125E-03   -0.85173E-04 19728   0.108E-01    0.348E-02
DAV:   4    -0.125544865721E+03   -0.62087E-06   -0.89230E-05 22080   0.353E-02    0.116E-02
DAV:   5    -0.125544865188E+03    0.53247E-06   -0.64312E-06 17664   0.990E-03
 116 F= -.12713659E+03 E0= -.12713581E+03  d E =-.418688E-03  mag=     0.0000
       N       E                     dE             d eps       ncg     rms          rms(c)
DAV:   1    -0.125544381477E+03    0.48424E-03   -0.91012E-01 14208   0.409E+00    0.160E-01
DAV:   2    -0.125544682777E+03   -0.30130E-03   -0.58129E-03 20880   0.322E-01    0.111E-01
DAV:   3    -0.125544586851E+03    0.95926E-04   -0.35413E-04 19632   0.709E-02    0.226E-02
DAV:   4    -0.125544587473E+03   -0.62247E-06   -0.36153E-05 19248   0.235E-02    0.766E-03
DAV:   5    -0.125544587211E+03    0.26203E-06   -0.33903E-06 16176   0.802E-03
 117 F= -.12713668E+03 E0= -.12713590E+03  d E =-.499122E-03  mag=     0.0000
       N       E                     dE             d eps       ncg     rms          rms(c)
DAV:   1    -0.125544105292E+03    0.48218E-03   -0.14184E+00 14208   0.511E+00    0.199E-01
DAV:   2    -0.125544605056E+03   -0.49976E-03   -0.92187E-03 20448   0.406E-01    0.139E-01
DAV:   3    -0.125544462860E+03    0.14220E-03   -0.54862E-04 19488   0.884E-02    0.302E-02
DAV:   4    -0.125544462458E+03    0.40226E-06   -0.64236E-05 19680   0.302E-02    0.944E-03
DAV:   5    -0.125544462087E+03    0.37084E-06   -0.54160E-06 17856   0.943E-03
 118 F= -.12713699E+03 E0= -.12713621E+03  d E =-.312272E-03  mag=     0.0000
       N       E                     dE             d eps       ncg     rms          rms(c)
DAV:   1    -0.125543953170E+03    0.50929E-03   -0.92424E-01 14208   0.413E+00    0.161E-01
DAV:   2    -0.125544281012E+03   -0.32784E-03   -0.60180E-03 20112   0.328E-01    0.112E-01
DAV:   3    -0.125544189796E+03    0.91216E-04   -0.35657E-04 19488   0.717E-02    0.246E-02
DAV:   4    -0.125544189539E+03    0.25754E-06   -0.42414E-05 17232   0.256E-02    0.771E-03
DAV:   5    -0.125544189325E+03    0.21386E-06   -0.46612E-06 15840   0.955E-03
 119 F= -.12713707E+03 E0= -.12713629E+03  d E =-.392985E-03  mag=     0.0000
       N       E                     dE             d eps       ncg     rms          rms(c)
DAV:   1    -0.125544130152E+03    0.59387E-04   -0.12534E-01 14208   0.152E+00    0.599E-02
DAV:   2    -0.125544172687E+03   -0.42536E-04   -0.83849E-04 19776   0.124E-01    0.412E-02
DAV:   3    -0.125544159286E+03    0.13401E-04   -0.56650E-05 19440   0.296E-02    0.908E-03
DAV:   4    -0.125544159437E+03   -0.15109E-06   -0.80333E-06 15072   0.129E-02
 120 F= -.12713716E+03 E0= -.12713638E+03  d E =-.903650E-04  mag=    -0.0000
       N       E                     dE             d eps       ncg     rms          rms(c)
DAV:   1    -0.125544112698E+03    0.46588E-04   -0.22761E-02 14208   0.648E-01    0.258E-02
DAV:   2    -0.125544121313E+03   -0.86147E-05   -0.15552E-04 19776   0.539E-02    0.178E-02
DAV:   3    -0.125544118824E+03    0.24891E-05   -0.10953E-05 19200   0.140E-02    0.412E-03
DAV:   4    -0.125544118983E+03   -0.15893E-06   -0.25424E-06 14496   0.801E-03
 121 F= -.12713717E+03 E0= -.12713639E+03  d E =-.101078E-03  mag=    -0.0000
       N       E                     dE             d eps       ncg     rms          rms(c)
DAV:   1    -0.125544073734E+03    0.45090E-04   -0.11152E-01 14208   0.144E+00    0.565E-02
DAV:   2    -0.125544104664E+03   -0.30929E-04   -0.72864E-04 20352   0.116E-01    0.384E-02
DAV:   3    -0.125544092655E+03    0.12009E-04   -0.51015E-05 19440   0.271E-02    0.809E-03
DAV:   4    -0.125544092813E+03   -0.15789E-06   -0.55034E-06 17424   0.992E-03
 122 F= -.12713724E+03 E0= -.12713646E+03  d E =-.750932E-04  mag=    -0.0000
       N       E                     dE             d eps       ncg     rms          rms(c)
DAV:   1    -0.125544080146E+03    0.12509E-04   -0.20148E-03 15264   0.193E-01    0.799E-03
DAV:   2    -0.125544080965E+03   -0.81918E-06   -0.13222E-05 15216   0.162E-02    0.539E-03
DAV:   3    -0.125544080582E+03    0.38284E-06   -0.15369E-06 16656   0.618E-03
 123 F= -.12713725E+03 E0= -.12713647E+03  d E =-.764257E-04  mag=     0.0000
       N       E                     dE             d eps       ncg     rms          rms(c)
DAV:   1    -0.125544091749E+03   -0.10784E-04   -0.36614E-03 14208   0.258E-01    0.103E-02
DAV:   2    -0.125544092772E+03   -0.10235E-05   -0.24926E-05 20352   0.216E-02    0.689E-03
DAV:   3    -0.125544092219E+03    0.55357E-06   -0.21572E-06 17472   0.646E-03
 124 F= -.12713726E+03 E0= -.12713648E+03  d E =-.134043E-04  mag=     0.0000
       N       E                     dE             d eps       ncg     rms          rms(c)
DAV:   1    -0.125544093554E+03   -0.78154E-06   -0.19197E-03 15072   0.187E-01    0.761E-03
DAV:   2    -0.125544094140E+03   -0.58592E-06   -0.12735E-05 17808   0.157E-02    0.507E-03
DAV:   3    -0.125544093832E+03    0.30774E-06   -0.15749E-06 16848   0.607E-03
 125 F= -.12713726E+03 E0= -.12713648E+03  d E =-.163005E-04  mag=    -0.0000
       N       E                     dE             d eps       ncg     rms          rms(c)
DAV:   1    -0.125544118306E+03   -0.24166E-04   -0.30680E-03 14208   0.234E-01    0.943E-03
DAV:   2    -0.125544118856E+03   -0.54971E-06   -0.22324E-05 20112   0.210E-02    0.605E-03
DAV:   3    -0.125544118420E+03    0.43615E-06   -0.25891E-06 16080   0.731E-03
 126 F= -.12713727E+03 E0= -.12713649E+03  d E =-.757690E-05  mag=     0.0000
       N       E                     dE             d eps       ncg     rms          rms(c)
DAV:   1    -0.125544119562E+03   -0.70626E-06   -0.12569E-05 14208   0.159E-02    0.109E-03
DAV:   2    -0.125544119643E+03   -0.81231E-07   -0.61395E-07 14880   0.419E-03
 127 F= -.12713727E+03 E0= -.12713649E+03  d E =-.776225E-05  mag=     0.0000
       N       E                     dE             d eps       ncg     rms          rms(c)
DAV:   1    -0.125544158476E+03   -0.38914E-04   -0.24515E-03 14208   0.204E-01    0.880E-03
DAV:   2    -0.125544158598E+03   -0.12124E-06   -0.18640E-05 22224   0.186E-02    0.549E-03
DAV:   3    -0.125544158237E+03    0.36085E-06   -0.22334E-06 15888   0.563E-03
 128 F= -.12713728E+03 E0= -.12713650E+03  d E =-.628778E-05  mag=     0.0000
