   8   8   0  16
  0.4131256E+02  0.5044000E-09  0.5044000E-09  0.1500000E-08  0.5000000E-15
  1.000000000000000E-004
  CAR 
 SC                                      
     12.55519059    -23.08323030  301     -2.48475667      1.00000000
    -23.083  0.0000E+00  0.0000E+00
    -22.964  0.0000E+00  0.0000E+00
    -22.846  0.0000E+00  0.0000E+00
    -22.727  0.0000E+00  0.0000E+00
    -22.608  0.0000E+00  0.0000E+00
    -22.489  0.0000E+00  0.0000E+00
    -22.370  0.0000E+00  0.0000E+00
    -22.252  0.0000E+00  0.0000E+00
    -22.133  0.0000E+00  0.0000E+00
    -22.014  0.4711E-15  0.5597E-16
    -21.895  0.7496E-10  0.8904E-11
    -21.776  0.8054E-06  0.9568E-07
    -21.658  0.6841E-03  0.8136E-04
    -21.539  0.5484E-01  0.6596E-02
    -21.420  0.5331E+00  0.6992E-01
    -21.301  0.1172E+01  0.2092E+00
    -21.183  0.1225E+01  0.3547E+00
    -21.064  0.1395E+01  0.5204E+00
    -20.945  0.1089E+01  0.6498E+00
    -20.826  0.1546E+01  0.8335E+00
    -20.707  0.1116E+01  0.9660E+00
    -20.589  0.1162E+01  0.1104E+01
    -20.470  0.1725E+01  0.1309E+01
    -20.351  0.9705E+00  0.1424E+01
    -20.232  0.1085E+01  0.1553E+01
    -20.113  0.1748E+01  0.1761E+01
    -19.995  0.1414E+01  0.1929E+01
    -19.876  0.7239E+00  0.2015E+01
    -19.757  0.1315E+01  0.2171E+01
    -19.638  0.1957E+01  0.2404E+01
    -19.519  0.1154E+01  0.2541E+01
    -19.401  0.1052E+01  0.2666E+01
    -19.282  0.8028E+00  0.2761E+01
    -19.163  0.2063E+01  0.3006E+01
    -19.044  0.1705E+01  0.3209E+01
    -18.925  0.8246E+00  0.3307E+01
    -18.807  0.1020E+01  0.3428E+01
    -18.688  0.1155E+01  0.3565E+01
    -18.569  0.1954E+01  0.3797E+01
    -18.450  0.1733E+01  0.4003E+01
    -18.331  0.1191E+01  0.4144E+01
    -18.213  0.5175E+00  0.4206E+01
    -18.094  0.1296E+01  0.4360E+01
    -17.975  0.1991E+01  0.4596E+01
    -17.856  0.1720E+01  0.4801E+01
    -17.737  0.1406E+01  0.4968E+01
    -17.619  0.1216E+01  0.5112E+01
    -17.500  0.5698E+00  0.5180E+01
    -17.381  0.1279E+01  0.5332E+01
    -17.262  0.2628E+01  0.5644E+01
    -17.143  0.1540E+01  0.5827E+01
    -17.025  0.1402E+01  0.5994E+01
    -16.906  0.1228E+01  0.6139E+01
    -16.787  0.9922E+00  0.6257E+01
    -16.668  0.1364E+01  0.6419E+01
    -16.550  0.3016E+01  0.6778E+01
    -16.431  0.2506E+01  0.7075E+01
    -16.312  0.1662E+01  0.7273E+01
    -16.193  0.2814E+00  0.7306E+01
    -16.074  0.2465E+00  0.7336E+01
    -15.956  0.1339E+01  0.7495E+01
    -15.837  0.2090E+01  0.7743E+01
    -15.718  0.4838E+00  0.7800E+01
    -15.599  0.1461E-01  0.7802E+01
    -15.480  0.1492E+00  0.7820E+01
    -15.362  0.5985E+00  0.7891E+01
    -15.243  0.9494E+00  0.8004E+01
    -15.124  0.1501E+01  0.8182E+01
    -15.005  0.1269E+01  0.8333E+01
    -14.886  0.1242E+01  0.8480E+01
    -14.768  0.1509E+01  0.8660E+01
    -14.649  0.1575E+01  0.8847E+01
    -14.530  0.2804E+01  0.9180E+01
    -14.411  0.1520E+01  0.9360E+01
    -14.292  0.1405E+01  0.9527E+01
    -14.174  0.1854E+01  0.9747E+01
    -14.055  0.1995E+01  0.9984E+01
    -13.936  0.1145E+01  0.1012E+02
    -13.817  0.7074E+00  0.1020E+02
    -13.698  0.1924E+01  0.1043E+02
    -13.580  0.1492E+01  0.1061E+02
    -13.461  0.1194E+01  0.1075E+02
    -13.342  0.1288E+01  0.1091E+02
    -13.223  0.7521E+00  0.1099E+02
    -13.104  0.1249E+01  0.1114E+02
    -12.986  0.1563E+01  0.1133E+02
    -12.867  0.1342E+01  0.1149E+02
    -12.748  0.3977E+00  0.1154E+02
    -12.629  0.1008E+01  0.1166E+02
    -12.510  0.1819E+01  0.1187E+02
    -12.392  0.1682E+01  0.1207E+02
    -12.273  0.4899E+00  0.1213E+02
    -12.154  0.1227E+01  0.1227E+02
    -12.035  0.2870E+01  0.1262E+02
    -11.917  0.2153E+01  0.1287E+02
    -11.798  0.3255E+00  0.1291E+02
    -11.679  0.3223E+00  0.1295E+02
    -11.560  0.1677E+01  0.1315E+02
    -11.441  0.3467E+01  0.1356E+02
    -11.323  0.1950E+01  0.1379E+02
    -11.204  0.8394E+00  0.1389E+02
    -11.085  0.3548E+00  0.1393E+02
    -10.966  0.2175E+01  0.1419E+02
    -10.847  0.2304E+01  0.1447E+02
    -10.729  0.1027E+01  0.1459E+02
    -10.610  0.1995E+01  0.1482E+02
    -10.491  0.1747E+01  0.1503E+02
    -10.372  0.2474E+01  0.1533E+02
    -10.253  0.1541E+01  0.1551E+02
    -10.135  0.1113E+01  0.1564E+02
    -10.016  0.9076E+00  0.1575E+02
     -9.897  0.2470E+01  0.1604E+02
     -9.778  0.3265E+01  0.1643E+02
     -9.659  0.2733E+01  0.1675E+02
     -9.541  0.1938E+01  0.1698E+02
     -9.422  0.1572E+01  0.1717E+02
     -9.303  0.3577E+01  0.1760E+02
     -9.184  0.4952E+01  0.1818E+02
     -9.065  0.3394E+01  0.1859E+02
     -8.947  0.3339E+01  0.1898E+02
     -8.828  0.4299E+01  0.1950E+02
     -8.709  0.3800E+01  0.1995E+02
     -8.590  0.4718E+01  0.2051E+02
     -8.471  0.4553E+01  0.2105E+02
     -8.353  0.3103E+01  0.2142E+02
     -8.234  0.3941E+01  0.2188E+02
     -8.115  0.3700E+01  0.2232E+02
     -7.996  0.3048E+01  0.2269E+02
     -7.878  0.2435E+01  0.2298E+02
     -7.759  0.1666E+01  0.2317E+02
     -7.640  0.4127E+01  0.2366E+02
     -7.521  0.4198E+01  0.2416E+02
     -7.402  0.2020E+01  0.2440E+02
     -7.284  0.1481E+01  0.2458E+02
     -7.165  0.2338E+01  0.2486E+02
     -7.046  0.4200E+01  0.2536E+02
     -6.927  0.2382E+01  0.2564E+02
     -6.808  0.1565E+01  0.2582E+02
     -6.690  0.2799E+01  0.2616E+02
     -6.571  0.2910E+01  0.2650E+02
     -6.452  0.1573E+01  0.2669E+02
     -6.333  0.2623E+01  0.2700E+02
     -6.214  0.3081E+01  0.2737E+02
     -6.096  0.2520E+01  0.2767E+02
     -5.977  0.1300E+01  0.2782E+02
     -5.858  0.1992E+01  0.2806E+02
     -5.739  0.2658E+01  0.2837E+02
     -5.620  0.3144E+01  0.2875E+02
     -5.502  0.2144E+01  0.2900E+02
     -5.383  0.1231E+01  0.2915E+02
     -5.264  0.7865E+00  0.2924E+02
     -5.145  0.1123E+01  0.2937E+02
     -5.026  0.1982E+01  0.2961E+02
     -4.908  0.3044E+01  0.2997E+02
     -4.789  0.2399E+01  0.3026E+02
     -4.670  0.1806E+01  0.3047E+02
     -4.551  0.7719E+00  0.3056E+02
     -4.432  0.1336E+01  0.3072E+02
     -4.314  0.3074E+01  0.3109E+02
     -4.195  0.1732E+01  0.3129E+02
     -4.076  0.3739E+00  0.3134E+02
     -3.957  0.4815E+00  0.3139E+02
     -3.838  0.3127E+00  0.3143E+02
     -3.720  0.1066E+01  0.3156E+02
     -3.601  0.1262E+01  0.3171E+02
     -3.482  0.7287E+00  0.3179E+02
     -3.363  0.7589E-01  0.3180E+02
     -3.245  0.2527E+00  0.3183E+02
     -3.126  0.4751E+00  0.3189E+02
     -3.007  0.1488E+00  0.3191E+02
     -2.888  0.4232E+00  0.3196E+02
     -2.769  0.3312E+00  0.3200E+02
     -2.651  0.2600E-01  0.3200E+02
     -2.532  0.1661E-03  0.3200E+02
     -2.413  0.5498E-06  0.3200E+02
     -2.294  0.6020E-03  0.3200E+02
     -2.175  0.5454E-01  0.3201E+02
     -2.057  0.4200E+00  0.3206E+02
     -1.938  0.3461E+00  0.3210E+02
     -1.819  0.2790E+00  0.3213E+02
     -1.700  0.4744E+00  0.3219E+02
     -1.581  0.9687E-01  0.3220E+02
     -1.463  0.2192E+00  0.3222E+02
     -1.344  0.1425E+01  0.3239E+02
     -1.225  0.1562E+01  0.3258E+02
     -1.106  0.7216E+00  0.3267E+02
     -0.987  0.4744E+00  0.3272E+02
     -0.869  0.1868E+01  0.3294E+02
     -0.750  0.3276E+01  0.3333E+02
     -0.631  0.2830E+01  0.3367E+02
     -0.512  0.2038E+01  0.3391E+02
     -0.393  0.1019E+01  0.3403E+02
     -0.275  0.8755E+00  0.3414E+02
     -0.156  0.1393E+01  0.3430E+02
     -0.037  0.1556E+01  0.3449E+02
      0.082  0.1347E+01  0.3465E+02
      0.201  0.1441E+01  0.3482E+02
      0.319  0.1668E+01  0.3502E+02
      0.438  0.8372E+00  0.3511E+02
      0.557  0.2360E+00  0.3514E+02
      0.676  0.9448E+00  0.3526E+02
      0.795  0.1094E+01  0.3539E+02
      0.913  0.1744E+01  0.3559E+02
      1.032  0.1899E+01  0.3582E+02
      1.151  0.1384E+01  0.3598E+02
      1.270  0.1575E+01  0.3617E+02
      1.388  0.2111E+01  0.3642E+02
      1.507  0.1776E+01  0.3663E+02
      1.626  0.1099E+01  0.3676E+02
      1.745  0.1908E+01  0.3699E+02
      1.864  0.2573E+01  0.3729E+02
      1.982  0.3350E+01  0.3769E+02
      2.101  0.2291E+01  0.3796E+02
      2.220  0.2052E+01  0.3821E+02
      2.339  0.2740E+01  0.3853E+02
      2.458  0.3028E+01  0.3889E+02
      2.576  0.2819E+01  0.3923E+02
      2.695  0.4055E+01  0.3971E+02
      2.814  0.4396E+01  0.4023E+02
      2.933  0.3607E+01  0.4066E+02
      3.052  0.3056E+01  0.4102E+02
      3.170  0.3300E+01  0.4142E+02
      3.289  0.3749E+01  0.4186E+02
      3.408  0.2974E+01  0.4221E+02
      3.527  0.3296E+01  0.4261E+02
      3.646  0.3972E+01  0.4308E+02
      3.764  0.4987E+01  0.4367E+02
      3.883  0.3221E+01  0.4405E+02
      4.002  0.1439E+01  0.4422E+02
      4.121  0.3012E+01  0.4458E+02
      4.240  0.4994E+01  0.4517E+02
      4.358  0.6403E+01  0.4594E+02
      4.477  0.5727E+01  0.4662E+02
      4.596  0.6288E+01  0.4736E+02
      4.715  0.5788E+01  0.4805E+02
      4.834  0.6116E+01  0.4878E+02
      4.952  0.7658E+01  0.4969E+02
      5.071  0.7747E+01  0.5061E+02
      5.190  0.8773E+01  0.5165E+02
      5.309  0.7343E+01  0.5252E+02
      5.428  0.7488E+01  0.5341E+02
      5.546  0.9925E+01  0.5459E+02
      5.665  0.1028E+02  0.5581E+02
      5.784  0.8025E+01  0.5676E+02
      5.903  0.7749E+01  0.5768E+02
      6.021  0.8629E+01  0.5871E+02
      6.140  0.7174E+01  0.5956E+02
      6.259  0.6010E+01  0.6028E+02
      6.378  0.7095E+01  0.6112E+02
      6.497  0.7299E+01  0.6199E+02
      6.615  0.8521E+01  0.6300E+02
      6.734  0.7121E+01  0.6384E+02
      6.853  0.6647E+01  0.6463E+02
      6.972  0.4380E+01  0.6515E+02
      7.091  0.6228E+01  0.6589E+02
      7.209  0.7342E+01  0.6677E+02
      7.328  0.6907E+01  0.6759E+02
      7.447  0.8968E+01  0.6865E+02
      7.566  0.9753E+01  0.6981E+02
      7.685  0.6422E+01  0.7057E+02
      7.803  0.4786E+01  0.7114E+02
      7.922  0.5755E+01  0.7183E+02
      8.041  0.5416E+01  0.7247E+02
      8.160  0.7106E+01  0.7331E+02
      8.279  0.1099E+02  0.7462E+02
      8.397  0.1163E+02  0.7600E+02
      8.516  0.1014E+02  0.7720E+02
      8.635  0.6395E+01  0.7796E+02
      8.754  0.6320E+01  0.7871E+02
      8.873  0.9376E+01  0.7983E+02
      8.991  0.8525E+01  0.8084E+02
      9.110  0.6788E+01  0.8165E+02
      9.229  0.5098E+01  0.8225E+02
      9.348  0.8675E+01  0.8328E+02
      9.467  0.1023E+02  0.8450E+02
      9.585  0.9765E+01  0.8566E+02
      9.704  0.8779E+01  0.8670E+02
      9.823  0.9951E+01  0.8788E+02
      9.942  0.9640E+01  0.8903E+02
     10.061  0.1026E+02  0.9025E+02
     10.179  0.9547E+01  0.9138E+02
     10.298  0.6794E+01  0.9219E+02
     10.417  0.9649E+01  0.9334E+02
     10.536  0.7661E+01  0.9425E+02
     10.654  0.5911E+01  0.9495E+02
     10.773  0.4271E+01  0.9546E+02
     10.892  0.2393E+01  0.9574E+02
     11.011  0.1840E+01  0.9596E+02
     11.130  0.3441E+00  0.9600E+02
     11.248  0.6742E-02  0.9600E+02
     11.367  0.1013E-04  0.9600E+02
     11.486  0.1028E-08  0.9600E+02
     11.605  0.6673E-14  0.9600E+02
     11.724  0.0000E+00  0.9600E+02
     11.842  0.0000E+00  0.9600E+02
     11.961  0.0000E+00  0.9600E+02
     12.080  0.0000E+00  0.9600E+02
     12.199  0.0000E+00  0.9600E+02
     12.318  0.0000E+00  0.9600E+02
     12.436  0.0000E+00  0.9600E+02
     12.555  0.0000E+00  0.9600E+02
