  16  16   0   4
  0.1965315E+02  0.4920000E-09  0.4920000E-09  0.1500000E-08  0.5000000E-15
  1.000000000000000E-004
  CAR 
 Lattice                                 
     10.10037233    -21.29685673  301     -0.22367438      1.00000000
    -21.297  0.0000E+00  0.0000E+00  0.0000E+00  0.0000E+00
    -21.192  0.0000E+00  0.0000E+00  0.0000E+00  0.0000E+00
    -21.088  0.0000E+00  0.0000E+00  0.0000E+00  0.0000E+00
    -20.983  0.0000E+00  0.0000E+00  0.0000E+00  0.0000E+00
    -20.878  0.0000E+00  0.0000E+00  0.0000E+00  0.0000E+00
    -20.774  0.0000E+00  0.0000E+00  0.0000E+00  0.0000E+00
    -20.669  0.0000E+00  0.0000E+00  0.0000E+00  0.0000E+00
    -20.564  0.0000E+00  0.0000E+00  0.0000E+00  0.0000E+00
    -20.460  0.2878E-19  0.2878E-19  0.3012E-20  0.3012E-20
    -20.355  0.1908E-14  0.1908E-14  0.1997E-15  0.1997E-15
    -20.250  0.2288E-10  0.2288E-10  0.2395E-11  0.2395E-11
    -20.146  0.3605E-07  0.3605E-07  0.3776E-08  0.3776E-08
    -20.041  0.8143E-05  0.8143E-05  0.8561E-06  0.8561E-06
    -19.936  0.2922E-03  0.2922E-03  0.3144E-04  0.3144E-04
    -19.832  0.2030E-02  0.2030E-02  0.2439E-03  0.2439E-03
    -19.727  0.4234E-02  0.4234E-02  0.6871E-03  0.6871E-03
    -19.622  0.4653E-02  0.4653E-02  0.1174E-02  0.1174E-02
    -19.518  0.5029E-02  0.5029E-02  0.1700E-02  0.1700E-02
    -19.413  0.4313E-02  0.4313E-02  0.2152E-02  0.2152E-02
    -19.308  0.5491E-02  0.5491E-02  0.2726E-02  0.2726E-02
    -19.204  0.4287E-02  0.4287E-02  0.3175E-02  0.3175E-02
    -19.099  0.4487E-02  0.4487E-02  0.3645E-02  0.3645E-02
    -18.994  0.6079E-02  0.6079E-02  0.4281E-02  0.4281E-02
    -18.890  0.3825E-02  0.3825E-02  0.4681E-02  0.4681E-02
    -18.785  0.4176E-02  0.4176E-02  0.5118E-02  0.5118E-02
    -18.680  0.6262E-02  0.6262E-02  0.5773E-02  0.5773E-02
    -18.576  0.5183E-02  0.5183E-02  0.6316E-02  0.6316E-02
    -18.471  0.2982E-02  0.2982E-02  0.6628E-02  0.6628E-02
    -18.366  0.4879E-02  0.4879E-02  0.7139E-02  0.7139E-02
    -18.262  0.6904E-02  0.6904E-02  0.7861E-02  0.7861E-02
    -18.157  0.4521E-02  0.4521E-02  0.8334E-02  0.8334E-02
    -18.052  0.3788E-02  0.3788E-02  0.8731E-02  0.8731E-02
    -17.948  0.3348E-02  0.3348E-02  0.9081E-02  0.9081E-02
    -17.843  0.7089E-02  0.7089E-02  0.9823E-02  0.9823E-02
    -17.739  0.6384E-02  0.6384E-02  0.1049E-01  0.1049E-01
    -17.634  0.3375E-02  0.3375E-02  0.1084E-01  0.1084E-01
    -17.529  0.3583E-02  0.3583E-02  0.1122E-01  0.1122E-01
    -17.425  0.4384E-02  0.4384E-02  0.1168E-01  0.1168E-01
    -17.320  0.6754E-02  0.6754E-02  0.1239E-01  0.1239E-01
    -17.215  0.6551E-02  0.6551E-02  0.1307E-01  0.1307E-01
    -17.111  0.4542E-02  0.4542E-02  0.1355E-01  0.1355E-01
    -17.006  0.2272E-02  0.2272E-02  0.1378E-01  0.1378E-01
    -16.901  0.4103E-02  0.4103E-02  0.1421E-01  0.1421E-01
    -16.797  0.7031E-02  0.7031E-02  0.1495E-01  0.1495E-01
    -16.692  0.6418E-02  0.6418E-02  0.1562E-01  0.1562E-01
    -16.587  0.5339E-02  0.5339E-02  0.1618E-01  0.1618E-01
    -16.483  0.4453E-02  0.4453E-02  0.1665E-01  0.1665E-01
    -16.378  0.2907E-02  0.2907E-02  0.1695E-01  0.1695E-01
    -16.273  0.2923E-02  0.2923E-02  0.1726E-01  0.1726E-01
    -16.169  0.8596E-02  0.8596E-02  0.1816E-01  0.1816E-01
    -16.064  0.7536E-02  0.7536E-02  0.1894E-01  0.1894E-01
    -15.959  0.7429E-02  0.7429E-02  0.1972E-01  0.1972E-01
    -15.855  0.9533E-02  0.9533E-02  0.2072E-01  0.2072E-01
    -15.750  0.1033E-01  0.1033E-01  0.2180E-01  0.2180E-01
    -15.645  0.9581E-02  0.9581E-02  0.2280E-01  0.2280E-01
    -15.541  0.1195E-01  0.1195E-01  0.2405E-01  0.2405E-01
    -15.436  0.1565E-01  0.1565E-01  0.2569E-01  0.2569E-01
    -15.331  0.1421E-01  0.1421E-01  0.2718E-01  0.2718E-01
    -15.227  0.1144E-01  0.1144E-01  0.2838E-01  0.2838E-01
    -15.122  0.1419E-01  0.1419E-01  0.2986E-01  0.2986E-01
    -15.017  0.1107E-01  0.1107E-01  0.3102E-01  0.3102E-01
    -14.913  0.9925E-02  0.9925E-02  0.3206E-01  0.3206E-01
    -14.808  0.9487E-02  0.9487E-02  0.3305E-01  0.3305E-01
    -14.703  0.1060E-01  0.1060E-01  0.3416E-01  0.3416E-01
    -14.599  0.8527E-02  0.8527E-02  0.3505E-01  0.3505E-01
    -14.494  0.8722E-02  0.8722E-02  0.3597E-01  0.3597E-01
    -14.389  0.9416E-02  0.9416E-02  0.3695E-01  0.3695E-01
    -14.285  0.8107E-02  0.8107E-02  0.3780E-01  0.3780E-01
    -14.180  0.1279E-01  0.1279E-01  0.3914E-01  0.3914E-01
    -14.075  0.1488E-01  0.1488E-01  0.4070E-01  0.4070E-01
    -13.971  0.8322E-02  0.8322E-02  0.4157E-01  0.4157E-01
    -13.866  0.5521E-02  0.5521E-02  0.4214E-01  0.4214E-01
    -13.762  0.4352E-02  0.4352E-02  0.4260E-01  0.4260E-01
    -13.657  0.3694E-02  0.3694E-02  0.4299E-01  0.4299E-01
    -13.552  0.6834E-02  0.6834E-02  0.4370E-01  0.4370E-01
    -13.448  0.1038E-01  0.1038E-01  0.4479E-01  0.4479E-01
    -13.343  0.8164E-02  0.8164E-02  0.4564E-01  0.4564E-01
    -13.238  0.5683E-02  0.5683E-02  0.4624E-01  0.4624E-01
    -13.134  0.7375E-02  0.7375E-02  0.4701E-01  0.4701E-01
    -13.029  0.7637E-02  0.7637E-02  0.4781E-01  0.4781E-01
    -12.924  0.6213E-02  0.6213E-02  0.4846E-01  0.4846E-01
    -12.820  0.8026E-02  0.8026E-02  0.4930E-01  0.4930E-01
    -12.715  0.8484E-02  0.8484E-02  0.5019E-01  0.5019E-01
    -12.610  0.9128E-02  0.9128E-02  0.5114E-01  0.5114E-01
    -12.506  0.1404E-01  0.1404E-01  0.5261E-01  0.5261E-01
    -12.401  0.1142E-01  0.1142E-01  0.5381E-01  0.5381E-01
    -12.296  0.1270E-01  0.1270E-01  0.5514E-01  0.5514E-01
    -12.192  0.1279E-01  0.1279E-01  0.5647E-01  0.5647E-01
    -12.087  0.1146E-01  0.1146E-01  0.5767E-01  0.5767E-01
    -11.982  0.1879E-01  0.1879E-01  0.5964E-01  0.5964E-01
    -11.878  0.1792E-01  0.1792E-01  0.6151E-01  0.6151E-01
    -11.773  0.1201E-01  0.1201E-01  0.6277E-01  0.6277E-01
    -11.668  0.1096E-01  0.1096E-01  0.6392E-01  0.6392E-01
    -11.564  0.9393E-02  0.9393E-02  0.6490E-01  0.6490E-01
    -11.459  0.9047E-02  0.9047E-02  0.6585E-01  0.6585E-01
    -11.354  0.5484E-02  0.5484E-02  0.6642E-01  0.6642E-01
    -11.250  0.3086E-02  0.3086E-02  0.6675E-01  0.6675E-01
    -11.145  0.4046E-02  0.4046E-02  0.6717E-01  0.6717E-01
    -11.040  0.6006E-02  0.6006E-02  0.6780E-01  0.6780E-01
    -10.936  0.5849E-02  0.5849E-02  0.6841E-01  0.6841E-01
    -10.831  0.6837E-02  0.6837E-02  0.6913E-01  0.6913E-01
    -10.726  0.1036E-01  0.1036E-01  0.7021E-01  0.7021E-01
    -10.622  0.1156E-01  0.1156E-01  0.7142E-01  0.7142E-01
    -10.517  0.1223E-01  0.1223E-01  0.7270E-01  0.7270E-01
    -10.412  0.1809E-01  0.1809E-01  0.7459E-01  0.7459E-01
    -10.308  0.1570E-01  0.1570E-01  0.7624E-01  0.7624E-01
    -10.203  0.7549E-02  0.7549E-02  0.7703E-01  0.7703E-01
    -10.099  0.4551E-02  0.4551E-02  0.7750E-01  0.7750E-01
     -9.994  0.1183E-01  0.1183E-01  0.7874E-01  0.7874E-01
     -9.889  0.1597E-01  0.1597E-01  0.8041E-01  0.8041E-01
     -9.785  0.1020E-01  0.1020E-01  0.8148E-01  0.8148E-01
     -9.680  0.6518E-02  0.6518E-02  0.8216E-01  0.8216E-01
     -9.575  0.4824E-02  0.4824E-02  0.8267E-01  0.8267E-01
     -9.471  0.1353E-01  0.1353E-01  0.8408E-01  0.8408E-01
     -9.366  0.1845E-01  0.1845E-01  0.8601E-01  0.8601E-01
     -9.261  0.1895E-01  0.1895E-01  0.8800E-01  0.8800E-01
     -9.157  0.1865E-01  0.1865E-01  0.8995E-01  0.8995E-01
     -9.052  0.1183E-01  0.1183E-01  0.9119E-01  0.9119E-01
     -8.947  0.9375E-02  0.9375E-02  0.9217E-01  0.9217E-01
     -8.843  0.1357E-01  0.1357E-01  0.9359E-01  0.9359E-01
     -8.738  0.1982E-01  0.1982E-01  0.9566E-01  0.9566E-01
     -8.633  0.1491E-01  0.1491E-01  0.9722E-01  0.9722E-01
     -8.529  0.1016E-01  0.1016E-01  0.9829E-01  0.9829E-01
     -8.424  0.1248E-01  0.1248E-01  0.9959E-01  0.9959E-01
     -8.319  0.1916E-01  0.1916E-01  0.1016E+00  0.1016E+00
     -8.215  0.1580E-01  0.1580E-01  0.1033E+00  0.1033E+00
     -8.110  0.1061E-01  0.1061E-01  0.1044E+00  0.1044E+00
     -8.005  0.1656E-01  0.1656E-01  0.1061E+00  0.1061E+00
     -7.901  0.1374E-01  0.1374E-01  0.1075E+00  0.1075E+00
     -7.796  0.1796E-01  0.1796E-01  0.1094E+00  0.1094E+00
     -7.691  0.2684E-01  0.2684E-01  0.1122E+00  0.1122E+00
     -7.587  0.1680E-01  0.1680E-01  0.1140E+00  0.1140E+00
     -7.482  0.1398E-01  0.1398E-01  0.1154E+00  0.1154E+00
     -7.377  0.1403E-01  0.1403E-01  0.1169E+00  0.1169E+00
     -7.273  0.2001E-01  0.2001E-01  0.1190E+00  0.1190E+00
     -7.168  0.1969E-01  0.1969E-01  0.1211E+00  0.1211E+00
     -7.063  0.1601E-01  0.1601E-01  0.1227E+00  0.1227E+00
     -6.959  0.1372E-01  0.1372E-01  0.1242E+00  0.1242E+00
     -6.854  0.1907E-01  0.1907E-01  0.1262E+00  0.1262E+00
     -6.749  0.2386E-01  0.2386E-01  0.1287E+00  0.1287E+00
     -6.645  0.2777E-01  0.2777E-01  0.1316E+00  0.1316E+00
     -6.540  0.3034E-01  0.3034E-01  0.1348E+00  0.1348E+00
     -6.436  0.2784E-01  0.2784E-01  0.1377E+00  0.1377E+00
     -6.331  0.2760E-01  0.2760E-01  0.1406E+00  0.1406E+00
     -6.226  0.2226E-01  0.2226E-01  0.1429E+00  0.1429E+00
     -6.122  0.1563E-01  0.1563E-01  0.1445E+00  0.1445E+00
     -6.017  0.1872E-01  0.1872E-01  0.1465E+00  0.1465E+00
     -5.912  0.1363E-01  0.1363E-01  0.1479E+00  0.1479E+00
     -5.808  0.1357E-01  0.1357E-01  0.1493E+00  0.1493E+00
     -5.703  0.2213E-01  0.2213E-01  0.1516E+00  0.1516E+00
     -5.598  0.1733E-01  0.1733E-01  0.1535E+00  0.1535E+00
     -5.494  0.6585E-02  0.6584E-02  0.1541E+00  0.1541E+00
     -5.389  0.9547E-02  0.9547E-02  0.1551E+00  0.1551E+00
     -5.284  0.1900E-01  0.1900E-01  0.1571E+00  0.1571E+00
     -5.180  0.2071E-01  0.2071E-01  0.1593E+00  0.1593E+00
     -5.075  0.1226E-01  0.1226E-01  0.1606E+00  0.1606E+00
     -4.970  0.1167E-01  0.1167E-01  0.1618E+00  0.1618E+00
     -4.866  0.1460E-01  0.1460E-01  0.1633E+00  0.1633E+00
     -4.761  0.1236E-01  0.1236E-01  0.1646E+00  0.1646E+00
     -4.656  0.1288E-01  0.1288E-01  0.1660E+00  0.1660E+00
     -4.552  0.1232E-01  0.1232E-01  0.1673E+00  0.1673E+00
     -4.447  0.1095E-01  0.1095E-01  0.1684E+00  0.1684E+00
     -4.342  0.2086E-01  0.2086E-01  0.1706E+00  0.1706E+00
     -4.238  0.2410E-01  0.2410E-01  0.1731E+00  0.1731E+00
     -4.133  0.1548E-01  0.1548E-01  0.1747E+00  0.1747E+00
     -4.028  0.1268E-01  0.1268E-01  0.1761E+00  0.1761E+00
     -3.924  0.2269E-01  0.2269E-01  0.1784E+00  0.1784E+00
     -3.819  0.2558E-01  0.2558E-01  0.1811E+00  0.1811E+00
     -3.714  0.2246E-01  0.2246E-01  0.1835E+00  0.1835E+00
     -3.610  0.2726E-01  0.2726E-01  0.1863E+00  0.1863E+00
     -3.505  0.2719E-01  0.2719E-01  0.1892E+00  0.1892E+00
     -3.400  0.2047E-01  0.2047E-01  0.1913E+00  0.1913E+00
     -3.296  0.1479E-01  0.1479E-01  0.1928E+00  0.1928E+00
     -3.191  0.1340E-01  0.1340E-01  0.1942E+00  0.1942E+00
     -3.086  0.1291E-01  0.1291E-01  0.1956E+00  0.1956E+00
     -2.982  0.1195E-01  0.1195E-01  0.1969E+00  0.1969E+00
     -2.877  0.1421E-01  0.1421E-01  0.1983E+00  0.1983E+00
     -2.772  0.1418E-01  0.1418E-01  0.1998E+00  0.1998E+00
     -2.668  0.9567E-02  0.9567E-02  0.2008E+00  0.2008E+00
     -2.563  0.8197E-02  0.8197E-02  0.2017E+00  0.2017E+00
     -2.459  0.1391E-01  0.1391E-01  0.2031E+00  0.2031E+00
     -2.354  0.1906E-01  0.1906E-01  0.2051E+00  0.2051E+00
     -2.249  0.1082E-01  0.1082E-01  0.2063E+00  0.2063E+00
     -2.145  0.7324E-02  0.7324E-02  0.2070E+00  0.2070E+00
     -2.040  0.1001E-01  0.1001E-01  0.2081E+00  0.2081E+00
     -1.935  0.6679E-02  0.6679E-02  0.2088E+00  0.2088E+00
     -1.831  0.7740E-02  0.7740E-02  0.2096E+00  0.2096E+00
     -1.726  0.8795E-02  0.8795E-02  0.2105E+00  0.2105E+00
     -1.621  0.8726E-02  0.8726E-02  0.2114E+00  0.2114E+00
     -1.517  0.8262E-02  0.8262E-02  0.2123E+00  0.2123E+00
     -1.412  0.9265E-02  0.9265E-02  0.2133E+00  0.2133E+00
     -1.307  0.7521E-02  0.7521E-02  0.2140E+00  0.2140E+00
     -1.203  0.5215E-02  0.5215E-02  0.2146E+00  0.2146E+00
     -1.098  0.5569E-02  0.5569E-02  0.2152E+00  0.2152E+00
     -0.993  0.6343E-02  0.6343E-02  0.2158E+00  0.2158E+00
     -0.889  0.7436E-02  0.7436E-02  0.2166E+00  0.2166E+00
     -0.784  0.5670E-02  0.5670E-02  0.2172E+00  0.2172E+00
     -0.679  0.2618E-02  0.2618E-02  0.2175E+00  0.2175E+00
     -0.575  0.1160E-02  0.1160E-02  0.2176E+00  0.2176E+00
     -0.470  0.2775E-02  0.2775E-02  0.2179E+00  0.2179E+00
     -0.365  0.3868E-02  0.3868E-02  0.2183E+00  0.2183E+00
     -0.261  0.3351E-02  0.3351E-02  0.2186E+00  0.2186E+00
     -0.156  0.2573E-02  0.2573E-02  0.2189E+00  0.2189E+00
     -0.051  0.3221E-02  0.3221E-02  0.2193E+00  0.2193E+00
      0.053  0.3388E-02  0.3388E-02  0.2196E+00  0.2196E+00
      0.158  0.2491E-02  0.2491E-02  0.2199E+00  0.2199E+00
      0.263  0.3845E-02  0.3845E-02  0.2203E+00  0.2203E+00
      0.367  0.1020E-01  0.1020E-01  0.2213E+00  0.2213E+00
      0.472  0.1213E-01  0.1213E-01  0.2226E+00  0.2226E+00
      0.577  0.1016E-01  0.1016E-01  0.2237E+00  0.2237E+00
      0.681  0.7098E-02  0.7098E-02  0.2244E+00  0.2244E+00
      0.786  0.2959E-02  0.2959E-02  0.2247E+00  0.2247E+00
      0.891  0.7473E-02  0.7473E-02  0.2255E+00  0.2255E+00
      0.995  0.1196E-01  0.1196E-01  0.2268E+00  0.2268E+00
      1.100  0.6261E-02  0.6261E-02  0.2274E+00  0.2274E+00
      1.204  0.4536E-02  0.4536E-02  0.2279E+00  0.2279E+00
      1.309  0.1105E-01  0.1105E-01  0.2290E+00  0.2290E+00
      1.414  0.1578E-01  0.1578E-01  0.2307E+00  0.2307E+00
      1.518  0.1429E-01  0.1429E-01  0.2322E+00  0.2322E+00
      1.623  0.1189E-01  0.1189E-01  0.2334E+00  0.2334E+00
      1.728  0.9906E-02  0.9906E-02  0.2345E+00  0.2345E+00
      1.832  0.8062E-02  0.8062E-02  0.2353E+00  0.2353E+00
      1.937  0.1007E-01  0.1007E-01  0.2364E+00  0.2364E+00
      2.042  0.1044E-01  0.1044E-01  0.2375E+00  0.2375E+00
      2.146  0.1141E-01  0.1141E-01  0.2387E+00  0.2387E+00
      2.251  0.1085E-01  0.1085E-01  0.2398E+00  0.2398E+00
      2.356  0.7576E-02  0.7576E-02  0.2406E+00  0.2406E+00
      2.460  0.1091E-01  0.1091E-01  0.2417E+00  0.2417E+00
      2.565  0.1002E-01  0.1002E-01  0.2428E+00  0.2428E+00
      2.670  0.7755E-02  0.7755E-02  0.2436E+00  0.2436E+00
      2.774  0.1301E-01  0.1301E-01  0.2449E+00  0.2449E+00
      2.879  0.1298E-01  0.1298E-01  0.2463E+00  0.2463E+00
      2.984  0.1053E-01  0.1053E-01  0.2474E+00  0.2474E+00
      3.088  0.1030E-01  0.1030E-01  0.2485E+00  0.2485E+00
      3.193  0.1094E-01  0.1094E-01  0.2496E+00  0.2496E+00
      3.298  0.1345E-01  0.1345E-01  0.2510E+00  0.2510E+00
      3.402  0.2139E-01  0.2139E-01  0.2533E+00  0.2533E+00
      3.507  0.1802E-01  0.1801E-01  0.2552E+00  0.2552E+00
      3.612  0.1273E-01  0.1273E-01  0.2565E+00  0.2565E+00
      3.716  0.1391E-01  0.1391E-01  0.2580E+00  0.2580E+00
      3.821  0.1479E-01  0.1479E-01  0.2595E+00  0.2595E+00
      3.926  0.2434E-01  0.2435E-01  0.2620E+00  0.2620E+00
      4.030  0.2502E-01  0.2502E-01  0.2647E+00  0.2647E+00
      4.135  0.1945E-01  0.1945E-01  0.2667E+00  0.2667E+00
      4.240  0.1630E-01  0.1630E-01  0.2684E+00  0.2684E+00
      4.344  0.1422E-01  0.1422E-01  0.2699E+00  0.2699E+00
      4.449  0.1938E-01  0.1938E-01  0.2719E+00  0.2719E+00
      4.554  0.2663E-01  0.2663E-01  0.2747E+00  0.2747E+00
      4.658  0.2125E-01  0.2125E-01  0.2769E+00  0.2769E+00
      4.763  0.2574E-01  0.2574E-01  0.2796E+00  0.2796E+00
      4.868  0.3094E-01  0.3095E-01  0.2829E+00  0.2829E+00
      4.972  0.2441E-01  0.2441E-01  0.2854E+00  0.2854E+00
      5.077  0.2094E-01  0.2093E-01  0.2876E+00  0.2876E+00
      5.181  0.2487E-01  0.2487E-01  0.2902E+00  0.2902E+00
      5.286  0.3051E-01  0.3051E-01  0.2934E+00  0.2934E+00
      5.391  0.2684E-01  0.2683E-01  0.2962E+00  0.2962E+00
      5.495  0.2616E-01  0.2617E-01  0.2990E+00  0.2990E+00
      5.600  0.2802E-01  0.2803E-01  0.3019E+00  0.3019E+00
      5.705  0.2513E-01  0.2512E-01  0.3045E+00  0.3045E+00
      5.809  0.2434E-01  0.2434E-01  0.3071E+00  0.3071E+00
      5.914  0.2327E-01  0.2327E-01  0.3095E+00  0.3095E+00
      6.019  0.2239E-01  0.2239E-01  0.3118E+00  0.3118E+00
      6.123  0.2325E-01  0.2325E-01  0.3143E+00  0.3143E+00
      6.228  0.2303E-01  0.2303E-01  0.3167E+00  0.3167E+00
      6.333  0.1746E-01  0.1746E-01  0.3185E+00  0.3185E+00
      6.437  0.1848E-01  0.1848E-01  0.3204E+00  0.3204E+00
      6.542  0.2057E-01  0.2058E-01  0.3226E+00  0.3226E+00
      6.647  0.2051E-01  0.2051E-01  0.3247E+00  0.3247E+00
      6.751  0.1812E-01  0.1811E-01  0.3266E+00  0.3266E+00
      6.856  0.2128E-01  0.2128E-01  0.3289E+00  0.3289E+00
      6.961  0.2850E-01  0.2850E-01  0.3319E+00  0.3319E+00
      7.065  0.3105E-01  0.3106E-01  0.3351E+00  0.3351E+00
      7.170  0.2724E-01  0.2724E-01  0.3380E+00  0.3380E+00
      7.275  0.2553E-01  0.2553E-01  0.3406E+00  0.3406E+00
      7.379  0.2738E-01  0.2738E-01  0.3435E+00  0.3435E+00
      7.484  0.3532E-01  0.3532E-01  0.3472E+00  0.3472E+00
      7.589  0.3445E-01  0.3445E-01  0.3508E+00  0.3508E+00
      7.693  0.2719E-01  0.2719E-01  0.3536E+00  0.3536E+00
      7.798  0.3416E-01  0.3415E-01  0.3572E+00  0.3572E+00
      7.903  0.4208E-01  0.4208E-01  0.3616E+00  0.3616E+00
      8.007  0.3442E-01  0.3442E-01  0.3652E+00  0.3652E+00
      8.112  0.3158E-01  0.3158E-01  0.3685E+00  0.3685E+00
      8.217  0.2833E-01  0.2833E-01  0.3715E+00  0.3715E+00
      8.321  0.1920E-01  0.1920E-01  0.3735E+00  0.3735E+00
      8.426  0.9034E-02  0.9034E-02  0.3744E+00  0.3744E+00
      8.531  0.3492E-02  0.3492E-02  0.3748E+00  0.3748E+00
      8.635  0.1319E-02  0.1319E-02  0.3749E+00  0.3749E+00
      8.740  0.3941E-03  0.3941E-03  0.3750E+00  0.3750E+00
      8.844  0.8791E-04  0.8791E-04  0.3750E+00  0.3750E+00
      8.949  0.3982E-05  0.3982E-05  0.3750E+00  0.3750E+00
      9.054  0.2471E-07  0.2471E-07  0.3750E+00  0.3750E+00
      9.158  0.1908E-10  0.1908E-10  0.3750E+00  0.3750E+00
      9.263  0.1758E-14  0.1758E-14  0.3750E+00  0.3750E+00
      9.368  0.0000E+00  0.0000E+00  0.3750E+00  0.3750E+00
      9.472  0.0000E+00  0.0000E+00  0.3750E+00  0.3750E+00
      9.577  0.0000E+00  0.0000E+00  0.3750E+00  0.3750E+00
      9.682  0.0000E+00  0.0000E+00  0.3750E+00  0.3750E+00
      9.786  0.0000E+00  0.0000E+00  0.3750E+00  0.3750E+00
      9.891  0.0000E+00  0.0000E+00  0.3750E+00  0.3750E+00
      9.996  0.0000E+00  0.0000E+00  0.3750E+00  0.3750E+00
     10.100  0.0000E+00  0.0000E+00  0.3750E+00  0.3750E+00
