<?xml version="1.0" encoding="ISO-8859-1"?>
<modeling>
 <generator>
  <i name="program" type="string">vasp </i>
  <i name="version" type="string">6.3.2  </i>
  <i name="subversion" type="string">27Jun22 (build Dec 22 2022 13:13:19) complex                          parallel </i>
  <i name="platform" type="string">LinuxIFC </i>
  <i name="date" type="string">2023 08 23 </i>
  <i name="time" type="string">17:30:52 </i>
 </generator>
 <incar>
  <i type="string" name="SYSTEM">Lattice</i>
  <i type="int" name="ISTART">     0</i>
  <i type="string" name="PREC">Accurate</i>
  <i type="string" name="ALGO">Normal</i>
  <i type="int" name="ISPIN">     2</i>
  <i type="int" name="ICHARG">     2</i>
  <i type="int" name="NELM">    64</i>
  <i type="int" name="IBRION">     2</i>
  <i name="EDIFF">      0.00000001</i>
  <i name="EDIFFG">     -0.00100000</i>
  <i type="int" name="NSW">   128</i>
  <i type="int" name="ISIF">     2</i>
  <i name="ENCUT">    450.00000000</i>
  <i name="POTIM">      0.50000000</i>
  <i type="int" name="ISMEAR">     0</i>
  <i name="SIGMA">      0.10000000</i>
  <i type="logical" name="LWAVE"> F  </i>
  <i type="logical" name="LCHARG"> F  </i>
  <i type="string" name="GGA">PE</i>
  <i type="int" name="IVDW">    12</i>
 </incar>
 <primitive_cell>
  <structure name="primitive_cell" >
   <crystal>
    <varray name="basis" >
     <v>       4.31973471       2.49400000       0.00000000 </v>
     <v>      -4.31973471       2.49400000       0.00000000 </v>
     <v>       0.00000000       0.00000000      15.00000000 </v>
    </varray>
    <i name="volume">    323.20255131 </i>
    <varray name="rec_basis" >
     <v>       0.11574785       0.20048115       0.00000000 </v>
     <v>      -0.11574785       0.20048115       0.00000000 </v>
     <v>       0.00000000       0.00000000       0.06666667 </v>
    </varray>
   </crystal>
   <varray name="positions" >
    <v>       0.66888689       1.00000000       0.10000000 </v>
    <v>       0.33111211       1.00000000       0.10000000 </v>
    <v>       1.00000000       0.33111211       0.10000000 </v>
    <v>       1.00000000       0.66888689       0.10000000 </v>
    <v>       0.33111211       0.33111211       0.10000000 </v>
    <v>       0.66888689       0.66888689       0.10000000 </v>
    <v>       0.66666600       0.33333300       0.09922189 </v>
    <v>       0.33333300       0.66666600       0.10077811 </v>
    <v>       0.24999933       0.24999967       0.46906667 </v>
    <v>       0.41666633       0.08333267       0.46906667 </v>
    <v>       0.24999933       0.74999967       0.46906667 </v>
    <v>       0.41666633       0.58333267       0.46906667 </v>
    <v>       0.74999933       0.24999967       0.46906667 </v>
    <v>       0.91666633       0.08333267       0.46906667 </v>
    <v>       0.74999933       0.74999967       0.46906667 </v>
    <v>       0.91666633       0.58333267       0.46906667 </v>
   </varray>
  </structure>
  <varray name="primitive_index" >
   <v type="int" >        1 </v>
   <v type="int" >        2 </v>
   <v type="int" >        3 </v>
   <v type="int" >        4 </v>
   <v type="int" >        5 </v>
   <v type="int" >        6 </v>
   <v type="int" >        7 </v>
   <v type="int" >        8 </v>
   <v type="int" >        9 </v>
   <v type="int" >       10 </v>
   <v type="int" >       11 </v>
   <v type="int" >       12 </v>
   <v type="int" >       13 </v>
   <v type="int" >       14 </v>
   <v type="int" >       15 </v>
   <v type="int" >       16 </v>
  </varray>
 </primitive_cell>
 <kpoints>
  <generation param="Gamma">
   <v type="int" name="divisions">      12       12        1 </v>
   <v name="usershift">      0.00000000       0.00000000       0.00000000 </v>
   <v name="genvec1">      0.08333333      -0.00000000       0.00000000 </v>
   <v name="genvec2">     -0.00000000       0.08333333       0.00000000 </v>
   <v name="genvec3">      0.00000000       0.00000000       1.00000000 </v>
   <v name="shift">      0.00000000       0.00000000       0.00000000 </v>
  </generation>
  <varray name="kpointlist" >
   <v>       0.00000000       0.00000000       0.00000000 </v>
   <v>       0.08333333      -0.00000000       0.00000000 </v>
   <v>      -0.08333333       0.08333333       0.00000000 </v>
   <v>       0.16666667      -0.00000000       0.00000000 </v>
   <v>      -0.16666667       0.16666667       0.00000000 </v>
   <v>       0.25000000      -0.00000000       0.00000000 </v>
   <v>      -0.25000000       0.25000000       0.00000000 </v>
   <v>       0.33333333       0.00000000       0.00000000 </v>
   <v>      -0.33333333       0.33333333       0.00000000 </v>
   <v>       0.41666667      -0.00000000       0.00000000 </v>
   <v>      -0.41666667       0.41666667       0.00000000 </v>
   <v>       0.50000000      -0.00000000       0.00000000 </v>
   <v>       0.50000000       0.50000000       0.00000000 </v>
   <v>       0.08333333       0.08333333       0.00000000 </v>
   <v>      -0.08333333       0.16666667       0.00000000 </v>
   <v>       0.16666667       0.08333333       0.00000000 </v>
   <v>      -0.08333333       0.25000000       0.00000000 </v>
   <v>      -0.25000000       0.16666667       0.00000000 </v>
   <v>       0.25000000       0.08333333       0.00000000 </v>
   <v>      -0.08333333       0.33333333       0.00000000 </v>
   <v>      -0.33333333       0.25000000       0.00000000 </v>
   <v>       0.33333333       0.08333333       0.00000000 </v>
   <v>      -0.08333333       0.41666667       0.00000000 </v>
   <v>      -0.41666667       0.33333333       0.00000000 </v>
   <v>       0.41666667       0.08333333       0.00000000 </v>
   <v>      -0.08333333       0.50000000       0.00000000 </v>
   <v>       0.50000000       0.41666667       0.00000000 </v>
   <v>       0.16666667       0.16666667       0.00000000 </v>
   <v>      -0.16666667       0.33333333       0.00000000 </v>
   <v>       0.25000000       0.16666667       0.00000000 </v>
   <v>      -0.16666667       0.41666667       0.00000000 </v>
   <v>      -0.41666667       0.25000000       0.00000000 </v>
   <v>       0.33333333       0.16666667       0.00000000 </v>
   <v>      -0.16666667       0.50000000       0.00000000 </v>
   <v>       0.50000000       0.33333333       0.00000000 </v>
   <v>       0.41666667       0.16666667       0.00000000 </v>
   <v>       0.41666667       0.41666667       0.00000000 </v>
   <v>       0.25000000       0.25000000       0.00000000 </v>
   <v>      -0.25000000       0.50000000       0.00000000 </v>
   <v>       0.33333333       0.25000000       0.00000000 </v>
   <v>      -0.25000000      -0.41666667       0.00000000 </v>
   <v>       0.41666667       0.33333333       0.00000000 </v>
   <v>       0.33333333       0.33333333       0.00000000 </v>
  </varray>
  <varray name="weights" >
   <v>       0.00694444 </v>
   <v>       0.02777778 </v>
   <v>       0.01388889 </v>
   <v>       0.02777778 </v>
   <v>       0.01388889 </v>
   <v>       0.02777778 </v>
   <v>       0.01388889 </v>
   <v>       0.02777778 </v>
   <v>       0.01388889 </v>
   <v>       0.02777778 </v>
   <v>       0.01388889 </v>
   <v>       0.01388889 </v>
   <v>       0.00694444 </v>
   <v>       0.01388889 </v>
   <v>       0.02777778 </v>
   <v>       0.02777778 </v>
   <v>       0.02777778 </v>
   <v>       0.02777778 </v>
   <v>       0.02777778 </v>
   <v>       0.02777778 </v>
   <v>       0.02777778 </v>
   <v>       0.02777778 </v>
   <v>       0.02777778 </v>
   <v>       0.02777778 </v>
   <v>       0.02777778 </v>
   <v>       0.02777778 </v>
   <v>       0.02777778 </v>
   <v>       0.01388889 </v>
   <v>       0.02777778 </v>
   <v>       0.02777778 </v>
   <v>       0.02777778 </v>
   <v>       0.02777778 </v>
   <v>       0.02777778 </v>
   <v>       0.02777778 </v>
   <v>       0.02777778 </v>
   <v>       0.02777778 </v>
   <v>       0.01388889 </v>
   <v>       0.01388889 </v>
   <v>       0.02777778 </v>
   <v>       0.02777778 </v>
   <v>       0.02777778 </v>
   <v>       0.02777778 </v>
   <v>       0.01388889 </v>
  </varray>
 </kpoints>
 <parameters>
  <separator name="general" >
   <i type="string" name="SYSTEM">Lattice</i>
   <i type="logical" name="LCOMPAT"> F  </i>
  </separator>
  <separator name="electronic" >
   <i type="string" name="PREC">accura</i>
   <i name="ENMAX">    450.00000000</i>
   <i name="ENAUG">    644.87300000</i>
   <i name="EDIFF">      0.00000001</i>
   <i type="int" name="IALGO">    38</i>
   <i type="int" name="IWAVPR">    11</i>
   <i type="int" name="NBANDS">    48</i>
   <i type="int" name="NBANDSLOW">    -1</i>
   <i type="int" name="NBANDSHIGH">    -1</i>
   <i name="NELECT">     56.00000000</i>
   <i type="int" name="TURBO">     0</i>
   <i type="int" name="IRESTART">     0</i>
   <i type="int" name="NREBOOT">     0</i>
   <i type="int" name="NMIN">     0</i>
   <i name="EREF">      0.00000000</i>
   <separator name="electronic smearing" >
    <i type="int" name="ISMEAR">     0</i>
    <i name="SIGMA">      0.10000000</i>
    <i name="KSPACING">      0.50000000</i>
    <i type="logical" name="KGAMMA"> T  </i>
    <i type="logical" name="KBLOWUP"> T  </i>
   </separator>
   <separator name="electronic projectors" >
    <i type="logical" name="LREAL"> F  </i>
    <v name="ROPT">      0.00000000      0.00000000</v>
    <i type="int" name="LMAXPAW">  -100</i>
    <i type="int" name="LMAXMIX">     2</i>
    <i type="logical" name="NLSPLINE"> F  </i>
   </separator>
   <separator name="electronic startup" >
    <i type="int" name="ISTART">     0</i>
    <i type="int" name="ICHARG">     2</i>
    <i type="int" name="INIWAV">     1</i>
   </separator>
   <separator name="electronic spin" >
    <i type="int" name="ISPIN">     2</i>
    <i type="logical" name="LNONCOLLINEAR"> F  </i>
    <v name="MAGMOM">      1.00000000      1.00000000      1.00000000      1.00000000      1.00000000      1.00000000      1.00000000      1.00000000      1.00000000      1.00000000      1.00000000      1.00000000      1.00000000      1.00000000      1.00000000      1.00000000</v>
    <i name="NUPDOWN">     -1.00000000</i>
    <i type="logical" name="LSORBIT"> F  </i>
    <v name="SAXIS">      0.00000000      0.00000000      1.00000000</v>
    <i type="logical" name="LSPIRAL"> F  </i>
    <v name="QSPIRAL">      0.00000000      0.00000000      0.00000000</v>
    <i type="logical" name="LZEROZ"> F  </i>
   </separator>
   <separator name="electronic exchange-correlation" >
    <i type="logical" name="LASPH"> F  </i>
    <i type="logical" name="LMETAGGA"> F  </i>
   </separator>
   <separator name="electronic convergence" >
    <i type="int" name="NELM">    64</i>
    <i type="int" name="NELMDL">    -5</i>
    <i type="int" name="NELMIN">     2</i>
    <i name="ENINI">    450.00000000</i>
    <separator name="electronic convergence detail" >
     <i type="logical" name="LDIAG"> T  </i>
     <i type="logical" name="LSUBROT"> F  </i>
     <i name="WEIMIN">      0.00100000</i>
     <i name="EBREAK">      0.00000000</i>
     <i name="DEPER">      0.30000000</i>
     <i type="int" name="NRMM">     4</i>
     <i name="TIME">      0.40000000</i>
    </separator>
   </separator>
   <separator name="electronic mixer" >
    <i name="AMIX">      0.40000000</i>
    <i name="BMIX">      1.00000000</i>
    <i name="AMIN">      0.10000000</i>
    <i name="AMIX_MAG">      1.60000000</i>
    <i name="BMIX_MAG">      1.00000000</i>
    <separator name="electronic mixer details" >
     <i type="int" name="IMIX">     4</i>
     <i type="logical" name="MIXFIRST"> F  </i>
     <i type="int" name="MAXMIX">   -45</i>
     <i name="WC">    100.00000000</i>
     <i type="int" name="INIMIX">     1</i>
     <i type="int" name="MIXPRE">     1</i>
     <i type="int" name="MREMOVE">     5</i>
    </separator>
   </separator>
   <separator name="electronic dipolcorrection" >
    <i type="logical" name="LDIPOL"> F  </i>
    <i type="logical" name="LMONO"> F  </i>
    <i type="int" name="IDIPOL">     0</i>
    <i name="EPSILON">      1.00000000</i>
    <v name="DIPOL">   -100.00000000   -100.00000000   -100.00000000</v>
    <i name="EFIELD">      0.00000000</i>
   </separator>
  </separator>
  <separator name="grids" >
   <i type="int" name="NGX">    36</i>
   <i type="int" name="NGY">    36</i>
   <i type="int" name="NGZ">   108</i>
   <i type="int" name="NGXF">    72</i>
   <i type="int" name="NGYF">    72</i>
   <i type="int" name="NGZF">   216</i>
   <i type="logical" name="ADDGRID"> F  </i>
  </separator>
  <separator name="ionic" >
   <i type="int" name="NSW">   128</i>
   <i type="int" name="IBRION">     2</i>
   <i type="int" name="MDALGO">     0</i>
   <i type="int" name="ISIF">     2</i>
   <i name="PSTRESS">      0.00000000</i>
   <i name="EDIFFG">     -0.00100000</i>
   <i type="int" name="NFREE">     1</i>
   <i name="POTIM">      0.50000000</i>
   <i name="SMASS">     -3.00000000</i>
   <i name="SCALEE">      1.00000000</i>
  </separator>
  <separator name="ionic md" >
   <i name="TEBEG">      0.00010000</i>
   <i name="TEEND">      0.00010000</i>
   <i type="int" name="NBLOCK">     1</i>
   <i type="int" name="KBLOCK">   128</i>
   <i type="int" name="NPACO">   256</i>
   <i name="APACO">     10.00000000</i>
  </separator>
  <separator name="symmetry" >
   <i type="int" name="ISYM">     2</i>
   <i name="SYMPREC">      0.00001000</i>
  </separator>
  <separator name="dos" >
   <i type="int" name="LORBIT">     0</i>
   <v name="RWIGS">     -1.00000000     -1.00000000</v>
   <i type="int" name="NEDOS">   301</i>
   <i name="EMIN">     10.00000000</i>
   <i name="EMAX">    -10.00000000</i>
   <i name="EFERMI">      0.00000000</i>
  </separator>
  <separator name="writing" >
   <i type="int" name="NWRITE">     2</i>
   <i type="logical" name="LWAVE"> F  </i>
   <i type="logical" name="LDOWNSAMPLE"> F  </i>
   <i type="logical" name="LCHARG"> F  </i>
   <i type="logical" name="LPARD"> F  </i>
   <i type="logical" name="LVTOT"> F  </i>
   <i type="logical" name="LVHAR"> F  </i>
   <i type="logical" name="LELF"> F  </i>
   <i type="logical" name="LOPTICS"> F  </i>
   <v name="STM">      0.00000000      0.00000000      0.00000000      0.00000000      0.00000000      0.00000000      0.00000000</v>
  </separator>
  <separator name="performance" >
   <i type="int" name="NPAR">    48</i>
   <i type="int" name="NSIM">     4</i>
   <i type="int" name="NBLK">    -1</i>
   <i type="logical" name="LPLANE"> T  </i>
   <i type="logical" name="LSCALAPACK"> T  </i>
   <i type="logical" name="LSCAAWARE"> F  </i>
   <i type="logical" name="LSCALU"> F  </i>
   <i type="logical" name="LASYNC"> F  </i>
   <i type="logical" name="LORBITALREAL"> F  </i>
  </separator>
  <separator name="miscellaneous" >
   <i type="int" name="IDIOT">     3</i>
   <i type="int" name="PHON_NSTRUCT">    -1</i>
   <i type="logical" name="LMUSIC"> F  </i>
   <v name="POMASS">     10.81100000     12.01100000</v>
   <v name="DARWINR">      0.00000000      0.00000000</v>
   <v name="DARWINV">      1.00000000      1.00000000</v>
   <i type="logical" name="LCORR"> T  </i>
  </separator>
  <i type="logical" name="GGA_COMPAT"> T  </i>
  <i type="logical" name="LBERRY"> F  </i>
  <i type="int" name="ICORELEVEL">     0</i>
  <i type="logical" name="LDAU"> F  </i>
  <i type="int" name="I_CONSTRAINED_M">     0</i>
  <separator name="electronic exchange-correlation" >
   <i type="string" name="GGA">PE</i>
   <i type="int" name="VOSKOWN">     0</i>
   <i type="logical" name="LHFCALC"> F  </i>
   <i type="string" name="PRECFOCK"></i>
   <i type="logical" name="LSYMGRAD"> F  </i>
   <i type="logical" name="LHFONE"> F  </i>
   <i type="logical" name="LRHFCALC"> F  </i>
   <i type="logical" name="LTHOMAS"> F  </i>
   <i type="logical" name="LMODELHF"> F  </i>
   <i type="logical" name="LFOCKACE"> F  </i>
   <i name="ENCUT4O">     -1.00000000</i>
   <i type="int" name="EXXOEP">     0</i>
   <i type="int" name="FOURORBIT">     0</i>
   <i name="AEXX">      0.00000000</i>
   <i name="HFALPHA">      0.00000000</i>
   <i name="MCALPHA">      0.00000000</i>
   <i name="ALDAX">      1.00000000</i>
   <i name="AGGAX">      1.00000000</i>
   <i name="ALDAC">      1.00000000</i>
   <i name="AGGAC">      1.00000000</i>
   <i type="int" name="NKREDX">     1</i>
   <i type="int" name="NKREDY">     1</i>
   <i type="int" name="NKREDZ">     1</i>
   <i type="logical" name="SHIFTRED"> F  </i>
   <i type="logical" name="ODDONLY"> F  </i>
   <i type="logical" name="EVENONLY"> F  </i>
   <i type="int" name="LMAXFOCK">     0</i>
   <i type="int" name="NMAXFOCKAE">     0</i>
   <i type="logical" name="LFOCKAEDFT"> F  </i>
   <i name="HFSCREEN">      0.00000000</i>
   <i name="HFSCREENC">      0.00000000</i>
   <i type="int" name="NBANDSGWLOW">     0</i>
  </separator>
  <separator name="vdW DFT" >
   <i type="logical" name="LUSE_VDW"> F  </i>
   <i name="Zab_VDW">     -0.84910000</i>
   <i name="PARAM1">      0.12340000</i>
   <i name="PARAM2">      1.00000000</i>
   <i name="PARAM3">      0.00000000</i>
  </separator>
  <separator name="model GW" >
   <i type="int" name="MODEL_GW">     0</i>
   <i name="MODEL_EPS0">     12.12009567</i>
   <i name="MODEL_ALPHA">      1.00000000</i>
  </separator>
  <separator name="linear response parameters" >
   <i type="logical" name="LEPSILON"> F  </i>
   <i type="logical" name="LRPA"> F  </i>
   <i type="logical" name="LNABLA"> F  </i>
   <i type="logical" name="LVEL"> F  </i>
   <i name="CSHIFT">      0.10000000</i>
   <i name="OMEGAMAX">     -1.00000000</i>
   <i name="DEG_THRESHOLD">      0.00200000</i>
   <i name="RTIME">     -0.10000000</i>
   <i name="WPLASMAI">      0.00000000</i>
   <v name="DFIELD">      0.00000000      0.00000000      0.00000000</v>
   <v name="WPLASMA">      0.00000000      0.00000000      0.00000000      0.00000000      0.00000000      0.00000000      0.00000000      0.00000000      0.00000000</v>
  </separator>
  <separator name="orbital magnetization" >
   <i type="logical" name="NUCIND"> F  </i>
   <v name="MAGPOS">      0.00000000      0.00000000      0.00000000</v>
   <i type="logical" name="LNICSALL"> T  </i>
   <i type="logical" name="ORBITALMAG"> F  </i>
   <i type="logical" name="LMAGBLOCH"> F  </i>
   <i type="logical" name="LCHIMAG"> F  </i>
   <i type="logical" name="LGAUGE"> T  </i>
   <i type="int" name="MAGATOM">     0</i>
   <v name="MAGDIPOL">      0.00000000      0.00000000      0.00000000</v>
   <v name="AVECCONST">      0.00000000      0.00000000      0.00000000</v>
  </separator>
  <separator name="response functions" >
   <i type="logical" name="LFINITE_TEMPERATURE"> F  </i>
   <i type="logical" name="LADDER"> F  </i>
   <i type="logical" name="LRPAFORCE"> F  </i>
   <i type="logical" name="LFXC"> F  </i>
   <i type="logical" name="LHARTREE"> T  </i>
   <i type="int" name="IBSE">     0</i>
   <v type="int" name="KPOINT">    -1     0     0     0</v>
   <i type="logical" name="LTCTC"> F  </i>
   <i type="logical" name="LTCTE"> F  </i>
   <i type="logical" name="LTETE"> F  </i>
   <i type="logical" name="LTRIPLET"> F  </i>
   <i type="logical" name="LFXCEPS"> F  </i>
   <i type="logical" name="LFXHEG"> F  </i>
   <i type="int" name="NATURALO">     2</i>
   <i type="logical" name="LHOLEGF"> F  </i>
   <i type="logical" name="L2ORDER"> F  </i>
   <i type="logical" name="LDMP1"> F  </i>
   <i type="logical" name="LMP2LT"> F  </i>
   <i type="logical" name="LSMP2LT"> F  </i>
   <i type="logical" name="LGWLF"> F  </i>
   <i name="ENCUTGW">     -2.00000000</i>
   <i name="ENCUTGWSOFT">     -2.00000000</i>
   <i name="ENCUTLF">     -1.00000000</i>
   <i type="logical" name="LESF_SPLINES"> F  </i>
   <i type="int" name="LMAXMP2">    -1</i>
   <i name="SCISSOR">      0.00000000</i>
   <i type="int" name="NOMEGA">     0</i>
   <i type="int" name="NOMEGAR">     0</i>
   <i type="int" name="NBANDSGW">    -1</i>
   <i type="int" name="NBANDSO">    -1</i>
   <i type="int" name="NBANDSV">    -1</i>
   <i type="int" name="NELMGW">     1</i>
   <i type="int" name="NELMHF">     1</i>
   <i type="int" name="DIM">     3</i>
   <i type="int" name="IESPILON">     4</i>
   <i type="int" name="ANTIRES">     0</i>
   <i name="OMEGAMAX">    -30.00000000</i>
   <i name="OMEGAMIN">    -30.00000000</i>
   <i name="OMEGATL">   -200.00000000</i>
   <i type="int" name="OMEGAGRID">     0</i>
   <i name="CSHIFT">     -0.10000000</i>
   <i type="logical" name="LSELFENERGY"> F  </i>
   <i type="logical" name="LSPECTRAL"> F  </i>
   <i type="logical" name="LSPECTRALGW"> F  </i>
   <i type="logical" name="LSINGLES"> F  </i>
   <i type="logical" name="LFERMIGW"> F  </i>
   <i type="logical" name="ODDONLYGW"> F  </i>
   <i type="logical" name="EVENONLYGW"> F  </i>
   <i type="int" name="NKREDLFX">     1</i>
   <i type="int" name="NKREDLFY">     1</i>
   <i type="int" name="NKREDLFZ">     1</i>
   <i type="int" name="MAXMEM">  2800</i>
   <i type="int" name="TELESCOPE">     0</i>
   <i type="int" name="NTAUPAR">    -1</i>
   <i type="int" name="NOMEGAPAR">    -1</i>
   <i name="DAMP_NEWTON">      0.80000001</i>
   <i name="LAMBDA">      1.00000000</i>
  </separator>
  <separator name="External order field" >
   <i name="OFIELD_KAPPA">      0.00000000</i>
   <v name="OFIELD_K">      0.00000000      0.00000000      0.00000000</v>
   <i name="OFIELD_Q6_NEAR">      0.00000000</i>
   <i name="OFIELD_Q6_FAR">      0.00000000</i>
   <i name="OFIELD_A">      0.00000000</i>
  </separator>
  <separator name="optional k-points parameters" >
   <i type="int" name="KPOINTS_OPT_MODE">     1</i>
   <i type="logical" name="LKPOINTS_OPT"> F  </i>
  </separator>
  <separator name="solvation model" >
   <i type="logical" name="LSOL"> F  </i>
  </separator>
 </parameters>
 <atominfo>
  <atoms>      16 </atoms>
  <types>       2 </types>
  <array name="atoms" >
   <dimension dim="1">ion</dimension>
   <field type="string">element</field>
   <field type="int">atomtype</field>
   <set>
    <rc><c>B </c><c>   1</c></rc>
    <rc><c>B </c><c>   1</c></rc>
    <rc><c>B </c><c>   1</c></rc>
    <rc><c>B </c><c>   1</c></rc>
    <rc><c>B </c><c>   1</c></rc>
    <rc><c>B </c><c>   1</c></rc>
    <rc><c>B </c><c>   1</c></rc>
    <rc><c>B </c><c>   1</c></rc>
    <rc><c>C </c><c>   2</c></rc>
    <rc><c>C </c><c>   2</c></rc>
    <rc><c>C </c><c>   2</c></rc>
    <rc><c>C </c><c>   2</c></rc>
    <rc><c>C </c><c>   2</c></rc>
    <rc><c>C </c><c>   2</c></rc>
    <rc><c>C </c><c>   2</c></rc>
    <rc><c>C </c><c>   2</c></rc>
   </set>
  </array>
  <array name="atomtypes" >
   <dimension dim="1">type</dimension>
   <field type="int">atomspertype</field>
   <field type="string">element</field>
   <field>mass</field>
   <field>valence</field>
   <field type="string">pseudopotential</field>
   <set>
    <rc><c>   8</c><c>B </c><c>     10.81100000</c><c>      3.00000000</c><c>  PAW_PBE B 06Sep2000                   </c></rc>
    <rc><c>   8</c><c>C </c><c>     12.01100000</c><c>      4.00000000</c><c>  PAW_PBE C 08Apr2002                   </c></rc>
   </set>
  </array>
 </atominfo>
 <structure name="initialpos" >
  <crystal>
   <varray name="basis" >
    <v>       4.31973471       2.49400000       0.00000000 </v>
    <v>      -4.31973471       2.49400000       0.00000000 </v>
    <v>       0.00000000       0.00000000      15.00000000 </v>
   </varray>
   <i name="volume">    323.20255131 </i>
   <varray name="rec_basis" >
    <v>       0.11574785       0.20048115       0.00000000 </v>
    <v>      -0.11574785       0.20048115       0.00000000 </v>
    <v>       0.00000000       0.00000000       0.06666667 </v>
   </varray>
  </crystal>
  <varray name="positions" >
   <v>       0.66888689       0.00000000       0.10000000 </v>
   <v>       0.33111211       0.00000000       0.10000000 </v>
   <v>       0.00000000       0.33111211       0.10000000 </v>
   <v>       0.00000000       0.66888689       0.10000000 </v>
   <v>       0.33111211       0.33111211       0.10000000 </v>
   <v>       0.66888689       0.66888689       0.10000000 </v>
   <v>       0.66666600       0.33333300       0.09922189 </v>
   <v>       0.33333300       0.66666600       0.10077811 </v>
   <v>       0.24999933       0.24999967       0.46906667 </v>
   <v>       0.41666633       0.08333267       0.46906667 </v>
   <v>       0.24999933       0.74999967       0.46906667 </v>
   <v>       0.41666633       0.58333267       0.46906667 </v>
   <v>       0.74999933       0.24999967       0.46906667 </v>
   <v>       0.91666633       0.08333267       0.46906667 </v>
   <v>       0.74999933       0.74999967       0.46906667 </v>
   <v>       0.91666633       0.58333267       0.46906667 </v>
  </varray>
 </structure>
 <calculation>
  <scstep>
   <time name="dav">    3.41    3.46</time>
   <time name="total">    3.45    3.51</time>
   <energy>
    <i name="alphaZ">     60.25272160 </i>
    <i name="ewald">   1862.93366463 </i>
    <i name="hartreedc">  -3278.38062086 </i>
    <i name="XCdc">    163.30262723 </i>
    <i name="pawpsdc">   1214.24570090 </i>
    <i name="pawaedc">  -1211.68112031 </i>
    <i name="eentropy">     -0.02104382 </i>
    <i name="bandstr">   -371.34141612 </i>
    <i name="atom">   1746.50554237 </i>
    <i name="e_fr_energy">    185.81605562 </i>
    <i name="e_wo_entrp">    185.83709943 </i>
    <i name="e_0_energy">    185.82657752 </i>
   </energy>
  </scstep>
  <scstep>
   <time name="dav">    5.37    5.43</time>
   <time name="total">    5.37    5.43</time>
   <energy>
    <i name="e_fr_energy">   -118.26879613 </i>
    <i name="e_wo_entrp">   -118.25620215 </i>
    <i name="e_0_energy">   -118.26249914 </i>
   </energy>
  </scstep>
  <scstep>
   <time name="dav">    6.07    6.13</time>
   <time name="total">    6.07    6.13</time>
   <energy>
    <i name="e_fr_energy">   -127.76255169 </i>
    <i name="e_wo_entrp">   -127.75008615 </i>
    <i name="e_0_energy">   -127.75631892 </i>
   </energy>
  </scstep>
  <scstep>
   <time name="dav">    5.66    5.71</time>
   <time name="total">    5.66    5.71</time>
   <energy>
    <i name="e_fr_energy">   -127.79174381 </i>
    <i name="e_wo_entrp">   -127.77927448 </i>
    <i name="e_0_energy">   -127.78550914 </i>
   </energy>
  </scstep>
  <scstep>
   <time name="dav">    5.65    5.70</time>
   <time name="total">    5.83    5.90</time>
   <energy>
    <i name="e_fr_energy">   -127.79177756 </i>
    <i name="e_wo_entrp">   -127.77930835 </i>
    <i name="e_0_energy">   -127.78554295 </i>
   </energy>
  </scstep>
  <scstep>
   <time name="dav">    4.53    4.57</time>
   <time name="total">    4.74    4.81</time>
   <energy>
    <i name="e_fr_energy">    -94.50072580 </i>
    <i name="e_wo_entrp">    -94.48999561 </i>
    <i name="e_0_energy">    -94.49536070 </i>
   </energy>
  </scstep>
  <scstep>
   <time name="dav">    5.34    5.38</time>
   <time name="total">    5.56    5.65</time>
   <energy>
    <i name="e_fr_energy">   -105.64934612 </i>
    <i name="e_wo_entrp">   -105.63976925 </i>
    <i name="e_0_energy">   -105.64455768 </i>
   </energy>
  </scstep>
  <scstep>
   <time name="dav">    5.20    5.24</time>
   <time name="total">    5.41    5.45</time>
   <energy>
    <i name="e_fr_energy">   -111.47095305 </i>
    <i name="e_wo_entrp">   -111.46151130 </i>
    <i name="e_0_energy">   -111.46623218 </i>
   </energy>
  </scstep>
  <scstep>
   <time name="dav">    4.14    4.18</time>
   <time name="total">    4.36    4.41</time>
   <energy>
    <i name="e_fr_energy">   -116.74831033 </i>
    <i name="e_wo_entrp">   -116.74565250 </i>
    <i name="e_0_energy">   -116.74698142 </i>
   </energy>
  </scstep>
  <scstep>
   <time name="dav">    5.19    5.23</time>
   <time name="total">    5.40    5.44</time>
   <energy>
    <i name="e_fr_energy">   -120.91507634 </i>
    <i name="e_wo_entrp">   -120.91025246 </i>
    <i name="e_0_energy">   -120.91266440 </i>
   </energy>
  </scstep>
  <scstep>
   <time name="dav">    5.01    5.04</time>
   <time name="total">    5.22    5.26</time>
   <energy>
    <i name="e_fr_energy">   -122.77896815 </i>
    <i name="e_wo_entrp">   -122.77576288 </i>
    <i name="e_0_energy">   -122.77736552 </i>
   </energy>
  </scstep>
  <scstep>
   <time name="dav">    5.64    5.67</time>
   <time name="total">    5.84    5.89</time>
   <energy>
    <i name="e_fr_energy">   -123.76307812 </i>
    <i name="e_wo_entrp">   -123.75845129 </i>
    <i name="e_0_energy">   -123.76076471 </i>
   </energy>
  </scstep>
  <scstep>
   <time name="dav">    5.43    5.46</time>
   <time name="total">    5.63    5.67</time>
   <energy>
    <i name="e_fr_energy">   -124.06812602 </i>
    <i name="e_wo_entrp">   -124.06208008 </i>
    <i name="e_0_energy">   -124.06510305 </i>
   </energy>
  </scstep>
  <scstep>
   <time name="dav">    4.42    4.45</time>
   <time name="total">    4.63    4.66</time>
   <energy>
    <i name="e_fr_energy">   -124.12190664 </i>
    <i name="e_wo_entrp">   -124.11580929 </i>
    <i name="e_0_energy">   -124.11885797 </i>
   </energy>
  </scstep>
  <scstep>
   <time name="dav">    4.10    4.13</time>
   <time name="total">    4.30    4.34</time>
   <energy>
    <i name="e_fr_energy">   -124.14537126 </i>
    <i name="e_wo_entrp">   -124.13928659 </i>
    <i name="e_0_energy">   -124.14232892 </i>
   </energy>
  </scstep>
  <scstep>
   <time name="dav">    4.15    4.19</time>
   <time name="total">    4.36    4.40</time>
   <energy>
    <i name="e_fr_energy">   -124.14681059 </i>
    <i name="e_wo_entrp">   -124.14075238 </i>
    <i name="e_0_energy">   -124.14378148 </i>
   </energy>
  </scstep>
  <scstep>
   <time name="dav">    3.68    3.70</time>
   <time name="total">    3.88    3.93</time>
   <energy>
    <i name="e_fr_energy">   -124.14743391 </i>
    <i name="e_wo_entrp">   -124.14138731 </i>
    <i name="e_0_energy">   -124.14441061 </i>
   </energy>
  </scstep>
  <scstep>
   <time name="dav">    3.75    3.78</time>
   <time name="total">    3.97    4.01</time>
   <energy>
    <i name="e_fr_energy">   -124.14746565 </i>
    <i name="e_wo_entrp">   -124.14140639 </i>
    <i name="e_0_energy">   -124.14443602 </i>
   </energy>
  </scstep>
  <scstep>
   <time name="dav">    3.44    3.46</time>
   <time name="total">    3.64    3.67</time>
   <energy>
    <i name="e_fr_energy">   -124.14751793 </i>
    <i name="e_wo_entrp">   -124.14145377 </i>
    <i name="e_0_energy">   -124.14448585 </i>
   </energy>
  </scstep>
  <scstep>
   <time name="dav">    3.76    3.79</time>
   <time name="total">    3.96    4.00</time>
   <energy>
    <i name="e_fr_energy">   -124.14754433 </i>
    <i name="e_wo_entrp">   -124.14148310 </i>
    <i name="e_0_energy">   -124.14451371 </i>
   </energy>
  </scstep>
  <scstep>
   <time name="dav">    3.47    3.50</time>
   <time name="total">    3.67    3.72</time>
   <energy>
    <i name="e_fr_energy">   -124.14759299 </i>
    <i name="e_wo_entrp">   -124.14153308 </i>
    <i name="e_0_energy">   -124.14456304 </i>
   </energy>
  </scstep>
  <scstep>
   <time name="dav">    4.27    4.29</time>
   <time name="total">    4.47    4.50</time>
   <energy>
    <i name="e_fr_energy">   -124.14761839 </i>
    <i name="e_wo_entrp">   -124.14155795 </i>
    <i name="e_0_energy">   -124.14458817 </i>
   </energy>
  </scstep>
  <scstep>
   <time name="dav">    4.46    4.49</time>
   <time name="total">    4.66    4.70</time>
   <energy>
    <i name="e_fr_energy">   -124.14762241 </i>
    <i name="e_wo_entrp">   -124.14156194 </i>
    <i name="e_0_energy">   -124.14459217 </i>
   </energy>
  </scstep>
  <scstep>
   <time name="dav">    5.53    5.57</time>
   <time name="total">    5.74    5.79</time>
   <energy>
    <i name="e_fr_energy">   -124.14762549 </i>
    <i name="e_wo_entrp">   -124.14156488 </i>
    <i name="e_0_energy">   -124.14459519 </i>
   </energy>
  </scstep>
  <scstep>
   <time name="dav">    4.00    4.03</time>
   <time name="total">    4.21    4.24</time>
   <energy>
    <i name="e_fr_energy">   -124.14762688 </i>
    <i name="e_wo_entrp">   -124.14156634 </i>
    <i name="e_0_energy">   -124.14459661 </i>
   </energy>
  </scstep>
  <scstep>
   <time name="dav">    5.77    5.80</time>
   <time name="total">    5.98    6.03</time>
   <energy>
    <i name="e_fr_energy">   -124.14762725 </i>
    <i name="e_wo_entrp">   -124.14156686 </i>
    <i name="e_0_energy">   -124.14459705 </i>
   </energy>
  </scstep>
  <scstep>
   <time name="dav">    4.88    4.92</time>
   <time name="total">    5.09    5.13</time>
   <energy>
    <i name="e_fr_energy">   -124.14762733 </i>
    <i name="e_wo_entrp">   -124.14156701 </i>
    <i name="e_0_energy">   -124.14459717 </i>
   </energy>
  </scstep>
  <scstep>
   <time name="dav">    5.47    5.51</time>
   <time name="total">    5.67    5.72</time>
   <energy>
    <i name="e_fr_energy">   -124.14762735 </i>
    <i name="e_wo_entrp">   -124.14156702 </i>
    <i name="e_0_energy">   -124.14459718 </i>
   </energy>
  </scstep>
  <scstep>
   <time name="dav">    5.74    5.77</time>
   <time name="total">    5.77    5.81</time>
   <energy>
    <i name="alphaZ">     60.25272160 </i>
    <i name="ewald">   1862.93366463 </i>
    <i name="hartreedc">  -3472.43423140 </i>
    <i name="XCdc">    168.09687105 </i>
    <i name="pawpsdc">   5754.27376653 </i>
    <i name="pawaedc">  -5753.62877573 </i>
    <i name="eentropy">     -0.00606035 </i>
    <i name="bandstr">   -490.14112603 </i>
    <i name="atom">   1746.50554237 </i>
    <i name="e_fr_energy">   -124.14762735 </i>
    <i name="e_wo_entrp">   -124.14156699 </i>
    <i name="e_0_energy">   -124.14459717 </i>
   </energy>
  </scstep>
  <structure>
   <crystal>
    <varray name="basis" >
     <v>       4.31973471       2.49400000       0.00000000 </v>
     <v>      -4.31973471       2.49400000       0.00000000 </v>
     <v>       0.00000000       0.00000000      15.00000000 </v>
    </varray>
    <i name="volume">    323.20255131 </i>
    <varray name="rec_basis" >
     <v>       0.11574785       0.20048115       0.00000000 </v>
     <v>      -0.11574785       0.20048115       0.00000000 </v>
     <v>       0.00000000       0.00000000       0.06666667 </v>
    </varray>
   </crystal>
   <varray name="positions" >
    <v>       0.66888689       0.00000000       0.10000000 </v>
    <v>       0.33111211       0.00000000       0.10000000 </v>
    <v>       0.00000000       0.33111211       0.10000000 </v>
    <v>       0.00000000       0.66888689       0.10000000 </v>
    <v>       0.33111211       0.33111211       0.10000000 </v>
    <v>       0.66888689       0.66888689       0.10000000 </v>
    <v>       0.66666600       0.33333300       0.09922189 </v>
    <v>       0.33333300       0.66666600       0.10077811 </v>
    <v>       0.24999933       0.24999967       0.46906667 </v>
    <v>       0.41666633       0.08333267       0.46906667 </v>
    <v>       0.24999933       0.74999967       0.46906667 </v>
    <v>       0.41666633       0.58333267       0.46906667 </v>
    <v>       0.74999933       0.24999967       0.46906667 </v>
    <v>       0.91666633       0.08333267       0.46906667 </v>
    <v>       0.74999933       0.74999967       0.46906667 </v>
    <v>       0.91666633       0.58333267       0.46906667 </v>
   </varray>
  </structure>
  <varray name="forces" >
   <v>       0.13139245       0.07584656       0.00819388 </v>
   <v>      -0.13135365      -0.07585326       0.00821617 </v>
   <v>       0.13139245      -0.07584656       0.00819388 </v>
   <v>      -0.13135365       0.07585326       0.00821617 </v>
   <v>       0.00000562      -0.15172586       0.00822011 </v>
   <v>       0.00000562       0.15172586       0.00822011 </v>
   <v>       0.00001559       0.00000000       0.00782010 </v>
   <v>      -0.00008075       0.00000000       0.01055594 </v>
   <v>       0.00004839      -0.00046696      -0.00836951 </v>
   <v>      -0.00043851      -0.00009521      -0.00854146 </v>
   <v>      -0.00007321       0.00000000      -0.00866430 </v>
   <v>       0.00012856       0.00000000      -0.00846714 </v>
   <v>       0.00051793       0.00000000      -0.00842513 </v>
   <v>       0.00018327       0.00000000      -0.00825784 </v>
   <v>       0.00004839       0.00046696      -0.00836951 </v>
   <v>      -0.00043851       0.00009521      -0.00854146 </v>
  </varray>
  <varray name="stress" >
   <v>      -5.43829520       0.00000000      -0.00069515 </v>
   <v>       0.00000000      -5.43769157       0.00000000 </v>
   <v>      -0.00069517       0.00000000      -3.62700497 </v>
  </varray>
  <energy>
   <i name="e_fr_energy">   -125.63425183 </i>
   <i name="e_wo_entrp">   -125.62819148 </i>
   <i name="e_0_energy">   -125.63122165 </i>
  </energy>
  <time name="totalsc">  145.67  147.06</time>
 </calculation>
 <calculation>
  <scstep>
   <time name="dav">    3.41    3.44</time>
   <time name="total">    3.62    3.67</time>
   <energy>
    <i name="alphaZ">     60.25272160 </i>
    <i name="ewald">   1862.18456720 </i>
    <i name="hartreedc">  -3472.29662206 </i>
    <i name="XCdc">    168.06613838 </i>
    <i name="pawpsdc">   5754.27322424 </i>
    <i name="pawaedc">  -5753.62823317 </i>
    <i name="eentropy">     -0.00610741 </i>
    <i name="bandstr">   -489.50181064 </i>
    <i name="atom">   1746.50554237 </i>
    <i name="e_fr_energy">   -124.15057950 </i>
    <i name="e_wo_entrp">   -124.14447209 </i>
    <i name="e_0_energy">   -124.14752580 </i>
   </energy>
  </scstep>
  <scstep>
   <time name="dav">    5.57    5.61</time>
   <time name="total">    5.77    5.83</time>
   <energy>
    <i name="e_fr_energy">   -124.14811900 </i>
    <i name="e_wo_entrp">   -124.14202292 </i>
    <i name="e_0_energy">   -124.14507096 </i>
   </energy>
  </scstep>
  <scstep>
   <time name="dav">    5.01    5.04</time>
   <time name="total">    5.21    5.25</time>
   <energy>
    <i name="e_fr_energy">   -124.14772561 </i>
    <i name="e_wo_entrp">   -124.14167032 </i>
    <i name="e_0_energy">   -124.14469797 </i>
   </energy>
  </scstep>
  <scstep>
   <time name="dav">    5.35    5.38</time>
   <time name="total">    5.55    5.60</time>
   <energy>
    <i name="e_fr_energy">   -124.14771188 </i>
    <i name="e_wo_entrp">   -124.14166424 </i>
    <i name="e_0_energy">   -124.14468806 </i>
   </energy>
  </scstep>
  <scstep>
   <time name="dav">    5.06    5.10</time>
   <time name="total">    5.27    5.31</time>
   <energy>
    <i name="e_fr_energy">   -124.14771181 </i>
    <i name="e_wo_entrp">   -124.14166262 </i>
    <i name="e_0_energy">   -124.14468721 </i>
   </energy>
  </scstep>
  <scstep>
   <time name="dav">    3.92    3.95</time>
   <time name="total">    4.13    4.17</time>
   <energy>
    <i name="e_fr_energy">   -124.14771277 </i>
    <i name="e_wo_entrp">   -124.14166332 </i>
    <i name="e_0_energy">   -124.14468805 </i>
   </energy>
  </scstep>
  <scstep>
   <time name="dav">    4.41    4.44</time>
   <time name="total">    4.62    4.66</time>
   <energy>
    <i name="e_fr_energy">   -124.14771390 </i>
    <i name="e_wo_entrp">   -124.14166518 </i>
    <i name="e_0_energy">   -124.14468954 </i>
   </energy>
  </scstep>
  <scstep>
   <time name="dav">    4.41    4.44</time>
   <time name="total">    4.62    4.66</time>
   <energy>
    <i name="e_fr_energy">   -124.14771533 </i>
    <i name="e_wo_entrp">   -124.14166731 </i>
    <i name="e_0_energy">   -124.14469132 </i>
   </energy>
  </scstep>
  <scstep>
   <time name="dav">    4.28    4.31</time>
   <time name="total">    4.48    4.52</time>
   <energy>
    <i name="e_fr_energy">   -124.14771637 </i>
    <i name="e_wo_entrp">   -124.14166833 </i>
    <i name="e_0_energy">   -124.14469235 </i>
   </energy>
  </scstep>
  <scstep>
   <time name="dav">    4.18    4.21</time>
   <time name="total">    4.38    4.42</time>
   <energy>
    <i name="e_fr_energy">   -124.14771685 </i>
    <i name="e_wo_entrp">   -124.14166883 </i>
    <i name="e_0_energy">   -124.14469284 </i>
   </energy>
  </scstep>
  <scstep>
   <time name="dav">    5.11    5.14</time>
   <time name="total">    5.32    5.36</time>
   <energy>
    <i name="e_fr_energy">   -124.14771701 </i>
    <i name="e_wo_entrp">   -124.14166904 </i>
    <i name="e_0_energy">   -124.14469303 </i>
   </energy>
  </scstep>
  <scstep>
   <time name="dav">    4.26    4.29</time>
   <time name="total">    4.46    4.50</time>
   <energy>
    <i name="e_fr_energy">   -124.14771706 </i>
    <i name="e_wo_entrp">   -124.14166911 </i>
    <i name="e_0_energy">   -124.14469309 </i>
   </energy>
  </scstep>
  <scstep>
   <time name="dav">    5.34    5.38</time>
   <time name="total">    5.55    5.59</time>
   <energy>
    <i name="e_fr_energy">   -124.14771708 </i>
    <i name="e_wo_entrp">   -124.14166912 </i>
    <i name="e_0_energy">   -124.14469310 </i>
   </energy>
  </scstep>
  <scstep>
   <time name="dav">    4.14    4.17</time>
   <time name="total">    4.18    4.20</time>
   <energy>
    <i name="alphaZ">     60.25272160 </i>
    <i name="ewald">   1862.18456720 </i>
    <i name="hartreedc">  -3471.74931730 </i>
    <i name="XCdc">    168.05567098 </i>
    <i name="pawpsdc">   5739.83547476 </i>
    <i name="pawaedc">  -5739.18601093 </i>
    <i name="eentropy">     -0.00604798 </i>
    <i name="bandstr">   -490.04031778 </i>
    <i name="atom">   1746.50554237 </i>
    <i name="e_fr_energy">   -124.14771709 </i>
    <i name="e_wo_entrp">   -124.14166911 </i>
    <i name="e_0_energy">   -124.14469310 </i>
   </energy>
  </scstep>
  <structure>
   <crystal>
    <varray name="basis" >
     <v>       4.31973471       2.49400000       0.00000000 </v>
     <v>      -4.31973471       2.49400000       0.00000000 </v>
     <v>       0.00000000       0.00000000      15.00000000 </v>
    </varray>
    <i name="volume">    323.20255131 </i>
    <varray name="rec_basis" >
     <v>       0.11574785       0.20048115       0.00000000 </v>
     <v>      -0.11574785       0.20048115       0.00000000 </v>
     <v>       0.00000000       0.00000000       0.06666667 </v>
    </varray>
   </crystal>
   <varray name="positions" >
    <v>       0.67035415      -0.00000012       0.10002635 </v>
    <v>       0.32964500      -0.00000016       0.10002642 </v>
    <v>       0.00000012       0.32964485       0.10002635 </v>
    <v>       0.00000016       0.67035400       0.10002642 </v>
    <v>       0.32964469       0.32964463       0.10002644 </v>
    <v>       0.67035437       0.67035431       0.10002644 </v>
    <v>       0.66666609       0.33333291       0.09924704 </v>
    <v>       0.33333255       0.66666645       0.10081206 </v>
    <v>       0.24999509       0.24999488       0.46903975 </v>
    <v>       0.41666296       0.08333419       0.46903920 </v>
    <v>       0.24999892       0.75000008       0.46903880 </v>
    <v>       0.41666705       0.58333195       0.46903943 </v>
    <v>       0.75000223       0.24999677       0.46903957 </v>
    <v>       0.91666736       0.08333164       0.46904011 </v>
    <v>       0.75000412       0.75000391       0.46903975 </v>
    <v>       0.91666481       0.58333604       0.46903920 </v>
   </varray>
  </structure>
  <varray name="forces" >
   <v>      -0.12044045      -0.06952975       0.00826666 </v>
   <v>       0.12043193       0.06955319       0.00828659 </v>
   <v>      -0.12044045       0.06952975       0.00826666 </v>
   <v>       0.12043193      -0.06955319       0.00828659 </v>
   <v>      -0.00000139       0.13912019       0.00829005 </v>
   <v>      -0.00000139      -0.13912019       0.00829005 </v>
   <v>      -0.00002318      -0.00000000       0.00940001 </v>
   <v>       0.00006580       0.00000000       0.00856165 </v>
   <v>      -0.00026786       0.00117698      -0.00841024 </v>
   <v>       0.00124696       0.00022836      -0.00850383 </v>
   <v>       0.00002998       0.00000000      -0.00855994 </v>
   <v>      -0.00020869      -0.00000000      -0.00846529 </v>
   <v>      -0.00147877       0.00000000      -0.00843838 </v>
   <v>      -0.00032353      -0.00000000      -0.00835653 </v>
   <v>      -0.00026786      -0.00117698      -0.00841024 </v>
   <v>       0.00124696      -0.00022836      -0.00850383 </v>
  </varray>
  <varray name="stress" >
   <v>      -6.69795451       0.00000000      -0.00065422 </v>
   <v>       0.00000000      -6.70080797       0.00000000 </v>
   <v>      -0.00065420       0.00000000      -3.62599305 </v>
  </varray>
  <energy>
   <i name="e_fr_energy">   -125.63455972 </i>
   <i name="e_wo_entrp">   -125.62851174 </i>
   <i name="e_0_energy">   -125.63153573 </i>
  </energy>
  <time name="totalsc">   70.28   70.90</time>
 </calculation>
 <calculation>
  <scstep>
   <time name="dav">    3.41    3.43</time>
   <time name="total">    3.61    3.64</time>
   <energy>
    <i name="alphaZ">     60.25272160 </i>
    <i name="ewald">   1862.53260475 </i>
    <i name="hartreedc">  -3471.80733796 </i>
    <i name="XCdc">    168.07006779 </i>
    <i name="pawpsdc">   5739.83552576 </i>
    <i name="pawaedc">  -5739.18606217 </i>
    <i name="eentropy">     -0.00595646 </i>
    <i name="bandstr">   -490.34701597 </i>
    <i name="atom">   1746.50554237 </i>
    <i name="e_fr_energy">   -124.14991030 </i>
    <i name="e_wo_entrp">   -124.14395384 </i>
    <i name="e_0_energy">   -124.14693207 </i>
   </energy>
  </scstep>
  <scstep>
   <time name="dav">    5.21    5.24</time>
   <time name="total">    5.42    5.47</time>
   <energy>
    <i name="e_fr_energy">   -124.14935664 </i>
    <i name="e_wo_entrp">   -124.14335200 </i>
    <i name="e_0_energy">   -124.14635432 </i>
   </energy>
  </scstep>
  <scstep>
   <time name="dav">    6.45    6.49</time>
   <time name="total">    6.65    6.71</time>
   <energy>
    <i name="e_fr_energy">   -124.14926875 </i>
    <i name="e_wo_entrp">   -124.14323372 </i>
    <i name="e_0_energy">   -124.14625123 </i>
   </energy>
  </scstep>
  <scstep>
   <time name="dav">    4.56    4.58</time>
   <time name="total">    4.76    4.80</time>
   <energy>
    <i name="e_fr_energy">   -124.14926564 </i>
    <i name="e_wo_entrp">   -124.14322844 </i>
    <i name="e_0_energy">   -124.14624704 </i>
   </energy>
  </scstep>
  <scstep>
   <time name="dav">    6.41    6.44</time>
   <time name="total">    6.61    6.65</time>
   <energy>
    <i name="e_fr_energy">   -124.14926572 </i>
    <i name="e_wo_entrp">   -124.14322854 </i>
    <i name="e_0_energy">   -124.14624713 </i>
   </energy>
  </scstep>
  <scstep>
   <time name="dav">    4.19    4.22</time>
   <time name="total">    4.40    4.44</time>
   <energy>
    <i name="e_fr_energy">   -124.14926580 </i>
    <i name="e_wo_entrp">   -124.14322898 </i>
    <i name="e_0_energy">   -124.14624739 </i>
   </energy>
  </scstep>
  <scstep>
   <time name="dav">    4.06    4.09</time>
   <time name="total">    4.26    4.30</time>
   <energy>
    <i name="e_fr_energy">   -124.14926599 </i>
    <i name="e_wo_entrp">   -124.14322851 </i>
    <i name="e_0_energy">   -124.14624725 </i>
   </energy>
  </scstep>
  <scstep>
   <time name="dav">    4.28    4.31</time>
   <time name="total">    4.48    4.52</time>
   <energy>
    <i name="e_fr_energy">   -124.14926611 </i>
    <i name="e_wo_entrp">   -124.14322853 </i>
    <i name="e_0_energy">   -124.14624732 </i>
   </energy>
  </scstep>
  <scstep>
   <time name="dav">    4.18    4.20</time>
   <time name="total">    4.38    4.41</time>
   <energy>
    <i name="e_fr_energy">   -124.14926622 </i>
    <i name="e_wo_entrp">   -124.14322864 </i>
    <i name="e_0_energy">   -124.14624743 </i>
   </energy>
  </scstep>
  <scstep>
   <time name="dav">    4.15    4.18</time>
   <time name="total">    4.35    4.39</time>
   <energy>
    <i name="e_fr_energy">   -124.14926628 </i>
    <i name="e_wo_entrp">   -124.14322868 </i>
    <i name="e_0_energy">   -124.14624748 </i>
   </energy>
  </scstep>
  <scstep>
   <time name="dav">    4.13    4.16</time>
   <time name="total">    4.34    4.37</time>
   <energy>
    <i name="e_fr_energy">   -124.14926630 </i>
    <i name="e_wo_entrp">   -124.14322869 </i>
    <i name="e_0_energy">   -124.14624750 </i>
   </energy>
  </scstep>
  <scstep>
   <time name="dav">    5.57    5.60</time>
   <time name="total">    5.60    5.63</time>
   <energy>
    <i name="alphaZ">     60.25272160 </i>
    <i name="ewald">   1862.53260475 </i>
    <i name="hartreedc">  -3472.06736731 </i>
    <i name="XCdc">    168.07499033 </i>
    <i name="pawpsdc">   5746.59077111 </i>
    <i name="pawaedc">  -5745.94336488 </i>
    <i name="eentropy">     -0.00603762 </i>
    <i name="bandstr">   -490.08912664 </i>
    <i name="atom">   1746.50554237 </i>
    <i name="e_fr_energy">   -124.14926631 </i>
    <i name="e_wo_entrp">   -124.14322869 </i>
    <i name="e_0_energy">   -124.14624750 </i>
   </energy>
  </scstep>
  <structure>
   <crystal>
    <varray name="basis" >
     <v>       4.31973471       2.49400000       0.00000000 </v>
     <v>      -4.31973471       2.49400000       0.00000000 </v>
     <v>       0.00000000       0.00000000      15.00000000 </v>
    </varray>
    <i name="volume">    323.20255131 </i>
    <varray name="rec_basis" >
     <v>       0.11574785       0.20048115       0.00000000 </v>
     <v>      -0.11574785       0.20048115       0.00000000 </v>
     <v>       0.00000000       0.00000000       0.06666667 </v>
    </varray>
   </crystal>
   <varray name="positions" >
    <v>       0.66965450      -0.00000007       0.10001379 </v>
    <v>       0.33034458      -0.00000008       0.10001382 </v>
    <v>       0.00000007       0.33034450       0.10001379 </v>
    <v>       0.00000008       0.66965442       0.10001382 </v>
    <v>       0.33034442       0.33034438       0.10001383 </v>
    <v>       0.66965462       0.66965458       0.10001383 </v>
    <v>       0.66666605       0.33333295       0.09923504 </v>
    <v>       0.33333276       0.66666624       0.10079587 </v>
    <v>       0.24999711       0.24999716       0.46905258 </v>
    <v>       0.41666457       0.08333347       0.46905230 </v>
    <v>       0.24999912       0.74999988       0.46905209 </v>
    <v>       0.41666671       0.58333229       0.46905242 </v>
    <v>       0.75000085       0.24999815       0.46905249 </v>
    <v>       0.91666687       0.08333213       0.46905277 </v>
    <v>       0.75000184       0.75000189       0.46905258 </v>
    <v>       0.91666553       0.58333443       0.46905230 </v>
   </varray>
  </structure>
  <varray name="forces" >
   <v>      -0.00095361      -0.00055349       0.00823144 </v>
   <v>       0.00096765       0.00056255       0.00825253 </v>
   <v>      -0.00095361       0.00055349       0.00823144 </v>
   <v>       0.00096765      -0.00056255       0.00825253 </v>
   <v>       0.00000187       0.00112346       0.00825625 </v>
   <v>       0.00000187      -0.00112346       0.00825625 </v>
   <v>      -0.00000490      -0.00000000       0.00866623 </v>
   <v>      -0.00000346      -0.00000000       0.00949252 </v>
   <v>      -0.00011739       0.00039304      -0.00839034 </v>
   <v>       0.00044339       0.00007419      -0.00852141 </v>
   <v>      -0.00001957      -0.00000000      -0.00860931 </v>
   <v>      -0.00004748      -0.00000000      -0.00846576 </v>
   <v>      -0.00052689      -0.00000000      -0.00843166 </v>
   <v>      -0.00008152      -0.00000000      -0.00830896 </v>
   <v>      -0.00011739      -0.00039304      -0.00839034 </v>
   <v>       0.00044339      -0.00007419      -0.00852141 </v>
  </varray>
  <varray name="stress" >
   <v>      -6.12622658       0.00000000      -0.00068049 </v>
   <v>       0.00000000      -6.12744731       0.00000000 </v>
   <v>      -0.00068048       0.00000000      -3.62600790 </v>
  </varray>
  <energy>
   <i name="e_fr_energy">   -125.63600569 </i>
   <i name="e_wo_entrp">   -125.62996807 </i>
   <i name="e_0_energy">   -125.63298688 </i>
  </energy>
  <time name="totalsc">   61.96   62.48</time>
 </calculation>
 <calculation>
  <scstep>
   <time name="dav">    3.37    3.40</time>
   <time name="total">    3.58    3.61</time>
   <energy>
    <i name="alphaZ">     60.25272160 </i>
    <i name="ewald">   1863.16056726 </i>
    <i name="hartreedc">  -3472.69555986 </i>
    <i name="XCdc">    168.07499479 </i>
    <i name="pawpsdc">   5746.59124258 </i>
    <i name="pawaedc">  -5745.94383682 </i>
    <i name="eentropy">     -0.00603760 </i>
    <i name="bandstr">   -490.08890728 </i>
    <i name="atom">   1746.50554237 </i>
    <i name="e_fr_energy">   -124.14927297 </i>
    <i name="e_wo_entrp">   -124.14323537 </i>
    <i name="e_0_energy">   -124.14625417 </i>
   </energy>
  </scstep>
  <scstep>
   <time name="dav">    3.79    3.81</time>
   <time name="total">    3.98    4.02</time>
   <energy>
    <i name="e_fr_energy">   -124.14927200 </i>
    <i name="e_wo_entrp">   -124.14323409 </i>
    <i name="e_0_energy">   -124.14625304 </i>
   </energy>
  </scstep>
  <scstep>
   <time name="dav">    3.88    3.91</time>
   <time name="total">    4.08    4.12</time>
   <energy>
    <i name="e_fr_energy">   -124.14927136 </i>
    <i name="e_wo_entrp">   -124.14323368 </i>
    <i name="e_0_energy">   -124.14625252 </i>
   </energy>
  </scstep>
  <scstep>
   <time name="dav">    5.36    5.40</time>
   <time name="total">    5.57    5.61</time>
   <energy>
    <i name="e_fr_energy">   -124.14927139 </i>
    <i name="e_wo_entrp">   -124.14323380 </i>
    <i name="e_0_energy">   -124.14625260 </i>
   </energy>
  </scstep>
  <scstep>
   <time name="dav">    4.78    4.81</time>
   <time name="total">    4.82    4.85</time>
   <energy>
    <i name="alphaZ">     60.25272160 </i>
    <i name="ewald">   1863.16056726 </i>
    <i name="hartreedc">  -3472.69961782 </i>
    <i name="XCdc">    168.07500695 </i>
    <i name="pawpsdc">   5746.59027579 </i>
    <i name="pawaedc">  -5745.94286902 </i>
    <i name="eentropy">     -0.00603758 </i>
    <i name="bandstr">   -490.08486093 </i>
    <i name="atom">   1746.50554237 </i>
    <i name="e_fr_energy">   -124.14927139 </i>
    <i name="e_wo_entrp">   -124.14323381 </i>
    <i name="e_0_energy">   -124.14625260 </i>
   </energy>
  </scstep>
  <structure>
   <crystal>
    <varray name="basis" >
     <v>       4.31973471       2.49400000       0.00000000 </v>
     <v>      -4.31973471       2.49400000       0.00000000 </v>
     <v>       0.00000000       0.00000000      15.00000000 </v>
    </varray>
    <i name="volume">    323.20255131 </i>
    <varray name="rec_basis" >
     <v>       0.11574785       0.20048115       0.00000000 </v>
     <v>      -0.11574785       0.20048115       0.00000000 </v>
     <v>       0.00000000       0.00000000       0.06666667 </v>
    </varray>
   </crystal>
   <varray name="positions" >
    <v>       0.66965460      -0.00000009       0.10003791 </v>
    <v>       0.33034463      -0.00000005       0.10003801 </v>
    <v>       0.00000009       0.33034440       0.10003791 </v>
    <v>       0.00000005       0.66965437       0.10003801 </v>
    <v>       0.33034450       0.33034444       0.10003803 </v>
    <v>       0.66965456       0.66965450       0.10003803 </v>
    <v>       0.66666602       0.33333298       0.09926043 </v>
    <v>       0.33333274       0.66666626       0.10082372 </v>
    <v>       0.24999993       0.25000116       0.46902799 </v>
    <v>       0.41666744       0.08333189       0.46902732 </v>
    <v>       0.24999902       0.74999998       0.46902685 </v>
    <v>       0.41666647       0.58333253       0.46902761 </v>
    <v>       0.74999820       0.25000080       0.46902778 </v>
    <v>       0.91666646       0.08333254       0.46902842 </v>
    <v>       0.74999784       0.74999907       0.46902799 </v>
    <v>       0.91666711       0.58333156       0.46902732 </v>
   </varray>
  </structure>
  <varray name="forces" >
   <v>      -0.00096599      -0.00056687       0.00823350 </v>
   <v>       0.00097668       0.00055162       0.00825300 </v>
   <v>      -0.00096599       0.00056687       0.00823350 </v>
   <v>       0.00097668      -0.00055162       0.00825300 </v>
   <v>      -0.00000288       0.00111677       0.00825614 </v>
   <v>      -0.00000288      -0.00111677       0.00825614 </v>
   <v>       0.00000997      -0.00000000       0.00860647 </v>
   <v>      -0.00000203       0.00000000       0.00943261 </v>
   <v>       0.00042019      -0.00085850      -0.00840384 </v>
   <v>      -0.00116232      -0.00015457      -0.00847765 </v>
   <v>       0.00021721       0.00000000      -0.00852429 </v>
   <v>      -0.00007151      -0.00000000      -0.00844932 </v>
   <v>       0.00133299      -0.00000000      -0.00842922 </v>
   <v>      -0.00001797       0.00000000      -0.00835855 </v>
   <v>       0.00042019       0.00085850      -0.00840384 </v>
   <v>      -0.00116232       0.00015457      -0.00847765 </v>
  </varray>
  <varray name="stress" >
   <v>      -6.12864244       0.00000000      -0.00068295 </v>
   <v>       0.00000000      -6.12513239       0.00000000 </v>
   <v>      -0.00068294       0.00000000      -3.62784035 </v>
  </varray>
  <energy>
   <i name="e_fr_energy">   -125.63605601 </i>
   <i name="e_wo_entrp">   -125.63001843 </i>
   <i name="e_0_energy">   -125.63303722 </i>
  </energy>
  <time name="totalsc">   25.13   25.34</time>
 </calculation>
 <calculation>
  <scstep>
   <time name="dav">    3.33    3.35</time>
   <time name="total">    3.53    3.56</time>
   <energy>
    <i name="alphaZ">     60.25272160 </i>
    <i name="ewald">   1865.04588056 </i>
    <i name="hartreedc">  -3474.58409592 </i>
    <i name="XCdc">    168.07501442 </i>
    <i name="pawpsdc">   5746.59007783 </i>
    <i name="pawaedc">  -5745.94267131 </i>
    <i name="eentropy">     -0.00603754 </i>
    <i name="bandstr">   -490.08573179 </i>
    <i name="atom">   1746.50554237 </i>
    <i name="e_fr_energy">   -124.14929978 </i>
    <i name="e_wo_entrp">   -124.14326225 </i>
    <i name="e_0_energy">   -124.14628101 </i>
   </energy>
  </scstep>
  <scstep>
   <time name="dav">    3.89    3.92</time>
   <time name="total">    4.09    4.13</time>
   <energy>
    <i name="e_fr_energy">   -124.14929113 </i>
    <i name="e_wo_entrp">   -124.14325271 </i>
    <i name="e_0_energy">   -124.14627192 </i>
   </energy>
  </scstep>
  <scstep>
   <time name="dav">    4.56    4.59</time>
   <time name="total">    4.76    4.80</time>
   <energy>
    <i name="e_fr_energy">   -124.14928487 </i>
    <i name="e_wo_entrp">   -124.14324709 </i>
    <i name="e_0_energy">   -124.14626598 </i>
   </energy>
  </scstep>
  <scstep>
   <time name="dav">    3.98    4.01</time>
   <time name="total">    4.19    4.23</time>
   <energy>
    <i name="e_fr_energy">   -124.14928538 </i>
    <i name="e_wo_entrp">   -124.14324784 </i>
    <i name="e_0_energy">   -124.14626661 </i>
   </energy>
  </scstep>
  <scstep>
   <time name="dav">    3.77    3.79</time>
   <time name="total">    3.97    4.00</time>
   <energy>
    <i name="e_fr_energy">   -124.14928553 </i>
    <i name="e_wo_entrp">   -124.14324805 </i>
    <i name="e_0_energy">   -124.14626679 </i>
   </energy>
  </scstep>
  <scstep>
   <time name="dav">    5.18    5.22</time>
   <time name="total">    5.39    5.43</time>
   <energy>
    <i name="e_fr_energy">   -124.14928552 </i>
    <i name="e_wo_entrp">   -124.14324802 </i>
    <i name="e_0_energy">   -124.14626677 </i>
   </energy>
  </scstep>
  <scstep>
   <time name="dav">    4.48    4.51</time>
   <time name="total">    4.68    4.72</time>
   <energy>
    <i name="e_fr_energy">   -124.14928554 </i>
    <i name="e_wo_entrp">   -124.14324803 </i>
    <i name="e_0_energy">   -124.14626678 </i>
   </energy>
  </scstep>
  <scstep>
   <time name="dav">    4.26    4.29</time>
   <time name="total">    4.46    4.50</time>
   <energy>
    <i name="e_fr_energy">   -124.14928562 </i>
    <i name="e_wo_entrp">   -124.14324814 </i>
    <i name="e_0_energy">   -124.14626688 </i>
   </energy>
  </scstep>
  <scstep>
   <time name="dav">    4.49    4.53</time>
   <time name="total">    4.69    4.74</time>
   <energy>
    <i name="e_fr_energy">   -124.14928568 </i>
    <i name="e_wo_entrp">   -124.14324821 </i>
    <i name="e_0_energy">   -124.14626695 </i>
   </energy>
  </scstep>
  <scstep>
   <time name="dav">    4.16    4.19</time>
   <time name="total">    4.37    4.41</time>
   <energy>
    <i name="e_fr_energy">   -124.14928575 </i>
    <i name="e_wo_entrp">   -124.14324827 </i>
    <i name="e_0_energy">   -124.14626701 </i>
   </energy>
  </scstep>
  <scstep>
   <time name="dav">    4.58    4.61</time>
   <time name="total">    4.78    4.83</time>
   <energy>
    <i name="e_fr_energy">   -124.14928576 </i>
    <i name="e_wo_entrp">   -124.14324828 </i>
    <i name="e_0_energy">   -124.14626702 </i>
   </energy>
  </scstep>
  <scstep>
   <time name="dav">    5.56    5.60</time>
   <time name="total">    5.59    5.63</time>
   <energy>
    <i name="alphaZ">     60.25272160 </i>
    <i name="ewald">   1865.04588056 </i>
    <i name="hartreedc">  -3474.58111933 </i>
    <i name="XCdc">    168.07499438 </i>
    <i name="pawpsdc">   5746.58866214 </i>
    <i name="pawaedc">  -5745.94125490 </i>
    <i name="eentropy">     -0.00603749 </i>
    <i name="bandstr">   -490.08867509 </i>
    <i name="atom">   1746.50554237 </i>
    <i name="e_fr_energy">   -124.14928577 </i>
    <i name="e_wo_entrp">   -124.14324828 </i>
    <i name="e_0_energy">   -124.14626703 </i>
   </energy>
  </scstep>
  <structure>
   <crystal>
    <varray name="basis" >
     <v>       4.31973471       2.49400000       0.00000000 </v>
     <v>      -4.31973471       2.49400000       0.00000000 </v>
     <v>       0.00000000       0.00000000      15.00000000 </v>
    </varray>
    <i name="volume">    323.20255131 </i>
    <varray name="rec_basis" >
     <v>       0.11574785       0.20048115       0.00000000 </v>
     <v>      -0.11574785       0.20048115       0.00000000 </v>
     <v>       0.00000000       0.00000000       0.06666667 </v>
    </varray>
   </crystal>
   <varray name="positions" >
    <v>       0.66965489      -0.00000017       0.10011028 </v>
    <v>       0.33034479       0.00000005       0.10011057 </v>
    <v>       0.00000017       0.33034411       0.10011028 </v>
    <v>      -0.00000005       0.66965421       0.10011057 </v>
    <v>       0.33034474       0.33034463       0.10011062 </v>
    <v>       0.66965437       0.66965426       0.10011062 </v>
    <v>       0.66666595       0.33333305       0.09933657 </v>
    <v>       0.33333268       0.66666632       0.10090725 </v>
    <v>       0.25000838       0.25001316       0.46895422 </v>
    <v>       0.41667604       0.08332714       0.46895239 </v>
    <v>       0.24999871       0.75000029       0.46895115 </v>
    <v>       0.41666577       0.58333323       0.46895317 </v>
    <v>       0.74999028       0.25000872       0.46895364 </v>
    <v>       0.91666525       0.08333375       0.46895537 </v>
    <v>       0.74998584       0.74999062       0.46895422 </v>
    <v>       0.91667186       0.58332296       0.46895239 </v>
   </varray>
  </structure>
  <varray name="forces" >
   <v>      -0.00100063      -0.00060318       0.00833265 </v>
   <v>       0.00099952       0.00051853       0.00834774 </v>
   <v>      -0.00100063       0.00060318       0.00833265 </v>
   <v>       0.00099952      -0.00051853       0.00834774 </v>
   <v>      -0.00001523       0.00109282       0.00834890 </v>
   <v>      -0.00001523      -0.00109282       0.00834890 </v>
   <v>       0.00005434      -0.00000000       0.00848191 </v>
   <v>       0.00000199      -0.00000000       0.00931262 </v>
   <v>       0.00202618      -0.00462076      -0.00852747 </v>
   <v>      -0.00597459      -0.00084557      -0.00843149 </v>
   <v>       0.00091585      -0.00000000      -0.00835548 </v>
   <v>      -0.00013699      -0.00000000      -0.00848434 </v>
   <v>       0.00690627      -0.00000000      -0.00850588 </v>
   <v>       0.00018803      -0.00000000      -0.00858950 </v>
   <v>       0.00202618       0.00462076      -0.00852747 </v>
   <v>      -0.00597459       0.00084557      -0.00843149 </v>
  </varray>
  <varray name="stress" >
   <v>      -6.13576415       0.00000000      -0.00068801 </v>
   <v>       0.00000000      -6.11856578       0.00000000 </v>
   <v>      -0.00068801       0.00000000      -3.63058513 </v>
  </varray>
  <energy>
   <i name="e_fr_energy">   -125.63620637 </i>
   <i name="e_wo_entrp">   -125.63016888 </i>
   <i name="e_0_energy">   -125.63318763 </i>
  </energy>
  <time name="totalsc">   57.61   58.12</time>
 </calculation>
 <calculation>
  <scstep>
   <time name="dav">    3.34    3.36</time>
   <time name="total">    3.54    3.58</time>
   <energy>
    <i name="alphaZ">     60.25272160 </i>
    <i name="ewald">   1868.82292278 </i>
    <i name="hartreedc">  -3478.35700762 </i>
    <i name="XCdc">    168.07499737 </i>
    <i name="pawpsdc">   5746.58890700 </i>
    <i name="pawaedc">  -5745.94150026 </i>
    <i name="eentropy">     -0.00603731 </i>
    <i name="bandstr">   -490.08991379 </i>
    <i name="atom">   1746.50554237 </i>
    <i name="e_fr_energy">   -124.14936786 </i>
    <i name="e_wo_entrp">   -124.14333056 </i>
    <i name="e_0_energy">   -124.14634921 </i>
   </energy>
  </scstep>
  <scstep>
   <time name="dav">    3.80    3.83</time>
   <time name="total">    4.00    4.04</time>
   <energy>
    <i name="e_fr_energy">   -124.14933554 </i>
    <i name="e_wo_entrp">   -124.14329651 </i>
    <i name="e_0_energy">   -124.14631603 </i>
   </energy>
  </scstep>
  <scstep>
   <time name="dav">    4.79    4.82</time>
   <time name="total">    4.99    5.03</time>
   <energy>
    <i name="e_fr_energy">   -124.14930796 </i>
    <i name="e_wo_entrp">   -124.14327016 </i>
    <i name="e_0_energy">   -124.14628906 </i>
   </energy>
  </scstep>
  <scstep>
   <time name="dav">    3.95    3.97</time>
   <time name="total">    4.15    4.19</time>
   <energy>
    <i name="e_fr_energy">   -124.14930932 </i>
    <i name="e_wo_entrp">   -124.14327202 </i>
    <i name="e_0_energy">   -124.14629067 </i>
   </energy>
  </scstep>
  <scstep>
   <time name="dav">    3.72    3.75</time>
   <time name="total">    3.92    3.96</time>
   <energy>
    <i name="e_fr_energy">   -124.14930996 </i>
    <i name="e_wo_entrp">   -124.14327277 </i>
    <i name="e_0_energy">   -124.14629137 </i>
   </energy>
  </scstep>
  <scstep>
   <time name="dav">    6.17    6.21</time>
   <time name="total">    6.38    6.43</time>
   <energy>
    <i name="e_fr_energy">   -124.14930985 </i>
    <i name="e_wo_entrp">   -124.14327260 </i>
    <i name="e_0_energy">   -124.14629123 </i>
   </energy>
  </scstep>
  <scstep>
   <time name="dav">    4.20    4.23</time>
   <time name="total">    4.41    4.45</time>
   <energy>
    <i name="e_fr_energy">   -124.14930996 </i>
    <i name="e_wo_entrp">   -124.14327273 </i>
    <i name="e_0_energy">   -124.14629135 </i>
   </energy>
  </scstep>
  <scstep>
   <time name="dav">    4.12    4.15</time>
   <time name="total">    4.32    4.36</time>
   <energy>
    <i name="e_fr_energy">   -124.14931017 </i>
    <i name="e_wo_entrp">   -124.14327296 </i>
    <i name="e_0_energy">   -124.14629156 </i>
   </energy>
  </scstep>
  <scstep>
   <time name="dav">    4.39    4.42</time>
   <time name="total">    4.59    4.63</time>
   <energy>
    <i name="e_fr_energy">   -124.14931040 </i>
    <i name="e_wo_entrp">   -124.14327321 </i>
    <i name="e_0_energy">   -124.14629180 </i>
   </energy>
  </scstep>
  <scstep>
   <time name="dav">    4.20    4.24</time>
   <time name="total">    4.41    4.45</time>
   <energy>
    <i name="e_fr_energy">   -124.14931066 </i>
    <i name="e_wo_entrp">   -124.14327345 </i>
    <i name="e_0_energy">   -124.14629206 </i>
   </energy>
  </scstep>
  <scstep>
   <time name="dav">    5.02    5.05</time>
   <time name="total">    5.22    5.26</time>
   <energy>
    <i name="e_fr_energy">   -124.14931070 </i>
    <i name="e_wo_entrp">   -124.14327349 </i>
    <i name="e_0_energy">   -124.14629209 </i>
   </energy>
  </scstep>
  <scstep>
   <time name="dav">    4.46    4.49</time>
   <time name="total">    4.66    4.70</time>
   <energy>
    <i name="e_fr_energy">   -124.14931072 </i>
    <i name="e_wo_entrp">   -124.14327350 </i>
    <i name="e_0_energy">   -124.14629211 </i>
   </energy>
  </scstep>
  <scstep>
   <time name="dav">    5.46    5.50</time>
   <time name="total">    5.50    5.53</time>
   <energy>
    <i name="alphaZ">     60.25272160 </i>
    <i name="ewald">   1868.82292278 </i>
    <i name="hartreedc">  -3478.35715318 </i>
    <i name="XCdc">    168.07497805 </i>
    <i name="pawpsdc">   5746.58613633 </i>
    <i name="pawaedc">  -5745.93872859 </i>
    <i name="eentropy">     -0.00603721 </i>
    <i name="bandstr">   -490.08969286 </i>
    <i name="atom">   1746.50554237 </i>
    <i name="e_fr_energy">   -124.14931072 </i>
    <i name="e_wo_entrp">   -124.14327351 </i>
    <i name="e_0_energy">   -124.14629211 </i>
   </energy>
  </scstep>
  <structure>
   <crystal>
    <varray name="basis" >
     <v>       4.31973471       2.49400000       0.00000000 </v>
     <v>      -4.31973471       2.49400000       0.00000000 </v>
     <v>       0.00000000       0.00000000      15.00000000 </v>
    </varray>
    <i name="volume">    323.20255131 </i>
    <varray name="rec_basis" >
     <v>       0.11574785       0.20048115       0.00000000 </v>
     <v>      -0.11574785       0.20048115       0.00000000 </v>
     <v>       0.00000000       0.00000000       0.06666667 </v>
    </varray>
   </crystal>
   <varray name="positions" >
    <v>       0.66965548      -0.00000033       0.10025503 </v>
    <v>       0.33034511       0.00000025       0.10025569 </v>
    <v>       0.00000033       0.33034352       0.10025503 </v>
    <v>      -0.00000025       0.66965389       0.10025569 </v>
    <v>       0.33034522       0.33034499       0.10025580 </v>
    <v>       0.66965401       0.66965378       0.10025580 </v>
    <v>       0.66666580       0.33333320       0.09948886 </v>
    <v>       0.33333256       0.66666644       0.10107431 </v>
    <v>       0.25002529       0.25003716       0.46880668 </v>
    <v>       0.41669324       0.08331766       0.46880254 </v>
    <v>       0.24999810       0.75000090       0.46879975 </v>
    <v>       0.41666436       0.58333464       0.46880430 </v>
    <v>       0.74997442       0.25002458       0.46880537 </v>
    <v>       0.91666282       0.08333618       0.46880926 </v>
    <v>       0.74996184       0.74997371       0.46880668 </v>
    <v>       0.91668134       0.58330576       0.46880254 </v>
   </varray>
  </structure>
  <varray name="forces" >
   <v>      -0.00106794      -0.00067714       0.00848461 </v>
   <v>       0.00104515       0.00045026       0.00849070 </v>
   <v>      -0.00106794       0.00067714       0.00848461 </v>
   <v>       0.00104515      -0.00045026       0.00849070 </v>
   <v>      -0.00004203       0.00104438       0.00848814 </v>
   <v>      -0.00004203      -0.00104438       0.00848814 </v>
   <v>       0.00014311       0.00000000       0.00820615 </v>
   <v>       0.00001018       0.00000000       0.00904410 </v>
   <v>       0.00523843      -0.01213946      -0.00873353 </v>
   <v>      -0.01559714      -0.00222557      -0.00829713 </v>
   <v>       0.00231975       0.00000000      -0.00797505 </v>
   <v>      -0.00027221       0.00000000      -0.00851291 </v>
   <v>       0.01805436       0.00000000      -0.00861712 </v>
   <v>       0.00059188       0.00000000      -0.00901075 </v>
   <v>       0.00523843       0.01213946      -0.00873353 </v>
   <v>      -0.01559714       0.00222557      -0.00829713 </v>
  </varray>
  <varray name="stress" >
   <v>      -6.15000841       0.00000000      -0.00068198 </v>
   <v>       0.00000000      -6.10523755       0.00000000 </v>
   <v>      -0.00068198       0.00000000      -3.63632529 </v>
  </varray>
  <energy>
   <i name="e_fr_energy">   -125.63650414 </i>
   <i name="e_wo_entrp">   -125.63046693 </i>
   <i name="e_0_energy">   -125.63348553 </i>
  </energy>
  <time name="totalsc">   63.19   63.75</time>
 </calculation>
 <calculation>
  <scstep>
   <time name="dav">    3.33    3.35</time>
   <time name="total">    3.53    3.56</time>
   <energy>
    <i name="alphaZ">     60.25272160 </i>
    <i name="ewald">   1876.40267112 </i>
    <i name="hartreedc">  -3485.93329926 </i>
    <i name="XCdc">    168.07497880 </i>
    <i name="pawpsdc">   5746.58644619 </i>
    <i name="pawaedc">  -5745.93903849 </i>
    <i name="eentropy">     -0.00603650 </i>
    <i name="bandstr">   -490.09355656 </i>
    <i name="atom">   1746.50554237 </i>
    <i name="e_fr_energy">   -124.14957073 </i>
    <i name="e_wo_entrp">   -124.14353424 </i>
    <i name="e_0_energy">   -124.14655248 </i>
   </energy>
  </scstep>
  <scstep>
   <time name="dav">    3.88    3.91</time>
   <time name="total">    4.08    4.12</time>
   <energy>
    <i name="e_fr_energy">   -124.14945427 </i>
    <i name="e_wo_entrp">   -124.14341450 </i>
    <i name="e_0_energy">   -124.14643438 </i>
   </energy>
  </scstep>
  <scstep>
   <time name="dav">    4.87    4.90</time>
   <time name="total">    5.07    5.11</time>
   <energy>
    <i name="e_fr_energy">   -124.14933668 </i>
    <i name="e_wo_entrp">   -124.14329908 </i>
    <i name="e_0_energy">   -124.14631788 </i>
   </energy>
  </scstep>
  <scstep>
   <time name="dav">    4.97    5.01</time>
   <time name="total">    5.17    5.22</time>
   <energy>
    <i name="e_fr_energy">   -124.14934004 </i>
    <i name="e_wo_entrp">   -124.14330350 </i>
    <i name="e_0_energy">   -124.14632177 </i>
   </energy>
  </scstep>
  <scstep>
   <time name="dav">    4.06    4.09</time>
   <time name="total">    4.26    4.30</time>
   <energy>
    <i name="e_fr_energy">   -124.14933944 </i>
    <i name="e_wo_entrp">   -124.14330319 </i>
    <i name="e_0_energy">   -124.14632132 </i>
   </energy>
  </scstep>
  <scstep>
   <time name="dav">    5.43    5.46</time>
   <time name="total">    5.64    5.68</time>
   <energy>
    <i name="e_fr_energy">   -124.14933883 </i>
    <i name="e_wo_entrp">   -124.14330245 </i>
    <i name="e_0_energy">   -124.14632064 </i>
   </energy>
  </scstep>
  <scstep>
   <time name="dav">    3.68    3.70</time>
   <time name="total">    3.88    3.92</time>
   <energy>
    <i name="e_fr_energy">   -124.14933950 </i>
    <i name="e_wo_entrp">   -124.14330314 </i>
    <i name="e_0_energy">   -124.14632132 </i>
   </energy>
  </scstep>
  <scstep>
   <time name="dav">    4.26    4.29</time>
   <time name="total">    4.46    4.50</time>
   <energy>
    <i name="e_fr_energy">   -124.14934079 </i>
    <i name="e_wo_entrp">   -124.14330449 </i>
    <i name="e_0_energy">   -124.14632264 </i>
   </energy>
  </scstep>
  <scstep>
   <time name="dav">    4.23    4.26</time>
   <time name="total">    4.43    4.47</time>
   <energy>
    <i name="e_fr_energy">   -124.14934227 </i>
    <i name="e_wo_entrp">   -124.14330600 </i>
    <i name="e_0_energy">   -124.14632413 </i>
   </energy>
  </scstep>
  <scstep>
   <time name="dav">    4.14    4.17</time>
   <time name="total">    4.34    4.38</time>
   <energy>
    <i name="e_fr_energy">   -124.14934383 </i>
    <i name="e_wo_entrp">   -124.14330753 </i>
    <i name="e_0_energy">   -124.14632568 </i>
   </energy>
  </scstep>
  <scstep>
   <time name="dav">    5.07    5.11</time>
   <time name="total">    5.28    5.32</time>
   <energy>
    <i name="e_fr_energy">   -124.14934403 </i>
    <i name="e_wo_entrp">   -124.14330771 </i>
    <i name="e_0_energy">   -124.14632587 </i>
   </energy>
  </scstep>
  <scstep>
   <time name="dav">    4.76    4.79</time>
   <time name="total">    4.96    5.01</time>
   <energy>
    <i name="e_fr_energy">   -124.14934408 </i>
    <i name="e_wo_entrp">   -124.14330777 </i>
    <i name="e_0_energy">   -124.14632593 </i>
   </energy>
  </scstep>
  <scstep>
   <time name="dav">    5.40    5.43</time>
   <time name="total">    5.43    5.47</time>
   <energy>
    <i name="alphaZ">     60.25272160 </i>
    <i name="ewald">   1876.40267112 </i>
    <i name="hartreedc">  -3485.93543152 </i>
    <i name="XCdc">    168.07495543 </i>
    <i name="pawpsdc">   5746.58144959 </i>
    <i name="pawaedc">  -5745.93403994 </i>
    <i name="eentropy">     -0.00603631 </i>
    <i name="bandstr">   -490.09117641 </i>
    <i name="atom">   1746.50554237 </i>
    <i name="e_fr_energy">   -124.14934408 </i>
    <i name="e_wo_entrp">   -124.14330777 </i>
    <i name="e_0_energy">   -124.14632593 </i>
   </energy>
  </scstep>
  <structure>
   <crystal>
    <varray name="basis" >
     <v>       4.31973471       2.49400000       0.00000000 </v>
     <v>      -4.31973471       2.49400000       0.00000000 </v>
     <v>       0.00000000       0.00000000      15.00000000 </v>
    </varray>
    <i name="volume">    323.20255131 </i>
    <varray name="rec_basis" >
     <v>       0.11574785       0.20048115       0.00000000 </v>
     <v>      -0.11574785       0.20048115       0.00000000 </v>
     <v>       0.00000000       0.00000000       0.06666667 </v>
    </varray>
   </crystal>
   <varray name="positions" >
    <v>       0.66965666      -0.00000065       0.10054452 </v>
    <v>       0.33034574       0.00000064       0.10054592 </v>
    <v>       0.00000065       0.33034234       0.10054452 </v>
    <v>      -0.00000064       0.66965326       0.10054592 </v>
    <v>       0.33034617       0.33034572       0.10054617 </v>
    <v>       0.66965328       0.66965283       0.10054617 </v>
    <v>       0.66666551       0.33333349       0.09979343 </v>
    <v>       0.33333231       0.66666669       0.10140844 </v>
    <v>       0.25005910       0.25008516       0.46851160 </v>
    <v>       0.41672763       0.08329870       0.46850284 </v>
    <v>       0.24999688       0.75000212       0.46849695 </v>
    <v>       0.41666154       0.58333746       0.46850656 </v>
    <v>       0.74994272       0.25005628       0.46850883 </v>
    <v>       0.91665796       0.08334104       0.46851705 </v>
    <v>       0.74991384       0.74993990       0.46851160 </v>
    <v>       0.91670030       0.58327137       0.46850284 </v>
   </varray>
  </structure>
  <varray name="forces" >
   <v>      -0.00120312      -0.00082683       0.00878876 </v>
   <v>       0.00113810       0.00031263       0.00877645 </v>
   <v>      -0.00120312       0.00082683       0.00878876 </v>
   <v>       0.00113810      -0.00031263       0.00877645 </v>
   <v>      -0.00009667       0.00094771       0.00876638 </v>
   <v>      -0.00009667      -0.00094771       0.00876638 </v>
   <v>       0.00032076      -0.00000000       0.00765352 </v>
   <v>       0.00002655      -0.00000000       0.00850513 </v>
   <v>       0.01166076      -0.02718203      -0.00914544 </v>
   <v>      -0.03484048      -0.00499503      -0.00802756 </v>
   <v>       0.00512929      -0.00000000      -0.00721465 </v>
   <v>      -0.00055031      -0.00000000      -0.00856984 </v>
   <v>       0.04035397      -0.00000000      -0.00883899 </v>
   <v>       0.00140256      -0.00000000      -0.00985237 </v>
   <v>       0.01166076       0.02718203      -0.00914544 </v>
   <v>      -0.03484048       0.00499503      -0.00802756 </v>
  </varray>
  <varray name="stress" >
   <v>      -6.17827596       0.00000000      -0.00070658 </v>
   <v>       0.00000000      -6.07826085       0.00000000 </v>
   <v>      -0.00070657       0.00000000      -3.64803439 </v>
  </varray>
  <energy>
   <i name="e_fr_energy">   -125.63708654 </i>
   <i name="e_wo_entrp">   -125.63105022 </i>
   <i name="e_0_energy">   -125.63406838 </i>
  </energy>
  <time name="totalsc">   63.62   64.18</time>
 </calculation>
 <calculation>
  <scstep>
   <time name="dav">    3.33    3.35</time>
   <time name="total">    3.53    3.57</time>
   <energy>
    <i name="alphaZ">     60.25272160 </i>
    <i name="ewald">   1891.66482533 </i>
    <i name="hartreedc">  -3501.18303324 </i>
    <i name="XCdc">    168.07490929 </i>
    <i name="pawpsdc">   5746.58190962 </i>
[...]
       <r>     2.5023     1.1445    31.2306 </r>
       <r>     2.6048     1.9183    31.4273 </r>
       <r>     2.7073     1.8738    31.6194 </r>
       <r>     2.8099     1.5508    31.7784 </r>
       <r>     2.9124     1.1247    31.8938 </r>
       <r>     3.0149     1.1225    32.0088 </r>
       <r>     3.1175     1.9896    32.2128 </r>
       <r>     3.2200     2.6908    32.4887 </r>
       <r>     3.3225     2.4028    32.7351 </r>
       <r>     3.4250     1.8396    32.9237 </r>
       <r>     3.5276     2.3909    33.1688 </r>
       <r>     3.6301     2.8203    33.4580 </r>
       <r>     3.7326     2.3336    33.6972 </r>
       <r>     3.8352     2.4691    33.9504 </r>
       <r>     3.9377     2.5812    34.2150 </r>
       <r>     4.0402     2.3540    34.4564 </r>
       <r>     4.1427     2.7751    34.7409 </r>
       <r>     4.2453     3.1965    35.0686 </r>
       <r>     4.3478     3.1605    35.3927 </r>
       <r>     4.4503     2.2631    35.6247 </r>
       <r>     4.5529     2.5360    35.8847 </r>
       <r>     4.6554     3.6522    36.2592 </r>
       <r>     4.7579     2.6949    36.5355 </r>
       <r>     4.8604     2.7330    36.8157 </r>
       <r>     4.9630     3.6226    37.1871 </r>
       <r>     5.0655     3.7733    37.5740 </r>
       <r>     5.1680     3.9642    37.9804 </r>
       <r>     5.2706     3.4244    38.3315 </r>
       <r>     5.3731     2.7309    38.6115 </r>
       <r>     5.4756     3.0525    38.9245 </r>
       <r>     5.5781     3.6043    39.2940 </r>
       <r>     5.6807     3.4957    39.6524 </r>
       <r>     5.7832     2.9746    39.9574 </r>
       <r>     5.8857     2.7548    40.2398 </r>
       <r>     5.9883     2.8281    40.5298 </r>
       <r>     6.0908     3.0698    40.8445 </r>
       <r>     6.1933     2.4019    41.0908 </r>
       <r>     6.2958     2.4562    41.3426 </r>
       <r>     6.3984     2.6102    41.6102 </r>
       <r>     6.5009     3.1888    41.9372 </r>
       <r>     6.6034     3.6097    42.3073 </r>
       <r>     6.7059     4.0463    42.7221 </r>
       <r>     6.8085     3.5332    43.0844 </r>
       <r>     6.9110     3.5246    43.4457 </r>
       <r>     7.0135     3.2898    43.7830 </r>
       <r>     7.1161     3.5636    44.1484 </r>
       <r>     7.2186     4.2113    44.5802 </r>
       <r>     7.3211     5.6025    45.1546 </r>
       <r>     7.4236     5.3351    45.7016 </r>
       <r>     7.5262     3.5458    46.0651 </r>
       <r>     7.6287     3.4212    46.4159 </r>
       <r>     7.7312     4.6168    46.8893 </r>
       <r>     7.8338     4.1162    47.3113 </r>
       <r>     7.9363     2.9441    47.6131 </r>
       <r>     8.0388     2.2038    47.8391 </r>
       <r>     8.1413     1.2177    47.9639 </r>
       <r>     8.2439     0.2891    47.9936 </r>
       <r>     8.3464     0.0504    47.9987 </r>
       <r>     8.4489     0.0116    47.9999 </r>
       <r>     8.5515     0.0006    48.0000 </r>
       <r>     8.6540     0.0000    48.0000 </r>
       <r>     8.7565     0.0000    48.0000 </r>
       <r>     8.8590     0.0000    48.0000 </r>
       <r>     8.9616     0.0000    48.0000 </r>
       <r>     9.0641     0.0000    48.0000 </r>
       <r>     9.1666     0.0000    48.0000 </r>
       <r>     9.2692     0.0000    48.0000 </r>
       <r>     9.3717     0.0000    48.0000 </r>
       <r>     9.4742     0.0000    48.0000 </r>
       <r>     9.5767     0.0000    48.0000 </r>
       <r>     9.6793     0.0000    48.0000 </r>
      </set>
      <set comment="spin 2">
       <r>   -21.0792     0.0000     0.0000 </r>
       <r>   -20.9767     0.0000     0.0000 </r>
       <r>   -20.8741     0.0000     0.0000 </r>
       <r>   -20.7716     0.0000     0.0000 </r>
       <r>   -20.6691     0.0000     0.0000 </r>
       <r>   -20.5666     0.0000     0.0000 </r>
       <r>   -20.4640     0.0000     0.0000 </r>
       <r>   -20.3615     0.0000     0.0000 </r>
       <r>   -20.2590     0.0000     0.0000 </r>
       <r>   -20.1564     0.0000     0.0000 </r>
       <r>   -20.0539     0.0000     0.0000 </r>
       <r>   -19.9514     0.0000     0.0000 </r>
       <r>   -19.8489     0.0013     0.0001 </r>
       <r>   -19.7463     0.0404     0.0043 </r>
       <r>   -19.6438     0.2672     0.0317 </r>
       <r>   -19.5413     0.5521     0.0883 </r>
       <r>   -19.4387     0.6119     0.1510 </r>
       <r>   -19.3362     0.6555     0.2182 </r>
       <r>   -19.2337     0.5718     0.2768 </r>
       <r>   -19.1312     0.7151     0.3502 </r>
       <r>   -19.0286     0.5611     0.4077 </r>
       <r>   -18.9261     0.5995     0.4692 </r>
       <r>   -18.8236     0.7864     0.5498 </r>
       <r>   -18.7211     0.4982     0.6009 </r>
       <r>   -18.6185     0.5643     0.6587 </r>
       <r>   -18.5160     0.8168     0.7425 </r>
       <r>   -18.4135     0.6647     0.8106 </r>
       <r>   -18.3109     0.3923     0.8508 </r>
       <r>   -18.2084     0.6701     0.9196 </r>
       <r>   -18.1059     0.8898     1.0108 </r>
       <r>   -18.0034     0.5864     1.0709 </r>
       <r>   -17.9008     0.4820     1.1203 </r>
       <r>   -17.7983     0.4735     1.1689 </r>
       <r>   -17.6958     0.9492     1.2662 </r>
       <r>   -17.5932     0.7981     1.3480 </r>
       <r>   -17.4907     0.4296     1.3921 </r>
       <r>   -17.3882     0.4854     1.4418 </r>
       <r>   -17.2857     0.5995     1.5033 </r>
       <r>   -17.1831     0.9107     1.5967 </r>
       <r>   -17.0806     0.8283     1.6816 </r>
       <r>   -16.9781     0.5572     1.7387 </r>
       <r>   -16.8755     0.2973     1.7692 </r>
       <r>   -16.7730     0.6106     1.8318 </r>
       <r>   -16.6705     0.9288     1.9270 </r>
       <r>   -16.5680     0.8244     2.0115 </r>
       <r>   -16.4654     0.6769     2.0809 </r>
       <r>   -16.3629     0.5727     2.1397 </r>
       <r>   -16.2604     0.3341     2.1739 </r>
       <r>   -16.1578     0.5110     2.2263 </r>
       <r>   -16.0553     1.1918     2.3485 </r>
       <r>   -15.9528     1.0352     2.4547 </r>
       <r>   -15.8503     1.2010     2.5778 </r>
       <r>   -15.7477     1.3155     2.7127 </r>
       <r>   -15.6452     1.3531     2.8514 </r>
       <r>   -15.5427     1.2915     2.9838 </r>
       <r>   -15.4401     1.7056     3.1587 </r>
       <r>   -15.3376     2.1747     3.3816 </r>
       <r>   -15.2351     1.6645     3.5523 </r>
       <r>   -15.1326     1.7759     3.7344 </r>
       <r>   -15.0300     1.6704     3.9057 </r>
       <r>   -14.9275     1.2968     4.0386 </r>
       <r>   -14.8250     1.1386     4.1554 </r>
       <r>   -14.7225     1.3668     4.2955 </r>
       <r>   -14.6199     1.3855     4.4375 </r>
       <r>   -14.5174     1.1342     4.5538 </r>
       <r>   -14.4149     1.2727     4.6843 </r>
       <r>   -14.3123     1.0174     4.7886 </r>
       <r>   -14.2098     1.3304     4.9250 </r>
       <r>   -14.1073     1.9418     5.1241 </r>
       <r>   -14.0048     1.5057     5.2785 </r>
       <r>   -13.9022     0.8329     5.3639 </r>
       <r>   -13.7997     0.6484     5.4304 </r>
       <r>   -13.6972     0.4902     5.4806 </r>
       <r>   -13.5946     0.5843     5.5405 </r>
       <r>   -13.4921     1.0089     5.6440 </r>
       <r>   -13.3896     1.0114     5.7477 </r>
       <r>   -13.2871     0.8201     5.8318 </r>
       <r>   -13.1845     0.8107     5.9149 </r>
       <r>   -13.0820     0.9949     6.0169 </r>
       <r>   -12.9795     1.0466     6.1242 </r>
       <r>   -12.8769     0.7624     6.2023 </r>
       <r>   -12.7744     1.0842     6.3135 </r>
       <r>   -12.6719     1.2266     6.4393 </r>
       <r>   -12.5694     1.4423     6.5871 </r>
       <r>   -12.4668     1.8265     6.7744 </r>
       <r>   -12.3643     1.5040     6.9286 </r>
       <r>   -12.2618     1.8108     7.1143 </r>
       <r>   -12.1592     1.6857     7.2871 </r>
       <r>   -12.0567     1.7300     7.4645 </r>
       <r>   -11.9542     2.6056     7.7316 </r>
       <r>   -11.8517     2.1283     7.9498 </r>
       <r>   -11.7491     1.4162     8.0950 </r>
       <r>   -11.6466     1.3179     8.2301 </r>
       <r>   -11.5441     1.1262     8.3456 </r>
       <r>   -11.4415     0.9566     8.4437 </r>
       <r>   -11.3390     0.6105     8.5063 </r>
       <r>   -11.2365     0.4688     8.5543 </r>
       <r>   -11.1340     0.6681     8.6228 </r>
       <r>   -11.0314     0.6345     8.6879 </r>
       <r>   -10.9289     0.7609     8.7659 </r>
       <r>   -10.8264     1.0260     8.8711 </r>
       <r>   -10.7238     1.3002     9.0044 </r>
       <r>   -10.6213     1.1353     9.1208 </r>
       <r>   -10.5188     1.7395     9.2992 </r>
       <r>   -10.4163     2.7364     9.5797 </r>
       <r>   -10.3137     1.8302     9.7674 </r>
       <r>   -10.2112     0.8459     9.8541 </r>
       <r>   -10.1087     0.6438     9.9201 </r>
       <r>   -10.0062     1.3945    10.0631 </r>
       <r>    -9.9036     2.0805    10.2764 </r>
       <r>    -9.8011     1.3748    10.4173 </r>
       <r>    -9.6986     0.6170    10.4806 </r>
       <r>    -9.5960     1.1027    10.5937 </r>
       <r>    -9.4935     2.0513    10.8040 </r>
       <r>    -9.3910     2.1899    11.0285 </r>
       <r>    -9.2885     1.9384    11.2273 </r>
       <r>    -9.1859     2.4090    11.4742 </r>
       <r>    -9.0834     1.9101    11.6701 </r>
       <r>    -8.9809     1.1744    11.7905 </r>
       <r>    -8.8783     2.0843    12.0042 </r>
       <r>    -8.7758     2.6851    12.2795 </r>
       <r>    -8.6733     1.4783    12.4311 </r>
       <r>    -8.5708     0.8636    12.5196 </r>
       <r>    -8.4682     1.9571    12.7203 </r>
       <r>    -8.3657     2.7635    13.0036 </r>
       <r>    -8.2632     2.0136    13.2101 </r>
       <r>    -8.1606     1.0459    13.3173 </r>
       <r>    -8.0581     1.8217    13.5041 </r>
       <r>    -7.9556     1.5620    13.6642 </r>
       <r>    -7.8531     1.9772    13.8669 </r>
       <r>    -7.7505     3.3781    14.2133 </r>
       <r>    -7.6480     2.4918    14.4688 </r>
       <r>    -7.5455     1.8525    14.6587 </r>
       <r>    -7.4429     1.6959    14.8326 </r>
       <r>    -7.3404     2.3577    15.0743 </r>
       <r>    -7.2379     2.6195    15.3429 </r>
       <r>    -7.1354     1.9682    15.5447 </r>
       <r>    -7.0328     1.8587    15.7352 </r>
       <r>    -6.9303     2.4106    15.9824 </r>
       <r>    -6.8278     2.9720    16.2871 </r>
       <r>    -6.7252     3.0951    16.6044 </r>
       <r>    -6.6227     3.6508    16.9788 </r>
       <r>    -6.5202     3.7569    17.3639 </r>
       <r>    -6.4177     3.5289    17.7257 </r>
       <r>    -6.3151     3.1027    18.0439 </r>
       <r>    -6.2126     2.7905    18.3300 </r>
       <r>    -6.1101     2.2348    18.5591 </r>
       <r>    -6.0076     2.1108    18.7755 </r>
       <r>    -5.9050     2.0244    18.9831 </r>
       <r>    -5.8025     1.9262    19.1806 </r>
       <r>    -5.7000     2.4655    19.4334 </r>
       <r>    -5.5974     2.0498    19.6435 </r>
       <r>    -5.4949     1.0923    19.7555 </r>
       <r>    -5.3924     1.5908    19.9186 </r>
       <r>    -5.2899     2.4366    20.1684 </r>
       <r>    -5.1873     2.2992    20.4042 </r>
       <r>    -5.0848     1.5768    20.5658 </r>
       <r>    -4.9823     1.7440    20.7446 </r>
       <r>    -4.8797     2.5020    21.0012 </r>
       <r>    -4.7772     1.9119    21.1972 </r>
       <r>    -4.6747     0.9589    21.2955 </r>
       <r>    -4.5722     1.6115    21.4607 </r>
       <r>    -4.4696     2.6084    21.7282 </r>
       <r>    -4.3671     2.4904    21.9835 </r>
       <r>    -4.2646     2.3168    22.2210 </r>
       <r>    -4.1620     2.5328    22.4807 </r>
       <r>    -4.0595     2.5675    22.7440 </r>
       <r>    -3.9570     2.7430    23.0252 </r>
       <r>    -3.8545     3.2247    23.3558 </r>
       <r>    -3.7519     3.6453    23.7296 </r>
       <r>    -3.6494     3.5607    24.0946 </r>
       <r>    -3.5469     2.9093    24.3929 </r>
       <r>    -3.4443     2.0715    24.6053 </r>
       <r>    -3.3418     1.6052    24.7699 </r>
       <r>    -3.2393     1.5600    24.9298 </r>
       <r>    -3.1368     1.2149    25.0544 </r>
       <r>    -3.0342     1.6856    25.2272 </r>
       <r>    -2.9317     2.1274    25.4453 </r>
       <r>    -2.8292     1.5644    25.6057 </r>
       <r>    -2.7266     1.2613    25.7351 </r>
       <r>    -2.6241     1.1506    25.8530 </r>
       <r>    -2.5216     1.8223    26.0399 </r>
       <r>    -2.4191     2.3596    26.2818 </r>
       <r>    -2.3165     1.3143    26.4165 </r>
       <r>    -2.2140     0.9049    26.5093 </r>
       <r>    -2.1115     1.2726    26.6398 </r>
       <r>    -2.0090     1.0813    26.7506 </r>
       <r>    -1.9064     1.0421    26.8575 </r>
       <r>    -1.8039     1.0141    26.9615 </r>
       <r>    -1.7014     1.0909    27.0733 </r>
       <r>    -1.5988     0.9708    27.1729 </r>
       <r>    -1.4963     1.2415    27.3001 </r>
       <r>    -1.3938     0.9702    27.3996 </r>
       <r>    -1.2913     0.5970    27.4608 </r>
       <r>    -1.1887     0.7994    27.5428 </r>
       <r>    -1.0862     0.8784    27.6328 </r>
       <r>    -0.9837     0.9153    27.7267 </r>
       <r>    -0.8811     0.7298    27.8015 </r>
       <r>    -0.7786     0.3394    27.8363 </r>
       <r>    -0.6761     0.1457    27.8513 </r>
       <r>    -0.5736     0.3289    27.8850 </r>
       <r>    -0.4710     0.5233    27.9386 </r>
       <r>    -0.3685     0.3906    27.9787 </r>
       <r>    -0.2660     0.3557    28.0151 </r>
       <r>    -0.1634     0.3894    28.0551 </r>
       <r>    -0.0609     0.4355    28.0997 </r>
       <r>     0.0416     0.3549    28.1361 </r>
       <r>     0.1441     0.6355    28.2013 </r>
       <r>     0.2467     1.1403    28.3182 </r>
       <r>     0.3492     1.3563    28.4572 </r>
       <r>     0.4517     1.3669    28.5974 </r>
       <r>     0.5543     1.0431    28.7043 </r>
       <r>     0.6568     0.6203    28.7679 </r>
       <r>     0.7593     1.1000    28.8807 </r>
       <r>     0.8618     1.4241    29.0267 </r>
       <r>     0.9644     0.8093    29.1097 </r>
       <r>     1.0669     0.7106    29.1826 </r>
       <r>     1.1694     1.6751    29.3543 </r>
       <r>     1.2720     2.3118    29.5913 </r>
       <r>     1.3745     1.9629    29.7926 </r>
       <r>     1.4770     1.5598    29.9525 </r>
       <r>     1.5795     1.0793    30.0632 </r>
       <r>     1.6821     0.8538    30.1507 </r>
       <r>     1.7846     1.3268    30.2868 </r>
       <r>     1.8871     1.4177    30.4321 </r>
       <r>     1.9896     1.7991    30.6166 </r>
       <r>     2.0922     1.5846    30.7790 </r>
       <r>     2.1947     1.1131    30.8932 </r>
       <r>     2.2972     1.3261    31.0291 </r>
       <r>     2.3998     0.8210    31.1133 </r>
       <r>     2.5023     1.1445    31.2306 </r>
       <r>     2.6048     1.9183    31.4273 </r>
       <r>     2.7073     1.8738    31.6194 </r>
       <r>     2.8099     1.5508    31.7784 </r>
       <r>     2.9124     1.1247    31.8938 </r>
       <r>     3.0149     1.1225    32.0088 </r>
       <r>     3.1175     1.9896    32.2128 </r>
       <r>     3.2200     2.6908    32.4887 </r>
       <r>     3.3225     2.4027    32.7351 </r>
       <r>     3.4250     1.8395    32.9237 </r>
       <r>     3.5276     2.3910    33.1688 </r>
       <r>     3.6301     2.8203    33.4580 </r>
       <r>     3.7326     2.3336    33.6972 </r>
       <r>     3.8352     2.4690    33.9504 </r>
       <r>     3.9377     2.5812    34.2150 </r>
       <r>     4.0402     2.3540    34.4564 </r>
       <r>     4.1427     2.7751    34.7409 </r>
       <r>     4.2453     3.1965    35.0686 </r>
       <r>     4.3478     3.1605    35.3927 </r>
       <r>     4.4503     2.2631    35.6247 </r>
       <r>     4.5529     2.5360    35.8847 </r>
       <r>     4.6554     3.6522    36.2592 </r>
       <r>     4.7579     2.6950    36.5355 </r>
       <r>     4.8604     2.7332    36.8157 </r>
       <r>     4.9630     3.6225    37.1871 </r>
       <r>     5.0655     3.7734    37.5740 </r>
       <r>     5.1680     3.9643    37.9805 </r>
       <r>     5.2706     3.4242    38.3315 </r>
       <r>     5.3731     2.7310    38.6115 </r>
       <r>     5.4756     3.0528    38.9245 </r>
       <r>     5.5781     3.6041    39.2941 </r>
       <r>     5.6807     3.4954    39.6524 </r>
       <r>     5.7832     2.9746    39.9574 </r>
       <r>     5.8857     2.7550    40.2399 </r>
       <r>     5.9883     2.8284    40.5299 </r>
       <r>     6.0908     3.0694    40.8446 </r>
       <r>     6.1933     2.4017    41.0908 </r>
       <r>     6.2958     2.4561    41.3426 </r>
       <r>     6.3984     2.6103    41.6103 </r>
       <r>     6.5009     3.1890    41.9372 </r>
       <r>     6.6034     3.6097    42.3073 </r>
       <r>     6.7059     4.0462    42.7222 </r>
       <r>     6.8085     3.5330    43.0844 </r>
       <r>     6.9110     3.5247    43.4458 </r>
       <r>     7.0135     3.2900    43.7831 </r>
       <r>     7.1161     3.5637    44.1485 </r>
       <r>     7.2186     4.2115    44.5803 </r>
       <r>     7.3211     5.6026    45.1547 </r>
       <r>     7.4236     5.3347    45.7017 </r>
       <r>     7.5262     3.5456    46.0652 </r>
       <r>     7.6287     3.4214    46.4160 </r>
       <r>     7.7312     4.6167    46.8893 </r>
       <r>     7.8338     4.1161    47.3113 </r>
       <r>     7.9363     2.9438    47.6132 </r>
       <r>     8.0388     2.2037    47.8391 </r>
       <r>     8.1413     1.2176    47.9639 </r>
       <r>     8.2439     0.2891    47.9936 </r>
       <r>     8.3464     0.0504    47.9987 </r>
       <r>     8.4489     0.0116    47.9999 </r>
       <r>     8.5515     0.0006    48.0000 </r>
       <r>     8.6540     0.0000    48.0000 </r>
       <r>     8.7565     0.0000    48.0000 </r>
       <r>     8.8590     0.0000    48.0000 </r>
       <r>     8.9616     0.0000    48.0000 </r>
       <r>     9.0641     0.0000    48.0000 </r>
       <r>     9.1666     0.0000    48.0000 </r>
       <r>     9.2692     0.0000    48.0000 </r>
       <r>     9.3717     0.0000    48.0000 </r>
       <r>     9.4742     0.0000    48.0000 </r>
       <r>     9.5767     0.0000    48.0000 </r>
       <r>     9.6793     0.0000    48.0000 </r>
      </set>
     </set>
    </array>
   </total>
  </dos>
 </calculation>
 <structure name="finalpos" >
  <crystal>
   <varray name="basis" >
    <v>       4.31973471       2.49400000       0.00000000 </v>
    <v>      -4.31973471       2.49400000       0.00000000 </v>
    <v>       0.00000000       0.00000000      15.00000000 </v>
   </varray>
   <i name="volume">    323.20255131 </i>
   <varray name="rec_basis" >
    <v>       0.11574785       0.20048115       0.00000000 </v>
    <v>      -0.11574785       0.20048115       0.00000000 </v>
    <v>       0.00000000       0.00000000       0.06666667 </v>
   </varray>
  </crystal>
  <varray name="positions" >
   <v>       0.67785244      -0.00957017       0.16715973 </v>
   <v>       0.34094744      -0.00943889       0.16615467 </v>
   <v>       0.00957017       0.32214656       0.16715973 </v>
   <v>       0.00943889       0.65905156       0.16615467 </v>
   <v>       0.34086854       0.32223031       0.16603083 </v>
   <v>       0.67776869       0.65913046       0.16603083 </v>
   <v>       0.67585235       0.32414665       0.15455425 </v>
   <v>       0.34228922       0.65770978       0.17889136 </v>
   <v>       0.24067693       0.25928556       0.40255775 </v>
   <v>       0.40731633       0.09265882       0.40255426 </v>
   <v>       0.24066606       0.75933294       0.40261774 </v>
   <v>       0.40735607       0.59264293       0.40263428 </v>
   <v>       0.74066849       0.25933051       0.40249860 </v>
   <v>       0.90733442       0.09266458       0.40242262 </v>
   <v>       0.74071344       0.75932207       0.40255775 </v>
   <v>       0.90734018       0.59268267       0.40255426 </v>
  </varray>
 </structure>
</modeling>
