Lattice                                 
           1
     4.368232    2.522000    0.000000
    -4.368232    2.522000    0.000000
     0.000000    0.000000   15.000000
   B    C 
     2    14
Direct configuration=     1
   0.33833034  0.66916432  0.10000000
   0.67165522  0.33584146  0.10000000
   0.16373946  0.31999962  0.10000000
   0.32250218  0.16126397  0.10000000
   0.16376430  0.84376384  0.10000000
   0.84623863  0.16123684  0.10000000
   0.68749850  0.84373000  0.10000000
   0.84626736  0.68499594  0.10000000
   0.24999933  0.24999967  0.32633333
   0.41666633  0.08333267  0.32633333
   0.24999933  0.74999967  0.32633333
   0.41666633  0.58333267  0.32633333
   0.74999933  0.24999967  0.32633333
   0.91666633  0.08333267  0.32633333
   0.74999933  0.74999967  0.32633333
   0.91666633  0.58333267  0.32633333
Direct configuration=     2
   0.33844085  0.66905641  0.10014318
   0.67179341  0.33570203  0.10008375
   0.16703785  0.32654548  0.09994287
   0.32873854  0.16441370  0.09997395
   0.16686800  0.84065441  0.09995488
   0.84294109  0.16451732  0.09995918
   0.68096884  0.84045724  0.09994325
   0.84309249  0.67877109  0.09997419
   0.24986392  0.24959687  0.32640589
   0.41630190  0.08328209  0.32639651
   0.24982218  0.75018860  0.32627006
   0.41677166  0.58322373  0.32622972
   0.75003432  0.24995600  0.32620860
   0.91686805  0.08312337  0.32638198
   0.75040279  0.75014199  0.32640737
   0.91671276  0.58369499  0.32639129
Direct configuration=     3
   0.33836030  0.66913507  0.10003882
   0.67169268  0.33580366  0.10002270
   0.16463369  0.32177426  0.09998451
   0.32419292  0.16211789  0.09999294
   0.16460574  0.84292085  0.09998777
   0.84534464  0.16212621  0.09998893
   0.68572825  0.84284273  0.09998461
   0.84540662  0.68330833  0.09999300
   0.24996262  0.24989047  0.32635300
   0.41656753  0.08331895  0.32635046
   0.24995131  0.75005089  0.32631618
   0.41669489  0.58330313  0.32630524
   0.75000882  0.24998783  0.32629952
   0.91672102  0.08327592  0.32634652
   0.75010871  0.75003825  0.32635341
   0.91667892  0.58343090  0.32634905
Direct configuration=     4
   0.33836061  0.66913994  0.10013232
   0.67169189  0.33580465  0.10007727
   0.16458302  0.32177836  0.09994811
   0.32419835  0.16215585  0.09997241
   0.16458559  0.84292684  0.09996192
   0.84537084  0.16211819  0.09995816
   0.68571645  0.84289860  0.09994842
   0.84536379  0.68330722  0.09997280
   0.24995705  0.24983796  0.32640304
   0.41654038  0.08329372  0.32638881
   0.24993650  0.75006510  0.32627634
   0.41671674  0.58328137  0.32623780
   0.75001501  0.24997955  0.32622232
   0.91675899  0.08323715  0.32637867
   0.75015962  0.75004277  0.32640429
   0.91670383  0.58345807  0.32638398
Direct configuration=     5
   0.33836072  0.66914163  0.10016476
   0.67169162  0.33580499  0.10009620
   0.16456545  0.32177978  0.09993548
   0.32420023  0.16216902  0.09996529
   0.16457860  0.84292892  0.09995295
   0.84537993  0.16211542  0.09994749
   0.68571236  0.84291797  0.09993587
   0.84534893  0.68330683  0.09996579
   0.24995512  0.24981974  0.32642040
   0.41653097  0.08328497  0.32640211
   0.24993136  0.75007002  0.32626252
   0.41672431  0.58327382  0.32621441
   0.75001716  0.24997668  0.32619555
   0.91677216  0.08322371  0.32638982
   0.75017727  0.75004433  0.32642194
   0.91671247  0.58346749  0.32639609
Direct configuration=     6
   0.33829018  0.66919011  0.10024919
   0.67169499  0.33581528  0.10015100
   0.16472982  0.32182760  0.09990642
   0.32409790  0.16211595  0.09993722
   0.16454053  0.84298468  0.09994126
   0.84526413  0.16220555  0.09990259
   0.68569857  0.84279665  0.09990720
   0.84536493  0.68339593  0.09993819
   0.25001839  0.24988856  0.32646393
   0.41663898  0.08329741  0.32641438
   0.25001406  0.74998635  0.32623398
   0.41671640  0.58327765  0.32617144
   0.75005328  0.24994309  0.32616023
   0.91673008  0.08326383  0.32641847
   0.75010936  0.74998081  0.32646537
   0.91669705  0.58335590  0.32640580
Direct configuration=     7
   0.33833533  0.66915908  0.10019515
   0.67169284  0.33580870  0.10011593
   0.16462462  0.32179699  0.09992502
   0.32416340  0.16214992  0.09995518
   0.16456490  0.84294899  0.09994874
   0.84533825  0.16214786  0.09993133
   0.68570740  0.84287430  0.09992555
   0.84535469  0.68333890  0.09995585
   0.24997790  0.24984451  0.32643607
   0.41656985  0.08328945  0.32640653
   0.24996113  0.75003991  0.32625224
   0.41672147  0.58327520  0.32619894
   0.75003016  0.24996459  0.32618283
   0.91675701  0.08323815  0.32640013
   0.75015283  0.75002147  0.32643757
   0.91670692  0.58342732  0.32639959
Direct configuration=     8
   0.33831242  0.66918772  0.10022095
   0.67165119  0.33584536  0.10013417
   0.16458708  0.32181729  0.09991649
   0.32417737  0.16213693  0.09994145
   0.16452873  0.84296532  0.09995301
   0.84535228  0.16215717  0.09990454
   0.68567731  0.84290433  0.09991734
   0.84537737  0.68333596  0.09994243
   0.25000485  0.24986253  0.32644724
   0.41661824  0.08328334  0.32639584
   0.24999488  0.75000463  0.32624739
   0.41672980  0.58326544  0.32620142
   0.75004800  0.24994655  0.32619646
   0.91675292  0.08324161  0.32641141
   0.75013406  0.74999341  0.32644804
   0.91671216  0.58337775  0.32638849
Direct configuration=     9
   0.33832243  0.66917520  0.10020967
   0.67166939  0.33582933  0.10012620
   0.16460349  0.32180842  0.09992022
   0.32417126  0.16214260  0.09994745
   0.16454454  0.84295818  0.09995114
   0.84534615  0.16215310  0.09991625
   0.68569046  0.84289121  0.09992093
   0.84536745  0.68333725  0.09994830
   0.24999307  0.24985466  0.32644236
   0.41659709  0.08328601  0.32640051
   0.24998013  0.75002005  0.32624951
   0.41672616  0.58326970  0.32620034
   0.75004021  0.24995444  0.32619050
   0.91675471  0.08324010  0.32640648
   0.75014226  0.75000567  0.32644346
   0.91670987  0.58339941  0.32639334
Direct configuration=    10
   0.33829880  0.66919884  0.10022725
   0.67165273  0.33584929  0.10013677
   0.16458801  0.32181745  0.09991209
   0.32415675  0.16217768  0.09993799
   0.16454023  0.84296529  0.09995697
   0.84533345  0.16216724  0.09989235
   0.68568393  0.84291583  0.09991321
   0.84532510  0.68334878  0.09993922
   0.25000680  0.24983199  0.32644780
   0.41660965  0.08326542  0.32638872
   0.24999254  0.75000637  0.32624679
   0.41674588  0.58324917  0.32621110
   0.75005568  0.24993742  0.32620960
   0.91677598  0.08321790  0.32641723
   0.75016349  0.74999058  0.32644814
   0.91672962  0.58338609  0.32638144
Direct configuration=    11
   0.33829048  0.66920716  0.10023344
   0.67164686  0.33585631  0.10014049
   0.16458257  0.32182062  0.09990922
   0.32415165  0.16219002  0.09993466
   0.16453871  0.84296780  0.09995902
   0.84532899  0.16217221  0.09988393
   0.68568163  0.84292449  0.09991050
   0.84531020  0.68335283  0.09993603
   0.25001163  0.24982402  0.32644972
   0.41661407  0.08325817  0.32638457
   0.24999691  0.75000156  0.32624583
   0.41675283  0.58324194  0.32621488
   0.75006112  0.24993143  0.32621632
   0.91678347  0.08321009  0.32642102
   0.75017096  0.74998527  0.32644978
   0.91673658  0.58338141  0.32637725
Direct configuration=    12
   0.33828582  0.66921377  0.10024282
   0.67163783  0.33586490  0.10014049
   0.16457075  0.32185516  0.09989825
   0.32412258  0.16219281  0.09993307
   0.16450037  0.84299995  0.09996392
   0.84530342  0.16220284  0.09986597
   0.68564840  0.84293800  0.09990000
   0.84530863  0.68338719  0.09993486
   0.25002777  0.24978964  0.32645108
   0.41661910  0.08323554  0.32638070
   0.25001069  0.74998707  0.32624288
   0.41677266  0.58322072  0.32622772
   0.75008048  0.24991095  0.32622873
   0.91680821  0.08318364  0.32643222
   0.75020437  0.74996831  0.32645061
   0.91675760  0.58337486  0.32637335
Direct configuration=    13
   0.33828459  0.66921551  0.10024529
   0.67163545  0.33586717  0.10014049
   0.16456764  0.32186426  0.09989535
   0.32411492  0.16219354  0.09993266
   0.16449027  0.84300843  0.09996521
   0.84529668  0.16221092  0.09986124
   0.68563964  0.84294156  0.09989723
   0.84530822  0.68339625  0.09993455
   0.25003202  0.24978057  0.32645143
   0.41662042  0.08322958  0.32637968
   0.25001432  0.74998325  0.32624211
   0.41677788  0.58321512  0.32623110
   0.75008559  0.24990555  0.32623200
   0.91681473  0.08317666  0.32643517
   0.75021317  0.74996384  0.32645083
   0.91676314  0.58337313  0.32637232
Direct configuration=    14
   0.33826544  0.66923564  0.10024628
   0.67161757  0.33588695  0.10013360
   0.16454580  0.32188229  0.09988428
   0.32409544  0.16221604  0.09993616
   0.16447233  0.84302700  0.09997002
   0.84527817  0.16223153  0.09984872
   0.68562314  0.84296616  0.09988663
   0.84528535  0.68341610  0.09993846
   0.25005249  0.24976276  0.32645204
   0.41664250  0.08320992  0.32638268
   0.25003543  0.74996086  0.32624079
   0.41679642  0.58319531  0.32624022
   0.75010498  0.24988500  0.32623661
   0.91683229  0.08315789  0.32644362
   0.75022979  0.74994214  0.32645125
   0.91678153  0.58334973  0.32637530
Direct configuration=    15
   0.33820798  0.66929601  0.10024925
   0.67156393  0.33594631  0.10011293
   0.16448030  0.32193637  0.09985107
   0.32403701  0.16228354  0.09994666
   0.16441851  0.84308273  0.09998443
   0.84522263  0.16229335  0.09981116
   0.68557363  0.84303998  0.09985484
   0.84521674  0.68347568  0.09995019
   0.25011390  0.24970934  0.32645387
   0.41670875  0.08315094  0.32639167
   0.25009877  0.74989369  0.32623685
   0.41685205  0.58313589  0.32626760
   0.75016315  0.24982337  0.32625044
   0.91688494  0.08310158  0.32646897
   0.75027967  0.74987702  0.32645250
   0.91683670  0.58327955  0.32638422
Direct configuration=    16
   0.33809308  0.66941675  0.10025521
   0.67145665  0.33606502  0.10007159
   0.16434930  0.32204453  0.09978464
   0.32392015  0.16241855  0.09996766
   0.16431088  0.84319419  0.10001325
   0.84511156  0.16241700  0.09973605
   0.68547463  0.84318761  0.09979126
   0.84507951  0.68359482  0.09997366
   0.25023672  0.24960249  0.32645753
   0.41684125  0.08303298  0.32640966
   0.25022544  0.74975934  0.32622896
   0.41696329  0.58301704  0.32632234
   0.75027949  0.24970009  0.32627809
   0.91699025  0.08298896  0.32651967
   0.75037941  0.74974678  0.32645502
   0.91694705  0.58313919  0.32640207
Direct configuration=    17
   0.33813567  0.66937200  0.10025300
   0.67149642  0.33602102  0.10008691
   0.16439785  0.32200444  0.09980926
   0.32396347  0.16236851  0.09995988
   0.16435078  0.84315288  0.10000257
   0.84515273  0.16237117  0.09976389
   0.68551133  0.84313289  0.09981483
   0.84513038  0.68355066  0.09996496
   0.25019120  0.24964209  0.32645618
   0.41679214  0.08307670  0.32640299
   0.25017849  0.74980913  0.32623188
   0.41692206  0.58306109  0.32630205
   0.75023637  0.24974579  0.32626784
   0.91695122  0.08303070  0.32650088
   0.75034244  0.74979505  0.32645409
   0.91690615  0.58319121  0.32639545
Direct configuration=    18
   0.33812247  0.66938641  0.10025066
   0.67148114  0.33603639  0.10008314
   0.16438670  0.32201875  0.09980388
   0.32395218  0.16238024  0.09996105
   0.16433774  0.84316592  0.10000733
   0.84514092  0.16238462  0.09975501
   0.68549735  0.84314455  0.09980975
   0.84511979  0.68356342  0.09996640
   0.25020327  0.24962876  0.32645873
   0.41680466  0.08306309  0.32640502
   0.25019043  0.74979632  0.32623361
   0.41693522  0.58304720  0.32630431
   0.75024867  0.24973256  0.32627024
   0.91696416  0.08301703  0.32650346
   0.75035491  0.74978211  0.32645662
   0.91691903  0.58317797  0.32639745
Direct configuration=    19
   0.33808289  0.66942965  0.10024365
   0.67143533  0.33608251  0.10007182
   0.16435326  0.32206165  0.09978776
   0.32391834  0.16241545  0.09996456
   0.16429862  0.84320504  0.10002160
   0.84510550  0.16242499  0.09972837
   0.68545542  0.84317952  0.09979451
   0.84508804  0.68360171  0.09997071
   0.25023950  0.24958875  0.32646637
   0.41684223  0.08302224  0.32641109
   0.25022626  0.74975790  0.32623879
   0.41697470  0.58300551  0.32631109
   0.75028559  0.24969290  0.32627744
   0.91700297  0.08297600  0.32651122
   0.75039232  0.74974329  0.32646422
   0.91695770  0.58313822  0.32640346
Direct configuration=    20
   0.33800373  0.66951614  0.10022963
   0.67134370  0.33617476  0.10004918
   0.16428636  0.32214746  0.09975551
   0.32385064  0.16248587  0.09997159
   0.16422039  0.84328328  0.10005015
   0.84503465  0.16250571  0.09967509
   0.68537155  0.84324947  0.09976403
   0.84502454  0.68367828  0.09997933
   0.25031197  0.24950875  0.32648167
   0.41691736  0.08294055  0.32642323
   0.25029790  0.74968104  0.32624914
   0.41705367  0.58292213  0.32632466
   0.75035943  0.24961358  0.32629185
   0.91708060  0.08289394  0.32652674
   0.75046714  0.74966565  0.32647941
   0.91703503  0.58305874  0.32641546
Direct configuration=    21
   0.33784541  0.66968911  0.10020159
   0.67116045  0.33635924  0.10000391
   0.16415256  0.32231909  0.09969101
   0.32371525  0.16262670  0.09998564
   0.16406394  0.84343976  0.10010724
   0.84489295  0.16266716  0.09956853
   0.68520382  0.84338935  0.09970307
   0.84489753  0.68383142  0.09999657
   0.25045689  0.24934873  0.32651226
   0.41706762  0.08277717  0.32644753
   0.25044119  0.74952732  0.32626984
   0.41721161  0.58275538  0.32635178
   0.75050712  0.24945494  0.32632065
   0.91723585  0.08272982  0.32655778
   0.75061679  0.74951038  0.32650979
   0.91718969  0.58289978  0.32643947
Direct configuration=    22
   0.33752876  0.67003505  0.10014550
   0.67079395  0.33672822  0.09991337
   0.16388497  0.32266233  0.09956200
   0.32344447  0.16290836  0.10001374
   0.16375102  0.84375273  0.10022144
   0.84460955  0.16299006  0.09935541
   0.68486837  0.84366913  0.09958116
   0.84464353  0.68413771  0.10003104
   0.25074674  0.24902870  0.32657345
   0.41736814  0.08245040  0.32649611
   0.25072777  0.74921988  0.32631125
   0.41752748  0.58242187  0.32640603
   0.75080248  0.24913765  0.32637827
   0.91754636  0.08240158  0.32661986
   0.75091607  0.74919982  0.32657056
   0.91749901  0.58258184  0.32648749
Direct configuration=    23
   0.33750605  0.67005833  0.10014061
   0.67077368  0.33675094  0.09990764
   0.16386441  0.32268457  0.09955308
   0.32341963  0.16293277  0.10001524
   0.16373068  0.84377613  0.10023001
   0.84458544  0.16301397  0.09933970
   0.68484886  0.84369295  0.09957273
   0.84461871  0.68416244  0.10003301
   0.25076942  0.24900454  0.32657833
   0.41738961  0.08242716  0.32649982
   0.25075041  0.74919594  0.32631523
   0.41754905  0.58239880  0.32640901
   0.75082497  0.24911385  0.32638221
   0.91756813  0.08237828  0.32662341
   0.75093892  0.74917583  0.32657545
   0.91752071  0.58255884  0.32649118
Direct configuration=    24
   0.33743791  0.67012817  0.10012593
   0.67071287  0.33681910  0.09989043
   0.16380271  0.32275129  0.09952631
   0.32334513  0.16300600  0.10001975
   0.16366967  0.84384634  0.10025575
   0.84451313  0.16308569  0.09929257
   0.68479033  0.84376440  0.09954746
   0.84454426  0.68423662  0.10003892
   0.25083745  0.24893208  0.32659298
   0.41745402  0.08235744  0.32651097
   0.25081833  0.74912410  0.32632718
   0.41761373  0.58232959  0.32641795
   0.75089244  0.24904247  0.32639405
   0.91763343  0.08230838  0.32663405
   0.75100746  0.74910385  0.32659013
   0.91758580  0.58248981  0.32650222
Direct configuration=    25
   0.33730163  0.67026783  0.10009658
   0.67059126  0.33695544  0.09985602
   0.16367931  0.32288472  0.09947278
   0.32319611  0.16315247  0.10002876
   0.16354764  0.84398675  0.10030722
   0.84436849  0.16322913  0.09919833
   0.68467327  0.84390731  0.09949692
   0.84439537  0.68438498  0.10005074
   0.25097353  0.24878716  0.32662228
   0.41758283  0.08221801  0.32653326
   0.25095418  0.74898043  0.32635108
   0.41774311  0.58219116  0.32643583
   0.75102738  0.24889970  0.32641772
   0.91776404  0.08216858  0.32665535
   0.75114453  0.74895989  0.32661948
   0.91771598  0.58235177  0.32652432
Direct configuration=    26
   0.33702908  0.67054716  0.10003789
   0.67034804  0.33722810  0.09978720
   0.16343251  0.32315159  0.09936570
   0.32289808  0.16344540  0.10004678
   0.16330357  0.84426758  0.10041016
   0.84407922  0.16351601  0.09900984
   0.68443916  0.84419313  0.09939584
   0.84409757  0.68468171  0.10007437
   0.25124568  0.24849732  0.32668087
   0.41784047  0.08193915  0.32657784
   0.25122587  0.74869309  0.32639889
   0.41800187  0.58191430  0.32647159
   0.75129725  0.24861416  0.32646506
   0.91802527  0.08188899  0.32669795
   0.75141868  0.74867197  0.32667819
   0.91797635  0.58207567  0.32656852
Direct configuration=    27
   0.33648396  0.67110583  0.09992049
   0.66986160  0.33777343  0.09964956
   0.16293892  0.32368532  0.09915156
   0.32230202  0.16403126  0.10008282
   0.16281544  0.84482923  0.10061605
   0.84350067  0.16408978  0.09863285
   0.68397093  0.84476477  0.09919368
   0.84350199  0.68527518  0.10012164
   0.25178998  0.24791763  0.32679806
   0.41835573  0.08138142  0.32666700
   0.25176924  0.74811841  0.32649449
   0.41851939  0.58136059  0.32654310
   0.75183700  0.24804308  0.32655974
   0.91854771  0.08132979  0.32678314
   0.75196698  0.74809614  0.32679560
   0.91849709  0.58152348  0.32665691
Direct configuration=    28
   0.33672890  0.67085479  0.09997324
   0.67008018  0.33752839  0.09971141
   0.16316071  0.32344549  0.09924778
   0.32256986  0.16376801  0.10006662
   0.16303478  0.84457686  0.10052353
   0.84376064  0.16383196  0.09880225
   0.68418133  0.84450791  0.09928452
   0.84376961  0.68500851  0.10010040
   0.25154540  0.24817811  0.32674540
   0.41812420  0.08163203  0.32662694
   0.25152508  0.74837664  0.32645153
   0.41828684  0.58160940  0.32651097
   0.75159447  0.24829969  0.32651719
   0.91831295  0.08158106  0.32674486
   0.75172061  0.74835488  0.32674284
   0.91826310  0.58177161  0.32661719
Direct configuration=    29
   0.33658983  0.67100917  0.09993646
   0.66993454  0.33768249  0.09967875
   0.16295037  0.32361384  0.09918299
   0.32241342  0.16394448  0.10007533
   0.16285407  0.84475212  0.10058152
   0.84361297  0.16400463  0.09869155
   0.68401457  0.84471576  0.09922311
   0.84361589  0.68518306  0.10011245
   0.25171198  0.24800892  0.32677810
   0.41829109  0.08146118  0.32665717
   0.25169289  0.74819853  0.32648454
   0.41844492  0.58144062  0.32653183
   0.75175711  0.24812738  0.32654282
   0.91847217  0.08141118  0.32676681
   0.75187964  0.74817813  0.32677583
   0.91842322  0.58159383  0.32664738
Direct configuration=    30
   0.33633696  0.67128986  0.09986960
   0.66966973  0.33796268  0.09961938
   0.16256793  0.32391993  0.09906520
   0.32212898  0.16426533  0.10009116
   0.16252552  0.84507078  0.10068695
   0.84334449  0.16431857  0.09849029
   0.68371138  0.84509367  0.09911147
   0.84333640  0.68550042  0.10013436
   0.25201484  0.24770132  0.32683756
   0.41859450  0.08115056  0.32671215
   0.25199800  0.74787470  0.32654457
   0.41873233  0.58113376  0.32656976
   0.75205282  0.24781409  0.32658942
   0.91876165  0.08110230  0.32680673
   0.75216879  0.74785676  0.32683581
   0.91871433  0.58127062  0.32670227
Direct configuration=    31
   0.33629296  0.67133848  0.09986201
   0.66961904  0.33801297  0.09962309
   0.16252964  0.32397885  0.09904603
   0.32209573  0.16431657  0.10009194
   0.16248056  0.84511961  0.10069172
   0.84329958  0.16436477  0.09846972
   0.68365349  0.84512957  0.09909277
   0.84329293  0.68554081  0.10013590
   0.25205474  0.24766201  0.32683886
   0.41864816  0.08110019  0.32672472
   0.25203767  0.74783091  0.32655610
   0.41878352  0.58108073  0.32657887
   0.75209354  0.24776923  0.32659250
   0.91880998  0.08105238  0.32680990
   0.75220396  0.74781277  0.32683740
   0.91876318  0.58121549  0.32671513
Direct configuration=    32
   0.33616095  0.67148434  0.09983924
   0.66946696  0.33816381  0.09963421
   0.16241476  0.32415562  0.09898852
   0.32199596  0.16447029  0.10009430
   0.16234570  0.84526612  0.10070604
   0.84316484  0.16450337  0.09840802
   0.68347981  0.84523728  0.09903668
   0.84316251  0.68566200  0.10014053
   0.25217444  0.24754410  0.32684278
   0.41880912  0.08094907  0.32676245
   0.25215669  0.74769954  0.32659068
   0.41893707  0.58092163  0.32660622
   0.75221568  0.24763466  0.32660173
   0.91895495  0.08090262  0.32681941
   0.75230948  0.74768081  0.32684216
   0.91890974  0.58105008  0.32675372
Direct configuration=    33
   0.33608114  0.67156084  0.09983199
   0.66941317  0.33822973  0.09965289
   0.16237700  0.32420754  0.09896572
   0.32191911  0.16453909  0.10009159
   0.16230296  0.84533540  0.10069801
   0.84309390  0.16455794  0.09839530
   0.68343947  0.84528575  0.09901384
   0.84309141  0.68573027  0.10013848
   0.25224320  0.24746951  0.32683867
   0.41885457  0.08089330  0.32677890
   0.25222375  0.74763105  0.32660949
   0.41898590  0.58086678  0.32661950
   0.75228460  0.24756421  0.32660530
   0.91900675  0.08084472  0.32681757
   0.75238230  0.74761039  0.32683860
   0.91895946  0.58099879  0.32677084
Direct configuration=    34
   0.33599088  0.67164735  0.09982378
   0.66935234  0.33830427  0.09967401
   0.16233430  0.32426625  0.09893995
   0.32183221  0.16461690  0.10008852
   0.16225463  0.84541373  0.10068893
   0.84301368  0.16461965  0.09838092
   0.68339385  0.84534056  0.09898800
   0.84301101  0.68580746  0.10013616
   0.25232096  0.24738516  0.32683403
   0.41890596  0.08083025  0.32679750
   0.25229958  0.74755362  0.32663077
   0.41904112  0.58080476  0.32663451
   0.75236252  0.24748455  0.32660933
   0.91906531  0.08077924  0.32681550
   0.75246465  0.74753077  0.32683456
   0.91901567  0.58094081  0.32679020
Direct configuration=    35
   0.33593517  0.67170803  0.09981738
   0.66929926  0.33835987  0.09969482
   0.16226196  0.32431955  0.09892420
   0.32178150  0.16466990  0.10008298
   0.16219069  0.84547778  0.10067576
   0.84297030  0.16466991  0.09837698
   0.68333825  0.84540327  0.09897183
   0.84297489  0.68586644  0.10013090
   0.25237767  0.24732177  0.32683069
   0.41895357  0.08077457  0.32680899
   0.25235549  0.74749503  0.32664907
   0.41909042  0.58075125  0.32664442
   0.75241888  0.24742568  0.32661451
   0.91911833  0.08072192  0.32681010
   0.75252516  0.74747133  0.32683170
   0.91906713  0.58088904  0.32680233
Direct configuration=    36
   0.33580733  0.67184727  0.09980269
   0.66917743  0.33848747  0.09974258
   0.16209594  0.32444187  0.09888806
   0.32166513  0.16479151  0.10007028
   0.16204395  0.84562476  0.10064552
   0.84287076  0.16478523  0.09836795
   0.68321068  0.84554716  0.09893474
   0.84289200  0.68600181  0.10011883
   0.25250782  0.24717630  0.32682301
   0.41906282  0.08064680  0.32683535
   0.25248380  0.74736057  0.32669107
   0.41920357  0.58062847  0.32666716
   0.75254820  0.24729058  0.32662642
   0.91923998  0.08059038  0.32679772
   0.75266403  0.74733490  0.32682512
   0.91918522  0.58077025  0.32683018
Direct configuration=    37
   0.33574432  0.67191542  0.09979203
   0.66911259  0.33855459  0.09976494
   0.16202286  0.32453812  0.09887970
   0.32160482  0.16488633  0.10005746
   0.16197253  0.84570544  0.10062503
   0.84278773  0.16486498  0.09837094
   0.68312096  0.84561764  0.09892549
   0.84280802  0.68607190  0.10010584
   0.25256661  0.24711643  0.32682463
   0.41915835  0.08055756  0.32684269
   0.25254385  0.74729215  0.32671292
   0.41929325  0.58053733  0.32667406
   0.75260725  0.24722337  0.32663727
   0.91932653  0.08050273  0.32678834
   0.75271567  0.74726784  0.32682721
   0.91927332  0.58067351  0.32683813
Direct configuration=    38
   0.33567621  0.67198908  0.09978052
   0.66904251  0.33862714  0.09978912
   0.16194386  0.32464218  0.09887066
   0.32153963  0.16498883  0.10004361
   0.16189532  0.84579266  0.10060287
   0.84269798  0.16495118  0.09837418
   0.68302397  0.84569384  0.09891549
   0.84271723  0.68614767  0.10009179
   0.25263017  0.24705170  0.32682639
   0.41926162  0.08046110  0.32685061
   0.25260877  0.74721820  0.32673654
   0.41939019  0.58043881  0.32668151
   0.75267109  0.24715071  0.32664901
   0.91942008  0.08040797  0.32677819
   0.75277149  0.74719535  0.32682947
   0.91936856  0.58056893  0.32684672
Direct configuration=    39
   0.33560132  0.67206624  0.09976841
   0.66897313  0.33870545  0.09979410
   0.16189112  0.32472396  0.09887913
   0.32145650  0.16508477  0.10002675
   0.16184040  0.84587139  0.10058095
   0.84260612  0.16503175  0.09838775
   0.68295372  0.84576180  0.09892279
   0.84261530  0.68622493  0.10007405
   0.25271171  0.24697390  0.32683482
   0.41933613  0.08038761  0.32685036
   0.25269136  0.74713192  0.32674710
   0.41946147  0.58036153  0.32668227
   0.75275268  0.24706514  0.32665999
   0.91948586  0.08033637  0.32677364
   0.75284577  0.74711012  0.32683801
   0.91943609  0.58048846  0.32684655
Direct configuration=    40
   0.33542778  0.67224503  0.09974035
   0.66881234  0.33888692  0.09980565
   0.16176891  0.32491348  0.09889875
   0.32126386  0.16530710  0.09998770
   0.16171313  0.84605384  0.10053016
   0.84239324  0.16521848  0.09841921
   0.68279091  0.84591929  0.09893970
   0.84237909  0.68640398  0.10003293
   0.25290069  0.24679361  0.32685437
   0.41950879  0.08021730  0.32684979
   0.25288275  0.74693199  0.32677155
   0.41962665  0.58018244  0.32668401
   0.75294176  0.24686684  0.32668543
   0.91963827  0.08017044  0.32676309
   0.75301789  0.74691262  0.32685781
   0.91959260  0.58030196  0.32684616
Direct configuration=    41
   0.33539799  0.67227829  0.09973593
   0.66877808  0.33892191  0.09980479
   0.16173318  0.32494557  0.09890346
   0.32123361  0.16533781  0.09998108
   0.16167952  0.84608702  0.10052031
   0.84236519  0.16525131  0.09842664
   0.68275882  0.84595481  0.09894390
   0.84235277  0.68643763  0.10002584
   0.25293377  0.24675906  0.32685762
   0.41953822  0.08018548  0.32684985
   0.25291603  0.74689708  0.32677352
   0.41965640  0.58015033  0.32668457
   0.75297473  0.24683219  0.32668880
   0.91966748  0.08013883  0.32676311
   0.75305087  0.74687794  0.32686105
   0.91962200  0.58027007  0.32684619
Direct configuration=    42
   0.33530862  0.67237807  0.09972268
   0.66867530  0.33902690  0.09980222
   0.16162601  0.32504186  0.09891756
   0.32114288  0.16542995  0.09996120
   0.16157869  0.84618657  0.10049078
   0.84228105  0.16534981  0.09844891
   0.68266252  0.84606135  0.09895649
   0.84227381  0.68653858  0.10000456
   0.25303303  0.24665539  0.32686737
   0.41962651  0.08009002  0.32685004
   0.25301587  0.74679232  0.32677944
   0.41974564  0.58005401  0.32668625
   0.75307361  0.24672823  0.32669892
   0.91975510  0.08004401  0.32676320
   0.75314982  0.74677387  0.32687079
   0.91971021  0.58017441  0.32684628
Direct configuration=    43
   0.33512987  0.67257763  0.09969616
   0.66846974  0.33923687  0.09979707
   0.16141166  0.32523442  0.09894577
   0.32096142  0.16561423  0.09992143
   0.16137702  0.84638567  0.10043171
   0.84211276  0.16554680  0.09849347
   0.68246993  0.84627444  0.09898166
   0.84211588  0.68674047  0.09996200
   0.25323154  0.24644805  0.32688687
   0.41980310  0.07989909  0.32685041
   0.25321554  0.74658282  0.32679128
   0.41992412  0.57986135  0.32668962
   0.75327138  0.24652032  0.32671914
   0.91993035  0.07985436  0.32676337
   0.75334772  0.74656573  0.32689025
   0.91988663  0.57998308  0.32684647
Direct configuration=    44
   0.33477238  0.67297675  0.09964312
   0.66805862  0.33965682  0.09978678
   0.16098296  0.32561955  0.09900219
   0.32059850  0.16598280  0.09984191
   0.16097369  0.84678386  0.10031358
   0.84177619  0.16594078  0.09858259
   0.68208475  0.84670061  0.09903201
   0.84180004  0.68714426  0.09987688
   0.25362856  0.24603337  0.32692587
   0.42015627  0.07951723  0.32685115
   0.25361490  0.74616382  0.32681495
   0.42028108  0.57947604  0.32669634
   0.75366692  0.24610449  0.32675960
   0.92028084  0.07947506  0.32676370
   0.75374351  0.74614946  0.32692917
   0.92023947  0.57960042  0.32684683
Direct configuration=    45
   0.33467531  0.67307796  0.09963430
   0.66796399  0.33975779  0.09977745
   0.16088581  0.32571488  0.09901540
   0.32050046  0.16607403  0.09982511
   0.16087833  0.84688142  0.10028081
   0.84168176  0.16604265  0.09860950
   0.68199829  0.84680428  0.09904372
   0.84171462  0.68724936  0.09985855
   0.25371467  0.24593468  0.32693153
   0.42025278  0.07941111  0.32685479
   0.25370131  0.74606998  0.32681426
   0.42038038  0.57937225  0.32670139
   0.75375263  0.24601141  0.32676409
   0.92038264  0.07936852  0.32677073
   0.75383486  0.74605598  0.32693473
   0.92034082  0.57949904  0.32685030
Direct configuration=    46
   0.33438411  0.67338157  0.09960787
   0.66768012  0.34006068  0.09974948
   0.16059434  0.32600088  0.09905504
   0.32020633  0.16634774  0.09977472
   0.16059225  0.84717409  0.10018249
   0.84139846  0.16634829  0.09869024
   0.68173893  0.84711527  0.09907885
   0.84145839  0.68756466  0.09980357
   0.25397301  0.24563862  0.32694852
   0.42054232  0.07909275  0.32686573
   0.25396055  0.74578844  0.32681217
   0.42067828  0.57906088  0.32671654
   0.75400976  0.24573214  0.32677755
   0.92068804  0.07904893  0.32679182
   0.75410890  0.74577551  0.32695138
   0.92064486  0.57919489  0.32686071
Direct configuration=    47
   0.33380171  0.67398880  0.09955499
   0.66711239  0.34066648  0.09969352
   0.16001142  0.32657286  0.09913431
   0.31961806  0.16689516  0.09967393
   0.16002009  0.84775942  0.09998587
   0.84083187  0.16695955  0.09885171
   0.68122021  0.84773724  0.09914911
   0.84094591  0.68819527  0.09969361
   0.25448968  0.24504648  0.32698250
   0.42112141  0.07845604  0.32688760
   0.25447902  0.74522537  0.32680800
   0.42127409  0.57843815  0.32674684
   0.75452403  0.24517360  0.32680447