Lattice                                 
           1
     4.367366    2.521500    0.000000
    -4.367366    2.521500    0.000000
     0.000000    0.000000   15.000000
   B    C 
     2    14
Direct configuration=     1
   0.33833034  0.66916432  0.10000000
   0.67165522  0.33584146  0.10000000
   0.16373946  0.31999962  0.10000000
   0.32250218  0.16126397  0.10000000
   0.16376430  0.84376384  0.10000000
   0.84623863  0.16123684  0.10000000
   0.68749850  0.84373000  0.10000000
   0.84626736  0.68499594  0.10000000
   0.33333267  0.16666633  0.32553333
   0.49999967  0.99999933  0.32553333
   0.33333267  0.66666633  0.32553333
   0.49999967  0.49999933  0.32553333
   0.83333267  0.16666633  0.32553333
   0.99999967  0.99999933  0.32553333
   0.83333267  0.66666633  0.32553333
   0.99999967  0.49999933  0.32553333
Direct configuration=     2
   0.33834430  0.66917092  0.10017245
   0.67169306  0.33582107  0.09997920
   0.16699450  0.32651446  0.09994301
   0.32874406  0.16438111  0.10001544
   0.16702491  0.84049813  0.09994301
   0.84309038  0.16436777  0.10001499
   0.68098206  0.84049123  0.09994271
   0.84311519  0.67874748  0.10001498
   0.33337692  0.16668737  0.32554325
   0.50012660  0.00027086  0.32558625
   0.33332897  0.66666345  0.32532609
   0.50012660  0.49985689  0.32558624
   0.83331979  0.16669145  0.32553974
   0.00000493  0.00000304  0.32553194
   0.83331982  0.66662623  0.32553976
   0.99973324  0.49986719  0.32558762
Direct configuration=     3
   0.33833412  0.66916611  0.10004666
   0.67166545  0.33583594  0.09999437
   0.16462026  0.32176249  0.09998458
   0.32419120  0.16210744  0.10000418
   0.16464660  0.84288016  0.09998458
   0.84538674  0.16208405  0.10000406
   0.68573520  0.84285361  0.09998450
   0.84541440  0.68330515  0.10000405
   0.33334464  0.16667203  0.32553602
   0.50003401  0.00007281  0.32554765
   0.33333167  0.66666555  0.32547725
   0.50003401  0.49996079  0.32554765
   0.83332918  0.16667313  0.32553507
   0.00000109  0.00000034  0.32553296
   0.83332919  0.66665548  0.32553507
   0.99992757  0.49996358  0.32554802
Direct configuration=     4
   0.33833412  0.66916611  0.10004664
   0.67166545  0.33583594  0.09999438
   0.16461982  0.32176163  0.09998459
   0.32419037  0.16210703  0.10000418
   0.16464617  0.84288059  0.09998459
   0.84538715  0.16208364  0.10000405
   0.68573606  0.84285404  0.09998450
   0.84541482  0.68330598  0.10000405
   0.33334464  0.16667202  0.32553601
   0.50003400  0.00007277  0.32554764
   0.33333167  0.66666555  0.32547728
   0.50003400  0.49996081  0.32554764
   0.83332918  0.16667313  0.32553507
   0.00000109  0.00000034  0.32553296
   0.83332919  0.66665549  0.32553507
   0.99992761  0.49996359  0.32554802
Direct configuration=     5
   0.33833844  0.66916641  0.10015697
   0.67166866  0.33583241  0.09997829
   0.16461744  0.32176357  0.09995728
   0.32418027  0.16209620  0.10000610
   0.16463566  0.84287177  0.09995728
   0.84540252  0.16208158  0.10000575
   0.68572647  0.84285922  0.09995687
   0.84541879  0.68332086  0.10000575
   0.33335728  0.16667850  0.32554902
   0.50004496  0.00009394  0.32557463
   0.33333090  0.66666530  0.32534766
   0.50004496  0.49995036  0.32557463
   0.83332347  0.16668027  0.32554578
   0.00000323  0.00000129  0.32552903
   0.83332346  0.66664290  0.32554579
   0.99990882  0.49995408  0.32557583
Direct configuration=     6
   0.33833970  0.66916650  0.10018922
   0.67166960  0.33583138  0.09997358
   0.16461674  0.32176414  0.09994930
   0.32417732  0.16209303  0.10000666
   0.16463258  0.84286920  0.09994930
   0.84540702  0.16208098  0.10000625
   0.68572366  0.84286074  0.09994879
   0.84541995  0.68332521  0.10000625
   0.33336097  0.16668039  0.32555282
   0.50004816  0.00010013  0.32558252
   0.33333068  0.66666522  0.32530978
   0.50004817  0.49994731  0.32558252
   0.83332180  0.16668235  0.32554891
   0.00000386  0.00000157  0.32552788
   0.83332178  0.66663922  0.32554892
   0.99990333  0.49995131  0.32558396
Direct configuration=     7
   0.33831645  0.66916340  0.10025018
   0.67167225  0.33583867  0.09997809
   0.16464577  0.32174478  0.09996316
   0.32418256  0.16210001  0.09998005
   0.16464219  0.84288808  0.09996317
   0.84537624  0.16208880  0.09997929
   0.68576676  0.84286877  0.09996227
   0.84537674  0.68329475  0.09997929
   0.33333721  0.16666804  0.32557828
   0.50002508  0.00005296  0.32556345
   0.33333587  0.66666738  0.32526866
   0.50002506  0.49997234  0.32556346
   0.83333735  0.16666846  0.32557344
   0.00000072  0.00000047  0.32552569
   0.83333737  0.66666781  0.32557343
   0.99994772  0.49997395  0.32556475
Direct configuration=     8
   0.33832154  0.66916407  0.10023685
   0.67167167  0.33583708  0.09997710
   0.16463942  0.32174902  0.09996013
   0.32418142  0.16209848  0.09998587
   0.16464009  0.84288395  0.09996014
   0.84538297  0.16208709  0.09998518
   0.68575734  0.84286701  0.09995933
   0.84538619  0.68330141  0.09998519
   0.33334240  0.16667074  0.32557271
   0.50003013  0.00006327  0.32556762
   0.33333473  0.66666690  0.32527765
   0.50003011  0.49996687  0.32556763
   0.83333395  0.16667150  0.32556808
   0.00000140  0.00000071  0.32552617
   0.83333396  0.66666156  0.32556807
   0.99993801  0.49996900  0.32556895
Direct configuration=     9
   0.33834937  0.66916929  0.10029096
   0.67164588  0.33582929  0.09997971
   0.16458099  0.32175478  0.09997783
   0.32421145  0.16208692  0.09996215
   0.16458506  0.84285156  0.09997787
   0.84544824  0.16210248  0.09996097
   0.68569639  0.84286615  0.09997655
   0.84545263  0.68332204  0.09996098
   0.33335255  0.16667638  0.32558999
   0.50004510  0.00008858  0.32554265
   0.33333237  0.66666637  0.32525483
   0.50004515  0.49995550  0.32554264
   0.83332748  0.16667786  0.32558484
   0.00000621  0.00000259  0.32553635
   0.83332750  0.66664987  0.32558484
   0.99991895  0.49995900  0.32554351
Direct configuration=    10
   0.33833132  0.66916591  0.10025587
   0.67166260  0.33583434  0.09997802
   0.16461888  0.32175104  0.09996635
   0.32419198  0.16209442  0.09997753
   0.16462074  0.84287256  0.09996637
   0.84540592  0.16209250  0.09997667
   0.68573591  0.84286671  0.09996538
   0.84540955  0.68330866  0.09997668
   0.33334597  0.16667273  0.32557879
   0.50003539  0.00007217  0.32555884
   0.33333390  0.66666672  0.32526963
   0.50003540  0.49996287  0.32555884
   0.83333167  0.16667374  0.32557397
   0.00000309  0.00000137  0.32552975
   0.83333169  0.66665745  0.32557397
   0.99993131  0.49996548  0.32556001
Direct configuration=    11
   0.33833197  0.66916603  0.10025713
   0.67166201  0.33583416  0.09997808
   0.16461752  0.32175118  0.09996676
   0.32419267  0.16209415  0.09997698
   0.16461947  0.84287181  0.09996679
   0.84540743  0.16209286  0.09997611
   0.68573450  0.84286669  0.09996578
   0.84541109  0.68330914  0.09997611
   0.33334621  0.16667286  0.32557919
   0.50003574  0.00007276  0.32555826
   0.33333385  0.66666670  0.32526910
   0.50003575  0.49996261  0.32555826
   0.83333152  0.16667388  0.32557436
   0.00000321  0.00000141  0.32552998
   0.83333154  0.66665718  0.32557435
   0.99993087  0.49996525  0.32555942
Direct configuration=    12
   0.33833070  0.66916509  0.10028001
   0.67167320  0.33583072  0.09997487
   0.16463565  0.32176672  0.09997394
   0.32416458  0.16208535  0.09997285
   0.16463753  0.84286564  0.09997395
   0.84540014  0.16207998  0.09997160
   0.68572750  0.84286357  0.09997260
   0.84539937  0.68332482  0.09997161
   0.33336330  0.16668166  0.32557744
   0.50005245  0.00010500  0.32554718
   0.33333260  0.66666628  0.32526552
   0.50005244  0.49994669  0.32554718
   0.83332358  0.16668369  0.32557267
   0.00000644  0.00000285  0.32554465
   0.83332356  0.66663986  0.32557267
   0.99990231  0.49995077  0.32554792
Direct configuration=    13
   0.33833130  0.66916553  0.10026927
   0.67166794  0.33583233  0.09997638
   0.16462714  0.32175942  0.09997057
   0.32417777  0.16208948  0.09997479
   0.16462905  0.84286854  0.09997059
   0.84540356  0.16208602  0.09997372
   0.68573078  0.84286503  0.09996940
   0.84540487  0.68331746  0.09997372
   0.33335528  0.16667753  0.32557826
   0.50004461  0.00008987  0.32555238
   0.33333319  0.66666648  0.32526720
   0.50004461  0.49995416  0.32555238
   0.83332731  0.16667909  0.32557346
   0.00000492  0.00000218  0.32553777
   0.83332730  0.66664799  0.32557346
   0.99991572  0.49995757  0.32555332
Direct configuration=    14
   0.33832952  0.66916413  0.10027980
   0.67166758  0.33583278  0.09997231
   0.16462648  0.32175496  0.09997292
   0.32417997  0.16209057  0.09997805
   0.16462612  0.84287010  0.09997292
   0.84540011  0.16208835  0.09997668
   0.68573598  0.84286715  0.09997154
   0.84539948  0.68331205  0.09997672
   0.33335439  0.16667689  0.32557183
   0.50004115  0.00008292  0.32554798
   0.33333531  0.66666734  0.32526673
   0.50004115  0.49995812  0.32554798
   0.83333057  0.16667825  0.32556717
   0.00000452  0.00000220  0.32554824
   0.83333055  0.66665168  0.32556716
   0.99992245  0.49996117  0.32554864
Direct configuration=    15
   0.33832878  0.66916355  0.10028420
   0.67166743  0.33583296  0.09997061
   0.16462621  0.32175309  0.09997391
   0.32418089  0.16209103  0.09997941
   0.16462490  0.84287075  0.09997389
   0.84539867  0.16208932  0.09997791
   0.68573814  0.84286803  0.09997242
   0.84539724  0.68330980  0.09997797
   0.33335402  0.16667663  0.32556914
   0.50003971  0.00008003  0.32554615
   0.33333619  0.66666771  0.32526654
   0.50003971  0.49995977  0.32554615
   0.83333192  0.16667790  0.32556454
   0.00000435  0.00000221  0.32555261
   0.83333190  0.66665322  0.32556454
   0.99992525  0.49996267  0.32554669
Direct configuration=    16
   0.33833131  0.66916508  0.10029120
   0.67166000  0.33583126  0.09996908
   0.16461824  0.32175493  0.09997862
   0.32418314  0.16208790  0.09998399
   0.16461819  0.84286509  0.09997859
   0.84540830  0.16208984  0.09998208
   0.68572536  0.84286532  0.09997679
   0.84540836  0.68331427  0.09998215
   0.33335271  0.16667649  0.32556387
   0.50004546  0.00008578  0.32554097
   0.33333480  0.66666757  0.32526447
   0.50004546  0.49995877  0.32554097
   0.83333054  0.16667775  0.32555932
   0.00000825  0.00000366  0.32555383
   0.83333055  0.66665308  0.32555932
   0.99992467  0.49996188  0.32554141
Direct configuration=    17
   0.33833064  0.66916468  0.10028934
   0.67166198  0.33583171  0.09996948
   0.16462037  0.32175444  0.09997736
   0.32418254  0.16208873  0.09998277
   0.16461998  0.84286660  0.09997734
   0.84540573  0.16208970  0.09998097
   0.68572876  0.84286604  0.09997563
   0.84540540  0.68331308  0.09998104
   0.33335306  0.16667653  0.32556527
   0.50004393  0.00008425  0.32554235
   0.33333517  0.66666760  0.32526502
   0.50004392  0.49995904  0.32554235
   0.83333091  0.16667779  0.32556071
   0.00000721  0.00000327  0.32555351
   0.83333091  0.66665312  0.32556071
   0.99992482  0.49996209  0.32554282
Direct configuration=    18
   0.33832911  0.66916461  0.10029246
   0.67166126  0.33583119  0.09996965
   0.16462230  0.32175584  0.09998070
   0.32417905  0.16208721  0.09998560
   0.16462181  0.84286583  0.09998068
   0.84540434  0.16208783  0.09998355
   0.68572705  0.84286474  0.09997874
   0.84540410  0.68331442  0.09998361
   0.33335417  0.16667718  0.32556266
   0.50004634  0.00008735  0.32553923
   0.33333551  0.66666788  0.32526314
   0.50004633  0.49995821  0.32553923
   0.83333095  0.16667848  0.32555811
   0.00000854  0.00000387  0.32555154
   0.83333096  0.66665267  0.32555811
   0.99992351  0.49996136  0.32553968
Direct configuration=    19
   0.33832451  0.66916443  0.10030181
   0.67165910  0.33582960  0.09997013
   0.16462812  0.32176005  0.09999071
   0.32416859  0.16208262  0.09999408
   0.16462729  0.84286353  0.09999070
   0.84540016  0.16208222  0.09999128
   0.68572190  0.84286083  0.09998807
   0.84540019  0.68331845  0.09999132
   0.33335751  0.16667913  0.32555482
   0.50005358  0.00009666  0.32552986
   0.33333655  0.66666870  0.32525751
   0.50005355  0.49995573  0.32552987
   0.83333108  0.16668055  0.32555028
   0.00001252  0.00000565  0.32554565
   0.83333110  0.66665134  0.32555029
   0.99991958  0.49995918  0.32553028
Direct configuration=    20
   0.33831532  0.66916405  0.10032052
   0.67165480  0.33582644  0.09997110
   0.16463975  0.32176846  0.10001074
   0.32414767  0.16207345  0.10001105
   0.16463824  0.84285892  0.10001075
   0.84539179  0.16207100  0.10000675
   0.68571161  0.84285303  0.10000673
   0.84539237  0.68332651  0.10000675
   0.33336419  0.16668304  0.32553915
   0.50006805  0.00011527  0.32551114
   0.33333862  0.66667035  0.32524623
   0.50006798  0.49995077  0.32551114
   0.83333133  0.16668469  0.32553464
   0.00002049  0.00000920  0.32553386
   0.83333140  0.66664866  0.32553466
   0.99991172  0.49995483  0.32551146
Direct configuration=    21
   0.33832257  0.66916435  0.10030577
   0.67165819  0.33582893  0.09997034
   0.16463058  0.32176182  0.09999495
   0.32416417  0.16208068  0.09999767
   0.16462960  0.84286255  0.09999494
   0.84539839  0.16207985  0.09999456
   0.68571973  0.84285918  0.09999201
   0.84539853  0.68332015  0.09999458
   0.33335892  0.16667996  0.32555151
   0.50005664  0.00010059  0.32552590
   0.33333699  0.66666905  0.32525512
   0.50005660  0.49995468  0.32552591
   0.83333113  0.16668143  0.32554698
   0.00001421  0.00000640  0.32554316
   0.83333117  0.66665077  0.32554699
   0.99991792  0.49995826  0.32552630
Direct configuration=    22
   0.33831992  0.66916424  0.10031115
   0.67165695  0.33582802  0.09997061
   0.16463392  0.32176424  0.10000071
   0.32415815  0.16207804  0.10000255
   0.16463275  0.84286123  0.10000070
   0.84539598  0.16207662  0.09999900
   0.68571677  0.84285694  0.09999738
   0.84539628  0.68332247  0.09999902
   0.33336085  0.16668108  0.32554700
   0.50006080  0.00010595  0.32552052
   0.33333758  0.66666952  0.32525188
   0.50006075  0.49995326  0.32552052
   0.83333120  0.16668262  0.32554248
   0.00001650  0.00000742  0.32553977
   0.83333125  0.66665000  0.32554249
   0.99991566  0.49995701  0.32552089
Direct configuration=    23
   0.33832140  0.66916430  0.10030814
   0.67165765  0.33582853  0.09997046
   0.16463205  0.32176289  0.09999749
   0.32416151  0.16207952  0.09999982
   0.16463099  0.84286197  0.09999748
   0.84539733  0.16207842  0.09999652
   0.68571842  0.84285819  0.09999438
   0.84539754  0.68332118  0.09999654
   0.33335977  0.16668045  0.32554952
   0.50005847  0.00010296  0.32552353
   0.33333725  0.66666926  0.32525369
   0.50005843  0.49995405  0.32552353
   0.83333116  0.16668195  0.32554499
   0.00001522  0.00000685  0.32554166
   0.83333120  0.66665043  0.32554500
   0.99991692  0.49995771  0.32552391
Direct configuration=    24
   0.33832200  0.66916432  0.10030691
   0.67165793  0.33582874  0.09997039
   0.16463129  0.32176234  0.09999618
   0.32416288  0.16208012  0.09999871
   0.16463028  0.84286227  0.09999617
   0.84539788  0.16207916  0.09999550
   0.68571910  0.84285870  0.09999316
   0.84539805  0.68332065  0.09999553
   0.33335933  0.16668020  0.32555055
   0.50005752  0.00010174  0.32552475
   0.33333711  0.66666915  0.32525443
   0.50005749  0.49995438  0.32552476
   0.83333115  0.16668168  0.32554602
   0.00001470  0.00000662  0.32554243
   0.83333118  0.66665061  0.32554603
   0.99991744  0.49995800  0.32552514
Direct configuration=    25
   0.33832158  0.66916399  0.10030844
   0.67165760  0.33582856  0.09997086
   0.16463065  0.32176185  0.09999796
   0.32416269  0.16208000  0.10000021
   0.16462955  0.84286214  0.09999796
   0.84539736  0.16207912  0.09999688
   0.68571899  0.84285866  0.09999482
   0.84539748  0.68332017  0.09999690
   0.33336008  0.16668053  0.32554919
   0.50005760  0.00010164  0.32552319
   0.33333780  0.66666945  0.32525317
   0.50005756  0.49995467  0.32552320
   0.83333181  0.16668202  0.32554465
   0.00001488  0.00000677  0.32554099
   0.83333184  0.66665084  0.32554466
   0.99991787  0.49995827  0.32552358
Direct configuration=    26
   0.33832030  0.66916297  0.10031303
   0.67165662  0.33582801  0.09997224
   0.16462871  0.32176038  0.10000332
   0.32416211  0.16207963  0.10000473
   0.16462739  0.84286176  0.10000332
   0.84539580  0.16207901  0.10000099
   0.68571868  0.84285852  0.09999980
   0.84539574  0.68331872  0.10000100
   0.33336233  0.16668153  0.32554511
   0.50005783  0.00010136  0.32551851
   0.33333985  0.66667035  0.32524940
   0.50005779  0.49995553  0.32551852
   0.83333379  0.16668303  0.32554056
   0.00001543  0.00000722  0.32553667
   0.83333381  0.66665155  0.32554058
   0.99991917  0.49995910  0.32551891
Direct configuration=    27
   0.33831774  0.66916094  0.10032222
   0.67165464  0.33582692  0.09997500
   0.16462484  0.32175744  0.10001403
   0.32416095  0.16207890  0.10001375
   0.16462305  0.84286099  0.10001404
   0.84539267  0.16207880  0.10000922
   0.68571806  0.84285823  0.10000977
   0.84539227  0.68331583  0.10000920
   0.33336683  0.16668354  0.32553694
   0.50005828  0.00010079  0.32550915
   0.33334395  0.66667214  0.32524185
   0.50005825  0.49995725  0.32550916
   0.83333775  0.16668505  0.32553238
   0.00001654  0.00000812  0.32552802
   0.83333775  0.66665297  0.32553240
   0.99992177  0.49996075  0.32550955
Direct configuration=    28
   0.33831261  0.66915689  0.10034058
   0.67165070  0.33582474  0.09998052
   0.16461710  0.32175156  0.10003545
   0.32415862  0.16207744  0.10003180
   0.16461438  0.84285945  0.10003548
   0.84538643  0.16207836  0.10002567
   0.68571681  0.84285767  0.10002970
   0.84538533  0.68331004  0.10002561
   0.33337583  0.16668755  0.32552062
   0.50005920  0.00009966  0.32549043
   0.33335215  0.66667573  0.32522675
   0.50005917  0.49996071  0.32549043
   0.83334566  0.16668909  0.32551602
   0.00001875  0.00000993  0.32551072
   0.83334564  0.66665580  0.32551605
   0.99992696  0.49996405  0.32549084
Direct configuration=    29
   0.33831402  0.66915651  0.10034146
   0.67164943  0.33582455  0.09998462
   0.16461133  0.32174836  0.10003603
   0.32416323  0.16207932  0.10003300
   0.16460931  0.84285917  0.10003605
   0.84538818  0.16208069  0.10002677
   0.68571634  0.84285870  0.10003015
   0.84538671  0.68330708  0.10002672
   0.33337232  0.16668612  0.32551922
   0.50005896  0.00009552  0.32549048
   0.33335114  0.66667555  0.32522355
   0.50005893  0.49996397  0.32549048
   0.83334562  0.16668752  0.32551461
   0.00002050  0.00001050  0.32550797
   0.83334559  0.66665799  0.32551463
   0.99993373  0.49996713  0.32549092
Direct configuration=    30
   0.33831779  0.66915549  0.10034385
   0.67164602  0.33582403  0.09999567
   0.16459579  0.32173973  0.10003757
   0.32417563  0.16208436  0.10003622
   0.16459568  0.84285841  0.10003759
   0.84539287  0.16208694  0.10002975
   0.68571507  0.84286150  0.10003138
   0.84539043  0.68329912  0.10002970
   0.33336286  0.16668229  0.32551548
   0.50005831  0.00008437  0.32549059
   0.33334841  0.66667507  0.32521495
   0.50005830  0.49997277  0.32549060
   0.83334551  0.16668329  0.32551080
   0.00002523  0.00001203  0.32550058
   0.83334548  0.66666388  0.32551082
   0.99995196  0.49997540  0.32549113
Direct configuration=    31
   0.33831681  0.66915575  0.10034322
   0.67164692  0.33582416  0.09999278
   0.16459985  0.32174198  0.10003717
   0.32417239  0.16208304  0.10003538
   0.16459924  0.84285861  0.10003719
   0.84539165  0.16208531  0.10002897
   0.68571540  0.84286077  0.10003106
   0.84538946  0.68330120  0.10002892
   0.33336533  0.16668329  0.32551646
   0.50005848  0.00008728  0.32549056
   0.33334912  0.66667519  0.32521720
   0.50005846  0.49997047  0.32549056
   0.83334554  0.16668440  0.32551180
   0.00002399  0.00001163  0.32550251
   0.83334551  0.66666234  0.32551181
   0.99994720  0.49997324  0.32549108
Direct configuration=    32
   0.33831559  0.66915527  0.10034384
   0.67164758  0.33582406  0.09999801
   0.16460114  0.32174162  0.10003739
   0.32417097  0.16208328  0.10003659
   0.16460046  0.84285948  0.10003741
   0.84538890  0.16208443  0.10003010
   0.68571693  0.84286072  0.10003117
   0.84538658  0.68330013  0.10003006
   0.33336494  0.16668311  0.32551515
   0.50005837  0.00008626  0.32549073
   0.33334962  0.66667544  0.32521386
   0.50005836  0.49997139  0.32549073
   0.83334632  0.16668419  0.32551047
   0.00002438  0.00001183  0.32549939
   0.83334630  0.66666336  0.32551049
   0.99994891  0.49997409  0.32549128
Direct configuration=    33
   0.33831193  0.66915381  0.10034569
   0.67164956  0.33582376  0.10001368
   0.16460500  0.32174054  0.10003807
   0.32416672  0.16208402  0.10004023
   0.16460409  0.84286211  0.10003807
   0.84538065  0.16208178  0.10003350
   0.68572150  0.84286056  0.10003150
   0.84537795  0.68329693  0.10003346
   0.33336379  0.16668256  0.32551125
   0.50005803  0.00008318  0.32549123
   0.33335113  0.66667620  0.32520383
   0.50005803  0.49997415  0.32549124
   0.83334869  0.16668357  0.32550650
   0.00002553  0.00001242  0.32549001
   0.83334869  0.66666644  0.32550650
   0.99995403  0.49997665  0.32549190
Direct configuration=    34
   0.33831096  0.66915342  0.10034618
   0.67165009  0.33582367  0.10001787
   0.16460604  0.32174025  0.10003825
   0.32416559  0.16208422  0.10004120
   0.16460507  0.84286281  0.10003825
   0.84537844  0.16208107  0.10003441
   0.68572272  0.84286051  0.10003159
   0.84537564  0.68329607  0.10003438
   0.33336349  0.16668242  0.32551020
   0.50005794  0.00008235  0.32549137
   0.33335153  0.66667640  0.32520115
   0.50005794  0.49997488  0.32549138
   0.83334932  0.16668341  0.32550543
   0.00002584  0.00001258  0.32548750
   0.83334934  0.66666727  0.32550544
   0.99995540  0.49997734  0.32549207
Direct configuration=    35
   0.33831029  0.66915393  0.10034685
   0.67164805  0.33582271  0.10002498
   0.16460639  0.32174353  0.10003862
   0.32416189  0.16208129  0.10004319
   0.16460571  0.84286069  0.10003861
   0.84538030  0.16207879  0.10003629
   0.68571751  0.84285779  0.10003180
   0.84537914  0.68330059  0.10003627
   0.33336984  0.16668514  0.32550883
   0.50005969  0.00008923  0.32549012
   0.33335422  0.66667731  0.32519853
   0.50005970  0.49997067  0.32549013
   0.83335057  0.16668637  0.32550405
   0.00002463  0.00001244  0.32548350
   0.83335060  0.66666468  0.32550405
   0.99994683  0.49997352  0.32549085
Direct configuration=    36
   0.33830955  0.66915450  0.10034758
   0.67164579  0.33582164  0.10003282
   0.16460677  0.32174715  0.10003902
   0.32415780  0.16207806  0.10004539
   0.16460641  0.84285834  0.10003901
   0.84538235  0.16207628  0.10003838
   0.68571175  0.84285478  0.10003204
   0.84538300  0.68330558  0.10003836
   0.33337685  0.16668815  0.32550731
   0.50006161  0.00009683  0.32548875
   0.33335719  0.66667831  0.32519564
   0.50006165  0.49996602  0.32548876
   0.83335195  0.16668965  0.32550252
   0.00002330  0.00001227  0.32547907
   0.83335199  0.66666181  0.32550251
   0.99993736  0.49996930  0.32548951
Direct configuration=    37
   0.33830938  0.66915451  0.10034797
   0.67164468  0.33582156  0.10003565
   0.16460489  0.32174622  0.10003975
   0.32415848  0.16207810  0.10004695
   0.16460502  0.84285793  0.10003974
   0.84538315  0.16207668  0.10003987
   0.68571082  0.84285475  0.10003269
   0.84538371  0.68330486  0.10003986
   0.33337660  0.16668832  0.32550654
   0.50006372  0.00009793  0.32548635
   0.33335606  0.66667806  0.32519641
   0.50006375  0.49996643  0.32548636
   0.83335052  0.16668982  0.32550178
   0.00002523  0.00001295  0.32547788
   0.83335055  0.66666080  0.32550177
   0.99993880  0.49996972  0.32548710
Direct configuration=    38
   0.33830899  0.66915453  0.10034886
   0.67164215  0.33582138  0.10004204
   0.16460063  0.32174412  0.10004141
   0.32416001  0.16207821  0.10005047
   0.16460187  0.84285700  0.10004139
   0.84538495  0.16207759  0.10004325
   0.68570870  0.84285470  0.10003416
   0.84538531  0.68330325  0.10004326
   0.33337602  0.16668872  0.32550481
   0.50006847  0.00010044  0.32548093
   0.33335351  0.66667748  0.32519814
   0.50006849  0.49996737  0.32548094
   0.83334727  0.16669020  0.32550011
   0.00002960  0.00001448  0.32547518
   0.83334730  0.66665852  0.32550010
   0.99994205  0.49997069  0.32548163
Direct configuration=    39
   0.33830780  0.66915389  0.10034937
   0.67164285  0.33582134  0.10004388
   0.16460205  0.32174371  0.10004249
   0.32415882  0.16207842  0.10005199
   0.16460283  0.84285774  0.10004247
   0.84538214  0.16207706  0.10004471
   0.68571050  0.84285478  0.10003517
   0.84538234  0.68330216  0.10004472
   0.33337597  0.16668858  0.32550357
   0.50006749  0.00009875  0.32547887
   0.33335459  0.66667790  0.32519848
   0.50006750  0.49996833  0.32547888
   0.83334881  0.16669000  0.32549889
   0.00002929  0.00001445  0.32547473
   0.83334883  0.66666001  0.32549888
   0.99994353  0.49997155  0.32547955
Direct configuration=    40
   0.33830527  0.66915255  0.10035046
   0.67164432  0.33582127  0.10004781
   0.16460508  0.32174283  0.10004480
   0.32415627  0.16207886  0.10005523
   0.16460487  0.84285932  0.10004478
   0.84537615  0.16207592  0.10004780
   0.68571431  0.84285494  0.10003731
   0.84537601  0.68329983  0.10004784
   0.33337588  0.16668829  0.32550094
   0.50006540  0.00009514  0.32547449
   0.33335690  0.66667879  0.32519921
   0.50006540  0.49997038  0.32547450
   0.83335209  0.16668958  0.32549630
   0.00002862  0.00001439  0.32547378
   0.83335209  0.66666320  0.32549628
   0.99994668  0.49997339  0.32547512
Direct configuration=    41
   0.33830578  0.66915212  0.10035160
   0.67164331  0.33582063  0.10004950
   0.16460301  0.32174273  0.10004696
   0.32415656  0.16207849  0.10005744
   0.16460274  0.84285842  0.10004694
   0.84537657  0.16207582  0.10004992
   0.68571247  0.84285452  0.10003937
   0.84537676  0.68330019  0.10004998
   0.33337656  0.16668836  0.32549831
   0.50006401  0.00009374  0.32547232
   0.33335898  0.66667956  0.32519814
   0.50006401  0.49997097  0.32547232
   0.83335481  0.16668961  0.32549368
   0.00002782  0.00001426  0.32547359
   0.83335481  0.66666533  0.32549367
   0.99994715  0.49997392  0.32547293
Direct configuration=    42
   0.33830718  0.66915095  0.10035478
   0.67164048  0.33581885  0.10005418
   0.16459729  0.32174245  0.10005296
   0.32415736  0.16207747  0.10006357
   0.16459685  0.84285592  0.10005291
   0.84537770  0.16207556  0.10005578
   0.68570737  0.84285334  0.10004506
   0.84537883  0.68330120  0.10005589
   0.33337846  0.16668855  0.32549102
   0.50006016  0.00008986  0.32546632
   0.33336475  0.66668169  0.32519518
   0.50006015  0.49997261  0.32546631
   0.83336234  0.16668968  0.32548642
   0.00002561  0.00001391  0.32547303
   0.83336232  0.66667125  0.32548642
   0.99994846  0.49997539  0.32546686
Direct configuration=    43
   0.33830663  0.66915080  0.10035598
   0.67164000  0.33581864  0.10005525
   0.16459692  0.32174231  0.10005481
   0.32415641  0.16207703  0.10006529
   0.16459674  0.84285554  0.10005476
   0.84537743  0.16207517  0.10005743
   0.68570658  0.84285306  0.10004683
   0.84537841  0.68330118  0.10005755
   0.33337873  0.16668882  0.32548893
   0.50006167  0.00009106  0.32546486
   0.33336454  0.66668172  0.32519361
   0.50006165  0.49997266  0.32546485
   0.83336197  0.16668995  0.32548433
   0.00002684  0.00001439  0.32547244
   0.83336194  0.66667087  0.32548434
   0.99994886  0.49997546  0.32546540
Direct configuration=    44
   0.33830496  0.66915036  0.10035961
   0.67163856  0.33581802  0.10005847
   0.16459582  0.32174191  0.10006037
   0.32415357  0.16207571  0.10007047
   0.16459640  0.84285441  0.10006031
   0.84537661  0.16207400  0.10006237
   0.68570422  0.84285220  0.10005214
   0.84537716  0.68330112  0.10006252
   0.33337953  0.16668964  0.32548268
   0.50006621  0.00009467  0.32546050
   0.33336389  0.66668183  0.32518890
   0.50006617  0.49997281  0.32546049
   0.83336084  0.16669077  0.32547808
   0.00003054  0.00001583  0.32547065
   0.83336080  0.66666973  0.32547809
   0.99995006  0.49997566  0.32546102
Direct configuration=    45
   0.33830164  0.66914949  0.10036685
   0.67163567  0.33581677  0.10006490
   0.16459362  0.32174110  0.10007149
   0.32414788  0.16207306  0.10008084
   0.16459574  0.84285214  0.10007140
   0.84537497  0.16207165  0.10007226
   0.68569949  0.84285049  0.10006277
   0.84537464  0.68330100  0.10007247
   0.33338113  0.16669126  0.32547017
   0.50007529  0.00010189  0.32545178
   0.33336259  0.66668204  0.32517948
   0.50007519  0.49997312  0.32545175
   0.83335860  0.16669242  0.32546558
   0.00003792  0.00001871  0.32546707
   0.83335851  0.66666744  0.32546561
   0.99995246  0.49997608  0.32545225
Direct configuration=    46
   0.33829847  0.66914850  0.10037107
   0.67163490  0.33581664  0.10006724
   0.16459471  0.32173983  0.10007550
   0.32414669  0.16207283  0.10008459
   0.16459551  0.84285274  0.10007542
   0.84537104  0.16207123  0.10007583
   0.68570154  0.84285017  0.10006662
   0.84537098  0.68329878  0.10007606
   0.33338478  0.16669294  0.32546718
   0.50007594  0.00010257  0.32544830
   0.33336455  0.66668289  0.32517453
   0.50007584  0.49997342  0.32544827
   0.83335975  0.16669410  0.32546258
   0.00003831  0.00001909  0.32546211
   0.83335966  0.66666662  0.32546260
   0.99995267  0.49997633  0.32544879
Direct configuration=    47
   0.33828895  0.66914551  0.10038371
   0.67163258  0.33581624  0.10007427
   0.16459799  0.32173601  0.10008752
   0.32414310  0.16207216  0.10009585
   0.16459482  0.84285451  0.10008746
   0.84535925  0.16206998  0.10008656
   0.68570770  0.84284920  0.10007817
   0.84536002  0.68329212  0.10008681
   0.33339570  0.16669797  0.32545822
   0.50007788  0.00010460  0.32543785
   0.33337046  0.66668541  0.32515967
   0.50007777  0.49997431  0.32543783
   0.83336323  0.16669913  0.32545355