<?xml version="1.0" encoding="ISO-8859-1"?>
<modeling>
 <generator>
  <i name="program" type="string">vasp </i>
  <i name="version" type="string">6.3.2  </i>
  <i name="subversion" type="string">27Jun22 (build Dec 22 2022 13:13:19) complex                          parallel </i>
  <i name="platform" type="string">LinuxIFC </i>
  <i name="date" type="string">2023 08 22 </i>
  <i name="time" type="string">23:09:16 </i>
 </generator>
 <incar>
  <i type="string" name="SYSTEM">Lattice</i>
  <i type="int" name="ISTART">     0</i>
  <i type="string" name="PREC">Accurate</i>
  <i type="string" name="ALGO">Normal</i>
  <i type="int" name="ISPIN">     2</i>
  <i type="int" name="ICHARG">     2</i>
  <i type="int" name="NELM">    64</i>
  <i type="int" name="IBRION">     2</i>
  <i name="EDIFF">      0.00000100</i>
  <i name="EDIFFG">     -0.00100000</i>
  <i type="int" name="NSW">   128</i>
  <i type="int" name="ISIF">     2</i>
  <i name="ENCUT">    450.00000000</i>
  <i name="POTIM">      0.50000000</i>
  <i type="int" name="ISMEAR">     0</i>
  <i name="SIGMA">      0.10000000</i>
  <i type="logical" name="LWAVE"> F  </i>
  <i type="logical" name="LCHARG"> F  </i>
  <i type="string" name="GGA">PE</i>
  <i type="int" name="IVDW">    12</i>
 </incar>
 <primitive_cell>
  <structure name="primitive_cell" >
   <crystal>
    <varray name="basis" >
     <v>       4.36996419       2.52300000       0.00000000 </v>
     <v>      -4.36996419       2.52300000       0.00000000 </v>
     <v>       0.00000000       0.00000000      15.00000000 </v>
    </varray>
    <i name="volume">    330.76258935 </i>
    <varray name="rec_basis" >
     <v>       0.11441741       0.19817677       0.00000000 </v>
     <v>      -0.11441741       0.19817677       0.00000000 </v>
     <v>       0.00000000       0.00000000       0.06666667 </v>
    </varray>
   </crystal>
   <varray name="positions" >
    <v>       0.33833034       0.66916432       0.10000000 </v>
    <v>       0.67165522       0.33584146       0.10000000 </v>
    <v>       0.16373946       0.31999962       0.10000000 </v>
    <v>       0.32250218       0.16126397       0.10000000 </v>
    <v>       0.16376430       0.84376384       0.10000000 </v>
    <v>       0.84623863       0.16123684       0.10000000 </v>
    <v>       0.68749850       0.84373000       0.10000000 </v>
    <v>       0.84626736       0.68499594       0.10000000 </v>
    <v>       0.24999933       0.24999967       0.32633333 </v>
    <v>       0.41666633       0.08333267       0.32633333 </v>
    <v>       0.24999933       0.74999967       0.32633333 </v>
    <v>       0.41666633       0.58333267       0.32633333 </v>
    <v>       0.74999933       0.24999967       0.32633333 </v>
    <v>       0.91666633       0.08333267       0.32633333 </v>
    <v>       0.74999933       0.74999967       0.32633333 </v>
    <v>       0.91666633       0.58333267       0.32633333 </v>
   </varray>
  </structure>
  <varray name="primitive_index" >
   <v type="int" >        1 </v>
   <v type="int" >        2 </v>
   <v type="int" >        3 </v>
   <v type="int" >        4 </v>
   <v type="int" >        5 </v>
   <v type="int" >        6 </v>
   <v type="int" >        7 </v>
   <v type="int" >        8 </v>
   <v type="int" >        9 </v>
   <v type="int" >       10 </v>
   <v type="int" >       11 </v>
   <v type="int" >       12 </v>
   <v type="int" >       13 </v>
   <v type="int" >       14 </v>
   <v type="int" >       15 </v>
   <v type="int" >       16 </v>
  </varray>
 </primitive_cell>
 <kpoints>
  <generation param="Gamma">
   <v type="int" name="divisions">      12       12        1 </v>
   <v name="usershift">      0.00000000       0.00000000       0.00000000 </v>
   <v name="genvec1">      0.08333333      -0.00000000       0.00000000 </v>
   <v name="genvec2">     -0.00000000       0.08333333       0.00000000 </v>
   <v name="genvec3">      0.00000000       0.00000000       1.00000000 </v>
   <v name="shift">      0.00000000       0.00000000       0.00000000 </v>
  </generation>
  <varray name="kpointlist" >
   <v>       0.00000000       0.00000000       0.00000000 </v>
   <v>       0.08333333       0.00000000       0.00000000 </v>
   <v>       0.00000000       0.08333333       0.00000000 </v>
   <v>      -0.08333333       0.08333333       0.00000000 </v>
   <v>       0.16666667       0.00000000       0.00000000 </v>
   <v>       0.00000000       0.16666667       0.00000000 </v>
   <v>      -0.16666667       0.16666667       0.00000000 </v>
   <v>       0.25000000       0.00000000       0.00000000 </v>
   <v>       0.00000000       0.25000000       0.00000000 </v>
   <v>      -0.25000000       0.25000000       0.00000000 </v>
   <v>       0.33333333       0.00000000       0.00000000 </v>
   <v>       0.00000000       0.33333333       0.00000000 </v>
   <v>      -0.33333333       0.33333333       0.00000000 </v>
   <v>       0.41666667      -0.00000000       0.00000000 </v>
   <v>       0.00000000       0.41666667       0.00000000 </v>
   <v>      -0.41666667       0.41666667       0.00000000 </v>
   <v>       0.50000000       0.00000000       0.00000000 </v>
   <v>       0.00000000       0.50000000       0.00000000 </v>
   <v>       0.50000000       0.50000000       0.00000000 </v>
   <v>       0.08333333       0.08333333       0.00000000 </v>
   <v>      -0.08333333       0.16666667       0.00000000 </v>
   <v>      -0.16666667       0.08333333       0.00000000 </v>
   <v>       0.16666667       0.08333333       0.00000000 </v>
   <v>      -0.08333333       0.25000000       0.00000000 </v>
   <v>      -0.25000000       0.16666667       0.00000000 </v>
   <v>      -0.16666667       0.25000000       0.00000000 </v>
   <v>       0.08333333       0.16666667       0.00000000 </v>
   <v>       0.25000000      -0.08333333       0.00000000 </v>
   <v>       0.25000000       0.08333333       0.00000000 </v>
   <v>      -0.08333333       0.33333333       0.00000000 </v>
   <v>      -0.33333333       0.25000000       0.00000000 </v>
   <v>      -0.25000000       0.33333333       0.00000000 </v>
   <v>       0.08333333       0.25000000       0.00000000 </v>
   <v>       0.33333333      -0.08333333       0.00000000 </v>
   <v>       0.33333333       0.08333333       0.00000000 </v>
   <v>      -0.08333333       0.41666667       0.00000000 </v>
   <v>      -0.41666667       0.33333333       0.00000000 </v>
   <v>      -0.33333333       0.41666667       0.00000000 </v>
   <v>       0.08333333       0.33333333       0.00000000 </v>
   <v>       0.41666667      -0.08333333       0.00000000 </v>
   <v>       0.41666667       0.08333333       0.00000000 </v>
   <v>      -0.08333333       0.50000000       0.00000000 </v>
   <v>       0.50000000       0.41666667       0.00000000 </v>
   <v>      -0.41666667       0.50000000       0.00000000 </v>
   <v>       0.08333333       0.41666667       0.00000000 </v>
   <v>       0.50000000      -0.08333333       0.00000000 </v>
   <v>       0.16666667       0.16666667       0.00000000 </v>
   <v>      -0.16666667       0.33333333       0.00000000 </v>
   <v>      -0.33333333       0.16666667       0.00000000 </v>
   <v>       0.25000000       0.16666667       0.00000000 </v>
   <v>      -0.16666667       0.41666667       0.00000000 </v>
   <v>      -0.41666667       0.25000000       0.00000000 </v>
   <v>      -0.25000000       0.41666667       0.00000000 </v>
   <v>       0.16666667       0.25000000       0.00000000 </v>
   <v>       0.41666667      -0.16666667       0.00000000 </v>
   <v>       0.33333333       0.16666667       0.00000000 </v>
   <v>      -0.16666667       0.50000000       0.00000000 </v>
   <v>       0.50000000       0.33333333       0.00000000 </v>
   <v>      -0.33333333       0.50000000       0.00000000 </v>
   <v>       0.16666667       0.33333333       0.00000000 </v>
   <v>       0.50000000      -0.16666667       0.00000000 </v>
   <v>       0.41666667       0.16666667       0.00000000 </v>
   <v>      -0.16666667      -0.41666667       0.00000000 </v>
   <v>       0.41666667       0.41666667       0.00000000 </v>
   <v>       0.25000000       0.25000000       0.00000000 </v>
   <v>      -0.25000000       0.50000000       0.00000000 </v>
   <v>       0.50000000       0.25000000       0.00000000 </v>
   <v>       0.33333333       0.25000000       0.00000000 </v>
   <v>      -0.25000000      -0.41666667       0.00000000 </v>
   <v>       0.41666667       0.33333333       0.00000000 </v>
   <v>      -0.33333333      -0.41666667       0.00000000 </v>
   <v>       0.25000000       0.33333333       0.00000000 </v>
   <v>      -0.41666667      -0.25000000       0.00000000 </v>
   <v>       0.33333333       0.33333333       0.00000000 </v>
  </varray>
  <varray name="weights" >
   <v>       0.00694444 </v>
   <v>       0.01388889 </v>
   <v>       0.01388889 </v>
   <v>       0.01388889 </v>
   <v>       0.01388889 </v>
   <v>       0.01388889 </v>
   <v>       0.01388889 </v>
   <v>       0.01388889 </v>
   <v>       0.01388889 </v>
   <v>       0.01388889 </v>
   <v>       0.01388889 </v>
   <v>       0.01388889 </v>
   <v>       0.01388889 </v>
   <v>       0.01388889 </v>
   <v>       0.01388889 </v>
   <v>       0.01388889 </v>
   <v>       0.00694444 </v>
   <v>       0.00694444 </v>
   <v>       0.00694444 </v>
   <v>       0.01388889 </v>
   <v>       0.01388889 </v>
   <v>       0.01388889 </v>
   <v>       0.01388889 </v>
   <v>       0.01388889 </v>
   <v>       0.01388889 </v>
   <v>       0.01388889 </v>
   <v>       0.01388889 </v>
   <v>       0.01388889 </v>
   <v>       0.01388889 </v>
   <v>       0.01388889 </v>
   <v>       0.01388889 </v>
   <v>       0.01388889 </v>
   <v>       0.01388889 </v>
   <v>       0.01388889 </v>
   <v>       0.01388889 </v>
   <v>       0.01388889 </v>
   <v>       0.01388889 </v>
   <v>       0.01388889 </v>
   <v>       0.01388889 </v>
   <v>       0.01388889 </v>
   <v>       0.01388889 </v>
   <v>       0.01388889 </v>
   <v>       0.01388889 </v>
   <v>       0.01388889 </v>
   <v>       0.01388889 </v>
   <v>       0.01388889 </v>
   <v>       0.01388889 </v>
   <v>       0.01388889 </v>
   <v>       0.01388889 </v>
   <v>       0.01388889 </v>
   <v>       0.01388889 </v>
   <v>       0.01388889 </v>
   <v>       0.01388889 </v>
   <v>       0.01388889 </v>
   <v>       0.01388889 </v>
   <v>       0.01388889 </v>
   <v>       0.01388889 </v>
   <v>       0.01388889 </v>
   <v>       0.01388889 </v>
   <v>       0.01388889 </v>
   <v>       0.01388889 </v>
   <v>       0.01388889 </v>
   <v>       0.01388889 </v>
   <v>       0.01388889 </v>
   <v>       0.01388889 </v>
   <v>       0.01388889 </v>
   <v>       0.01388889 </v>
   <v>       0.01388889 </v>
   <v>       0.01388889 </v>
   <v>       0.01388889 </v>
   <v>       0.01388889 </v>
   <v>       0.01388889 </v>
   <v>       0.01388889 </v>
   <v>       0.01388889 </v>
  </varray>
 </kpoints>
 <parameters>
  <separator name="general" >
   <i type="string" name="SYSTEM">Lattice</i>
   <i type="logical" name="LCOMPAT"> F  </i>
  </separator>
  <separator name="electronic" >
   <i type="string" name="PREC">accura</i>
   <i name="ENMAX">    450.00000000</i>
   <i name="ENAUG">    644.87300000</i>
   <i name="EDIFF">      0.00000100</i>
   <i type="int" name="IALGO">    38</i>
   <i type="int" name="IWAVPR">    11</i>
   <i type="int" name="NBANDS">    48</i>
   <i type="int" name="NBANDSLOW">    -1</i>
   <i type="int" name="NBANDSHIGH">    -1</i>
   <i name="NELECT">     62.00000000</i>
   <i type="int" name="TURBO">     0</i>
   <i type="int" name="IRESTART">     0</i>
   <i type="int" name="NREBOOT">     0</i>
   <i type="int" name="NMIN">     0</i>
   <i name="EREF">      0.00000000</i>
   <separator name="electronic smearing" >
    <i type="int" name="ISMEAR">     0</i>
    <i name="SIGMA">      0.10000000</i>
    <i name="KSPACING">      0.50000000</i>
    <i type="logical" name="KGAMMA"> T  </i>
    <i type="logical" name="KBLOWUP"> T  </i>
   </separator>
   <separator name="electronic projectors" >
    <i type="logical" name="LREAL"> F  </i>
    <v name="ROPT">      0.00000000      0.00000000</v>
    <i type="int" name="LMAXPAW">  -100</i>
    <i type="int" name="LMAXMIX">     2</i>
    <i type="logical" name="NLSPLINE"> F  </i>
   </separator>
   <separator name="electronic startup" >
    <i type="int" name="ISTART">     0</i>
    <i type="int" name="ICHARG">     2</i>
    <i type="int" name="INIWAV">     1</i>
   </separator>
   <separator name="electronic spin" >
    <i type="int" name="ISPIN">     2</i>
    <i type="logical" name="LNONCOLLINEAR"> F  </i>
    <v name="MAGMOM">      1.00000000      1.00000000      1.00000000      1.00000000      1.00000000      1.00000000      1.00000000      1.00000000      1.00000000      1.00000000      1.00000000      1.00000000      1.00000000      1.00000000      1.00000000      1.00000000</v>
    <i name="NUPDOWN">     -1.00000000</i>
    <i type="logical" name="LSORBIT"> F  </i>
    <v name="SAXIS">      0.00000000      0.00000000      1.00000000</v>
    <i type="logical" name="LSPIRAL"> F  </i>
    <v name="QSPIRAL">      0.00000000      0.00000000      0.00000000</v>
    <i type="logical" name="LZEROZ"> F  </i>
   </separator>
   <separator name="electronic exchange-correlation" >
    <i type="logical" name="LASPH"> F  </i>
    <i type="logical" name="LMETAGGA"> F  </i>
   </separator>
   <separator name="electronic convergence" >
    <i type="int" name="NELM">    64</i>
    <i type="int" name="NELMDL">    -5</i>
    <i type="int" name="NELMIN">     2</i>
    <i name="ENINI">    450.00000000</i>
    <separator name="electronic convergence detail" >
     <i type="logical" name="LDIAG"> T  </i>
     <i type="logical" name="LSUBROT"> F  </i>
     <i name="WEIMIN">      0.00100000</i>
     <i name="EBREAK">      0.00000001</i>
     <i name="DEPER">      0.30000000</i>
     <i type="int" name="NRMM">     4</i>
     <i name="TIME">      0.40000000</i>
    </separator>
   </separator>
   <separator name="electronic mixer" >
    <i name="AMIX">      0.40000000</i>
    <i name="BMIX">      1.00000000</i>
    <i name="AMIN">      0.10000000</i>
    <i name="AMIX_MAG">      1.60000000</i>
    <i name="BMIX_MAG">      1.00000000</i>
    <separator name="electronic mixer details" >
     <i type="int" name="IMIX">     4</i>
     <i type="logical" name="MIXFIRST"> F  </i>
     <i type="int" name="MAXMIX">   -45</i>
     <i name="WC">    100.00000000</i>
     <i type="int" name="INIMIX">     1</i>
     <i type="int" name="MIXPRE">     1</i>
     <i type="int" name="MREMOVE">     5</i>
    </separator>
   </separator>
   <separator name="electronic dipolcorrection" >
    <i type="logical" name="LDIPOL"> F  </i>
    <i type="logical" name="LMONO"> F  </i>
    <i type="int" name="IDIPOL">     0</i>
    <i name="EPSILON">      1.00000000</i>
    <v name="DIPOL">   -100.00000000   -100.00000000   -100.00000000</v>
    <i name="EFIELD">      0.00000000</i>
   </separator>
  </separator>
  <separator name="grids" >
   <i type="int" name="NGX">    36</i>
   <i type="int" name="NGY">    36</i>
   <i type="int" name="NGZ">   108</i>
   <i type="int" name="NGXF">    72</i>
   <i type="int" name="NGYF">    72</i>
   <i type="int" name="NGZF">   216</i>
   <i type="logical" name="ADDGRID"> F  </i>
  </separator>
  <separator name="ionic" >
   <i type="int" name="NSW">   128</i>
   <i type="int" name="IBRION">     2</i>
   <i type="int" name="MDALGO">     0</i>
   <i type="int" name="ISIF">     2</i>
   <i name="PSTRESS">      0.00000000</i>
   <i name="EDIFFG">     -0.00100000</i>
   <i type="int" name="NFREE">     1</i>
   <i name="POTIM">      0.50000000</i>
   <i name="SMASS">     -3.00000000</i>
   <i name="SCALEE">      1.00000000</i>
  </separator>
  <separator name="ionic md" >
   <i name="TEBEG">      0.00010000</i>
   <i name="TEEND">      0.00010000</i>
   <i type="int" name="NBLOCK">     1</i>
   <i type="int" name="KBLOCK">   128</i>
   <i type="int" name="NPACO">   256</i>
   <i name="APACO">     10.00000000</i>
  </separator>
  <separator name="symmetry" >
   <i type="int" name="ISYM">     2</i>
   <i name="SYMPREC">      0.00001000</i>
  </separator>
  <separator name="dos" >
   <i type="int" name="LORBIT">     0</i>
   <v name="RWIGS">     -1.00000000     -1.00000000</v>
   <i type="int" name="NEDOS">   301</i>
   <i name="EMIN">     10.00000000</i>
   <i name="EMAX">    -10.00000000</i>
   <i name="EFERMI">      0.00000000</i>
  </separator>
  <separator name="writing" >
   <i type="int" name="NWRITE">     2</i>
   <i type="logical" name="LWAVE"> F  </i>
   <i type="logical" name="LDOWNSAMPLE"> F  </i>
   <i type="logical" name="LCHARG"> F  </i>
   <i type="logical" name="LPARD"> F  </i>
   <i type="logical" name="LVTOT"> F  </i>
   <i type="logical" name="LVHAR"> F  </i>
   <i type="logical" name="LELF"> F  </i>
   <i type="logical" name="LOPTICS"> F  </i>
   <v name="STM">      0.00000000      0.00000000      0.00000000      0.00000000      0.00000000      0.00000000      0.00000000</v>
  </separator>
  <separator name="performance" >
   <i type="int" name="NPAR">    48</i>
   <i type="int" name="NSIM">     4</i>
   <i type="int" name="NBLK">    -1</i>
   <i type="logical" name="LPLANE"> T  </i>
   <i type="logical" name="LSCALAPACK"> T  </i>
   <i type="logical" name="LSCAAWARE"> F  </i>
   <i type="logical" name="LSCALU"> F  </i>
   <i type="logical" name="LASYNC"> F  </i>
   <i type="logical" name="LORBITALREAL"> F  </i>
  </separator>
  <separator name="miscellaneous" >
   <i type="int" name="IDIOT">     3</i>
   <i type="int" name="PHON_NSTRUCT">    -1</i>
   <i type="logical" name="LMUSIC"> F  </i>
   <v name="POMASS">     10.81100000     12.01100000</v>
   <v name="DARWINR">      0.00000000      0.00000000</v>
   <v name="DARWINV">      1.00000000      1.00000000</v>
   <i type="logical" name="LCORR"> T  </i>
  </separator>
  <i type="logical" name="GGA_COMPAT"> T  </i>
  <i type="logical" name="LBERRY"> F  </i>
  <i type="int" name="ICORELEVEL">     0</i>
  <i type="logical" name="LDAU"> F  </i>
  <i type="int" name="I_CONSTRAINED_M">     0</i>
  <separator name="electronic exchange-correlation" >
   <i type="string" name="GGA">PE</i>
   <i type="int" name="VOSKOWN">     0</i>
   <i type="logical" name="LHFCALC"> F  </i>
   <i type="string" name="PRECFOCK"></i>
   <i type="logical" name="LSYMGRAD"> F  </i>
   <i type="logical" name="LHFONE"> F  </i>
   <i type="logical" name="LRHFCALC"> F  </i>
   <i type="logical" name="LTHOMAS"> F  </i>
   <i type="logical" name="LMODELHF"> F  </i>
   <i type="logical" name="LFOCKACE"> F  </i>
   <i name="ENCUT4O">     -1.00000000</i>
   <i type="int" name="EXXOEP">     0</i>
   <i type="int" name="FOURORBIT">     0</i>
   <i name="AEXX">      0.00000000</i>
   <i name="HFALPHA">      0.00000000</i>
   <i name="MCALPHA">      0.00000000</i>
   <i name="ALDAX">      1.00000000</i>
   <i name="AGGAX">      1.00000000</i>
   <i name="ALDAC">      1.00000000</i>
   <i name="AGGAC">      1.00000000</i>
   <i type="int" name="NKREDX">     1</i>
   <i type="int" name="NKREDY">     1</i>
   <i type="int" name="NKREDZ">     1</i>
   <i type="logical" name="SHIFTRED"> F  </i>
   <i type="logical" name="ODDONLY"> F  </i>
   <i type="logical" name="EVENONLY"> F  </i>
   <i type="int" name="LMAXFOCK">     0</i>
   <i type="int" name="NMAXFOCKAE">     0</i>
   <i type="logical" name="LFOCKAEDFT"> F  </i>
   <i name="HFSCREEN">      0.00000000</i>
   <i name="HFSCREENC">      0.00000000</i>
   <i type="int" name="NBANDSGWLOW">     0</i>
  </separator>
  <separator name="vdW DFT" >
   <i type="logical" name="LUSE_VDW"> F  </i>
   <i name="Zab_VDW">     -0.84910000</i>
   <i name="PARAM1">      0.12340000</i>
   <i name="PARAM2">      1.00000000</i>
   <i name="PARAM3">      0.00000000</i>
  </separator>
  <separator name="model GW" >
   <i type="int" name="MODEL_GW">     0</i>
   <i name="MODEL_EPS0">     12.40359710</i>
   <i name="MODEL_ALPHA">      1.00000000</i>
  </separator>
  <separator name="linear response parameters" >
   <i type="logical" name="LEPSILON"> F  </i>
   <i type="logical" name="LRPA"> F  </i>
   <i type="logical" name="LNABLA"> F  </i>
   <i type="logical" name="LVEL"> F  </i>
   <i name="CSHIFT">      0.10000000</i>
   <i name="OMEGAMAX">     -1.00000000</i>
   <i name="DEG_THRESHOLD">      0.00200000</i>
   <i name="RTIME">     -0.10000000</i>
   <i name="WPLASMAI">      0.00000000</i>
   <v name="DFIELD">      0.00000000      0.00000000      0.00000000</v>
   <v name="WPLASMA">      0.00000000      0.00000000      0.00000000      0.00000000      0.00000000      0.00000000      0.00000000      0.00000000      0.00000000</v>
  </separator>
  <separator name="orbital magnetization" >
   <i type="logical" name="NUCIND"> F  </i>
   <v name="MAGPOS">      0.00000000      0.00000000      0.00000000</v>
   <i type="logical" name="LNICSALL"> T  </i>
   <i type="logical" name="ORBITALMAG"> F  </i>
   <i type="logical" name="LMAGBLOCH"> F  </i>
   <i type="logical" name="LCHIMAG"> F  </i>
   <i type="logical" name="LGAUGE"> T  </i>
   <i type="int" name="MAGATOM">     0</i>
   <v name="MAGDIPOL">      0.00000000      0.00000000      0.00000000</v>
   <v name="AVECCONST">      0.00000000      0.00000000      0.00000000</v>
  </separator>
  <separator name="response functions" >
   <i type="logical" name="LFINITE_TEMPERATURE"> F  </i>
   <i type="logical" name="LADDER"> F  </i>
   <i type="logical" name="LRPAFORCE"> F  </i>
   <i type="logical" name="LFXC"> F  </i>
   <i type="logical" name="LHARTREE"> T  </i>
   <i type="int" name="IBSE">     0</i>
   <v type="int" name="KPOINT">    -1     0     0     0</v>
   <i type="logical" name="LTCTC"> F  </i>
   <i type="logical" name="LTCTE"> F  </i>
   <i type="logical" name="LTETE"> F  </i>
   <i type="logical" name="LTRIPLET"> F  </i>
   <i type="logical" name="LFXCEPS"> F  </i>
   <i type="logical" name="LFXHEG"> F  </i>
   <i type="int" name="NATURALO">     2</i>
   <i type="logical" name="LHOLEGF"> F  </i>
   <i type="logical" name="L2ORDER"> F  </i>
   <i type="logical" name="LDMP1"> F  </i>
   <i type="logical" name="LMP2LT"> F  </i>
   <i type="logical" name="LSMP2LT"> F  </i>
   <i type="logical" name="LGWLF"> F  </i>
   <i name="ENCUTGW">     -2.00000000</i>
   <i name="ENCUTGWSOFT">     -2.00000000</i>
   <i name="ENCUTLF">     -1.00000000</i>
   <i type="logical" name="LESF_SPLINES"> F  </i>
   <i type="int" name="LMAXMP2">    -1</i>
   <i name="SCISSOR">      0.00000000</i>
   <i type="int" name="NOMEGA">     0</i>
   <i type="int" name="NOMEGAR">     0</i>
   <i type="int" name="NBANDSGW">    -1</i>
   <i type="int" name="NBANDSO">    -1</i>
   <i type="int" name="NBANDSV">    -1</i>
   <i type="int" name="NELMGW">     1</i>
   <i type="int" name="NELMHF">     1</i>
   <i type="int" name="DIM">     3</i>
   <i type="int" name="IESPILON">     4</i>
   <i type="int" name="ANTIRES">     0</i>
   <i name="OMEGAMAX">    -30.00000000</i>
   <i name="OMEGAMIN">    -30.00000000</i>
   <i name="OMEGATL">   -200.00000000</i>
   <i type="int" name="OMEGAGRID">     0</i>
   <i name="CSHIFT">     -0.10000000</i>
   <i type="logical" name="LSELFENERGY"> F  </i>
   <i type="logical" name="LSPECTRAL"> F  </i>
   <i type="logical" name="LSPECTRALGW"> F  </i>
   <i type="logical" name="LSINGLES"> F  </i>
   <i type="logical" name="LFERMIGW"> F  </i>
   <i type="logical" name="ODDONLYGW"> F  </i>
   <i type="logical" name="EVENONLYGW"> F  </i>
   <i type="int" name="NKREDLFX">     1</i>
   <i type="int" name="NKREDLFY">     1</i>
   <i type="int" name="NKREDLFZ">     1</i>
   <i type="int" name="MAXMEM">  2800</i>
   <i type="int" name="TELESCOPE">     0</i>
   <i type="int" name="NTAUPAR">    -1</i>
   <i type="int" name="NOMEGAPAR">    -1</i>
   <i name="DAMP_NEWTON">      0.80000001</i>
   <i name="LAMBDA">      1.00000000</i>
  </separator>
  <separator name="External order field" >
   <i name="OFIELD_KAPPA">      0.00000000</i>
   <v name="OFIELD_K">      0.00000000      0.00000000      0.00000000</v>
   <i name="OFIELD_Q6_NEAR">      0.00000000</i>
   <i name="OFIELD_Q6_FAR">      0.00000000</i>
   <i name="OFIELD_A">      0.00000000</i>
  </separator>
  <separator name="optional k-points parameters" >
   <i type="int" name="KPOINTS_OPT_MODE">     1</i>
   <i type="logical" name="LKPOINTS_OPT"> F  </i>
  </separator>
  <separator name="solvation model" >
   <i type="logical" name="LSOL"> F  </i>
  </separator>
 </parameters>
 <atominfo>
  <atoms>      16 </atoms>
  <types>       2 </types>
  <array name="atoms" >
   <dimension dim="1">ion</dimension>
   <field type="string">element</field>
   <field type="int">atomtype</field>
   <set>
    <rc><c>B </c><c>   1</c></rc>
    <rc><c>B </c><c>   1</c></rc>
    <rc><c>C </c><c>   2</c></rc>
    <rc><c>C </c><c>   2</c></rc>
    <rc><c>C </c><c>   2</c></rc>
    <rc><c>C </c><c>   2</c></rc>
    <rc><c>C </c><c>   2</c></rc>
    <rc><c>C </c><c>   2</c></rc>
    <rc><c>C </c><c>   2</c></rc>
    <rc><c>C </c><c>   2</c></rc>
    <rc><c>C </c><c>   2</c></rc>
    <rc><c>C </c><c>   2</c></rc>
    <rc><c>C </c><c>   2</c></rc>
    <rc><c>C </c><c>   2</c></rc>
    <rc><c>C </c><c>   2</c></rc>
    <rc><c>C </c><c>   2</c></rc>
   </set>
  </array>
  <array name="atomtypes" >
   <dimension dim="1">type</dimension>
   <field type="int">atomspertype</field>
   <field type="string">element</field>
   <field>mass</field>
   <field>valence</field>
   <field type="string">pseudopotential</field>
   <set>
    <rc><c>   2</c><c>B </c><c>     10.81100000</c><c>      3.00000000</c><c>  PAW_PBE B 06Sep2000                   </c></rc>
    <rc><c>  14</c><c>C </c><c>     12.01100000</c><c>      4.00000000</c><c>  PAW_PBE C 08Apr2002                   </c></rc>
   </set>
  </array>
 </atominfo>
 <structure name="initialpos" >
  <crystal>
   <varray name="basis" >
    <v>       4.36996419       2.52300000       0.00000000 </v>
    <v>      -4.36996419       2.52300000       0.00000000 </v>
    <v>       0.00000000       0.00000000      15.00000000 </v>
   </varray>
   <i name="volume">    330.76258935 </i>
   <varray name="rec_basis" >
    <v>       0.11441741       0.19817677       0.00000000 </v>
    <v>      -0.11441741       0.19817677       0.00000000 </v>
    <v>       0.00000000       0.00000000       0.06666667 </v>
   </varray>
  </crystal>
  <varray name="positions" >
   <v>       0.33833034       0.66916432       0.10000000 </v>
   <v>       0.67165522       0.33584146       0.10000000 </v>
   <v>       0.16373946       0.31999962       0.10000000 </v>
   <v>       0.32250218       0.16126397       0.10000000 </v>
   <v>       0.16376430       0.84376384       0.10000000 </v>
   <v>       0.84623863       0.16123684       0.10000000 </v>
   <v>       0.68749850       0.84373000       0.10000000 </v>
   <v>       0.84626736       0.68499594       0.10000000 </v>
   <v>       0.24999933       0.24999967       0.32633333 </v>
   <v>       0.41666633       0.08333267       0.32633333 </v>
   <v>       0.24999933       0.74999967       0.32633333 </v>
   <v>       0.41666633       0.58333267       0.32633333 </v>
   <v>       0.74999933       0.24999967       0.32633333 </v>
   <v>       0.91666633       0.08333267       0.32633333 </v>
   <v>       0.74999933       0.74999967       0.32633333 </v>
   <v>       0.91666633       0.58333267       0.32633333 </v>
  </varray>
 </structure>
 <calculation>
  <scstep>
   <time name="dav">    5.69    5.75</time>
   <time name="total">    5.73    5.80</time>
   <energy>
    <i name="alphaZ">     62.49004184 </i>
    <i name="ewald">   5427.69798867 </i>
    <i name="hartreedc">  -7245.95902588 </i>
    <i name="XCdc">    199.75139747 </i>
    <i name="pawpsdc">   1604.28699987 </i>
    <i name="pawaedc">  -1610.37247880 </i>
    <i name="eentropy">     -0.01927182 </i>
    <i name="bandstr">   -381.76907028 </i>
    <i name="atom">   2202.35892741 </i>
    <i name="e_fr_energy">    258.46550849 </i>
    <i name="e_wo_entrp">    258.48478032 </i>
    <i name="e_0_energy">    258.47514440 </i>
   </energy>
  </scstep>
  <scstep>
   <time name="dav">    8.83    8.91</time>
   <time name="total">    8.83    8.91</time>
   <energy>
    <i name="e_fr_energy">   -129.95120771 </i>
    <i name="e_wo_entrp">   -129.94193130 </i>
    <i name="e_0_energy">   -129.94656950 </i>
   </energy>
  </scstep>
  <scstep>
   <time name="dav">   10.80   10.90</time>
   <time name="total">   10.81   10.90</time>
   <energy>
    <i name="e_fr_energy">   -145.67490618 </i>
    <i name="e_wo_entrp">   -145.66805054 </i>
    <i name="e_0_energy">   -145.67147836 </i>
   </energy>
  </scstep>
  <scstep>
   <time name="dav">    9.38    9.46</time>
   <time name="total">    9.38    9.46</time>
   <energy>
    <i name="e_fr_energy">   -145.72610732 </i>
    <i name="e_wo_entrp">   -145.71919239 </i>
    <i name="e_0_energy">   -145.72264986 </i>
   </energy>
  </scstep>
  <scstep>
   <time name="dav">    9.93   10.00</time>
   <time name="total">   10.19   10.28</time>
   <energy>
    <i name="e_fr_energy">   -145.72618206 </i>
    <i name="e_wo_entrp">   -145.71926725 </i>
    <i name="e_0_energy">   -145.72272466 </i>
   </energy>
  </scstep>
  <scstep>
   <time name="dav">   10.04   10.12</time>
   <time name="total">   10.34   10.43</time>
   <energy>
    <i name="e_fr_energy">   -107.19204377 </i>
    <i name="e_wo_entrp">   -107.17057365 </i>
    <i name="e_0_energy">   -107.18130871 </i>
   </energy>
  </scstep>
  <scstep>
   <time name="dav">    9.80    9.87</time>
   <time name="total">   10.10   10.18</time>
   <energy>
    <i name="e_fr_energy">   -114.40443890 </i>
    <i name="e_wo_entrp">   -114.38642308 </i>
    <i name="e_0_energy">   -114.39543099 </i>
   </energy>
  </scstep>
  <scstep>
   <time name="dav">   10.54   10.62</time>
   <time name="total">   10.84   10.93</time>
   <energy>
    <i name="e_fr_energy">   -123.60809150 </i>
    <i name="e_wo_entrp">   -123.60119840 </i>
    <i name="e_0_energy">   -123.60464495 </i>
   </energy>
  </scstep>
  <scstep>
   <time name="dav">    7.03    7.09</time>
   <time name="total">    7.32    7.39</time>
   <energy>
    <i name="e_fr_energy">   -131.40293440 </i>
    <i name="e_wo_entrp">   -131.39802580 </i>
    <i name="e_0_energy">   -131.40048010 </i>
   </energy>
  </scstep>
  <scstep>
   <time name="dav">    9.04    9.11</time>
   <time name="total">    9.33    9.41</time>
   <energy>
    <i name="e_fr_energy">   -138.57681853 </i>
    <i name="e_wo_entrp">   -138.57489305 </i>
    <i name="e_0_energy">   -138.57585579 </i>
   </energy>
  </scstep>
  <scstep>
   <time name="dav">    8.90    8.96</time>
   <time name="total">    9.20    9.27</time>
   <energy>
    <i name="e_fr_energy">   -140.04290829 </i>
    <i name="e_wo_entrp">   -140.04112138 </i>
    <i name="e_0_energy">   -140.04201484 </i>
   </energy>
  </scstep>
  <scstep>
   <time name="dav">    8.41    8.47</time>
   <time name="total">    8.70    8.77</time>
   <energy>
    <i name="e_fr_energy">   -140.29309017 </i>
    <i name="e_wo_entrp">   -140.29139539 </i>
    <i name="e_0_energy">   -140.29224278 </i>
   </energy>
  </scstep>
  <scstep>
   <time name="dav">    6.71    6.77</time>
   <time name="total">    7.00    7.07</time>
   <energy>
    <i name="e_fr_energy">   -140.34609229 </i>
    <i name="e_wo_entrp">   -140.34420038 </i>
    <i name="e_0_energy">   -140.34514634 </i>
   </energy>
  </scstep>
  <scstep>
   <time name="dav">    7.89    7.94</time>
   <time name="total">    8.18    8.24</time>
   <energy>
    <i name="e_fr_energy">   -140.37062658 </i>
    <i name="e_wo_entrp">   -140.36858873 </i>
    <i name="e_0_energy">   -140.36960766 </i>
   </energy>
  </scstep>
  <scstep>
   <time name="dav">    7.51    7.57</time>
   <time name="total">    7.81    7.87</time>
   <energy>
    <i name="e_fr_energy">   -140.37961596 </i>
    <i name="e_wo_entrp">   -140.37748398 </i>
    <i name="e_0_energy">   -140.37854997 </i>
   </energy>
  </scstep>
  <scstep>
   <time name="dav">    5.78    5.82</time>
   <time name="total">    6.07    6.13</time>
   <energy>
    <i name="e_fr_energy">   -140.38103317 </i>
    <i name="e_wo_entrp">   -140.37887478 </i>
    <i name="e_0_energy">   -140.37995398 </i>
   </energy>
  </scstep>
  <scstep>
   <time name="dav">    6.55    6.61</time>
   <time name="total">    6.84    6.91</time>
   <energy>
    <i name="e_fr_energy">   -140.38276860 </i>
    <i name="e_wo_entrp">   -140.38060964 </i>
    <i name="e_0_energy">   -140.38168912 </i>
   </energy>
  </scstep>
  <scstep>
   <time name="dav">    6.11    6.16</time>
   <time name="total">    6.40    6.46</time>
   <energy>
    <i name="e_fr_energy">   -140.38381647 </i>
    <i name="e_wo_entrp">   -140.38167056 </i>
    <i name="e_0_energy">   -140.38274351 </i>
   </energy>
  </scstep>
  <scstep>
   <time name="dav">    7.59    7.64</time>
   <time name="total">    7.88    7.95</time>
   <energy>
    <i name="e_fr_energy">   -140.38432396 </i>
    <i name="e_wo_entrp">   -140.38218223 </i>
    <i name="e_0_energy">   -140.38325310 </i>
   </energy>
  </scstep>
  <scstep>
   <time name="dav">    6.47    6.53</time>
   <time name="total">    6.76    6.83</time>
   <energy>
    <i name="e_fr_energy">   -140.38447809 </i>
    <i name="e_wo_entrp">   -140.38233033 </i>
    <i name="e_0_energy">   -140.38340421 </i>
   </energy>
  </scstep>
  <scstep>
   <time name="dav">    7.62    7.66</time>
   <time name="total">    7.91    7.96</time>
   <energy>
    <i name="e_fr_energy">   -140.38452292 </i>
    <i name="e_wo_entrp">   -140.38237050 </i>
    <i name="e_0_energy">   -140.38344671 </i>
   </energy>
  </scstep>
  <scstep>
   <time name="dav">   10.06   10.12</time>
   <time name="total">   10.34   10.42</time>
   <energy>
    <i name="e_fr_energy">   -140.38452842 </i>
    <i name="e_wo_entrp">   -140.38237546 </i>
    <i name="e_0_energy">   -140.38345194 </i>
   </energy>
  </scstep>
  <scstep>
   <time name="dav">    8.24    8.30</time>
   <time name="total">    8.53    8.61</time>
   <energy>
    <i name="e_fr_energy">   -140.38453546 </i>
    <i name="e_wo_entrp">   -140.38238206 </i>
    <i name="e_0_energy">   -140.38345876 </i>
   </energy>
  </scstep>
  <scstep>
   <time name="dav">    9.06    9.12</time>
   <time name="total">    9.35    9.42</time>
   <energy>
    <i name="e_fr_energy">   -140.38453917 </i>
    <i name="e_wo_entrp">   -140.38238599 </i>
    <i name="e_0_energy">   -140.38346258 </i>
   </energy>
  </scstep>
  <scstep>
   <time name="dav">    8.65    8.71</time>
   <time name="total">    8.94    9.01</time>
   <energy>
    <i name="e_fr_energy">   -140.38454088 </i>
    <i name="e_wo_entrp">   -140.38238823 </i>
    <i name="e_0_energy">   -140.38346455 </i>
   </energy>
  </scstep>
  <scstep>
   <time name="dav">    7.46    7.51</time>
   <time name="total">    7.74    7.81</time>
   <energy>
    <i name="e_fr_energy">   -140.38454188 </i>
    <i name="e_wo_entrp">   -140.38238949 </i>
    <i name="e_0_energy">   -140.38346569 </i>
   </energy>
  </scstep>
  <scstep>
   <time name="dav">    7.07    7.12</time>
   <time name="total">    7.11    7.16</time>
   <energy>
    <i name="alphaZ">     62.49004184 </i>
    <i name="ewald">   5427.69798867 </i>
    <i name="hartreedc">  -7477.25098911 </i>
    <i name="XCdc">    206.35947355 </i>
    <i name="pawpsdc">   6301.92236093 </i>
    <i name="pawaedc">  -6309.92890659 </i>
    <i name="eentropy">     -0.00215238 </i>
    <i name="bandstr">   -554.03128654 </i>
    <i name="atom">   2202.35892741 </i>
    <i name="e_fr_energy">   -140.38454220 </i>
    <i name="e_wo_entrp">   -140.38238983 </i>
    <i name="e_0_energy">   -140.38346602 </i>
   </energy>
  </scstep>
  <structure>
   <crystal>
    <varray name="basis" >
     <v>       4.36996419       2.52300000       0.00000000 </v>
     <v>      -4.36996419       2.52300000       0.00000000 </v>
     <v>       0.00000000       0.00000000      15.00000000 </v>
    </varray>
    <i name="volume">    330.76258935 </i>
    <varray name="rec_basis" >
     <v>       0.11441741       0.19817677       0.00000000 </v>
     <v>      -0.11441741       0.19817677       0.00000000 </v>
     <v>       0.00000000       0.00000000       0.06666667 </v>
    </varray>
   </crystal>
   <varray name="positions" >
    <v>       0.33833034       0.66916432       0.10000000 </v>
    <v>       0.67165522       0.33584146       0.10000000 </v>
    <v>       0.16373946       0.31999962       0.10000000 </v>
    <v>       0.32250218       0.16126397       0.10000000 </v>
    <v>       0.16376430       0.84376384       0.10000000 </v>
    <v>       0.84623863       0.16123684       0.10000000 </v>
    <v>       0.68749850       0.84373000       0.10000000 </v>
    <v>       0.84626736       0.68499594       0.10000000 </v>
    <v>       0.24999933       0.24999967       0.32633333 </v>
    <v>       0.41666633       0.08333267       0.32633333 </v>
    <v>       0.24999933       0.74999967       0.32633333 </v>
    <v>       0.41666633       0.58333267       0.32633333 </v>
    <v>       0.74999933       0.24999967       0.32633333 </v>
    <v>       0.91666633       0.08333267       0.32633333 </v>
    <v>       0.74999933       0.74999967       0.32633333 </v>
    <v>       0.91666633       0.58333267       0.32633333 </v>
   </varray>
  </structure>
  <varray name="forces" >
   <v>       0.01981266       0.00013227       0.04458792 </v>
   <v>       0.02517079      -0.00006685       0.02607590 </v>
   <v>      -0.28903678       0.50596808      -0.01784744 </v>
   <v>       0.27444734       0.48198020      -0.00818484 </v>
   <v>       0.55252218      -0.00029703      -0.01411954 </v>
   <v>      -0.58561642      -0.00088547      -0.01274273 </v>
   <v>      -0.28989394      -0.50377460      -0.01773145 </v>
   <v>       0.27113911      -0.48269626      -0.00810899 </v>
   <v>       0.02424022      -0.02818343       0.02262344 </v>
   <v>      -0.02845021      -0.02170946       0.01971835 </v>
   <v>      -0.03315387       0.00061694      -0.01965247 </v>
   <v>       0.01939118      -0.00018918      -0.03220139 </v>
   <v>       0.00711210      -0.00045383      -0.03878489 </v>
   <v>       0.03727759      -0.00039725       0.01518910 </v>
   <v>       0.02367366       0.02857719       0.02308639 </v>
   <v>      -0.02863562       0.02137869       0.01809265 </v>
  </varray>
  <varray name="stress" >
   <v>      -0.99429278      -0.00463810       0.35096945 </v>
   <v>      -0.00463806      -1.19530240      -0.00851298 </v>
   <v>       0.35096945      -0.00851299      -2.21315324 </v>
  </varray>
  <energy>
   <i name="e_fr_energy">   -142.27123541 </i>
   <i name="e_wo_entrp">   -142.26908304 </i>
   <i name="e_0_energy">   -142.27015923 </i>
  </energy>
  <time name="totalsc">  232.91  234.90</time>
 </calculation>
 <calculation>
  <scstep>
   <time name="dav">    5.67    5.71</time>
   <time name="total">    5.96    6.01</time>
   <energy>
    <i name="alphaZ">     62.49004184 </i>
    <i name="ewald">   5418.86243442 </i>
    <i name="hartreedc">  -7470.77167968 </i>
    <i name="XCdc">    206.22139185 </i>
    <i name="pawpsdc">   6301.92351928 </i>
    <i name="pawaedc">  -6309.93006986 </i>
    <i name="eentropy">     -0.00284449 </i>
    <i name="bandstr">   -551.49404079 </i>
    <i name="atom">   2202.35892741 </i>
    <i name="e_fr_energy">   -140.34232003 </i>
    <i name="e_wo_entrp">   -140.33947553 </i>
    <i name="e_0_energy">   -140.34089778 </i>
   </energy>
  </scstep>
  <scstep>
   <time name="dav">   10.46   10.54</time>
   <time name="total">   10.75   10.84</time>
   <energy>
    <i name="e_fr_energy">   -140.30597512 </i>
    <i name="e_wo_entrp">   -140.30297761 </i>
    <i name="e_0_energy">   -140.30447636 </i>
   </energy>
  </scstep>
  <scstep>
   <time name="dav">    9.68    9.74</time>
   <time name="total">    9.97   10.04</time>
   <energy>
    <i name="e_fr_energy">   -140.30234865 </i>
    <i name="e_wo_entrp">   -140.29942147 </i>
    <i name="e_0_energy">   -140.30088506 </i>
   </energy>
  </scstep>
  <scstep>
   <time name="dav">    7.49    7.55</time>
   <time name="total">    7.78    7.85</time>
   <energy>
    <i name="e_fr_energy">   -140.30228507 </i>
    <i name="e_wo_entrp">   -140.29937124 </i>
    <i name="e_0_energy">   -140.30082816 </i>
   </energy>
  </scstep>
  <scstep>
   <time name="dav">    8.79    8.85</time>
   <time name="total">    9.08    9.15</time>
   <energy>
    <i name="e_fr_energy">   -140.30228644 </i>
    <i name="e_wo_entrp">   -140.29940539 </i>
    <i name="e_0_energy">   -140.30084592 </i>
   </energy>
  </scstep>
  <scstep>
   <time name="dav">    8.92    8.98</time>
   <time name="total">    9.21    9.28</time>
   <energy>
    <i name="e_fr_energy">   -140.30229123 </i>
    <i name="e_wo_entrp">   -140.29940725 </i>
    <i name="e_0_energy">   -140.30084924 </i>
   </energy>
  </scstep>
  <scstep>
   <time name="dav">    8.61    8.67</time>
   <time name="total">    8.89    8.97</time>
   <energy>
    <i name="e_fr_energy">   -140.30230161 </i>
    <i name="e_wo_entrp">   -140.29941310 </i>
    <i name="e_0_energy">   -140.30085736 </i>
   </energy>
  </scstep>
  <scstep>
   <time name="dav">    9.37    9.43</time>
   <time name="total">    9.66    9.73</time>
   <energy>
    <i name="e_fr_energy">   -140.30231135 </i>
    <i name="e_wo_entrp">   -140.29942425 </i>
    <i name="e_0_energy">   -140.30086780 </i>
   </energy>
  </scstep>
  <scstep>
   <time name="dav">    7.50    7.54</time>
   <time name="total">    7.78    7.84</time>
   <energy>
    <i name="e_fr_energy">   -140.30232647 </i>
    <i name="e_wo_entrp">   -140.29944168 </i>
    <i name="e_0_energy">   -140.30088408 </i>
   </energy>
  </scstep>
  <scstep>
   <time name="dav">    8.49    8.55</time>
   <time name="total">    8.78    8.86</time>
   <energy>
    <i name="e_fr_energy">   -140.30233230 </i>
    <i name="e_wo_entrp">   -140.29944796 </i>
    <i name="e_0_energy">   -140.30089013 </i>
   </energy>
  </scstep>
  <scstep>
   <time name="dav">    7.32    7.37</time>
   <time name="total">    7.61    7.67</time>
   <energy>
    <i name="e_fr_energy">   -140.30233877 </i>
    <i name="e_wo_entrp">   -140.29945456 </i>
    <i name="e_0_energy">   -140.30089667 </i>
   </energy>
  </scstep>
  <scstep>
   <time name="dav">    7.22    7.27</time>
   <time name="total">    7.51    7.57</time>
   <energy>
    <i name="e_fr_energy">   -140.30234095 </i>
    <i name="e_wo_entrp">   -140.29945692 </i>
    <i name="e_0_energy">   -140.30089894 </i>
   </energy>
  </scstep>
  <scstep>
   <time name="dav">    8.52    8.57</time>
   <time name="total">    8.55    8.61</time>
   <energy>
    <i name="alphaZ">     62.49004184 </i>
    <i name="ewald">   5418.86243442 </i>
    <i name="hartreedc">  -7468.14237046 </i>
    <i name="XCdc">    206.11775463 </i>
    <i name="pawpsdc">   6261.59967830 </i>
    <i name="pawaedc">  -6269.59225393 </i>
    <i name="eentropy">     -0.00288398 </i>
    <i name="bandstr">   -553.99366967 </i>
    <i name="atom">   2202.35892741 </i>
    <i name="e_fr_energy">   -140.30234145 </i>
    <i name="e_wo_entrp">   -140.29945747 </i>
    <i name="e_0_energy">   -140.30089946 </i>
   </energy>
  </scstep>
  <structure>
   <crystal>
    <varray name="basis" >
     <v>       4.36996419       2.52300000       0.00000000 </v>
     <v>      -4.36996419       2.52300000       0.00000000 </v>
     <v>       0.00000000       0.00000000      15.00000000 </v>
    </varray>
    <i name="volume">    330.76258935 </i>
    <varray name="rec_basis" >
     <v>       0.11441741       0.19817677       0.00000000 </v>
     <v>      -0.11441741       0.19817677       0.00000000 </v>
     <v>       0.00000000       0.00000000       0.06666667 </v>
    </varray>
   </crystal>
   <varray name="positions" >
    <v>       0.33844097       0.66905622       0.10014340 </v>
    <v>       0.67179351       0.33570188       0.10008386 </v>
    <v>       0.16698138       0.32643239       0.09994260 </v>
    <v>       0.32862509       0.16435708       0.09997368 </v>
    <v>       0.16681127       0.84071119       0.09995459 </v>
    <v>       0.84299768       0.16446086       0.09995902 </v>
    <v>       0.68108197       0.84051379       0.09994297 </v>
    <v>       0.84314914       0.67888446       0.09997392 </v>
    <v>       0.24986368       0.24959642       0.32640609 </v>
    <v>       0.41630174       0.08328215       0.32639675 </v>
    <v>       0.24982223       0.75018857       0.32627013 </v>
    <v>       0.41677156       0.58322382       0.32622977 </v>
    <v>       0.75003425       0.24995607       0.32620859 </v>
    <v>       0.91686830       0.08312310       0.32638218 </v>
    <v>       0.75040322       0.75014221       0.32640758 </v>
    <v>       0.91671266       0.58369512       0.32639152 </v>
   </varray>
  </structure>
  <varray name="forces" >
   <v>      -0.06229812       0.00098356       0.00775106 </v>
   <v>      -0.07732883       0.00037095       0.00430400 </v>
   <v>       0.74332405      -1.34133187      -0.00169026 </v>
   <v>      -0.73213375      -1.25600839      -0.00644690 </v>
   <v>      -1.46007526      -0.00205750       0.00249567 </v>
   <v>       1.55667619       0.00582013      -0.00800519 </v>
   <v>       0.74054208       1.33525252      -0.00168994 </v>
   <v>      -0.72730424       1.25732577      -0.00627935 </v>
   <v>      -0.04783638       0.06284000       0.00619680 </v>
   <v>       0.07689785       0.04675873      -0.00162082 </v>
   <v>       0.07732914      -0.00182709      -0.00018465 </v>
   <v>      -0.03451844       0.00058602      -0.00303134 </v>
   <v>      -0.01421707       0.00072620       0.00163715 </v>
   <v>      -0.06979952       0.00095750       0.00229825 </v>
   <v>      -0.04651135      -0.06457012       0.00608482 </v>
   <v>       0.07725363      -0.04582642      -0.00181930 </v>
  </varray>
  <varray name="stress" >
   <v>      -8.28607933      -0.02741548       0.30026013 </v>
   <v>      -0.02741548      -8.79435967      -0.00710021 </v>
   <v>       0.30026015      -0.00710021      -2.20262750 </v>
  </varray>
  <energy>
   <i name="e_fr_energy">   -142.19349561 </i>
   <i name="e_wo_entrp">   -142.19061163 </i>
   <i name="e_0_energy">   -142.19205362 </i>
  </energy>
  <time name="totalsc">  116.77  117.70</time>
 </calculation>
 <calculation>
  <scstep>
   <time name="dav">    5.67    5.71</time>
   <time name="total">    5.96    6.01</time>
   <energy>
    <i name="alphaZ">     62.49004184 </i>
    <i name="ewald">   5425.06897819 </i>
    <i name="hartreedc">  -7472.58447800 </i>
    <i name="XCdc">    206.21058562 </i>
    <i name="pawpsdc">   6261.59311247 </i>
    <i name="pawaedc">  -6269.58569306 </i>
    <i name="eentropy">     -0.00169440 </i>
    <i name="bandstr">   -555.96628444 </i>
    <i name="atom">   2202.35892741 </i>
    <i name="e_fr_energy">   -140.41650437 </i>
    <i name="e_wo_entrp">   -140.41480996 </i>
    <i name="e_0_energy">   -140.41565717 </i>
   </energy>
  </scstep>
  <scstep>
   <time name="dav">   10.10   10.16</time>
   <time name="total">   10.39   10.47</time>
   <energy>
    <i name="e_fr_energy">   -140.39805492 </i>
    <i name="e_wo_entrp">   -140.39605658 </i>
    <i name="e_0_energy">   -140.39705575 </i>
   </energy>
  </scstep>
  <scstep>
   <time name="dav">    9.41    9.48</time>
   <time name="total">    9.71    9.79</time>
   <energy>
    <i name="e_fr_energy">   -140.39592048 </i>
    <i name="e_wo_entrp">   -140.39364134 </i>
    <i name="e_0_energy">   -140.39478091 </i>
   </energy>
  </scstep>
  <scstep>
   <time name="dav">    7.90    7.96</time>
   <time name="total">    8.19    8.27</time>
   <energy>
    <i name="e_fr_energy">   -140.39584084 </i>
    <i name="e_wo_entrp">   -140.39351812 </i>
    <i name="e_0_energy">   -140.39467948 </i>
   </energy>
  </scstep>
  <scstep>
   <time name="dav">    7.15    7.20</time>
   <time name="total">    7.44    7.50</time>
   <energy>
    <i name="e_fr_energy">   -140.39583336 </i>
    <i name="e_wo_entrp">   -140.39343414 </i>
    <i name="e_0_energy">   -140.39463375 </i>
   </energy>
  </scstep>
  <scstep>
   <time name="dav">    9.23    9.29</time>
   <time name="total">    9.52    9.59</time>
   <energy>
    <i name="e_fr_energy">   -140.39583068 </i>
    <i name="e_wo_entrp">   -140.39344154 </i>
    <i name="e_0_energy">   -140.39463611 </i>
   </energy>
  </scstep>
  <scstep>
   <time name="dav">    9.44    9.50</time>
   <time name="total">    9.73    9.81</time>
   <energy>
    <i name="e_fr_energy">   -140.39583497 </i>
    <i name="e_wo_entrp">   -140.39344368 </i>
    <i name="e_0_energy">   -140.39463933 </i>
   </energy>
  </scstep>
  <scstep>
   <time name="dav">    8.61    8.67</time>
   <time name="total">    8.90    8.98</time>
   <energy>
    <i name="e_fr_energy">   -140.39584018 </i>
    <i name="e_wo_entrp">   -140.39344600 </i>
    <i name="e_0_energy">   -140.39464309 </i>
   </energy>
  </scstep>
  <scstep>
   <time name="dav">    8.16    8.22</time>
   <time name="total">    8.45    8.53</time>
   <energy>
    <i name="e_fr_energy">   -140.39584634 </i>
    <i name="e_wo_entrp">   -140.39344969 </i>
    <i name="e_0_energy">   -140.39464801 </i>
   </energy>
  </scstep>
  <scstep>
   <time name="dav">    6.85    6.90</time>
   <time name="total">    7.14    7.20</time>
   <energy>
    <i name="e_fr_energy">   -140.39585090 </i>
    <i name="e_wo_entrp">   -140.39345345 </i>
    <i name="e_0_energy">   -140.39465217 </i>
   </energy>
  </scstep>
  <scstep>
   <time name="dav">    5.92    5.96</time>
   <time name="total">    6.21    6.26</time>
   <energy>
    <i name="e_fr_energy">   -140.39585543 </i>
    <i name="e_wo_entrp">   -140.39345771 </i>
    <i name="e_0_energy">   -140.39465657 </i>
   </energy>
  </scstep>
  <scstep>
   <time name="dav">    9.58    9.65</time>
   <time name="total">    9.63    9.69</time>
   <energy>
    <i name="alphaZ">     62.49004184 </i>
    <i name="ewald">   5425.06897819 </i>
    <i name="hartreedc">  -7474.58715762 </i>
    <i name="XCdc">    206.28889299 </i>
    <i name="pawpsdc">   6288.29549284 </i>
    <i name="pawaedc">  -6296.29717904 </i>
    <i name="eentropy">     -0.00239786 </i>
    <i name="bandstr">   -554.01145492 </i>
    <i name="atom">   2202.35892741 </i>
    <i name="e_fr_energy">   -140.39585617 </i>
    <i name="e_wo_entrp">   -140.39345831 </i>
    <i name="e_0_energy">   -140.39465724 </i>
   </energy>
  </scstep>
  <structure>
   <crystal>
    <varray name="basis" >
     <v>       4.36996419       2.52300000       0.00000000 </v>
     <v>      -4.36996419       2.52300000       0.00000000 </v>
     <v>       0.00000000       0.00000000      15.00000000 </v>
    </varray>
    <i name="volume">    330.76258935 </i>
    <varray name="rec_basis" >
     <v>       0.11441741       0.19817677       0.00000000 </v>
     <v>      -0.11441741       0.19817677       0.00000000 </v>
     <v>       0.00000000       0.00000000       0.06666667 </v>
    </varray>
   </crystal>
   <varray name="positions" >
    <v>       0.33836043       0.66913492       0.10003900 </v>
    <v>       0.67169283       0.33580350       0.10002281 </v>
    <v>       0.16462118       0.32174917       0.09998439 </v>
    <v>       0.32416746       0.16210521       0.09999284 </v>
    <v>       0.16459300       0.84293360       0.09998765 </v>
    <v>       0.84535718       0.16211369       0.09998885 </v>
    <v>       0.68575337       0.84285527       0.09998449 </v>
    <v>       0.84541928       0.68333377       0.09999291 </v>
    <v>       0.24996244       0.24988999       0.32635312 </v>
    <v>       0.41656717       0.08331893       0.32635058 </v>
    <v>       0.24995117       0.75005104       0.32631614 </v>
    <v>       0.41669495       0.58330306       0.32630517 </v>
    <v>       0.75000883       0.24998781       0.32629941 </v>
    <v>       0.91672126       0.08327567       0.32634662 </v>
    <v>       0.75010918       0.75003843       0.32635353 </v>
    <v>       0.91667893       0.58343125       0.32634916 </v>
   </varray>
  </structure>
  <varray name="forces" >
   <v>      -0.00054331       0.00031722       0.03394883 </v>
   <v>      -0.00025609       0.00001062       0.01982378 </v>
   <v>      -0.00487012      -0.00450672      -0.01326377 </v>
   <v>      -0.00434806       0.00108734      -0.00753416 </v>
   <v>      -0.00459066      -0.00086578      -0.00944521 </v>
   <v>       0.00552793       0.00112017      -0.01122373 </v>
   <v>      -0.00623731       0.00434456      -0.01318883 </v>
   <v>      -0.00531178      -0.00111296      -0.00741655 </v>
   <v>       0.00492425      -0.00347523       0.01819765 </v>
   <v>      -0.00012712      -0.00315584       0.01393784 </v>
   <v>      -0.00298699      -0.00003901      -0.01441137 </v>
   <v>       0.00456695       0.00000470      -0.02440707 </v>
   <v>       0.00151875      -0.00012680      -0.02793260 </v>
   <v>       0.00803002      -0.00004928       0.01171373 </v>
   <v>       0.00486711       0.00331104       0.01850382 </v>
   <v>      -0.00016358       0.00313597       0.01269766 </v>
  </varray>
  <varray name="stress" >
   <v>      -3.47028842      -0.01179765       0.33794836 </v>
   <v>      -0.01179768      -3.75019039      -0.00813281 </v>
   <v>       0.33794837      -0.00813280      -2.21174951 </v>
  </varray>
  <energy>
   <i name="e_fr_energy">   -142.28404183 </i>
   <i name="e_wo_entrp">   -142.28164396 </i>
   <i name="e_0_energy">   -142.28284290 </i>
  </energy>
  <time name="totalsc">  106.54  107.39</time>
 </calculation>
 <calculation>
  <scstep>
   <time name="dav">    5.68    5.72</time>
   <time name="total">    5.97    6.02</time>
   <energy>
    <i name="alphaZ">     62.49004184 </i>
    <i name="ewald">   5424.72244313 </i>
    <i name="hartreedc">  -7474.23947539 </i>
    <i name="XCdc">    206.28908260 </i>
    <i name="pawpsdc">   6288.30046537 </i>
    <i name="pawaedc">  -6296.30214211 </i>
    <i name="eentropy">     -0.00239259 </i>
    <i name="bandstr">   -554.01297160 </i>
    <i name="atom">   2202.35892741 </i>
    <i name="e_fr_energy">   -140.39602135 </i>
    <i name="e_wo_entrp">   -140.39362876 </i>
    <i name="e_0_energy">   -140.39482506 </i>
   </energy>
  </scstep>
  <scstep>
   <time name="dav">   10.84   10.91</time>
   <time name="total">   11.13   11.21</time>
   <energy>
    <i name="e_fr_energy">   -140.39602412 </i>
    <i name="e_wo_entrp">   -140.39363508 </i>
    <i name="e_0_energy">   -140.39482960 </i>
   </energy>
  </scstep>
  <scstep>
   <time name="dav">    5.73    5.78</time>
   <time name="total">    6.03    6.09</time>
   <energy>
    <i name="e_fr_energy">   -140.39602732 </i>
    <i name="e_wo_entrp">   -140.39364266 </i>
    <i name="e_0_energy">   -140.39483499 </i>
   </energy>
  </scstep>
  <scstep>
   <time name="dav">   10.44   10.51</time>
   <time name="total">   10.48   10.55</time>
   <energy>
    <i name="alphaZ">     62.49004184 </i>
    <i name="ewald">   5424.72244313 </i>
    <i name="hartreedc">  -7474.22200438 </i>
    <i name="XCdc">    206.28911207 </i>
    <i name="pawpsdc">   6288.30835234 </i>
    <i name="pawaedc">  -6296.31002375 </i>
    <i name="eentropy">     -0.00238445 </i>
    <i name="bandstr">   -554.03049146 </i>
    <i name="atom">   2202.35892741 </i>
    <i name="e_fr_energy">   -140.39602725 </i>
    <i name="e_wo_entrp">   -140.39364280 </i>
    <i name="e_0_energy">   -140.39483502 </i>
   </energy>
  </scstep>
  <structure>
   <crystal>
    <varray name="basis" >
     <v>       4.36996419       2.52300000       0.00000000 </v>
     <v>      -4.36996419       2.52300000       0.00000000 </v>
     <v>       0.00000000       0.00000000      15.00000000 </v>
    </varray>
    <i name="volume">    330.76258935 </i>
    <varray name="rec_basis" >
     <v>       0.11441741       0.19817677       0.00000000 </v>
     <v>      -0.11441741       0.19817677       0.00000000 </v>
     <v>       0.00000000       0.00000000       0.06666667 </v>
    </varray>
   </crystal>
   <varray name="positions" >
    <v>       0.33836077       0.66913978       0.10013269 </v>
    <v>       0.67169209       0.33580441       0.10007751 </v>
    <v>       0.16457037       0.32175313       0.09994778 </v>
    <v>       0.32417278       0.16214316       0.09997206 </v>
    <v>       0.16457271       0.84293973       0.09996157 </v>
    <v>       0.84538343       0.16210569       0.09995790 </v>
    <v>       0.68574169       0.84291128       0.09994809 </v>
    <v>       0.84537651       0.68333282       0.09997245 </v>
    <v>       0.24995690       0.24983727       0.32640333 </v>
    <v>       0.41653979       0.08329361       0.32638906 </v>
    <v>       0.24993627       0.75006533       0.32627637 </v>
    <v>       0.41671682       0.58328126       0.32623781 </v>
    <v>       0.75001505       0.24997949       0.32622231 </v>
    <v>       0.91675929       0.08323682       0.32637894 </v>
    <v>       0.75016030       0.75004292       0.32640458 </v>
    <v>       0.91670391       0.58345864       0.32638421 </v>
   </varray>
  </structure>
  <varray name="forces" >
   <v>      -0.00862295      -0.00100181       0.01529553 </v>
   <v>      -0.00039898       0.00059129       0.01031203 </v>
   <v>       0.00970779       0.00902724      -0.00508413 </v>
   <v>      -0.00330834      -0.00747692      -0.00584451 </v>
   <v>      -0.00687002       0.00090378      -0.00137756 </v>
   <v>      -0.01520945      -0.00127655      -0.00940355 </v>
   <v>       0.00929542      -0.00572853      -0.00499451 </v>
   <v>      -0.00488481       0.00533743      -0.00574612 </v>
   <v>      -0.00115123       0.00608917       0.00788840 </v>
   <v>       0.00696498       0.00553387       0.00070857 </v>
   <v>       0.01256979      -0.00003639      -0.00464333 </v>
   <v>      -0.00160040      -0.00017121      -0.00650204 </v>
   <v>       0.00478706       0.00012874      -0.00396145 </v>
   <v>      -0.00723913      -0.00007473       0.00526965 </v>
   <v>      -0.00105657      -0.00603684       0.00780625 </v>
   <v>       0.00701684      -0.00580856       0.00027678 </v>
  </varray>
  <varray name="stress" >
   <v>      -3.50507636      -0.00213011       0.33271457 </v>
   <v>      -0.00213011      -3.69057787      -0.00788281 </v>
   <v>       0.33271454      -0.00788281      -2.23514314 </v>
  </varray>
  <energy>
   <i name="e_fr_energy">   -142.28418242 </i>
   <i name="e_wo_entrp">   -142.28179797 </i>
   <i name="e_0_energy">   -142.28299020 </i>
  </energy>
  <time name="totalsc">   38.85   39.15</time>
 </calculation>
 <calculation>
  <scstep>
   <time name="dav">    5.72    5.76</time>
   <time name="total">    6.01    6.07</time>
   <energy>
    <i name="alphaZ">     62.49004184 </i>
    <i name="ewald">   5424.60187810 </i>
    <i name="hartreedc">  -7474.09855861 </i>
    <i name="XCdc">    206.28914672 </i>
    <i name="pawpsdc">   6288.31008715 </i>
    <i name="pawaedc">  -6296.31176017 </i>
    <i name="eentropy">     -0.00238219 </i>
    <i name="bandstr">   -554.03342746 </i>
    <i name="atom">   2202.35892741 </i>
    <i name="e_fr_energy">   -140.39604723 </i>
    <i name="e_wo_entrp">   -140.39366504 </i>
    <i name="e_0_energy">   -140.39485613 </i>
   </energy>
  </scstep>
  <scstep>
   <time name="dav">    9.63    9.69</time>
   <time name="total">    9.92   10.00</time>
   <energy>
    <i name="e_fr_energy">   -140.39604732 </i>
    <i name="e_wo_entrp">   -140.39366653 </i>
    <i name="e_0_energy">   -140.39485693 </i>
   </energy>
  </scstep>
  <scstep>
   <time name="dav">    5.97    6.01</time>
   <time name="total">    6.00    6.04</time>
   <energy>
    <i name="alphaZ">     62.49004184 </i>
    <i name="ewald">   5424.60187810 </i>
    <i name="hartreedc">  -7474.08900700 </i>
    <i name="XCdc">    206.28914694 </i>
    <i name="pawpsdc">   6288.32427139 </i>
    <i name="pawaedc">  -6296.32594992 </i>
    <i name="eentropy">     -0.00237896 </i>
    <i name="bandstr">   -554.04297794 </i>
    <i name="atom">   2202.35892741 </i>
    <i name="e_fr_energy">   -140.39604814 </i>
    <i name="e_wo_entrp">   -140.39366919 </i>
    <i name="e_0_energy">   -140.39485867 </i>
   </energy>
  </scstep>
  <structure>
   <crystal>
    <varray name="basis" >
     <v>       4.36996419       2.52300000       0.00000000 </v>
     <v>      -4.36996419       2.52300000       0.00000000 </v>
     <v>       0.00000000       0.00000000      15.00000000 </v>
    </varray>
    <i name="volume">    330.76258935 </i>
    <varray name="rec_basis" >
     <v>       0.11441741       0.19817677       0.00000000 </v>
     <v>      -0.11441741       0.19817677       0.00000000 </v>
     <v>       0.00000000       0.00000000       0.06666667 </v>
    </varray>
   </crystal>
   <varray name="positions" >
    <v>       0.33836088       0.66914146       0.10016510 </v>
    <v>       0.67169184       0.33580472       0.10009644 </v>
    <v>       0.16455279       0.32175449       0.09993512 </v>
    <v>       0.32417462       0.16215629       0.09996488 </v>
    <v>       0.16456569       0.84294185       0.09995255 </v>
    <v>       0.84539251       0.16210293       0.09994719 </v>
    <v>       0.68573765       0.84293065       0.09993550 </v>
    <v>       0.84536171       0.68333249       0.09996538 </v>
    <v>       0.24995498       0.24981903       0.32642070 </v>
    <v>       0.41653031       0.08328485       0.32640237 </v>
    <v>       0.24993112       0.75007028       0.32626261 </v>
    <v>       0.41672439       0.58327372       0.32621451 </v>
    <v>       0.75001721       0.24997661       0.32619563 </v>
    <v>       0.91677245       0.08322338       0.32639012 </v>
    <v>       0.75017798       0.75004447       0.32642224 </v>
    <v>       0.91671255       0.58346811       0.32639634 </v>
   </varray>
  </structure>
  <varray name="forces" >
   <v>      -0.01152763      -0.00144325       0.00887131 </v>
   <v>      -0.00063480       0.00078370       0.00703461 </v>
   <v>       0.01488411       0.01379186      -0.00220819 </v>
   <v>      -0.00287969      -0.01039718      -0.00525061 </v>
   <v>      -0.00762658       0.00152059       0.00144420 </v>
   <v>      -0.02244687      -0.00212309      -0.00878377 </v>
   <v>       0.01478542      -0.00928453      -0.00212171 </v>
   <v>      -0.00467418       0.00752532      -0.00516179 </v>
   <v>      -0.00347759       0.00960771       0.00425267 </v>
   <v>       0.00962171       0.00876657      -0.00391078 </v>
   <v>       0.01825934      -0.00003716      -0.00123818 </v>
   <v>      -0.00381981      -0.00023487      -0.00028199 </v>
   <v>       0.00598254       0.00021634       0.00438439 </v>
   <v>      -0.01282205      -0.00008137       0.00299110 </v>
   <v>      -0.00332744      -0.00948269       0.00403624 </v>
   <v>       0.00970352      -0.00912794      -0.00405750 </v>
  </varray>
  <varray name="stress" >
   <v>      -3.51721068       0.00113535       0.33081398 </v>
   <v>       0.00113535      -3.67108982      -0.00780600 </v>
   <v>       0.33081396      -0.00780600      -2.24184610 </v>
  </varray>
  <energy>
   <i name="e_fr_energy">   -142.28419281 </i>
   <i name="e_wo_entrp">   -142.28181385 </i>
   <i name="e_0_energy">   -142.28300333 </i>
  </energy>
  <time name="totalsc">   27.20   27.41</time>
 </calculation>
 <calculation>
  <scstep>
   <time name="dav">    5.89    5.94</time>
   <time name="total">    6.19    6.25</time>
   <energy>
    <i name="alphaZ">     62.49004184 </i>
    <i name="ewald">   5424.17791701 </i>
    <i name="hartreedc">  -7473.66299037 </i>
    <i name="XCdc">    206.28914844 </i>
    <i name="pawpsdc">   6288.32136009 </i>
    <i name="pawaedc">  -6296.32303794 </i>
    <i name="eentropy">     -0.00237312 </i>
    <i name="bandstr">   -554.04502923 </i>
    <i name="atom">   2202.35892741 </i>
    <i name="e_fr_energy">   -140.39603588 </i>
    <i name="e_wo_entrp">   -140.39366276 </i>
    <i name="e_0_energy">   -140.39484932 </i>
   </energy>
  </scstep>
  <scstep>
   <time name="dav">    6.09    6.13</time>
   <time name="total">    6.38    6.44</time>
   <energy>
    <i name="e_fr_energy">   -140.39603703 </i>
    <i name="e_wo_entrp">   -140.39366668 </i>
    <i name="e_0_energy">   -140.39485185 </i>
   </energy>
  </scstep>
  <scstep>
   <time name="dav">    7.46    7.51</time>
   <time name="total">    7.75    7.81</time>
   <energy>
    <i name="e_fr_energy">   -140.39603634 </i>
    <i name="e_wo_entrp">   -140.39366890 </i>
    <i name="e_0_energy">   -140.39485262 </i>
   </energy>
  </scstep>
  <scstep>
   <time name="dav">    9.73    9.79</time>
   <time name="total">    9.76    9.83</time>
   <energy>
    <i name="alphaZ">     62.49004184 </i>
    <i name="ewald">   5424.17791701 </i>
    <i name="hartreedc">  -7473.64022233 </i>
    <i name="XCdc">    206.28910845 </i>
    <i name="pawpsdc">   6288.18420003 </i>
    <i name="pawaedc">  -6296.18585257 </i>
    <i name="eentropy">     -0.00236685 </i>
    <i name="bandstr">   -554.06778934 </i>
    <i name="atom">   2202.35892741 </i>
    <i name="e_fr_energy">   -140.39603635 </i>
    <i name="e_wo_entrp">   -140.39366949 </i>
    <i name="e_0_energy">   -140.39485292 </i>
   </energy>
  </scstep>
  <structure>
   <crystal>
    <varray name="basis" >
     <v>       4.36996419       2.52300000       0.00000000 </v>
     <v>      -4.36996419       2.52300000       0.00000000 </v>
     <v>       0.00000000       0.00000000      15.00000000 </v>
    </varray>
    <i name="volume">    330.76258935 </i>
    <varray name="rec_basis" >
     <v>       0.11441741       0.19817677       0.00000000 </v>
     <v>      -0.11441741       0.19817677       0.00000000 </v>
     <v>       0.00000000       0.00000000       0.06666667 </v>
    </varray>
   </crystal>
   <varray name="positions" >
    <v>       0.33829036       0.66918998       0.10024902 </v>
    <v>       0.67169502       0.33581533       0.10015090 </v>
    <v>       0.16471692       0.32180234       0.09990602 </v>
    <v>       0.32407257       0.16210344       0.09993662 </v>
    <v>       0.16452798       0.84299737       0.09994068 </v>
    <v>       0.84527700       0.16219263       0.09990226 </v>
    <v>       0.68572390       0.84280960       0.09990678 </v>
    <v>       0.84537745       0.68342120       0.09993758 </v>
    <v>       0.25001794       0.24988791       0.32646420 </v>
    <v>       0.41663848       0.08329726       0.32641464 </v>
    <v>       0.25001366       0.74998671       0.32623440 </v>
    <v>       0.41671658       0.58327747       0.32617208 </v>
    <v>       0.75005311       0.24994320       0.32616090 </v>
    <v>       0.91673057       0.08326332       0.32641888 </v>
    <v>       0.75010996       0.74998120       0.32646563 </v>
    <v>       0.91669718       0.58335638       0.32640607 </v>
   </varray>
  </structure>
  <varray name="forces" >
   <v>       0.01152698       0.00442519      -0.00630799 </v>
   <v>      -0.02361356      -0.00283426      -0.00470519 </v>
   <v>      -0.05127883      -0.03440445       0.00104920 </v>
   <v>       0.01666093       0.02462028       0.00067463 </v>
   <v>       0.00352044      -0.00689770       0.00450815 </v>
   <v>       0.05366989       0.00883725      -0.00304817 </v>
   <v>      -0.05137543       0.02060506       0.00119358 </v>
   <v>       0.02085809      -0.01398254       0.00073548 </v>
   <v>       0.00869307      -0.01291233      -0.00531961 </v>
   <v>      -0.00539770      -0.01148371      -0.00740228 </v>
   <v>      -0.01997748      -0.00017434       0.00337933 </v>
   <v>       0.01292564       0.00029675       0.01279652 </v>
   <v>      -0.00353764      -0.00050722       0.01486603 </v>
   <v>       0.02432851       0.00009915       0.00026195 </v>
   <v>       0.00846768       0.01233711      -0.00567582 </v>
   <v>      -0.00547060       0.01197574      -0.00700579 </v>
  </varray>
  <varray name="stress" >
   <v>      -3.26015835      -0.04986704       0.32977824 </v>
   <v>      -0.04986704      -3.91880584      -0.00771422 </v>
   <v>       0.32977823      -0.00771422      -2.25704100 </v>
  </varray>
  <energy>
   <i name="e_fr_energy">   -142.28413947 </i>
   <i name="e_wo_entrp">   -142.28177262 </i>
   <i name="e_0_energy">   -142.28295604 </i>
  </energy>
  <time name="totalsc">   35.33   35.62</time>
 </calculation>
 <calculation>
  <scstep>
   <time name="dav">    6.70    6.75</time>
   <time name="total">    7.00    7.05</time>
   <energy>
    <i name="alphaZ">     62.49004184 </i>
    <i name="ewald">   5424.44881732 </i>
    <i name="hartreedc">  -7473.90672308 </i>
    <i name="XCdc">    206.28907777 </i>
    <i name="pawpsdc">   6288.24619412 </i>
    <i name="pawaedc">  -6296.24786325 </i>
    <i name="eentropy">     -0.00236976 </i>
    <i name="bandstr">   -554.07219064 </i>
    <i name="atom">   2202.35892741 </i>
    <i name="e_fr_energy">   -140.39608827 </i>
    <i name="e_wo_entrp">   -140.39371852 </i>
    <i name="e_0_energy">   -140.39490339 </i>
   </energy>
  </scstep>
  <scstep>
   <time name="dav">    5.87    5.91</time>
   <time name="total">    6.17    6.23</time>
   <energy>
    <i name="e_fr_energy">   -140.39608727 </i>
    <i name="e_wo_entrp">   -140.39371599 </i>
    <i name="e_0_energy">   -140.39490163 </i>
   </energy>
  </scstep>
  <scstep>
   <time name="dav">    6.24    6.28</time>
   <time name="total">    6.53    6.59</time>
   <energy>
    <i name="e_fr_energy">   -140.39608684 </i>
    <i name="e_wo_entrp">   -140.39371401 </i>
    <i name="e_0_energy">   -140.39490043 </i>
   </energy>
  </scstep>
  <scstep>
   <time name="dav">    8.91    8.96</time>
   <time name="total">    8.94    9.00</time>
   <energy>
    <i name="alphaZ">     62.49004184 </i>
    <i name="ewald">   5424.44881732 </i>
    <i name="hartreedc">  -7473.91299123 </i>
    <i name="XCdc">    206.28904344 </i>
    <i name="pawpsdc">   6288.38743765 </i>
    <i name="pawaedc">  -6296.38913071 </i>
    <i name="eentropy">     -0.00237306 </i>
    <i name="bandstr">   -554.06585966 </i>
    <i name="atom">   2202.35892741 </i>
    <i name="e_fr_energy">   -140.39608700 </i>
    <i name="e_wo_entrp">   -140.39371394 </i>
    <i name="e_0_energy">   -140.39490047 </i>
   </energy>
  </scstep>
  <structure>
   <crystal>
    <varray name="basis" >
     <v>       4.36996419       2.52300000       0.00000000 </v>
     <v>      -4.36996419       2.52300000       0.00000000 </v>
     <v>       0.00000000       0.00000000      15.00000000 </v>
    </varray>
    <i name="volume">    330.76258935 </i>
    <varray name="rec_basis" >
     <v>       0.11441741       0.19817677       0.00000000 </v>
     <v>      -0.11441741       0.19817677       0.00000000 </v>
     <v>       0.00000000       0.00000000       0.06666667 </v>
    </varray>
   </crystal>
   <varray name="positions" >
    <v>       0.33833541       0.66915898       0.10019541 </v>
    <v>       0.67169299       0.33580855       0.10011611 </v>
    <v>       0.16461207       0.32177177       0.09992461 </v>
    <v>       0.32413776       0.16213720       0.09995467 </v>
    <v>       0.16455207       0.84296190       0.09994826 </v>
    <v>       0.84535080       0.16213532       0.09993097 </v>
    <v>       0.68573268       0.84288694       0.09992513 </v>
    <v>       0.84536740       0.68336453       0.09995534 </v>
    <v>       0.24997772       0.24984390       0.32643641 </v>
    <v>       0.41656938       0.08328933       0.32640680 </v>
    <v>       0.24996093       0.75004010       0.32625242 </v>
    <v>       0.41672157       0.58327507       0.32619919 </v>
    <v>       0.75003017       0.24996455       0.32618309 </v>
    <v>       0.91675732       0.08323780       0.32640051 </v>
    <v>       0.75015342       0.75002162       0.32643791 </v>
    <v>       0.91670700       0.58342776       0.32639985 </v>
   </varray>
  </structure>
  <varray name="forces" >
   <v>      -0.00312351       0.00067164       0.00337619 </v>
   <v>      -0.00872669      -0.00050840       0.00274736 </v>
   <v>      -0.00926240      -0.00393514      -0.00108596 </v>
   <v>       0.00417881       0.00212955      -0.00319657 </v>
   <v>      -0.00382838      -0.00154446       0.00252218 </v>
   <v>       0.00524312       0.00188008      -0.00694279 </v>
   <v>      -0.00931473       0.00177267      -0.00098870 </v>
   <v>       0.00457320      -0.00009222      -0.00311392 </v>
   <v>       0.00115335       0.00120364       0.00098531 </v>
   <v>       0.00400887       0.00118492      -0.00508246 </v>
   <v>       0.00405692      -0.00008676       0.00037880 </v>
   <v>       0.00232552      -0.00004050       0.00438993 </v>
   <v>       0.00249672      -0.00004710       0.00812518 </v>
   <v>       0.00102249      -0.00001705       0.00220841 </v>
   <v>       0.00116523      -0.00133544       0.00071742 </v>
   <v>       0.00403147      -0.00123544      -0.00504038 </v>
  </varray>
  <varray name="stress" >
   <v>      -3.41929633      -0.01843213       0.33032753 </v>
   <v>      -0.01843214      -3.76643533      -0.00779045 </v>
   <v>       0.33032755      -0.00779046      -2.24067719 </v>
  </varray>
  <energy>
   <i name="e_fr_energy">   -142.28421673 </i>
   <i name="e_wo_entrp">   -142.28184367 </i>
   <i name="e_0_energy">   -142.28303020 </i>
  </energy>
  <time name="totalsc">   33.89   34.16</time>
 </calculation>
 <calculation>
  <scstep>
   <time name="dav">    6.39    6.43</time>
   <time name="total">    6.68    6.74</time>
   <energy>
    <i name="alphaZ">     62.49004184 </i>
    <i name="ewald">   5424.19986428 </i>
    <i name="hartreedc">  -7473.66551952 </i>
    <i name="XCdc">    206.28894765 </i>
    <i name="pawpsdc">   6288.36002090 </i>
    <i name="pawaedc">  -6296.36170563 </i>
    <i name="eentropy">     -0.00237478 </i>
    <i name="bandstr">   -554.06432253 </i>
    <i name="atom">   2202.35892741 </i>
    <i name="e_fr_energy">   -140.39612038 </i>
    <i name="e_wo_entrp">   -140.39374560 </i>
    <i name="e_0_energy">   -140.39493299 </i>
   </energy>
  </scstep>
  <scstep>
   <time name="dav">    6.18    6.23</time>
   <time name="total">    6.48    6.54</time>
   <energy>
    <i name="e_fr_energy">   -140.39612030 </i>
    <i name="e_wo_entrp">   -140.39374644 </i>
    <i name="e_0_energy">   -140.39493337 </i>
   </energy>
  </scstep>
  <scstep>
   <time name="dav">    7.92    7.97</time>
   <time name="total">    7.96    8.01</time>
   <energy>
    <i name="alphaZ">     62.49004184 </i>
    <i name="ewald">   5424.19986428 </i>
    <i name="hartreedc">  -7473.65802633 </i>
    <i name="XCdc">    206.28895596 </i>
    <i name="pawpsdc">   6288.31283231 </i>
    <i name="pawaedc">  -6296.31449688 </i>
    <i name="eentropy">     -0.00237318 </i>
    <i name="bandstr">   -554.07184593 </i>
    <i name="atom">   2202.35892741 </i>
    <i name="e_fr_energy">   -140.39612053 </i>
    <i name="e_wo_entrp">   -140.39374735 </i>
    <i name="e_0_energy">   -140.39493394 </i>
   </energy>
  </scstep>
  <structure>
   <crystal>
    <varray name="basis" >
     <v>       4.36996419       2.52300000       0.00000000 </v>
     <v>      -4.36996419       2.52300000       0.00000000 </v>
     <v>       0.00000000       0.00000000      15.00000000 </v>
    </varray>
    <i name="volume">    330.76258935 </i>
    <varray name="rec_basis" >
     <v>       0.11441741       0.19817677       0.00000000 </v>
     <v>      -0.11441741       0.19817677       0.00000000 </v>
     <v>       0.00000000       0.00000000       0.06666667 </v>
    </varray>
   </crystal>
   <varray name="positions" >
    <v>       0.33831257       0.66918762       0.10022098 </v>
    <v>       0.67165138       0.33584520       0.10013413 </v>
    <v>       0.16457445       0.32179218       0.09991596 </v>
    <v>       0.32415179       0.16212439       0.09994078 </v>
    <v>       0.16451586       0.84297817       0.09995233 </v>
    <v>       0.84536488       0.16214468       0.09990411 </v>
    <v>       0.68570245       0.84291699       0.09991680 </v>
    <v>       0.84538998       0.68336160       0.09994175 </v>
    <v>       0.25000466       0.24986189       0.32644771 </v>
    <v>       0.41661785       0.08328323       0.32639625 </v>
    <v>       0.24999476       0.75000474       0.32624770 </v>
    <v>       0.41672991       0.58326529       0.32620188 </v>
    <v>       0.75004803       0.24994647       0.32619690 </v>
    <v>       0.91675324       0.08324123       0.32641197 </v>
    <v>       0.75013465       0.74999357       0.32644850 </v>
    <v>       0.91671222       0.58337808       0.32638890 </v>
   </varray>
  </structure>
  <varray name="forces" >
   <v>      -0.00161583      -0.00097537      -0.00050519 </v>
   <v>       0.00907878       0.00128669      -0.00246652 </v>
   <v>       0.00951862       0.00342733      -0.00211101 </v>
   <v>      -0.02058972       0.00153630       0.00119466 </v>
   <v>       0.00832967       0.00344312       0.00123795 </v>
   <v>      -0.01137098      -0.00336088      -0.00226715 </v>
   <v>       0.00824691       0.00148983      -0.00198485 </v>
   <v>      -0.02180859      -0.00647304       0.00128649 </v>
   <v>       0.00759236      -0.00678158      -0.00187709 </v>
   <v>      -0.00328064      -0.00630659      -0.00094949 </v>
   <v>      -0.00759046       0.00001525      -0.00006910 </v>
   <v>       0.00606186       0.00004141       0.00530811 </v>
   <v>       0.00087012      -0.00018393       0.00397140 </v>
   <v>       0.01241998      -0.00007110       0.00208790 </v>
   <v>       0.00750601       0.00662911      -0.00199565 </v>
   <v>      -0.00336811       0.00628345      -0.00086047 </v>
  </varray>
  <varray name="stress" >
   <v>      -3.53456600       0.00502288       0.33088076 </v>
   <v>       0.00502286      -3.65693289      -0.00780877 </v>
   <v>       0.33088079      -0.00780876      -2.24802419 </v>
  </varray>
  <energy>
   <i name="e_fr_energy">   -142.28422037 </i>
   <i name="e_wo_entrp">   -142.28184719 </i>
   <i name="e_0_energy">   -142.28303378 </i>
  </energy>
  <time name="totalsc">   26.38   26.59</time>
 </calculation>
 <calculation>
  <scstep>
   <time name="dav">    6.12    6.16</time>
   <time name="total">    6.41    6.46</time>
   <energy>
    <i name="alphaZ">     62.49004184 </i>
    <i name="ewald">   5424.30838342 </i>
    <i name="hartreedc">  -7473.76554009 </i>
    <i name="XCdc">    206.28897161 </i>
    <i name="pawpsdc">   6288.30678123 </i>
    <i name="pawaedc">  -6296.30844803 </i>
    <i name="eentropy">     -0.00237244 </i>
    <i name="bandstr">   -554.07285645 </i>
    <i name="atom">   2202.35892741 </i>
    <i name="e_fr_energy">   -140.39611150 </i>
    <i name="e_wo_entrp">   -140.39373906 </i>
    <i name="e_0_energy">   -140.39492528 </i>
   </energy>
  </scstep>
  <scstep>
   <time name="dav">    5.75    5.80</time>
   <time name="total">    5.78    5.84</time>
   <energy>
    <i name="alphaZ">     62.49004184 </i>
    <i name="ewald">   5424.30838342 </i>
    <i name="hartreedc">  -7473.76704338 </i>
    <i name="XCdc">    206.28897065 </i>
    <i name="pawpsdc">   6288.30476876 </i>
    <i name="pawaedc">  -6296.30644893 </i>
    <i name="eentropy">     -0.00237279 </i>
    <i name="bandstr">   -554.07133860 </i>
    <i name="atom">   2202.35892741 </i>
    <i name="e_fr_energy">   -140.39611162 </i>
    <i name="e_wo_entrp">   -140.39373883 </i>
    <i name="e_0_energy">   -140.39492523 </i>
   </energy>
  </scstep>
  <structure>
   <crystal>
[...]
       <r>     2.5123     1.5260    34.4778 </r>
       <r>     2.6158     1.5521    34.6384 </r>
       <r>     2.7193     1.3739    34.7807 </r>
       <r>     2.8228     0.9321    34.8771 </r>
       <r>     2.9263     0.9721    34.9778 </r>
       <r>     3.0298     1.6392    35.1475 </r>
       <r>     3.1334     1.7409    35.3277 </r>
       <r>     3.2369     1.7604    35.5099 </r>
       <r>     3.3404     1.5331    35.6686 </r>
       <r>     3.4439     0.9559    35.7676 </r>
       <r>     3.5474     1.3462    35.9069 </r>
       <r>     3.6510     1.6929    36.0822 </r>
       <r>     3.7545     1.2493    36.2115 </r>
       <r>     3.8580     1.4094    36.3574 </r>
       <r>     3.9615     2.3374    36.5994 </r>
       <r>     4.0650     2.1588    36.8228 </r>
       <r>     4.1685     1.6394    36.9926 </r>
       <r>     4.2721     1.9642    37.1959 </r>
       <r>     4.3756     2.1448    37.4179 </r>
       <r>     4.4791     1.7071    37.5946 </r>
       <r>     4.5826     1.8153    37.7825 </r>
       <r>     4.6861     1.6434    37.9527 </r>
       <r>     4.7897     1.9509    38.1546 </r>
       <r>     4.8932     2.2848    38.3911 </r>
       <r>     4.9967     2.6280    38.6632 </r>
       <r>     5.1002     2.2236    38.8934 </r>
       <r>     5.2037     2.0898    39.1097 </r>
       <r>     5.3072     1.8658    39.3029 </r>
       <r>     5.4108     2.2357    39.5343 </r>
       <r>     5.5143     2.5737    39.8007 </r>
       <r>     5.6178     2.0271    40.0106 </r>
       <r>     5.7213     1.8053    40.1974 </r>
       <r>     5.8248     2.4478    40.4508 </r>
       <r>     5.9284     3.1468    40.7766 </r>
       <r>     6.0319     3.1643    41.1041 </r>
       <r>     6.1354     3.4851    41.4649 </r>
       <r>     6.2389     3.3764    41.8144 </r>
       <r>     6.3424     3.2810    42.1541 </r>
       <r>     6.4459     2.7846    42.4423 </r>
       <r>     6.5495     2.2544    42.6757 </r>
       <r>     6.6530     3.2532    43.0125 </r>
       <r>     6.7565     4.2852    43.4561 </r>
       <r>     6.8600     3.8229    43.8518 </r>
       <r>     6.9635     3.7935    44.2445 </r>
       <r>     7.0671     4.4042    44.7004 </r>
       <r>     7.1706     3.8176    45.0956 </r>
       <r>     7.2741     3.5784    45.4660 </r>
       <r>     7.3776     5.0055    45.9842 </r>
       <r>     7.4811     4.3063    46.4300 </r>
       <r>     7.5846     3.0956    46.7504 </r>
       <r>     7.6882     3.2300    47.0848 </r>
       <r>     7.7917     3.3267    47.4292 </r>
       <r>     7.8952     2.3819    47.6757 </r>
       <r>     7.9987     1.6190    47.8433 </r>
       <r>     8.1022     0.8003    47.9262 </r>
       <r>     8.2058     0.2693    47.9541 </r>
       <r>     8.3093     0.1601    47.9706 </r>
       <r>     8.4128     0.2140    47.9928 </r>
       <r>     8.5163     0.0664    47.9997 </r>
       <r>     8.6198     0.0032    48.0000 </r>
       <r>     8.7234     0.0000    48.0000 </r>
       <r>     8.8269     0.0000    48.0000 </r>
       <r>     8.9304     0.0000    48.0000 </r>
       <r>     9.0339     0.0000    48.0000 </r>
       <r>     9.1374     0.0000    48.0000 </r>
       <r>     9.2409     0.0000    48.0000 </r>
       <r>     9.3445     0.0000    48.0000 </r>
       <r>     9.4480     0.0000    48.0000 </r>
       <r>     9.5515     0.0000    48.0000 </r>
       <r>     9.6550     0.0000    48.0000 </r>
       <r>     9.7585     0.0000    48.0000 </r>
      </set>
      <set comment="spin 2">
       <r>   -21.2970     0.0000     0.0000 </r>
       <r>   -21.1934     0.0000     0.0000 </r>
       <r>   -21.0899     0.0000     0.0000 </r>
       <r>   -20.9864     0.0000     0.0000 </r>
       <r>   -20.8829     0.0000     0.0000 </r>
       <r>   -20.7794     0.0000     0.0000 </r>
       <r>   -20.6758     0.0000     0.0000 </r>
       <r>   -20.5723     0.0000     0.0000 </r>
       <r>   -20.4688     0.0000     0.0000 </r>
       <r>   -20.3653     0.0000     0.0000 </r>
       <r>   -20.2618     0.0000     0.0000 </r>
       <r>   -20.1583     0.0000     0.0000 </r>
       <r>   -20.0547     0.0012     0.0001 </r>
       <r>   -19.9512     0.0402     0.0043 </r>
       <r>   -19.8477     0.2726     0.0325 </r>
       <r>   -19.7442     0.5643     0.0909 </r>
       <r>   -19.6407     0.6285     0.1560 </r>
       <r>   -19.5371     0.6616     0.2245 </r>
       <r>   -19.4336     0.5960     0.2862 </r>
       <r>   -19.3301     0.7265     0.3614 </r>
       <r>   -19.2266     0.5471     0.4180 </r>
       <r>   -19.1231     0.6759     0.4880 </r>
       <r>   -19.0196     0.7542     0.5661 </r>
       <r>   -18.9160     0.4687     0.6146 </r>
       <r>   -18.8125     0.6852     0.6855 </r>
       <r>   -18.7090     0.8132     0.7697 </r>
       <r>   -18.6055     0.5640     0.8281 </r>
       <r>   -18.5020     0.4385     0.8735 </r>
       <r>   -18.3984     0.8686     0.9634 </r>
       <r>   -18.2949     0.7638     1.0424 </r>
       <r>   -18.1914     0.5420     1.0985 </r>
       <r>   -18.0879     0.4476     1.1449 </r>
       <r>   -17.9844     0.9900     1.2474 </r>
       <r>   -17.8809     1.6150     1.4145 </r>
       <r>   -17.7773     1.4642     1.5661 </r>
       <r>   -17.6738     1.4539     1.7166 </r>
       <r>   -17.5703     1.7067     1.8933 </r>
       <r>   -17.4668     2.2320     2.1243 </r>
       <r>   -17.3633     2.7559     2.4096 </r>
       <r>   -17.2597     2.3917     2.6572 </r>
       <r>   -17.1562     0.9687     2.7575 </r>
       <r>   -17.0527     0.6099     2.8206 </r>
       <r>   -16.9492     0.9308     2.9170 </r>
       <r>   -16.8457     0.8634     3.0064 </r>
       <r>   -16.7421     0.7054     3.0794 </r>
       <r>   -16.6386     0.5849     3.1399 </r>
       <r>   -16.5351     0.3417     3.1753 </r>
       <r>   -16.4316     0.5799     3.2353 </r>
       <r>   -16.3281     1.1897     3.3585 </r>
       <r>   -16.2246     0.7952     3.4408 </r>
       <r>   -16.1210     0.6122     3.5042 </r>
       <r>   -16.0175     0.5522     3.5613 </r>
       <r>   -15.9140     0.5325     3.6165 </r>
       <r>   -15.8105     0.4982     3.6680 </r>
       <r>   -15.7070     1.2124     3.7935 </r>
       <r>   -15.6034     1.7127     3.9708 </r>
       <r>   -15.4999     1.8149     4.1587 </r>
       <r>   -15.3964     2.0969     4.3758 </r>
       <r>   -15.2929     1.8042     4.5625 </r>
       <r>   -15.1894     1.5452     4.7225 </r>
       <r>   -15.0859     1.8577     4.9148 </r>
       <r>   -14.9823     2.3766     5.1608 </r>
       <r>   -14.8788     1.9403     5.3617 </r>
       <r>   -14.7753     1.6877     5.5364 </r>
       <r>   -14.6718     1.2515     5.6659 </r>
       <r>   -14.5683     1.3573     5.8065 </r>
       <r>   -14.4647     2.1025     6.0241 </r>
       <r>   -14.3612     2.6170     6.2950 </r>
       <r>   -14.2577     1.7930     6.4806 </r>
       <r>   -14.1542     1.1808     6.6029 </r>
       <r>   -14.0507     0.9717     6.7034 </r>
       <r>   -13.9472     1.0483     6.8120 </r>
       <r>   -13.8436     0.9910     6.9146 </r>
       <r>   -13.7401     0.6706     6.9840 </r>
       <r>   -13.6366     0.4073     7.0261 </r>
       <r>   -13.5331     0.6009     7.0883 </r>
       <r>   -13.4296     0.5743     7.1478 </r>
       <r>   -13.3260     0.7979     7.2304 </r>
       <r>   -13.2225     0.7496     7.3080 </r>
       <r>   -13.1190     0.8316     7.3941 </r>
       <r>   -13.0155     1.0415     7.5019 </r>
       <r>   -12.9120     0.9709     7.6024 </r>
       <r>   -12.8085     1.0645     7.7126 </r>
       <r>   -12.7049     0.7501     7.7902 </r>
       <r>   -12.6014     0.8877     7.8821 </r>
       <r>   -12.4979     0.6394     7.9483 </r>
       <r>   -12.3944     0.5574     8.0060 </r>
       <r>   -12.2909     1.1069     8.1206 </r>
       <r>   -12.1873     0.8545     8.2091 </r>
       <r>   -12.0838     0.8898     8.3012 </r>
       <r>   -11.9803     1.5719     8.4639 </r>
       <r>   -11.8768     2.1012     8.6814 </r>
       <r>   -11.7733     1.9163     8.8798 </r>
       <r>   -11.6698     1.8726     9.0736 </r>
       <r>   -11.5662     2.1015     9.2911 </r>
       <r>   -11.4627     1.9508     9.4931 </r>
       <r>   -11.3592     1.0603     9.6028 </r>
       <r>   -11.2557     1.2156     9.7287 </r>
       <r>   -11.1522     1.4880     9.8827 </r>
       <r>   -11.0486     1.4969    10.0377 </r>
       <r>   -10.9451     0.7716    10.1176 </r>
       <r>   -10.8416     0.7762    10.1979 </r>
       <r>   -10.7381     1.9492    10.3997 </r>
       <r>   -10.6346     2.2895    10.6367 </r>
       <r>   -10.5311     1.0795    10.7484 </r>
       <r>   -10.4275     0.8011    10.8314 </r>
       <r>   -10.3240     1.5344    10.9902 </r>
       <r>   -10.2205     2.4779    11.2467 </r>
       <r>   -10.1170     1.9796    11.4517 </r>
       <r>   -10.0135     1.1048    11.5660 </r>
       <r>    -9.9099     1.1338    11.6834 </r>
       <r>    -9.8064     1.3228    11.8203 </r>
       <r>    -9.7029     1.4499    11.9704 </r>
       <r>    -9.5994     1.1146    12.0858 </r>
       <r>    -9.4959     1.3621    12.2268 </r>
       <r>    -9.3924     1.2789    12.3592 </r>
       <r>    -9.2888     1.2769    12.4914 </r>
       <r>    -9.1853     1.1235    12.6077 </r>
       <r>    -9.0818     0.3659    12.6455 </r>
       <r>    -8.9783     0.6561    12.7135 </r>
       <r>    -8.8748     1.7506    12.8947 </r>
       <r>    -8.7712     2.4513    13.1484 </r>
       <r>    -8.6677     2.0266    13.3582 </r>
       <r>    -8.5642     1.0939    13.4715 </r>
       <r>    -8.4607     1.0843    13.5837 </r>
       <r>    -8.3572     1.3137    13.7197 </r>
       <r>    -8.2536     2.3870    13.9668 </r>
       <r>    -8.1501     3.0072    14.2781 </r>
       <r>    -8.0466     2.8871    14.5770 </r>
       <r>    -7.9431     2.0317    14.7873 </r>
       <r>    -7.8396     1.7331    14.9667 </r>
       <r>    -7.7361     1.8746    15.1607 </r>
       <r>    -7.6325     3.2661    15.4988 </r>
       <r>    -7.5290     3.5341    15.8647 </r>
       <r>    -7.4255     2.7112    16.1453 </r>
       <r>    -7.3220     2.7058    16.4254 </r>
       <r>    -7.2185     3.1020    16.7466 </r>
       <r>    -7.1149     3.1079    17.0683 </r>
       <r>    -7.0114     3.4019    17.4204 </r>
       <r>    -6.9079     2.8014    17.7104 </r>
       <r>    -6.8044     2.5994    17.9795 </r>
       <r>    -6.7009     3.5644    18.3485 </r>
       <r>    -6.5974     2.9176    18.6505 </r>
       <r>    -6.4938     2.8120    18.9416 </r>
       <r>    -6.3903     3.2136    19.2743 </r>
       <r>    -6.2868     3.1037    19.5956 </r>
       <r>    -6.1833     2.9178    19.8976 </r>
       <r>    -6.0798     2.2475    20.1303 </r>
       <r>    -5.9762     2.1949    20.3575 </r>
       <r>    -5.8727     2.8158    20.6490 </r>
       <r>    -5.7692     3.3923    21.0001 </r>
       <r>    -5.6657     2.5590    21.2651 </r>
       <r>    -5.5622     2.5426    21.5283 </r>
       <r>    -5.4587     2.8686    21.8252 </r>
       <r>    -5.3551     3.6139    22.1993 </r>
       <r>    -5.2516     3.3835    22.5496 </r>
       <r>    -5.1481     1.9270    22.7491 </r>
       <r>    -5.0446     1.5665    22.9112 </r>
       <r>    -4.9411     2.3159    23.1510 </r>
       <r>    -4.8375     2.4085    23.4003 </r>
       <r>    -4.7340     2.1935    23.6274 </r>
       <r>    -4.6305     2.0690    23.8415 </r>
       <r>    -4.5270     2.1316    24.0622 </r>
       <r>    -4.4235     2.4067    24.3113 </r>
       <r>    -4.3200     2.6210    24.5827 </r>
       <r>    -4.2164     3.4305    24.9378 </r>
       <r>    -4.1129     5.2083    25.4769 </r>
       <r>    -4.0094     4.6823    25.9616 </r>
       <r>    -3.9059     3.3426    26.3077 </r>
       <r>    -3.8024     2.2566    26.5413 </r>
       <r>    -3.6988     1.7196    26.7193 </r>
       <r>    -3.5953     1.8987    26.9158 </r>
       <r>    -3.4918     2.3129    27.1552 </r>
       <r>    -3.3883     2.8474    27.4500 </r>
       <r>    -3.2848     2.0337    27.6605 </r>
       <r>    -3.1813     1.8056    27.8474 </r>
       <r>    -3.0777     2.0824    28.0630 </r>
       <r>    -2.9742     2.6584    28.3382 </r>
       <r>    -2.8707     3.2926    28.6790 </r>
       <r>    -2.7672     1.9551    28.8814 </r>
       <r>    -2.6637     1.6956    29.0570 </r>
       <r>    -2.5601     2.7015    29.3366 </r>
       <r>    -2.4566     2.7012    29.6162 </r>
       <r>    -2.3531     2.4140    29.8661 </r>
       <r>    -2.2496     2.8649    30.1627 </r>
       <r>    -2.1461     2.2965    30.4004 </r>
       <r>    -2.0426     0.6981    30.4727 </r>
       <r>    -1.9390     0.5172    30.5262 </r>
       <r>    -1.8355     1.0441    30.6343 </r>
       <r>    -1.7320     0.7141    30.7082 </r>
       <r>    -1.6285     0.6073    30.7711 </r>
       <r>    -1.5250     0.9676    30.8713 </r>
       <r>    -1.4214     0.6908    30.9428 </r>
       <r>    -1.3179     0.3318    30.9771 </r>
       <r>    -1.2144     0.0809    30.9855 </r>
       <r>    -1.1109     0.0092    30.9865 </r>
       <r>    -1.0074     0.0682    30.9935 </r>
       <r>    -0.9039     0.3264    31.0273 </r>
       <r>    -0.8003     0.4862    31.0776 </r>
       <r>    -0.6968     0.6049    31.1403 </r>
       <r>    -0.5933     1.2575    31.2704 </r>
       <r>    -0.4898     1.3412    31.4093 </r>
       <r>    -0.3863     1.2552    31.5392 </r>
       <r>    -0.2827     1.5944    31.7043 </r>
       <r>    -0.1792     1.4435    31.8537 </r>
       <r>    -0.0757     0.8910    31.9459 </r>
       <r>     0.0278     0.3729    31.9845 </r>
       <r>     0.1313     0.1369    31.9987 </r>
       <r>     0.2349     0.2229    32.0218 </r>
       <r>     0.3384     0.8310    32.1078 </r>
       <r>     0.4419     1.2855    32.2409 </r>
       <r>     0.5454     0.9339    32.3376 </r>
       <r>     0.6489     0.4783    32.3871 </r>
       <r>     0.7524     0.9561    32.4860 </r>
       <r>     0.8560     1.5406    32.6455 </r>
       <r>     0.9595     1.6639    32.8178 </r>
       <r>     1.0630     1.3525    32.9578 </r>
       <r>     1.1665     0.6285    33.0229 </r>
       <r>     1.2700     0.6357    33.0887 </r>
       <r>     1.3736     0.6833    33.1594 </r>
       <r>     1.4771     0.6412    33.2258 </r>
       <r>     1.5806     0.8347    33.3122 </r>
       <r>     1.6841     1.4409    33.4613 </r>
       <r>     1.7876     1.1428    33.5796 </r>
       <r>     1.8911     0.4403    33.6252 </r>
       <r>     1.9947     0.3745    33.6640 </r>
       <r>     2.0982     0.9923    33.7667 </r>
       <r>     2.2017     2.0148    33.9753 </r>
       <r>     2.3052     1.8696    34.1688 </r>
       <r>     2.4087     1.4585    34.3198 </r>
       <r>     2.5123     1.5260    34.4778 </r>
       <r>     2.6158     1.5520    34.6384 </r>
       <r>     2.7193     1.3740    34.7807 </r>
       <r>     2.8228     0.9328    34.8772 </r>
       <r>     2.9263     0.9738    34.9780 </r>
       <r>     3.0298     1.6402    35.1478 </r>
       <r>     3.1334     1.7400    35.3279 </r>
       <r>     3.2369     1.7615    35.5103 </r>
       <r>     3.3404     1.5323    35.6689 </r>
       <r>     3.4439     0.9560    35.7679 </r>
       <r>     3.5474     1.3488    35.9075 </r>
       <r>     3.6510     1.6911    36.0826 </r>
       <r>     3.7545     1.2502    36.2120 </r>
       <r>     3.8580     1.4128    36.3583 </r>
       <r>     3.9615     2.3389    36.6004 </r>
       <r>     4.0650     2.1557    36.8235 </r>
       <r>     4.1685     1.6369    36.9930 </r>
       <r>     4.2721     1.9674    37.1966 </r>
       <r>     4.3756     2.1470    37.4189 </r>
       <r>     4.4791     1.7071    37.5956 </r>
       <r>     4.5826     1.8106    37.7830 </r>
       <r>     4.6861     1.6441    37.9532 </r>
       <r>     4.7897     1.9580    38.1559 </r>
       <r>     4.8932     2.2889    38.3928 </r>
       <r>     4.9967     2.6247    38.6646 </r>
       <r>     5.1002     2.2213    38.8945 </r>
       <r>     5.2037     2.0896    39.1108 </r>
       <r>     5.3072     1.8652    39.3039 </r>
       <r>     5.4108     2.2438    39.5362 </r>
       <r>     5.5143     2.5711    39.8023 </r>
       <r>     5.6178     2.0199    40.0114 </r>
       <r>     5.7213     1.8073    40.1985 </r>
       <r>     5.8248     2.4536    40.4525 </r>
       <r>     5.9284     3.1403    40.7776 </r>
       <r>     6.0319     3.1662    41.1053 </r>
       <r>     6.1354     3.4896    41.4666 </r>
       <r>     6.2389     3.3769    41.8161 </r>
       <r>     6.3424     3.2781    42.1555 </r>
       <r>     6.4459     2.7769    42.4429 </r>
       <r>     6.5495     2.2535    42.6762 </r>
       <r>     6.6530     3.2651    43.0142 </r>
       <r>     6.7565     4.2861    43.4579 </r>
       <r>     6.8600     3.8170    43.8530 </r>
       <r>     6.9635     3.7944    44.2458 </r>
       <r>     7.0671     4.4029    44.7016 </r>
       <r>     7.1706     3.8148    45.0965 </r>
       <r>     7.2741     3.5832    45.4674 </r>
       <r>     7.3776     5.0078    45.9858 </r>
       <r>     7.4811     4.3045    46.4314 </r>
       <r>     7.5846     3.0976    46.7521 </r>
       <r>     7.6882     3.2384    47.0873 </r>
       <r>     7.7917     3.3228    47.4313 </r>
       <r>     7.8952     2.3809    47.6777 </r>
       <r>     7.9987     1.6091    47.8443 </r>
       <r>     8.1022     0.7941    47.9265 </r>
       <r>     8.2058     0.2665    47.9541 </r>
       <r>     8.3093     0.1599    47.9707 </r>
       <r>     8.4128     0.2139    47.9928 </r>
       <r>     8.5163     0.0662    47.9997 </r>
       <r>     8.6198     0.0032    48.0000 </r>
       <r>     8.7234     0.0000    48.0000 </r>
       <r>     8.8269     0.0000    48.0000 </r>
       <r>     8.9304     0.0000    48.0000 </r>
       <r>     9.0339     0.0000    48.0000 </r>
       <r>     9.1374     0.0000    48.0000 </r>
       <r>     9.2409     0.0000    48.0000 </r>
       <r>     9.3445     0.0000    48.0000 </r>
       <r>     9.4480     0.0000    48.0000 </r>
       <r>     9.5515     0.0000    48.0000 </r>
       <r>     9.6550     0.0000    48.0000 </r>
       <r>     9.7585     0.0000    48.0000 </r>
      </set>
     </set>
    </array>
   </total>
  </dos>
 </calculation>
 <structure name="finalpos" >
  <crystal>
   <varray name="basis" >
    <v>       4.36996419       2.52300000       0.00000000 </v>
    <v>      -4.36996419       2.52300000       0.00000000 </v>
    <v>       0.00000000       0.00000000      15.00000000 </v>
   </varray>
   <i name="volume">    330.76258935 </i>
   <varray name="rec_basis" >
    <v>       0.11441741       0.19817677       0.00000000 </v>
    <v>      -0.11441741       0.19817677       0.00000000 </v>
    <v>       0.00000000       0.00000000       0.06666667 </v>
   </varray>
  </crystal>
  <varray name="positions" >
   <v>       0.31724857       0.69159888       0.10087201 </v>
   <v>       0.65058274       0.35827034       0.10055929 </v>
   <v>       0.14350409       0.34417844       0.10062966 </v>
   <v>       0.30300480       0.18453414       0.10045550 </v>
   <v>       0.14347913       0.86537710       0.10035500 </v>
   <v>       0.82428962       0.18455719       0.10070670 </v>
   <v>       0.66465193       0.86534482       0.10061075 </v>
   <v>       0.82429227       0.70581845       0.10043337 </v>
   <v>       0.27113237       0.22750636       0.32583570 </v>
   <v>       0.43776319       0.06093614       0.32579308 </v>
   <v>       0.27110180       0.72755752       0.32554063 </v>
   <v>       0.43781689       0.56083481       0.32573435 </v>
   <v>       0.77112354       0.22753450       0.32573922 </v>
   <v>       0.93779645       0.06085801       0.32577985 </v>
   <v>       0.77115212       0.72752737       0.32583427 </v>
   <v>       0.93771915       0.56089127       0.32578729 </v>
  </varray>
 </structure>
</modeling>
