Lattice                                 
           1
     4.369964    2.523000    0.000000
    -4.369964    2.523000    0.000000
     0.000000    0.000000   15.000000
   B    C 
     2    14
Direct configuration=     1
   0.33833034  0.66916432  0.10000000
   0.67165522  0.33584146  0.10000000
   0.16373946  0.31999962  0.10000000
   0.32250218  0.16126397  0.10000000
   0.16376430  0.84376384  0.10000000
   0.84623863  0.16123684  0.10000000
   0.68749850  0.84373000  0.10000000
   0.84626736  0.68499594  0.10000000
   0.24999933  0.24999967  0.32633333
   0.41666633  0.08333267  0.32633333
   0.24999933  0.74999967  0.32633333
   0.41666633  0.58333267  0.32633333
   0.74999933  0.24999967  0.32633333
   0.91666633  0.08333267  0.32633333
   0.74999933  0.74999967  0.32633333
   0.91666633  0.58333267  0.32633333
Direct configuration=     2
   0.33844097  0.66905622  0.10014340
   0.67179351  0.33570188  0.10008386
   0.16698138  0.32643239  0.09994260
   0.32862509  0.16435708  0.09997368
   0.16681127  0.84071119  0.09995459
   0.84299768  0.16446086  0.09995902
   0.68108197  0.84051379  0.09994297
   0.84314914  0.67888446  0.09997392
   0.24986368  0.24959642  0.32640609
   0.41630174  0.08328215  0.32639675
   0.24982223  0.75018857  0.32627013
   0.41677156  0.58322382  0.32622977
   0.75003425  0.24995607  0.32620859
   0.91686830  0.08312310  0.32638218
   0.75040322  0.75014221  0.32640758
   0.91671266  0.58369512  0.32639152
Direct configuration=     3
   0.33836043  0.66913492  0.10003900
   0.67169283  0.33580350  0.10002281
   0.16462118  0.32174917  0.09998439
   0.32416746  0.16210521  0.09999284
   0.16459300  0.84293360  0.09998765
   0.84535718  0.16211369  0.09998885
   0.68575337  0.84285527  0.09998449
   0.84541928  0.68333377  0.09999291
   0.24996244  0.24988999  0.32635312
   0.41656717  0.08331893  0.32635058
   0.24995117  0.75005104  0.32631614
   0.41669495  0.58330306  0.32630517
   0.75000883  0.24998781  0.32629941
   0.91672126  0.08327567  0.32634662
   0.75010918  0.75003843  0.32635353
   0.91667893  0.58343125  0.32634916
Direct configuration=     4
   0.33836077  0.66913978  0.10013269
   0.67169209  0.33580441  0.10007751
   0.16457037  0.32175313  0.09994778
   0.32417278  0.16214316  0.09997206
   0.16457271  0.84293973  0.09996157
   0.84538343  0.16210569  0.09995790
   0.68574169  0.84291128  0.09994809
   0.84537651  0.68333282  0.09997245
   0.24995690  0.24983727  0.32640333
   0.41653979  0.08329361  0.32638906
   0.24993627  0.75006533  0.32627637
   0.41671682  0.58328126  0.32623781
   0.75001505  0.24997949  0.32622231
   0.91675929  0.08323682  0.32637894
   0.75016030  0.75004292  0.32640458
   0.91670391  0.58345864  0.32638421
Direct configuration=     5
   0.33836088  0.66914146  0.10016510
   0.67169184  0.33580472  0.10009644
   0.16455279  0.32175449  0.09993512
   0.32417462  0.16215629  0.09996488
   0.16456569  0.84294185  0.09995255
   0.84539251  0.16210293  0.09994719
   0.68573765  0.84293065  0.09993550
   0.84536171  0.68333249  0.09996538
   0.24995498  0.24981903  0.32642070
   0.41653031  0.08328485  0.32640237
   0.24993112  0.75007028  0.32626261
   0.41672439  0.58327372  0.32621451
   0.75001721  0.24997661  0.32619563
   0.91677245  0.08322338  0.32639012
   0.75017798  0.75004447  0.32642224
   0.91671255  0.58346811  0.32639634
Direct configuration=     6
   0.33829036  0.66918998  0.10024902
   0.67169502  0.33581533  0.10015090
   0.16471692  0.32180234  0.09990602
   0.32407257  0.16210344  0.09993662
   0.16452798  0.84299737  0.09994068
   0.84527700  0.16219263  0.09990226
   0.68572390  0.84280960  0.09990678
   0.84537745  0.68342120  0.09993758
   0.25001794  0.24988791  0.32646420
   0.41663848  0.08329726  0.32641464
   0.25001366  0.74998671  0.32623440
   0.41671658  0.58327747  0.32617208
   0.75005311  0.24994320  0.32616090
   0.91673057  0.08326332  0.32641888
   0.75010996  0.74998120  0.32646563
   0.91669718  0.58335638  0.32640607
Direct configuration=     7
   0.33833541  0.66915898  0.10019541
   0.67169299  0.33580855  0.10011611
   0.16461207  0.32177177  0.09992461
   0.32413776  0.16213720  0.09995467
   0.16455207  0.84296190  0.09994826
   0.84535080  0.16213532  0.09993097
   0.68573268  0.84288694  0.09992513
   0.84536740  0.68336453  0.09995534
   0.24997772  0.24984390  0.32643641
   0.41656938  0.08328933  0.32640680
   0.24996093  0.75004010  0.32625242
   0.41672157  0.58327507  0.32619919
   0.75003017  0.24996455  0.32618309
   0.91675732  0.08323780  0.32640051
   0.75015342  0.75002162  0.32643791
   0.91670700  0.58342776  0.32639985
Direct configuration=     8
   0.33831257  0.66918762  0.10022098
   0.67165138  0.33584520  0.10013413
   0.16457445  0.32179218  0.09991596
   0.32415179  0.16212439  0.09994078
   0.16451586  0.84297817  0.09995233
   0.84536488  0.16214468  0.09990411
   0.68570245  0.84291699  0.09991680
   0.84538998  0.68336160  0.09994175
   0.25000466  0.24986189  0.32644771
   0.41661785  0.08328323  0.32639625
   0.24999476  0.75000474  0.32624770
   0.41672991  0.58326529  0.32620188
   0.75004803  0.24994647  0.32619690
   0.91675324  0.08324123  0.32641197
   0.75013465  0.74999357  0.32644850
   0.91671222  0.58337808  0.32638890
Direct configuration=     9
   0.33832253  0.66917514  0.10020983
   0.67166951  0.33582923  0.10012627
   0.16459085  0.32178329  0.09991973
   0.32414567  0.16212997  0.09994684
   0.16453164  0.84297108  0.09995056
   0.84535874  0.16214060  0.09991582
   0.68571563  0.84290389  0.09992043
   0.84538014  0.68336288  0.09994768
   0.24999292  0.24985405  0.32644278
   0.41659672  0.08328589  0.32640085
   0.24998001  0.75002015  0.32624976
   0.41672627  0.58326956  0.32620071
   0.75004025  0.24995435  0.32619088
   0.91675502  0.08323974  0.32640697
   0.75014283  0.75000580  0.32644388
   0.91670994  0.58339974  0.32639367
Direct configuration=    10
   0.33829889  0.66919879  0.10022713
   0.67165287  0.33584917  0.10013655
   0.16457525  0.32179235  0.09991148
   0.32413113  0.16216514  0.09993722
   0.16452733  0.84297824  0.09995617
   0.84534603  0.16215475  0.09989186
   0.68570908  0.84292866  0.09991259
   0.84533769  0.68337444  0.09993845
   0.25000669  0.24983131  0.32644837
   0.41660928  0.08326525  0.32638924
   0.24999245  0.75000643  0.32624719
   0.41674602  0.58324897  0.32621168
   0.75005578  0.24993726  0.32621016
   0.91677632  0.08321750  0.32641792
   0.75016412  0.74999065  0.32644870
   0.91672972  0.58338639  0.32638195
Direct configuration=    11
   0.33829044  0.66920725  0.10023332
   0.67164692  0.33585631  0.10014022
   0.16456967  0.32179559  0.09990852
   0.32412593  0.16217772  0.09993379
   0.16452578  0.84298081  0.09995817
   0.84534149  0.16215981  0.09988329
   0.68570674  0.84293752  0.09990978
   0.84532251  0.68337858  0.09993515
   0.25001162  0.24982318  0.32645037
   0.41661378  0.08325787  0.32638509
   0.24999690  0.75000152  0.32624627
   0.41675309  0.58324161  0.32621561
   0.75006133  0.24993116  0.32621706
   0.91678393  0.08320955  0.32642184
   0.75017173  0.74998524  0.32645043
   0.91673679  0.58338162  0.32637776
Direct configuration=    12
   0.33828566  0.66921398  0.10024233
   0.67163780  0.33586500  0.10013992
   0.16455798  0.32182992  0.09989748
   0.32409704  0.16218049  0.09993201
   0.16448763  0.84301284  0.09996279
   0.84531604  0.16219032  0.09986537
   0.68567371  0.84295091  0.09989921
   0.84532098  0.68341276  0.09993378
   0.25002770  0.24978902  0.32645193
   0.41661885  0.08323530  0.32638145
   0.25001062  0.74998707  0.32624354
   0.41677285  0.58322045  0.32622855
   0.75008059  0.24991075  0.32622958
   0.91680856  0.08318321  0.32643318
   0.75020490  0.74996830  0.32645146
   0.91675775  0.58337502  0.32637410
Direct configuration=    13
   0.33828429  0.66921590  0.10024490
   0.67163520  0.33586748  0.10013983
   0.16455465  0.32183973  0.09989433
   0.32408879  0.16218128  0.09993151
   0.16447673  0.84302199  0.09996410
   0.84530877  0.16219904  0.09986025
   0.68566428  0.84295473  0.09989619
   0.84532055  0.68342252  0.09993339
   0.25003230  0.24977926  0.32645238
   0.41662030  0.08322885  0.32638042
   0.25001454  0.74998294  0.32624276
   0.41677849  0.58321440  0.32623225
   0.75008609  0.24990493  0.32623315
   0.91681559  0.08317569  0.32643641
   0.75021438  0.74996346  0.32645175
   0.91676374  0.58337314  0.32637305
Direct configuration=    14
   0.33826531  0.66923585  0.10024560
   0.67161748  0.33588710  0.10013277
   0.16453311  0.32185763  0.09988326
   0.32406949  0.16220353  0.09993473
   0.16445894  0.84304042  0.09996859
   0.84529042  0.16221948  0.09984777
   0.68564791  0.84297904  0.09988558
   0.84529795  0.68344221  0.09993701
   0.25005256  0.24976159  0.32645322
   0.41664214  0.08320937  0.32638359
   0.25003543  0.74996077  0.32624168
   0.41679685  0.58319477  0.32624142
   0.75010528  0.24988457  0.32623790
   0.91683298  0.08315707  0.32644495
   0.75023086  0.74994196  0.32645241
   0.91678195  0.58334998  0.32637620
Direct configuration=    15
   0.33820837  0.66929570  0.10024771
   0.67156432  0.33594597  0.10011158
   0.16446850  0.32191134  0.09985005
   0.32401160  0.16227028  0.09994438
   0.16440557  0.84309574  0.09998204
   0.84523535  0.16228079  0.09981034
   0.68559881  0.84305195  0.09985377
   0.84523016  0.68350129  0.09994786
   0.25011335  0.24970857  0.32645576
   0.41670767  0.08315090  0.32639310
   0.25009812  0.74989424  0.32623842
   0.41685193  0.58313588  0.32626893
   0.75016285  0.24982352  0.32625213
   0.91688516  0.08310122  0.32647057
   0.75028030  0.74987744  0.32645438
   0.91683660  0.58328050  0.32638564
Direct configuration=    16
   0.33809448  0.66941540  0.10025193
   0.67145801  0.33606370  0.10006921
   0.16433927  0.32201875  0.09978364
   0.32389581  0.16240379  0.09996369
   0.16429885  0.84320637  0.10000894
   0.84512522  0.16240342  0.09973549
   0.68550061  0.84319779  0.09979014
   0.84509458  0.68361944  0.09996957
   0.25023493  0.24960255  0.32646083
   0.41683873  0.08303396  0.32641212
   0.25022349  0.74976118  0.32623192
   0.41696209  0.58301811  0.32632395
   0.75027800  0.24970140  0.32628059
   0.91698952  0.08298952  0.32652182
   0.75037920  0.74974842  0.32645833
   0.91694588  0.58314154  0.32640451
Direct configuration=    17
   0.33813182  0.66937614  0.10025055
   0.67149287  0.33602509  0.10008310
   0.16438165  0.32198353  0.09980542
   0.32393378  0.16236001  0.09995736
   0.16433385  0.84317009  0.10000012
   0.84516134  0.16236320  0.09976004
   0.68553282  0.84314997  0.09981101
   0.84513904  0.68358070  0.09996245
   0.25019506  0.24963732  0.32645916
   0.41679575  0.08307231  0.32640588
   0.25018237  0.74980481  0.32623405
   0.41692597  0.58305673  0.32630591
   0.75024024  0.24974145  0.32627125
   0.91695529  0.08302615  0.32650501
   0.75034677  0.74979073  0.32645704
   0.91691005  0.58318711  0.32639832
Direct configuration=    18
   0.33811862  0.66939060  0.10024806
   0.67147759  0.33604049  0.10007919
   0.16437040  0.32199785  0.09979997
   0.32392249  0.16237183  0.09995836
   0.16432080  0.84318315  0.10000468
   0.84514954  0.16237667  0.09975111
   0.68551881  0.84316172  0.09980585
   0.84512839  0.68359349  0.09996371
   0.25020716  0.24962393  0.32646185
   0.41680830  0.08305866  0.32640804
   0.25019434  0.74979196  0.32623591
   0.41693915  0.58304279  0.32630828
   0.75025258  0.24972818  0.32627378
   0.91696826  0.08301243  0.32650772
   0.75035927  0.74977776  0.32645971
   0.91692295  0.58317383  0.32640045
Direct configuration=    19
   0.33807901  0.66943395  0.10024058
   0.67143174  0.33608669  0.10006746
   0.16433664  0.32204083  0.09978362
   0.32388862  0.16240727  0.09996135
   0.16428166  0.84322231  0.10001835
   0.84511416  0.16241708  0.09972433
   0.68547680  0.84319700  0.09979037
   0.84509645  0.68363185  0.09996749
   0.25024346  0.24958379  0.32646993
   0.41684593  0.08301771  0.32641450
   0.25023025  0.74975340  0.32624149
   0.41697872  0.58300098  0.32631541
   0.75028961  0.24968838  0.32628136
   0.91700715  0.08297128  0.32651586
   0.75039678  0.74973883  0.32646773
   0.91696168  0.58313397  0.32640685
Direct configuration=    20
   0.33799978  0.66952066  0.10022564
   0.67134003  0.33617909  0.10004399
   0.16426912  0.32212679  0.09975092
   0.32382087  0.16247817  0.09996735
   0.16420337  0.84330065  0.10004569
   0.84504340  0.16249788  0.09967076
   0.68539278  0.84326754  0.09975942
   0.84503256  0.68370859  0.09997505
   0.25031607  0.24950351  0.32648607
   0.41692121  0.08293582  0.32642743
   0.25030208  0.74967629  0.32625265
   0.41705786  0.58291735  0.32632965
   0.75036366  0.24960877  0.32629651
   0.91708494  0.08288899  0.32653213
   0.75047181  0.74966098  0.32648377
   0.91703914  0.58305426  0.32641964
Direct configuration=    21
   0.33784133  0.66969407  0.10019576
   0.67115662  0.33636388  0.09999705
   0.16413408  0.32229870  0.09968551
   0.32368539  0.16261996  0.09997933
   0.16404680  0.84345731  0.10010036
   0.84490188  0.16265950  0.09956363
   0.68522473  0.84340863  0.09969751
   0.84490478  0.68386207  0.09999017
   0.25046127  0.24934293  0.32651836
   0.41707175  0.08277203  0.32645329
   0.25044572  0.74952207  0.32627497
   0.41721614  0.58275009  0.32635815
   0.75051175  0.24944956  0.32632682
   0.91724052  0.08272439  0.32656467
   0.75062186  0.74950529  0.32651585
   0.91719405  0.58289485  0.32644521
Direct configuration=    22
   0.33752442  0.67004090  0.10013600
   0.67078979  0.33673347  0.09990319
   0.16386401  0.32264252  0.09955471
   0.32341441  0.16290355  0.10000330
   0.16373366  0.84377065  0.10020972
   0.84461883  0.16298273  0.09934937
   0.68488864  0.84369081  0.09957369
   0.84464922  0.68416902  0.10002040
   0.25075167  0.24902179  0.32658294
   0.41737284  0.08244445  0.32650501
   0.25073302  0.74921362  0.32631961
   0.41753269  0.58241557  0.32641515
   0.75080795  0.24913114  0.32638745
   0.91755168  0.08239520  0.32662975
   0.75092197  0.74919389  0.32658002
   0.91750388  0.58257601  0.32649637
Direct configuration=    23
   0.33750074  0.67006514  0.10013062
   0.67076879  0.33675710  0.09989700
   0.16384269  0.32266571  0.09954531
   0.32338840  0.16292904  0.10000452
   0.16371248  0.84379511  0.10021826
   0.84459356  0.16300771  0.09933296
   0.68486838  0.84371561  0.09956481
   0.84462328  0.68419488  0.10002210
   0.25077533  0.24899659  0.32658828
   0.41739521  0.08242021  0.32650912
   0.25075663  0.74918863  0.32632403
   0.41755514  0.58239152  0.32641843
   0.75083140  0.24910632  0.32639177
   0.91757435  0.08237091  0.32663364
   0.75094579  0.74916884  0.32658537
   0.91752649  0.58255201  0.32650044
Direct configuration=    24
   0.33742970  0.67013786  0.10011448
   0.67070579  0.33682797  0.09987845
   0.16377873  0.32273528  0.09951711
   0.32331036  0.16300549  0.10000820
   0.16364896  0.84386851  0.10024388
   0.84451777  0.16308264  0.09928374
   0.68480760  0.84379002  0.09953814
   0.84454545  0.68427246  0.10002722
   0.25084631  0.24892099  0.32660430
   0.41746232  0.08234749  0.32652144
   0.25082747  0.74911366  0.32633728
   0.41762250  0.58231938  0.32642829
   0.75090173  0.24903185  0.32640475
   0.91764239  0.08229802  0.32664531
   0.75101725  0.74909370  0.32660142
   0.91759432  0.58248003  0.32651266
Direct configuration=    25
   0.33728762  0.67028331  0.10008221
   0.67057979  0.33696972  0.09984135
   0.16365081  0.32287441  0.09946072
   0.32315428  0.16315839  0.10001556
   0.16352192  0.84401529  0.10029511
   0.84436619  0.16323250  0.09918529
   0.68468605  0.84393884  0.09948480
   0.84438979  0.68442763  0.10003744
   0.25098828  0.24876979  0.32663634
   0.41759654  0.08220204  0.32654608
   0.25096915  0.74896371  0.32636378
   0.41775722  0.58217509  0.32644801
   0.75104241  0.24888291  0.32643070
   0.91777846  0.08215223  0.32666864
   0.75116016  0.74894341  0.32663353
   0.91772999  0.58233606  0.32653710
Direct configuration=    26
   0.33700347  0.67057419  0.10001767
   0.67032778  0.33725323  0.09976714
   0.16339496  0.32315268  0.09934792
   0.32284214  0.16346419  0.10003028
   0.16326785  0.84430887  0.10039757
   0.84406303  0.16353223  0.09898840
   0.68444295  0.84423647  0.09937813
   0.84407848  0.68473795  0.10005790
   0.25127220  0.24846739  0.32670042
   0.41786497  0.08191114  0.32659536
   0.25125251  0.74866382  0.32641678
   0.41802667  0.58188652  0.32648744
   0.75132376  0.24858503  0.32648261
   0.91805059  0.08186067  0.32671531
   0.75144599  0.74864283  0.32669775
   0.91800133  0.58204811  0.32658598
Direct configuration=    27
   0.33643515  0.67115596  0.09988859
   0.66982377  0.33782024  0.09961873
   0.16288327  0.32370923  0.09912233
   0.32221784  0.16407580  0.10005973
   0.16275969  0.84489603  0.10060250
   0.84345670  0.16413167  0.09859462
   0.68395674  0.84483174  0.09916479
   0.84345585  0.68535859  0.10009880
   0.25184004  0.24786259  0.32682857
   0.41840185  0.08132935  0.32669392
   0.25181924  0.74806404  0.32652279
   0.41856556  0.58130938  0.32656630
   0.75188646  0.24798927  0.32658643
   0.91859487  0.08127754  0.32680865
   0.75201765  0.74804168  0.32682618
   0.91854400  0.58147222  0.32668374
Direct configuration=    28
   0.33676451  0.67081881  0.09996339
   0.67011586  0.33749164  0.09970474
   0.16317981  0.32338670  0.09925307
   0.32257963  0.16372136  0.10004267
   0.16305418  0.84455576  0.10048374
   0.84380808  0.16378428  0.09882282
   0.68423851  0.84448677  0.09928843
   0.84381668  0.68499891  0.10007510
   0.25151096  0.24821309  0.32675430
   0.41809072  0.08166652  0.32663680
   0.25149081  0.74841163  0.32646135
   0.41825326  0.58164385  0.32652060
   0.75156036  0.24833453  0.32652627
   0.91827945  0.08161548  0.32675456
   0.75168636  0.74839006  0.32675175
   0.91822951  0.58180596  0.32662709
Direct configuration=    29
   0.33662556  0.67097318  0.09992453
   0.66997071  0.33764551  0.09967100
   0.16296760  0.32355523  0.09918757
   0.32242268  0.16389862  0.10004887
   0.16287241  0.84473194  0.10053869
   0.84366016  0.16395762  0.09871198
   0.68407157  0.84469623  0.09922624
   0.84366282  0.68517425  0.10008458
   0.25167829  0.24804338  0.32678871
   0.41825809  0.08149518  0.32666885
   0.25165936  0.74823264  0.32649654
   0.41841140  0.58147482  0.32654263
   0.75172347  0.24816164  0.32655331
   0.91843887  0.08144518  0.32677757
   0.75184577  0.74821241  0.32678647
   0.91838989  0.58162750  0.32665910
Direct configuration=    30
   0.33639155  0.67123318  0.09985908
   0.66972626  0.33790464  0.09961418
   0.16261021  0.32383907  0.09907727
   0.32215835  0.16419716  0.10005933
   0.16256627  0.84502867  0.10063125
   0.84341103  0.16424956  0.09852530
   0.68379043  0.84504901  0.09912150
   0.84340370  0.68546954  0.10010054
   0.25196010  0.24775757  0.32684667
   0.41853997  0.08120663  0.32672283
   0.25194325  0.74793118  0.32655580
   0.41867772  0.58119014  0.32657974
   0.75199818  0.24787047  0.32659886
   0.91870737  0.08115836  0.32681634
   0.75211425  0.74791322  0.32684496
   0.91866002  0.58132694  0.32671302
Direct configuration=    31
   0.33634495  0.67128476  0.09985052
   0.66967258  0.33795795  0.09961729
   0.16256909  0.32390048  0.09905708
   0.32212329  0.16425145  0.10005950
   0.16251948  0.84507967  0.10063547
   0.84336429  0.16429787  0.09850369
   0.68373006  0.84508761  0.09910179
   0.84335752  0.68551203  0.10010149
   0.25200220  0.24771570  0.32684870
   0.41859606  0.08115369  0.32673638
   0.25198517  0.74788493  0.32656842
   0.41873146  0.58113438  0.32658956
   0.75204126  0.24782303  0.32660263
   0.91875820  0.08110576  0.32682000
   0.75215177  0.74786682  0.32684729
   0.91871127  0.58126920  0.32672686
Direct configuration=    32
   0.33620513  0.67143951  0.09982483
   0.66951155  0.33811788  0.09962661
   0.16244576  0.32408473  0.09899652
   0.32201814  0.16441430  0.10006002
   0.16237909  0.84523270  0.10064814
   0.84322407  0.16444280  0.09843887
   0.68354896  0.84520339  0.09904267
   0.84321897  0.68563951  0.10010433
   0.25212849  0.24759008  0.32685480
   0.41876434  0.08099487  0.32677703
   0.25211095  0.74774618  0.32660626
   0.41889265  0.58096708  0.32661902
   0.75217049  0.24768074  0.32661392
   0.91891070  0.08094797  0.32683098
   0.75226434  0.74772764  0.32685428
   0.91886504  0.58109596  0.32676840
Direct configuration=    33
   0.33611580  0.67152545  0.09981557
   0.66945005  0.33819274  0.09964470
   0.16240271  0.32414572  0.09897055
   0.32193066  0.16449130  0.10005641
   0.16232854  0.84531209  0.10063932
   0.84314252  0.16450661  0.09842316
   0.68350110  0.84525865  0.09901669
   0.84313969  0.68571800  0.10010148
   0.25220626  0.24750588  0.32685179
   0.41881742  0.08093046  0.32679589
   0.25218685  0.74766840  0.32662771
   0.41894931  0.58090369  0.32663439
   0.75224835  0.24760087  0.32661906
   0.91897044  0.08088139  0.32683013
   0.75234629  0.74764774  0.32685185
   0.91892268  0.58103635  0.32678797
Direct configuration=    34
   0.33602839  0.67160955  0.09980651
   0.66938987  0.33826599  0.09966241
   0.16236060  0.32420540  0.09894514
   0.32184507  0.16456664  0.10005289
   0.16227907  0.84538978  0.10063068
   0.84306273  0.16456905  0.09840778
   0.68345427  0.84531272  0.09899127
   0.84306211  0.68579480  0.10009868
   0.25228236  0.24742349  0.32684884
   0.41886936  0.08086743  0.32681435
   0.25226112  0.74759229  0.32664871
   0.41900475  0.58084165  0.32664942
   0.75232453  0.24752273  0.32662408
   0.91902890  0.08081624  0.32682929
   0.75242647  0.74756956  0.32684947
   0.91897908  0.58097802  0.32680713
Direct configuration=    35
   0.33596273  0.67168112  0.09979812
   0.66932709  0.33833194  0.09968372
   0.16227438  0.32426829  0.09892651
   0.32178383  0.16462934  0.10004589
   0.16220280  0.84546573  0.10061544
   0.84301061  0.16462975  0.09840194
   0.68338894  0.84538829  0.09897220
   0.84301892  0.68586565  0.10009202
   0.25235014  0.24734793  0.32684643
   0.41892586  0.08080115  0.32682797
   0.25232796  0.74752224  0.32667014
   0.41906318  0.58077815  0.32666158
   0.75239167  0.24745258  0.32663133
   0.91909171  0.08074821  0.32682433
   0.75249863  0.74749851  0.32684759
   0.91904023  0.58091646  0.32682146
Direct configuration=    36
   0.33584293  0.67181168  0.09978281
   0.66921255  0.33845224  0.09972258
   0.16211708  0.32438303  0.09889254
   0.32167212  0.16474372  0.10003313
   0.16206366  0.84560429  0.10058764
   0.84291552  0.16474049  0.09839127
   0.68326974  0.84552615  0.09893742
   0.84294014  0.68599491  0.10007986
   0.25247380  0.24721006  0.32684202
   0.41902893  0.08068024  0.32685282
   0.25244990  0.74739445  0.32670925
   0.41916978  0.58066230  0.32668374
   0.75251415  0.24732461  0.32664456
   0.91920629  0.08062411  0.32681526
   0.75263026  0.74736888  0.32684414
   0.91915180  0.58080416  0.32684761
Direct configuration=    37
   0.33576872  0.67189193  0.09977004
   0.66913649  0.33853133  0.09974463
   0.16203025  0.32449055  0.09888211
   0.32160211  0.16485269  0.10001815
   0.16198241  0.84569597  0.10056437
   0.84282243  0.16483112  0.09839298
   0.68316940  0.84561035  0.09892605
   0.84284313  0.68607563  0.10006470
   0.25254302  0.24713867  0.32684505
   0.41913634  0.08057862  0.32686188
   0.25252054  0.74731451  0.32673392
   0.41927128  0.58055870  0.32669300
   0.75258370  0.24724598  0.32665802
   0.91930470  0.08052394  0.32680677
   0.75269248  0.74729047  0.32684765
   0.91925165  0.58069489  0.32685734
Direct configuration=    38
   0.33569050  0.67197651  0.09975658
   0.66905631  0.33861470  0.09976787
   0.16193872  0.32460388  0.09887111
   0.32152830  0.16496756  0.10000235
   0.16189677  0.84579260  0.10053984
   0.84272431  0.16492666  0.09839478
   0.68306363  0.84569911  0.09891407
   0.84274086  0.68616072  0.10004872
   0.25261598  0.24706341  0.32684825
   0.41924956  0.08047149  0.32687144
   0.25259500  0.74723025  0.32675991
   0.41937827  0.58044949  0.32670277
   0.75265703  0.24716309  0.32667222
   0.91940845  0.08041835  0.32679781
   0.75275807  0.74720781  0.32685136
   0.91935690  0.58057971  0.32686760
Direct configuration=    39
   0.33559345  0.67207699  0.09974106
   0.66896548  0.33871641  0.09977372
   0.16187024  0.32471051  0.09887770
   0.32142276  0.16508813  0.09998113
   0.16182291  0.84589511  0.10051184
   0.84260767  0.16503022  0.09840849
   0.68297096  0.84578549  0.09891930
   0.84261463  0.68626054  0.10002652
   0.25271993  0.24696312  0.32685856
   0.41934573  0.08037607  0.32687385
   0.25270009  0.74712017  0.32677467
   0.41947085  0.58034926  0.32670685
   0.75276118  0.24705359  0.32668676
   0.91949449  0.08032489  0.32679424
   0.75285353  0.74709887  0.32686182
   0.91944478  0.58047596  0.32687016
Direct configuration=    40
   0.33540327  0.67227389  0.09971065
   0.66878749  0.33891573  0.09978519
   0.16173603  0.32491946  0.09889061
   0.32121592  0.16532441  0.09993954
   0.16167817  0.84609599  0.10045695
   0.84237910  0.16523314  0.09843535
   0.68278936  0.84595476  0.09892956
   0.84236726  0.68645613  0.09998301
   0.25292364  0.24676658  0.32687877
   0.41953419  0.08018906  0.32687857
   0.25290602  0.74690444  0.32680360
   0.41965226  0.58015287  0.32671487
   0.75296527  0.24683903  0.32671526
   0.91966309  0.08014176  0.32678723
   0.75304060  0.74688540  0.32688233
   0.91961699  0.58027265  0.32687518
Direct configuration=    41
   0.33536470  0.67231669  0.09970493
   0.66874404  0.33896035  0.09978415
   0.16169152  0.32496084  0.09889478
   0.32117704  0.16536387  0.09993119
   0.16163542  0.84613876  0.10044464
   0.84234272  0.16527508  0.09844303
   0.68274825  0.84599924  0.09893315
   0.84233329  0.68649922  0.09997414
   0.25296583  0.24672248  0.32688284
   0.41957193  0.08014829  0.32687971
   0.25294838  0.74685993  0.32680688
   0.41969036  0.58011173  0.32671671
   0.75300733  0.24679477  0.32671987
   0.91970057  0.08010121  0.32678797
   0.75308263  0.74684110  0.32688640
   0.91965467  0.58023178  0.32687630
Direct configuration=    42
   0.33524901  0.67244509  0.09968778
   0.66861369  0.33909420  0.09978103
   0.16155798  0.32508498  0.09890730
   0.32106040  0.16548226  0.09990613
   0.16150717  0.84626707  0.10040770
   0.84223357  0.16540087  0.09846605
   0.68262491  0.84613265  0.09894393
   0.84223136  0.68662849  0.09994754
   0.25309239  0.24659015  0.32689504
   0.41968513  0.08002597  0.32688312
   0.25307549  0.74672639  0.32681670
   0.41980466  0.57998830  0.32672222
   0.75313349  0.24666198  0.32673367
   0.91981298  0.07997956  0.32679020
   0.75320872  0.74670822  0.32689860
   0.91976770  0.58010917  0.32687965
Direct configuration=    43
   0.33501763  0.67270189  0.09965346
   0.66835300  0.33936190  0.09977479
   0.16129090  0.32533325  0.09893234
   0.32082712  0.16571903  0.09985603
   0.16125067  0.84652368  0.10033383
   0.84201527  0.16565247  0.09851211
   0.68237823  0.84639947  0.09896550
   0.84202751  0.68688701  0.09989435
   0.25334551  0.24632550  0.32691944
   0.41991155  0.07978134  0.32688993
   0.25332970  0.74645930  0.32683634
   0.42003328  0.57974146  0.32673326
   0.75338583  0.24639640  0.32676127
   0.92003781  0.07973625  0.32679464
   0.75346090  0.74644244  0.32692302
   0.91999375  0.57986394  0.32688637
Direct configuration=    44
   0.33455487  0.67321548  0.09958483
   0.66783162  0.33989730  0.09976231
   0.16075673  0.32582980  0.09898241
   0.32036056  0.16619258  0.09975581
   0.16073767  0.84703690  0.10018609
   0.84157868  0.16615565  0.09860421
   0.68188487  0.84693312  0.09900863
   0.84161981  0.68740407  0.09978795
   0.25385175  0.24579620  0.32696825
   0.42036438  0.07929208  0.32690355
   0.25383813  0.74592512  0.32687563
   0.42049050  0.57924778  0.32675533
   0.75389050  0.24586523  0.32681647
   0.92048748  0.07924964  0.32680353
   0.75396526  0.74591089  0.32697185
   0.92044586  0.57937349  0.32689981
Direct configuration=    45
   0.33446084  0.67331416  0.09957475
   0.66773928  0.33999588  0.09975482
   0.16066141  0.32592348  0.09899155
   0.32026579  0.16628502  0.09973880
   0.16064551  0.84713283  0.10015583
   0.84148685  0.16625425  0.09862496
   0.68179909  0.84703444  0.09901645
   0.84153348  0.68750534  0.09976966
   0.25393856  0.24569920  0.32697511
   0.42045780  0.07919030  0.32690839
   0.25392525  0.74583112  0.32687852
   0.42058574  0.57914758  0.32676148
   0.75397691  0.24577197  0.32682314
   0.92058425  0.07914773  0.32681001
   0.75405547  0.74581724  0.32697865
   0.92054245  0.57927480  0.32690454
Direct configuration=    46
   0.33417874  0.67361022  0.09954449
   0.66746227  0.34029162  0.09973232
   0.16037545  0.32620451  0.09901897
   0.31998149  0.16656232  0.09968777
   0.16036902  0.84742060  0.10006507
   0.84121136  0.16655006  0.09868720
   0.68154173  0.84733840  0.09903994
   0.84127447  0.68780915  0.09971481
   0.25419901  0.24540822  0.32699571
   0.42073807  0.07888494  0.32692289
   0.25418660  0.74554913  0.32688718
   0.42087145  0.57884698  0.32677994
   0.75423612  0.24549218  0.32684312
   0.92087456  0.07884197  0.32682945
   0.75432608  0.74553630  0.32699907
   0.92083224  0.57897875  0.32691873
Direct configuration=    47
   0.33361454  0.67420233  0.09948398
   0.66690825  0.34088311  0.09968734
   0.15980353  0.32676658  0.09907379
   0.31941288  0.16711693  0.09958570
   0.15981606  0.84799615  0.09988355
   0.84066038  0.16714167  0.09881168
   0.68102702  0.84794631  0.09908691
   0.84075647  0.68841677  0.09960511
   0.25471989  0.24482624  0.32703691
   0.42129861  0.07827423  0.32695190
   0.25470931  0.74498513  0.32690452
   0.42144288  0.57824578  0.32681685
   0.75475455  0.24493261  0.32688309