  15  15   0   4
  0.2028716E+02  0.4840000E-09  0.4840000E-09  0.1500000E-08  0.5000000E-15
  1.000000000000000E-004
  CAR 
 Lattice                                 
     10.31015615    -21.67497298  301     -0.26438981      1.00000000
    -21.675  0.0000E+00  0.0000E+00  0.0000E+00  0.0000E+00
    -21.568  0.0000E+00  0.0000E+00  0.0000E+00  0.0000E+00
    -21.462  0.0000E+00  0.0000E+00  0.0000E+00  0.0000E+00
    -21.355  0.0000E+00  0.0000E+00  0.0000E+00  0.0000E+00
    -21.249  0.0000E+00  0.0000E+00  0.0000E+00  0.0000E+00
    -21.142  0.0000E+00  0.0000E+00  0.0000E+00  0.0000E+00
    -21.035  0.0000E+00  0.0000E+00  0.0000E+00  0.0000E+00
    -20.929  0.0000E+00  0.0000E+00  0.0000E+00  0.0000E+00
    -20.822  0.0000E+00  0.0000E+00  0.0000E+00  0.0000E+00
    -20.715  0.7445E-15  0.7445E-15  0.7938E-16  0.7938E-16
    -20.609  0.1245E-10  0.1245E-10  0.1327E-11  0.1327E-11
    -20.502  0.2516E-07  0.2516E-07  0.2684E-08  0.2684E-08
    -20.396  0.6767E-05  0.6767E-05  0.7242E-06  0.7242E-06
    -20.289  0.2705E-03  0.2705E-03  0.2957E-04  0.2957E-04
    -20.182  0.1967E-02  0.1967E-02  0.2393E-03  0.2393E-03
    -20.076  0.4138E-02  0.4138E-02  0.6805E-03  0.6805E-03
    -19.969  0.4504E-02  0.4504E-02  0.1161E-02  0.1161E-02
    -19.862  0.4928E-02  0.4928E-02  0.1686E-02  0.1686E-02
    -19.756  0.4138E-02  0.4138E-02  0.2127E-02  0.2127E-02
    -19.649  0.5357E-02  0.5357E-02  0.2698E-02  0.2698E-02
    -19.543  0.4243E-02  0.4243E-02  0.3151E-02  0.3151E-02
    -19.436  0.4184E-02  0.4184E-02  0.3597E-02  0.3597E-02
    -19.329  0.6001E-02  0.6001E-02  0.4237E-02  0.4237E-02
    -19.223  0.3884E-02  0.3884E-02  0.4651E-02  0.4651E-02
    -19.116  0.3773E-02  0.3773E-02  0.5053E-02  0.5053E-02
    -19.010  0.6071E-02  0.6071E-02  0.5700E-02  0.5700E-02
    -18.903  0.5275E-02  0.5275E-02  0.6263E-02  0.6263E-02
    -18.796  0.3035E-02  0.3035E-02  0.6586E-02  0.6586E-02
    -18.690  0.4142E-02  0.4142E-02  0.7028E-02  0.7028E-02
    -18.583  0.6925E-02  0.6925E-02  0.7766E-02  0.7766E-02
    -18.476  0.4682E-02  0.4682E-02  0.8265E-02  0.8265E-02
    -18.370  0.3828E-02  0.3828E-02  0.8674E-02  0.8674E-02
    -18.263  0.2901E-02  0.2901E-02  0.8983E-02  0.8983E-02
    -18.157  0.6340E-02  0.6340E-02  0.9659E-02  0.9659E-02
    -18.050  0.6794E-02  0.6794E-02  0.1038E-01  0.1038E-01
    -17.943  0.3728E-02  0.3728E-02  0.1078E-01  0.1078E-01
    -17.837  0.3156E-02  0.3156E-02  0.1112E-01  0.1112E-01
    -17.730  0.4043E-02  0.4043E-02  0.1155E-01  0.1155E-01
    -17.624  0.5938E-02  0.5938E-02  0.1218E-01  0.1218E-01
    -17.517  0.7057E-02  0.7057E-02  0.1293E-01  0.1293E-01
    -17.410  0.6919E-02  0.6919E-02  0.1367E-01  0.1367E-01
    -17.304  0.8346E-02  0.8346E-02  0.1456E-01  0.1456E-01
    -17.197  0.1036E-01  0.1036E-01  0.1567E-01  0.1567E-01
    -17.090  0.1474E-01  0.1474E-01  0.1724E-01  0.1724E-01
    -16.984  0.1654E-01  0.1654E-01  0.1900E-01  0.1900E-01
    -16.877  0.1922E-01  0.1922E-01  0.2105E-01  0.2105E-01
    -16.771  0.2099E-01  0.2099E-01  0.2329E-01  0.2329E-01
    -16.664  0.1200E-01  0.1200E-01  0.2457E-01  0.2457E-01
    -16.557  0.2925E-02  0.2925E-02  0.2488E-01  0.2488E-01
    -16.451  0.6244E-02  0.6244E-02  0.2554E-01  0.2554E-01
    -16.344  0.8629E-02  0.8629E-02  0.2646E-01  0.2646E-01
    -16.238  0.4763E-02  0.4763E-02  0.2697E-01  0.2697E-01
    -16.131  0.4227E-02  0.4227E-02  0.2742E-01  0.2742E-01
    -16.024  0.3778E-02  0.3778E-02  0.2783E-01  0.2783E-01
    -15.918  0.3985E-02  0.3985E-02  0.2825E-01  0.2825E-01
    -15.811  0.3292E-02  0.3292E-02  0.2860E-01  0.2860E-01
    -15.704  0.7349E-02  0.7349E-02  0.2938E-01  0.2938E-01
    -15.598  0.8628E-02  0.8628E-02  0.3030E-01  0.3030E-01
    -15.491  0.4329E-02  0.4329E-02  0.3077E-01  0.3077E-01
    -15.385  0.3849E-02  0.3849E-02  0.3118E-01  0.3118E-01
    -15.278  0.3325E-02  0.3325E-02  0.3153E-01  0.3153E-01
    -15.171  0.4347E-02  0.4347E-02  0.3199E-01  0.3199E-01
    -15.065  0.6366E-02  0.6366E-02  0.3267E-01  0.3267E-01
    -14.958  0.1255E-01  0.1255E-01  0.3401E-01  0.3401E-01
    -14.851  0.1883E-01  0.1883E-01  0.3602E-01  0.3602E-01
    -14.745  0.1920E-01  0.1920E-01  0.3807E-01  0.3807E-01
    -14.638  0.1584E-01  0.1584E-01  0.3976E-01  0.3976E-01
    -14.532  0.1085E-01  0.1085E-01  0.4091E-01  0.4091E-01
    -14.425  0.8259E-02  0.8259E-02  0.4179E-01  0.4179E-01
    -14.318  0.1273E-01  0.1273E-01  0.4315E-01  0.4315E-01
    -14.212  0.1625E-01  0.1625E-01  0.4488E-01  0.4488E-01
    -14.105  0.1358E-01  0.1358E-01  0.4633E-01  0.4633E-01
    -13.999  0.1060E-01  0.1060E-01  0.4746E-01  0.4746E-01
    -13.892  0.1409E-01  0.1409E-01  0.4896E-01  0.4896E-01
    -13.785  0.1896E-01  0.1896E-01  0.5098E-01  0.5098E-01
    -13.679  0.1776E-01  0.1776E-01  0.5288E-01  0.5288E-01
    -13.572  0.1711E-01  0.1711E-01  0.5470E-01  0.5470E-01
    -13.465  0.9871E-02  0.9871E-02  0.5575E-01  0.5575E-01
    -13.359  0.5905E-02  0.5905E-02  0.5638E-01  0.5638E-01
    -13.252  0.3526E-02  0.3526E-02  0.5676E-01  0.5676E-01
    -13.146  0.3510E-02  0.3510E-02  0.5713E-01  0.5713E-01
    -13.039  0.6202E-02  0.6202E-02  0.5780E-01  0.5780E-01
    -12.932  0.7351E-02  0.7351E-02  0.5858E-01  0.5858E-01
    -12.826  0.4921E-02  0.4921E-02  0.5910E-01  0.5910E-01
    -12.719  0.6101E-02  0.6101E-02  0.5975E-01  0.5975E-01
    -12.613  0.7258E-02  0.7258E-02  0.6053E-01  0.6053E-01
    -12.506  0.5788E-02  0.5788E-02  0.6115E-01  0.6115E-01
    -12.399  0.5579E-02  0.5579E-02  0.6174E-01  0.6174E-01
    -12.293  0.3738E-02  0.3738E-02  0.6214E-01  0.6214E-01
    -12.186  0.5004E-02  0.5004E-02  0.6267E-01  0.6267E-01
    -12.079  0.8462E-02  0.8462E-02  0.6357E-01  0.6357E-01
    -11.973  0.4443E-02  0.4443E-02  0.6405E-01  0.6405E-01
    -11.866  0.3034E-02  0.3034E-02  0.6437E-01  0.6437E-01
    -11.760  0.3456E-02  0.3456E-02  0.6474E-01  0.6474E-01
    -11.653  0.4836E-02  0.4836E-02  0.6526E-01  0.6526E-01
    -11.546  0.7086E-02  0.7086E-02  0.6601E-01  0.6601E-01
    -11.440  0.4896E-02  0.4896E-02  0.6653E-01  0.6653E-01
    -11.333  0.1872E-02  0.1872E-02  0.6673E-01  0.6673E-01
    -11.226  0.3785E-02  0.3785E-02  0.6714E-01  0.6714E-01
    -11.120  0.5820E-02  0.5820E-02  0.6776E-01  0.6776E-01
    -11.013  0.5375E-02  0.5375E-02  0.6833E-01  0.6833E-01
    -10.907  0.6798E-02  0.6798E-02  0.6905E-01  0.6905E-01
    -10.800  0.7551E-02  0.7551E-02  0.6986E-01  0.6986E-01
    -10.693  0.3354E-02  0.3354E-02  0.7022E-01  0.7022E-01
    -10.587  0.7910E-02  0.7910E-02  0.7106E-01  0.7106E-01
    -10.480  0.1380E-01  0.1380E-01  0.7253E-01  0.7253E-01
    -10.374  0.1506E-01  0.1506E-01  0.7414E-01  0.7414E-01
    -10.267  0.1549E-01  0.1549E-01  0.7579E-01  0.7579E-01
    -10.160  0.1602E-01  0.1602E-01  0.7750E-01  0.7750E-01
    -10.054  0.1690E-01  0.1690E-01  0.7930E-01  0.7930E-01
     -9.947  0.1566E-01  0.1566E-01  0.8097E-01  0.8097E-01
     -9.840  0.1065E-01  0.1065E-01  0.8211E-01  0.8211E-01
     -9.734  0.1047E-01  0.1047E-01  0.8322E-01  0.8322E-01
     -9.627  0.1321E-01  0.1321E-01  0.8463E-01  0.8463E-01
     -9.521  0.1092E-01  0.1092E-01  0.8579E-01  0.8579E-01
     -9.414  0.1619E-01  0.1619E-01  0.8752E-01  0.8752E-01
     -9.307  0.1999E-01  0.1999E-01  0.8965E-01  0.8965E-01
     -9.201  0.1374E-01  0.1374E-01  0.9112E-01  0.9112E-01
     -9.094  0.9047E-02  0.9047E-02  0.9208E-01  0.9208E-01
     -8.988  0.6566E-02  0.6566E-02  0.9278E-01  0.9278E-01
     -8.881  0.1647E-01  0.1647E-01  0.9454E-01  0.9454E-01
     -8.774  0.2165E-01  0.2165E-01  0.9684E-01  0.9684E-01
     -8.668  0.1300E-01  0.1300E-01  0.9823E-01  0.9823E-01
     -8.561  0.8292E-02  0.8292E-02  0.9911E-01  0.9911E-01
     -8.454  0.1196E-01  0.1196E-01  0.1004E+00  0.1004E+00
     -8.348  0.1871E-01  0.1871E-01  0.1024E+00  0.1024E+00
     -8.241  0.1761E-01  0.1761E-01  0.1043E+00  0.1043E+00
     -8.135  0.1334E-01  0.1334E-01  0.1057E+00  0.1057E+00
     -8.028  0.1718E-01  0.1718E-01  0.1075E+00  0.1075E+00
     -7.921  0.2276E-01  0.2276E-01  0.1099E+00  0.1099E+00
     -7.815  0.2429E-01  0.2429E-01  0.1125E+00  0.1125E+00
     -7.708  0.1972E-01  0.1972E-01  0.1146E+00  0.1146E+00
     -7.602  0.1175E-01  0.1175E-01  0.1159E+00  0.1159E+00
     -7.495  0.6702E-02  0.6702E-02  0.1166E+00  0.1166E+00
     -7.388  0.1552E-01  0.1552E-01  0.1183E+00  0.1183E+00
     -7.282  0.1903E-01  0.1903E-01  0.1203E+00  0.1203E+00
     -7.175  0.1335E-01  0.1335E-01  0.1217E+00  0.1217E+00
     -7.068  0.1128E-01  0.1128E-01  0.1229E+00  0.1229E+00
     -6.962  0.1532E-01  0.1532E-01  0.1245E+00  0.1245E+00
     -6.855  0.1806E-01  0.1806E-01  0.1265E+00  0.1265E+00
     -6.749  0.1879E-01  0.1879E-01  0.1285E+00  0.1285E+00
     -6.642  0.2242E-01  0.2242E-01  0.1309E+00  0.1309E+00
     -6.535  0.2037E-01  0.2037E-01  0.1330E+00  0.1330E+00
     -6.429  0.2160E-01  0.2160E-01  0.1353E+00  0.1353E+00
     -6.322  0.1770E-01  0.1770E-01  0.1372E+00  0.1372E+00
     -6.215  0.1784E-01  0.1784E-01  0.1391E+00  0.1391E+00
     -6.109  0.2520E-01  0.2520E-01  0.1418E+00  0.1418E+00
     -6.002  0.2564E-01  0.2564E-01  0.1446E+00  0.1446E+00
     -5.896  0.3042E-01  0.3042E-01  0.1478E+00  0.1478E+00
     -5.789  0.2622E-01  0.2622E-01  0.1506E+00  0.1506E+00
     -5.682  0.1934E-01  0.1934E-01  0.1527E+00  0.1527E+00
     -5.576  0.2134E-01  0.2134E-01  0.1549E+00  0.1549E+00
     -5.469  0.3222E-01  0.3222E-01  0.1584E+00  0.1584E+00
     -5.363  0.3380E-01  0.3380E-01  0.1620E+00  0.1620E+00
     -5.256  0.2097E-01  0.2097E-01  0.1642E+00  0.1642E+00
     -5.149  0.1640E-01  0.1640E-01  0.1660E+00  0.1660E+00
     -5.043  0.1083E-01  0.1083E-01  0.1671E+00  0.1671E+00
     -4.936  0.9912E-02  0.9912E-02  0.1682E+00  0.1682E+00
     -4.829  0.1350E-01  0.1350E-01  0.1696E+00  0.1696E+00
     -4.723  0.1199E-01  0.1199E-01  0.1709E+00  0.1709E+00
     -4.616  0.8234E-02  0.8234E-02  0.1718E+00  0.1718E+00
     -4.510  0.8571E-02  0.8571E-02  0.1727E+00  0.1727E+00
     -4.403  0.1478E-01  0.1478E-01  0.1743E+00  0.1743E+00
     -4.296  0.2392E-01  0.2392E-01  0.1768E+00  0.1768E+00
     -4.190  0.2267E-01  0.2267E-01  0.1792E+00  0.1792E+00
     -4.083  0.1739E-01  0.1739E-01  0.1811E+00  0.1811E+00
     -3.977  0.1876E-01  0.1876E-01  0.1831E+00  0.1831E+00
     -3.870  0.2472E-01  0.2472E-01  0.1857E+00  0.1857E+00
     -3.763  0.1967E-01  0.1967E-01  0.1878E+00  0.1878E+00
     -3.657  0.1928E-01  0.1928E-01  0.1899E+00  0.1899E+00
     -3.550  0.1976E-01  0.1976E-01  0.1920E+00  0.1920E+00
     -3.443  0.1656E-01  0.1656E-01  0.1937E+00  0.1937E+00
     -3.337  0.1235E-01  0.1235E-01  0.1951E+00  0.1951E+00
     -3.230  0.1273E-01  0.1273E-01  0.1964E+00  0.1964E+00
     -3.124  0.1799E-01  0.1799E-01  0.1983E+00  0.1983E+00
     -3.017  0.1764E-01  0.1764E-01  0.2002E+00  0.2002E+00
     -2.910  0.1240E-01  0.1240E-01  0.2015E+00  0.2015E+00
     -2.804  0.1236E-01  0.1236E-01  0.2028E+00  0.2028E+00
     -2.697  0.8611E-02  0.8611E-02  0.2038E+00  0.2038E+00
     -2.591  0.9444E-02  0.9444E-02  0.2048E+00  0.2048E+00
     -2.484  0.1608E-01  0.1608E-01  0.2065E+00  0.2065E+00
     -2.377  0.1783E-01  0.1784E-01  0.2084E+00  0.2084E+00
     -2.271  0.5748E-02  0.5748E-02  0.2090E+00  0.2090E+00
     -2.164  0.5244E-02  0.5244E-02  0.2096E+00  0.2096E+00
     -2.057  0.9440E-02  0.9440E-02  0.2106E+00  0.2106E+00
     -1.951  0.9218E-02  0.9218E-02  0.2115E+00  0.2115E+00
     -1.844  0.1038E-01  0.1038E-01  0.2127E+00  0.2127E+00
     -1.738  0.1095E-01  0.1095E-01  0.2138E+00  0.2138E+00
     -1.631  0.1031E-01  0.1031E-01  0.2149E+00  0.2149E+00
     -1.524  0.8880E-02  0.8880E-02  0.2159E+00  0.2159E+00
     -1.418  0.3820E-02  0.3820E-02  0.2163E+00  0.2163E+00
     -1.311  0.3881E-02  0.3881E-02  0.2167E+00  0.2167E+00
     -1.204  0.4660E-02  0.4660E-02  0.2172E+00  0.2172E+00
     -1.098  0.3055E-02  0.3055E-02  0.2175E+00  0.2175E+00
     -0.991  0.4726E-02  0.4726E-02  0.2180E+00  0.2180E+00
     -0.885  0.4541E-02  0.4541E-02  0.2185E+00  0.2185E+00
     -0.778  0.1213E-02  0.1213E-02  0.2186E+00  0.2186E+00
     -0.671  0.1108E-03  0.1108E-03  0.2186E+00  0.2186E+00
     -0.565  0.2441E-05  0.2441E-05  0.2186E+00  0.2186E+00
     -0.458  0.6229E-05  0.6229E-05  0.2186E+00  0.2186E+00
     -0.352  0.2153E-03  0.2153E-03  0.2187E+00  0.2187E+00
     -0.245  0.1017E-02  0.1017E-02  0.2188E+00  0.2188E+00
     -0.138  0.7212E-03  0.7212E-03  0.2189E+00  0.2189E+00
     -0.032  0.7491E-04  0.7491E-04  0.2189E+00  0.2189E+00
      0.075  0.1018E-05  0.1018E-05  0.2189E+00  0.2189E+00
      0.182  0.1905E-05  0.1905E-05  0.2189E+00  0.2189E+00
      0.288  0.1683E-03  0.1683E-03  0.2189E+00  0.2189E+00
      0.395  0.1922E-02  0.1922E-02  0.2191E+00  0.2191E+00
      0.501  0.3199E-02  0.3199E-02  0.2194E+00  0.2194E+00
      0.608  0.1276E-02  0.1276E-02  0.2196E+00  0.2196E+00
      0.715  0.3762E-02  0.3762E-02  0.2200E+00  0.2200E+00
      0.821  0.7092E-02  0.7092E-02  0.2207E+00  0.2207E+00
      0.928  0.1156E-01  0.1156E-01  0.2219E+00  0.2219E+00
      1.034  0.2308E-01  0.2308E-01  0.2244E+00  0.2244E+00
      1.141  0.1879E-01  0.1879E-01  0.2264E+00  0.2264E+00
      1.248  0.4765E-02  0.4765E-02  0.2269E+00  0.2269E+00
      1.354  0.9637E-03  0.9637E-03  0.2270E+00  0.2270E+00
      1.461  0.3738E-02  0.3738E-02  0.2274E+00  0.2274E+00
      1.568  0.1320E-01  0.1320E-01  0.2288E+00  0.2288E+00
      1.674  0.2055E-01  0.2055E-01  0.2310E+00  0.2310E+00
      1.781  0.1509E-01  0.1509E-01  0.2326E+00  0.2326E+00
      1.887  0.1004E-01  0.1004E-01  0.2337E+00  0.2337E+00
      1.994  0.8649E-02  0.8649E-02  0.2346E+00  0.2346E+00
      2.101  0.9993E-02  0.9993E-02  0.2357E+00  0.2357E+00
      2.207  0.7209E-02  0.7209E-02  0.2365E+00  0.2365E+00
      2.314  0.8774E-02  0.8774E-02  0.2374E+00  0.2374E+00
      2.420  0.6726E-02  0.6726E-02  0.2381E+00  0.2381E+00
      2.527  0.5453E-02  0.5453E-02  0.2387E+00  0.2387E+00
      2.634  0.1310E-01  0.1310E-01  0.2401E+00  0.2401E+00
      2.740  0.1089E-01  0.1089E-01  0.2412E+00  0.2412E+00
      2.847  0.5329E-02  0.5328E-02  0.2418E+00  0.2418E+00
      2.954  0.6307E-02  0.6307E-02  0.2425E+00  0.2425E+00
      3.060  0.9510E-02  0.9510E-02  0.2435E+00  0.2435E+00
      3.167  0.1233E-01  0.1233E-01  0.2448E+00  0.2448E+00
      3.273  0.9677E-02  0.9677E-02  0.2458E+00  0.2458E+00
      3.380  0.1063E-01  0.1063E-01  0.2470E+00  0.2470E+00
      3.487  0.8009E-02  0.8009E-02  0.2478E+00  0.2478E+00
      3.593  0.1533E-01  0.1533E-01  0.2495E+00  0.2495E+00
      3.700  0.2367E-01  0.2367E-01  0.2520E+00  0.2520E+00
      3.807  0.2380E-01  0.2380E-01  0.2545E+00  0.2545E+00
      3.913  0.2207E-01  0.2207E-01  0.2569E+00  0.2569E+00
      4.020  0.2111E-01  0.2111E-01  0.2591E+00  0.2591E+00
      4.126  0.2579E-01  0.2579E-01  0.2619E+00  0.2619E+00
      4.233  0.2686E-01  0.2686E-01  0.2647E+00  0.2647E+00
      4.340  0.2359E-01  0.2359E-01  0.2673E+00  0.2673E+00
      4.446  0.2425E-01  0.2425E-01  0.2698E+00  0.2698E+00
      4.553  0.2382E-01  0.2382E-01  0.2724E+00  0.2724E+00
      4.659  0.1946E-01  0.1946E-01  0.2745E+00  0.2745E+00
      4.766  0.2517E-01  0.2517E-01  0.2771E+00  0.2771E+00
      4.873  0.2865E-01  0.2865E-01  0.2802E+00  0.2802E+00
      4.979  0.2249E-01  0.2249E-01  0.2826E+00  0.2826E+00
      5.086  0.2384E-01  0.2384E-01  0.2851E+00  0.2851E+00
      5.193  0.2588E-01  0.2588E-01  0.2879E+00  0.2879E+00
      5.299  0.2079E-01  0.2079E-01  0.2901E+00  0.2901E+00
      5.406  0.2109E-01  0.2110E-01  0.2924E+00  0.2924E+00
      5.512  0.2376E-01  0.2376E-01  0.2949E+00  0.2949E+00
      5.619  0.2914E-01  0.2914E-01  0.2980E+00  0.2980E+00
      5.726  0.2249E-01  0.2249E-01  0.3004E+00  0.3004E+00
      5.832  0.2123E-01  0.2122E-01  0.3027E+00  0.3027E+00
      5.939  0.1974E-01  0.1975E-01  0.3048E+00  0.3048E+00
      6.045  0.2162E-01  0.2162E-01  0.3071E+00  0.3071E+00
      6.152  0.1678E-01  0.1678E-01  0.3089E+00  0.3089E+00
      6.259  0.1610E-01  0.1610E-01  0.3106E+00  0.3106E+00
      6.365  0.2256E-01  0.2256E-01  0.3130E+00  0.3130E+00
      6.472  0.2384E-01  0.2384E-01  0.3155E+00  0.3155E+00
      6.579  0.2561E-01  0.2561E-01  0.3183E+00  0.3183E+00
      6.685  0.2500E-01  0.2500E-01  0.3209E+00  0.3209E+00
      6.792  0.3365E-01  0.3365E-01  0.3245E+00  0.3245E+00
      6.898  0.2976E-01  0.2976E-01  0.3277E+00  0.3277E+00
      7.005  0.2526E-01  0.2526E-01  0.3304E+00  0.3304E+00
      7.112  0.2536E-01  0.2536E-01  0.3331E+00  0.3331E+00
      7.218  0.2166E-01  0.2166E-01  0.3354E+00  0.3354E+00
      7.325  0.1728E-01  0.1728E-01  0.3372E+00  0.3372E+00
      7.431  0.2170E-01  0.2170E-01  0.3395E+00  0.3395E+00
      7.538  0.2370E-01  0.2370E-01  0.3421E+00  0.3421E+00
      7.645  0.2070E-01  0.2070E-01  0.3443E+00  0.3443E+00
      7.751  0.2537E-01  0.2537E-01  0.3470E+00  0.3470E+00
      7.858  0.3045E-01  0.3045E-01  0.3502E+00  0.3502E+00
      7.965  0.3242E-01  0.3242E-01  0.3537E+00  0.3537E+00
      8.071  0.3238E-01  0.3238E-01  0.3571E+00  0.3571E+00
      8.178  0.3200E-01  0.3201E-01  0.3606E+00  0.3606E+00
      8.284  0.2743E-01  0.2743E-01  0.3635E+00  0.3635E+00
      8.391  0.3332E-01  0.3331E-01  0.3670E+00  0.3670E+00
      8.498  0.3567E-01  0.3567E-01  0.3708E+00  0.3708E+00
      8.604  0.2005E-01  0.2006E-01  0.3730E+00  0.3730E+00
      8.711  0.1057E-01  0.1057E-01  0.3741E+00  0.3741E+00
      8.818  0.4993E-02  0.4993E-02  0.3746E+00  0.3746E+00
      8.924  0.2863E-02  0.2863E-02  0.3749E+00  0.3749E+00
      9.031  0.5957E-03  0.5957E-03  0.3750E+00  0.3750E+00
      9.137  0.2187E-04  0.2188E-04  0.3750E+00  0.3750E+00
      9.244  0.1090E-06  0.1090E-06  0.3750E+00  0.3750E+00
      9.351  0.6412E-10  0.6413E-10  0.3750E+00  0.3750E+00
      9.457  0.4179E-14  0.4179E-14  0.3750E+00  0.3750E+00
      9.564  0.0000E+00  0.0000E+00  0.3750E+00  0.3750E+00
      9.670  0.0000E+00  0.0000E+00  0.3750E+00  0.3750E+00
      9.777  0.0000E+00  0.0000E+00  0.3750E+00  0.3750E+00
      9.884  0.0000E+00  0.0000E+00  0.3750E+00  0.3750E+00
      9.990  0.0000E+00  0.0000E+00  0.3750E+00  0.3750E+00
     10.097  0.0000E+00  0.0000E+00  0.3750E+00  0.3750E+00
     10.204  0.0000E+00  0.0000E+00  0.3750E+00  0.3750E+00
     10.310  0.0000E+00  0.0000E+00  0.3750E+00  0.3750E+00
