  15  15   0  16
  0.2038789E+02  0.4852000E-09  0.4852000E-09  0.1500000E-08  0.5000000E-15
  1.000000000000000E-004
  CAR 
 Lattice                                 
     10.31458695    -21.68072720  301     -0.33874412      1.00000000
    -21.681  0.0000E+00  0.0000E+00  0.0000E+00  0.0000E+00
    -21.574  0.0000E+00  0.0000E+00  0.0000E+00  0.0000E+00
    -21.467  0.0000E+00  0.0000E+00  0.0000E+00  0.0000E+00
    -21.361  0.0000E+00  0.0000E+00  0.0000E+00  0.0000E+00
    -21.254  0.0000E+00  0.0000E+00  0.0000E+00  0.0000E+00
    -21.147  0.0000E+00  0.0000E+00  0.0000E+00  0.0000E+00
    -21.041  0.0000E+00  0.0000E+00  0.0000E+00  0.0000E+00
    -20.934  0.0000E+00  0.0000E+00  0.0000E+00  0.0000E+00
    -20.828  0.0000E+00  0.0000E+00  0.0000E+00  0.0000E+00
    -20.721  0.7335E-15  0.7335E-15  0.7823E-16  0.7823E-16
    -20.614  0.1235E-10  0.1235E-10  0.1317E-11  0.1317E-11
    -20.508  0.2511E-07  0.2511E-07  0.2679E-08  0.2679E-08
    -20.401  0.6779E-05  0.6779E-05  0.7257E-06  0.7257E-06
    -20.294  0.2715E-03  0.2715E-03  0.2968E-04  0.2968E-04
    -20.188  0.1976E-02  0.1976E-02  0.2404E-03  0.2404E-03
    -20.081  0.4155E-02  0.4155E-02  0.6836E-03  0.6836E-03
    -19.974  0.4527E-02  0.4527E-02  0.1166E-02  0.1166E-02
    -19.868  0.4941E-02  0.4941E-02  0.1693E-02  0.1693E-02
    -19.761  0.4164E-02  0.4164E-02  0.2137E-02  0.2137E-02
    -19.654  0.5390E-02  0.5390E-02  0.2712E-02  0.2712E-02
    -19.548  0.4214E-02  0.4214E-02  0.3162E-02  0.3162E-02
    -19.441  0.4273E-02  0.4273E-02  0.3618E-02  0.3618E-02
    -19.334  0.6011E-02  0.6011E-02  0.4259E-02  0.4259E-02
    -19.228  0.3803E-02  0.3803E-02  0.4664E-02  0.4664E-02
    -19.121  0.3908E-02  0.3908E-02  0.5081E-02  0.5081E-02
    -19.014  0.6125E-02  0.6125E-02  0.5734E-02  0.5734E-02
    -18.908  0.5196E-02  0.5196E-02  0.6288E-02  0.6288E-02
    -18.801  0.2950E-02  0.2950E-02  0.6603E-02  0.6603E-02
    -18.694  0.4428E-02  0.4428E-02  0.7075E-02  0.7075E-02
    -18.588  0.6910E-02  0.6910E-02  0.7812E-02  0.7812E-02
    -18.481  0.4546E-02  0.4546E-02  0.8297E-02  0.8297E-02
    -18.375  0.3787E-02  0.3787E-02  0.8701E-02  0.8701E-02
    -18.268  0.3006E-02  0.3006E-02  0.9021E-02  0.9021E-02
    -18.161  0.6689E-02  0.6689E-02  0.9735E-02  0.9735E-02
    -18.055  0.6566E-02  0.6566E-02  0.1044E-01  0.1044E-01
    -17.948  0.3499E-02  0.3499E-02  0.1081E-01  0.1081E-01
    -17.841  0.3321E-02  0.3321E-02  0.1116E-01  0.1116E-01
    -17.735  0.4123E-02  0.4123E-02  0.1160E-01  0.1160E-01
    -17.628  0.6280E-02  0.6280E-02  0.1227E-01  0.1227E-01
    -17.521  0.6735E-02  0.6735E-02  0.1299E-01  0.1299E-01
    -17.415  0.5542E-02  0.5542E-02  0.1358E-01  0.1358E-01
    -17.308  0.6508E-02  0.6508E-02  0.1428E-01  0.1428E-01
    -17.201  0.1033E-01  0.1033E-01  0.1538E-01  0.1538E-01
    -17.095  0.1467E-01  0.1467E-01  0.1694E-01  0.1694E-01
    -16.988  0.1564E-01  0.1564E-01  0.1861E-01  0.1861E-01
    -16.881  0.1715E-01  0.1715E-01  0.2044E-01  0.2044E-01
    -16.775  0.2087E-01  0.2087E-01  0.2266E-01  0.2266E-01
    -16.668  0.1614E-01  0.1614E-01  0.2439E-01  0.2439E-01
    -16.561  0.5035E-02  0.5035E-02  0.2492E-01  0.2492E-01
    -16.455  0.7457E-02  0.7457E-02  0.2572E-01  0.2572E-01
    -16.348  0.8017E-02  0.8017E-02  0.2657E-01  0.2657E-01
    -16.242  0.4540E-02  0.4540E-02  0.2706E-01  0.2706E-01
    -16.135  0.4129E-02  0.4129E-02  0.2750E-01  0.2750E-01
    -16.028  0.3904E-02  0.3904E-02  0.2791E-01  0.2791E-01
    -15.922  0.3754E-02  0.3754E-02  0.2831E-01  0.2831E-01
    -15.815  0.3794E-02  0.3794E-02  0.2872E-01  0.2872E-01
    -15.708  0.8247E-02  0.8247E-02  0.2960E-01  0.2960E-01
    -15.602  0.7898E-02  0.7898E-02  0.3044E-01  0.3044E-01
    -15.495  0.3876E-02  0.3876E-02  0.3085E-01  0.3085E-01
    -15.388  0.3864E-02  0.3864E-02  0.3127E-01  0.3127E-01
    -15.282  0.3413E-02  0.3413E-02  0.3163E-01  0.3163E-01
    -15.175  0.4697E-02  0.4697E-02  0.3213E-01  0.3213E-01
    -15.068  0.6287E-02  0.6287E-02  0.3280E-01  0.3280E-01
    -14.962  0.1093E-01  0.1093E-01  0.3397E-01  0.3397E-01
    -14.855  0.1691E-01  0.1691E-01  0.3577E-01  0.3577E-01
    -14.748  0.1832E-01  0.1832E-01  0.3772E-01  0.3772E-01
    -14.642  0.1730E-01  0.1730E-01  0.3957E-01  0.3957E-01
    -14.535  0.1074E-01  0.1074E-01  0.4072E-01  0.4072E-01
    -14.428  0.7877E-02  0.7877E-02  0.4156E-01  0.4156E-01
    -14.322  0.1534E-01  0.1534E-01  0.4319E-01  0.4319E-01
    -14.215  0.1513E-01  0.1513E-01  0.4481E-01  0.4481E-01
    -14.109  0.1088E-01  0.1088E-01  0.4597E-01  0.4597E-01
    -14.002  0.1075E-01  0.1075E-01  0.4711E-01  0.4711E-01
    -13.895  0.1267E-01  0.1267E-01  0.4846E-01  0.4846E-01
    -13.789  0.1991E-01  0.1991E-01  0.5059E-01  0.5059E-01
    -13.682  0.1986E-01  0.1986E-01  0.5271E-01  0.5271E-01
    -13.575  0.1793E-01  0.1793E-01  0.5462E-01  0.5462E-01
    -13.469  0.1072E-01  0.1072E-01  0.5576E-01  0.5576E-01
    -13.362  0.6659E-02  0.6659E-02  0.5647E-01  0.5647E-01
    -13.255  0.3295E-02  0.3295E-02  0.5682E-01  0.5682E-01
    -13.149  0.4168E-02  0.4168E-02  0.5727E-01  0.5727E-01
    -13.042  0.6980E-02  0.6980E-02  0.5801E-01  0.5801E-01
    -12.935  0.6783E-02  0.6783E-02  0.5874E-01  0.5874E-01
    -12.829  0.4850E-02  0.4850E-02  0.5925E-01  0.5925E-01
    -12.722  0.6937E-02  0.6937E-02  0.5999E-01  0.5999E-01
    -12.615  0.6995E-02  0.6995E-02  0.6074E-01  0.6074E-01
    -12.509  0.5544E-02  0.5544E-02  0.6133E-01  0.6133E-01
    -12.402  0.5340E-02  0.5340E-02  0.6190E-01  0.6190E-01
    -12.295  0.3289E-02  0.3289E-02  0.6225E-01  0.6225E-01
    -12.189  0.6642E-02  0.6642E-02  0.6296E-01  0.6296E-01
    -12.082  0.7894E-02  0.7894E-02  0.6380E-01  0.6380E-01
    -11.975  0.3189E-02  0.3189E-02  0.6414E-01  0.6414E-01
    -11.869  0.3407E-02  0.3407E-02  0.6450E-01  0.6450E-01
    -11.762  0.3429E-02  0.3429E-02  0.6487E-01  0.6487E-01
    -11.656  0.6233E-02  0.6233E-02  0.6553E-01  0.6553E-01
    -11.549  0.6597E-02  0.6597E-02  0.6624E-01  0.6624E-01
    -11.442  0.3596E-02  0.3596E-02  0.6662E-01  0.6662E-01
    -11.336  0.1950E-02  0.1950E-02  0.6683E-01  0.6683E-01
    -11.229  0.4828E-02  0.4828E-02  0.6734E-01  0.6734E-01
    -11.122  0.5808E-02  0.5808E-02  0.6796E-01  0.6796E-01
    -11.016  0.5074E-02  0.5074E-02  0.6851E-01  0.6851E-01
    -10.909  0.7795E-02  0.7795E-02  0.6934E-01  0.6934E-01
    -10.802  0.5912E-02  0.5912E-02  0.6997E-01  0.6997E-01
    -10.696  0.2481E-02  0.2481E-02  0.7023E-01  0.7023E-01
    -10.589  0.8121E-02  0.8121E-02  0.7110E-01  0.7110E-01
    -10.482  0.1287E-01  0.1287E-01  0.7247E-01  0.7247E-01
    -10.376  0.1534E-01  0.1534E-01  0.7411E-01  0.7411E-01
    -10.269  0.1458E-01  0.1458E-01  0.7566E-01  0.7566E-01
    -10.162  0.1460E-01  0.1460E-01  0.7722E-01  0.7722E-01
    -10.056  0.1832E-01  0.1832E-01  0.7917E-01  0.7917E-01
     -9.949  0.1864E-01  0.1864E-01  0.8116E-01  0.8116E-01
     -9.842  0.9541E-02  0.9541E-02  0.8218E-01  0.8218E-01
     -9.736  0.6858E-02  0.6858E-02  0.8291E-01  0.8291E-01
     -9.629  0.1435E-01  0.1435E-01  0.8444E-01  0.8444E-01
     -9.523  0.1563E-01  0.1563E-01  0.8611E-01  0.8611E-01
     -9.416  0.1640E-01  0.1640E-01  0.8786E-01  0.8786E-01
     -9.309  0.1529E-01  0.1529E-01  0.8949E-01  0.8949E-01
     -9.203  0.1404E-01  0.1404E-01  0.9099E-01  0.9099E-01
     -9.096  0.1054E-01  0.1054E-01  0.9211E-01  0.9211E-01
     -8.989  0.7997E-02  0.7997E-02  0.9296E-01  0.9296E-01
     -8.883  0.1563E-01  0.1563E-01  0.9463E-01  0.9463E-01
     -8.776  0.2030E-01  0.2030E-01  0.9679E-01  0.9679E-01
     -8.669  0.1508E-01  0.1508E-01  0.9840E-01  0.9840E-01
     -8.563  0.7598E-02  0.7598E-02  0.9921E-01  0.9921E-01
     -8.456  0.1124E-01  0.1124E-01  0.1004E+00  0.1004E+00
     -8.349  0.2088E-01  0.2088E-01  0.1026E+00  0.1026E+00
     -8.243  0.1802E-01  0.1802E-01  0.1046E+00  0.1046E+00
     -8.136  0.1176E-01  0.1176E-01  0.1058E+00  0.1058E+00
     -8.029  0.1660E-01  0.1660E-01  0.1076E+00  0.1076E+00
     -7.923  0.2528E-01  0.2528E-01  0.1103E+00  0.1103E+00
     -7.816  0.2463E-01  0.2463E-01  0.1129E+00  0.1129E+00
     -7.709  0.1950E-01  0.1950E-01  0.1150E+00  0.1150E+00
     -7.603  0.9947E-02  0.9947E-02  0.1160E+00  0.1160E+00
     -7.496  0.8700E-02  0.8700E-02  0.1170E+00  0.1170E+00
     -7.389  0.1887E-01  0.1887E-01  0.1190E+00  0.1190E+00
     -7.283  0.1796E-01  0.1796E-01  0.1209E+00  0.1209E+00
     -7.176  0.1166E-01  0.1166E-01  0.1221E+00  0.1221E+00
     -7.070  0.1099E-01  0.1099E-01  0.1233E+00  0.1233E+00
     -6.963  0.1703E-01  0.1703E-01  0.1251E+00  0.1251E+00
     -6.856  0.1831E-01  0.1831E-01  0.1271E+00  0.1271E+00
     -6.750  0.2034E-01  0.2034E-01  0.1293E+00  0.1293E+00
     -6.643  0.2042E-01  0.2042E-01  0.1314E+00  0.1314E+00
     -6.536  0.1801E-01  0.1801E-01  0.1334E+00  0.1334E+00
     -6.430  0.2037E-01  0.2037E-01  0.1355E+00  0.1355E+00
     -6.323  0.1717E-01  0.1717E-01  0.1374E+00  0.1374E+00
     -6.216  0.1903E-01  0.1903E-01  0.1394E+00  0.1394E+00
     -6.110  0.2622E-01  0.2622E-01  0.1422E+00  0.1422E+00
     -6.003  0.2237E-01  0.2237E-01  0.1446E+00  0.1446E+00
     -5.896  0.3171E-01  0.3171E-01  0.1480E+00  0.1480E+00
     -5.790  0.2878E-01  0.2879E-01  0.1510E+00  0.1510E+00
     -5.683  0.1596E-01  0.1596E-01  0.1527E+00  0.1527E+00
     -5.576  0.1827E-01  0.1827E-01  0.1547E+00  0.1547E+00
     -5.470  0.3326E-01  0.3326E-01  0.1582E+00  0.1582E+00
     -5.363  0.3640E-01  0.3640E-01  0.1621E+00  0.1621E+00
     -5.256  0.2294E-01  0.2294E-01  0.1646E+00  0.1646E+00
     -5.150  0.1642E-01  0.1642E-01  0.1663E+00  0.1663E+00
     -5.043  0.1062E-01  0.1062E-01  0.1674E+00  0.1674E+00
     -4.937  0.1105E-01  0.1105E-01  0.1686E+00  0.1686E+00
     -4.830  0.1421E-01  0.1421E-01  0.1701E+00  0.1701E+00
     -4.723  0.1058E-01  0.1058E-01  0.1713E+00  0.1713E+00
     -4.617  0.7823E-02  0.7823E-02  0.1721E+00  0.1721E+00
     -4.510  0.9490E-02  0.9490E-02  0.1731E+00  0.1731E+00
     -4.403  0.1720E-01  0.1720E-01  0.1749E+00  0.1749E+00
     -4.297  0.2192E-01  0.2192E-01  0.1773E+00  0.1773E+00
     -4.190  0.1851E-01  0.1851E-01  0.1793E+00  0.1793E+00
     -4.083  0.1892E-01  0.1892E-01  0.1813E+00  0.1813E+00
     -3.977  0.2227E-01  0.2227E-01  0.1836E+00  0.1836E+00
     -3.870  0.2343E-01  0.2343E-01  0.1861E+00  0.1861E+00
     -3.763  0.1815E-01  0.1815E-01  0.1881E+00  0.1881E+00
     -3.657  0.1822E-01  0.1822E-01  0.1900E+00  0.1900E+00
     -3.550  0.2045E-01  0.2045E-01  0.1922E+00  0.1922E+00
     -3.443  0.1569E-01  0.1569E-01  0.1939E+00  0.1939E+00
     -3.337  0.1385E-01  0.1385E-01  0.1954E+00  0.1954E+00
     -3.230  0.1301E-01  0.1301E-01  0.1967E+00  0.1967E+00
     -3.123  0.1717E-01  0.1717E-01  0.1986E+00  0.1986E+00
     -3.017  0.1830E-01  0.1830E-01  0.2005E+00  0.2005E+00
     -2.910  0.1184E-01  0.1184E-01  0.2018E+00  0.2018E+00
     -2.803  0.1179E-01  0.1179E-01  0.2030E+00  0.2030E+00
     -2.697  0.7471E-02  0.7472E-02  0.2038E+00  0.2038E+00
     -2.590  0.1021E-01  0.1021E-01  0.2049E+00  0.2049E+00
     -2.484  0.1982E-01  0.1982E-01  0.2070E+00  0.2070E+00
     -2.377  0.1408E-01  0.1408E-01  0.2085E+00  0.2085E+00
     -2.270  0.3988E-02  0.3988E-02  0.2090E+00  0.2090E+00
     -2.164  0.4721E-02  0.4721E-02  0.2095E+00  0.2095E+00
     -2.057  0.1030E-01  0.1030E-01  0.2106E+00  0.2106E+00
     -1.950  0.1038E-01  0.1038E-01  0.2117E+00  0.2117E+00
     -1.844  0.1125E-01  0.1125E-01  0.2129E+00  0.2129E+00
     -1.737  0.1162E-01  0.1162E-01  0.2141E+00  0.2141E+00
     -1.630  0.9430E-02  0.9430E-02  0.2151E+00  0.2151E+00
     -1.524  0.7093E-02  0.7093E-02  0.2159E+00  0.2159E+00
     -1.417  0.4577E-02  0.4577E-02  0.2164E+00  0.2164E+00
     -1.310  0.3931E-02  0.3931E-02  0.2168E+00  0.2168E+00
     -1.204  0.4006E-02  0.4006E-02  0.2172E+00  0.2172E+00
     -1.097  0.4079E-02  0.4079E-02  0.2176E+00  0.2176E+00
     -0.990  0.5872E-02  0.5872E-02  0.2183E+00  0.2183E+00
     -0.884  0.2772E-02  0.2772E-02  0.2186E+00  0.2186E+00
     -0.777  0.5910E-03  0.5910E-03  0.2186E+00  0.2186E+00
     -0.670  0.6439E-04  0.6439E-04  0.2186E+00  0.2186E+00
     -0.564  0.2767E-05  0.2767E-05  0.2186E+00  0.2186E+00
     -0.457  0.9559E-04  0.9559E-04  0.2187E+00  0.2187E+00
     -0.351  0.7863E-03  0.7863E-03  0.2187E+00  0.2187E+00
     -0.244  0.9665E-03  0.9665E-03  0.2188E+00  0.2188E+00
     -0.137  0.1802E-03  0.1802E-03  0.2189E+00  0.2189E+00
     -0.031  0.4616E-05  0.4616E-05  0.2189E+00  0.2189E+00
      0.076  0.4391E-06  0.4391E-06  0.2189E+00  0.2189E+00
      0.183  0.6481E-04  0.6481E-04  0.2189E+00  0.2189E+00
      0.289  0.1240E-02  0.1240E-02  0.2190E+00  0.2190E+00
      0.396  0.3352E-02  0.3352E-02  0.2194E+00  0.2194E+00
      0.503  0.1478E-02  0.1478E-02  0.2195E+00  0.2195E+00
      0.609  0.1284E-02  0.1284E-02  0.2196E+00  0.2196E+00
      0.716  0.3333E-02  0.3333E-02  0.2200E+00  0.2200E+00
      0.823  0.5245E-02  0.5245E-02  0.2206E+00  0.2206E+00
      0.929  0.1024E-01  0.1024E-01  0.2217E+00  0.2217E+00
      1.036  0.2602E-01  0.2602E-01  0.2244E+00  0.2244E+00
      1.143  0.1990E-01  0.1990E-01  0.2266E+00  0.2266E+00
      1.249  0.4813E-02  0.4813E-02  0.2271E+00  0.2271E+00
      1.356  0.4309E-02  0.4309E-02  0.2275E+00  0.2275E+00
      1.463  0.8620E-02  0.8620E-02  0.2284E+00  0.2284E+00
      1.569  0.1278E-01  0.1278E-01  0.2298E+00  0.2298E+00
      1.676  0.1949E-01  0.1949E-01  0.2319E+00  0.2319E+00
      1.783  0.1510E-01  0.1510E-01  0.2335E+00  0.2335E+00
      1.889  0.6274E-02  0.6274E-02  0.2342E+00  0.2342E+00
      1.996  0.6885E-02  0.6885E-02  0.2349E+00  0.2349E+00
      2.102  0.9930E-02  0.9930E-02  0.2360E+00  0.2360E+00
      2.209  0.7301E-02  0.7301E-02  0.2367E+00  0.2367E+00
      2.316  0.8302E-02  0.8302E-02  0.2376E+00  0.2376E+00
      2.422  0.7337E-02  0.7337E-02  0.2384E+00  0.2384E+00
      2.529  0.1091E-01  0.1091E-01  0.2396E+00  0.2396E+00
      2.636  0.1090E-01  0.1090E-01  0.2407E+00  0.2407E+00
      2.742  0.6382E-02  0.6382E-02  0.2414E+00  0.2414E+00
      2.849  0.4415E-02  0.4414E-02  0.2419E+00  0.2419E+00
      2.956  0.9200E-02  0.9198E-02  0.2429E+00  0.2429E+00
      3.062  0.1189E-01  0.1189E-01  0.2441E+00  0.2441E+00
      3.169  0.9799E-02  0.9799E-02  0.2452E+00  0.2452E+00
      3.276  0.9876E-02  0.9875E-02  0.2462E+00  0.2462E+00
      3.382  0.1018E-01  0.1018E-01  0.2473E+00  0.2473E+00
      3.489  0.1156E-01  0.1156E-01  0.2485E+00  0.2485E+00
      3.596  0.1702E-01  0.1701E-01  0.2504E+00  0.2504E+00
      3.702  0.2268E-01  0.2268E-01  0.2528E+00  0.2528E+00
      3.809  0.2496E-01  0.2496E-01  0.2554E+00  0.2554E+00
      3.916  0.2282E-01  0.2282E-01  0.2579E+00  0.2579E+00
      4.022  0.2353E-01  0.2353E-01  0.2604E+00  0.2604E+00
      4.129  0.2482E-01  0.2482E-01  0.2630E+00  0.2630E+00
      4.235  0.2538E-01  0.2538E-01  0.2657E+00  0.2657E+00
      4.342  0.2397E-01  0.2397E-01  0.2683E+00  0.2683E+00
      4.449  0.2251E-01  0.2251E-01  0.2707E+00  0.2707E+00
      4.555  0.2160E-01  0.2159E-01  0.2730E+00  0.2730E+00
      4.662  0.2183E-01  0.2182E-01  0.2753E+00  0.2753E+00
      4.769  0.2733E-01  0.2733E-01  0.2782E+00  0.2782E+00
      4.875  0.2380E-01  0.2381E-01  0.2808E+00  0.2808E+00
      4.982  0.2154E-01  0.2153E-01  0.2831E+00  0.2831E+00
      5.089  0.2573E-01  0.2572E-01  0.2858E+00  0.2858E+00
      5.195  0.2697E-01  0.2697E-01  0.2887E+00  0.2887E+00
      5.302  0.2426E-01  0.2426E-01  0.2913E+00  0.2913E+00
      5.409  0.2101E-01  0.2101E-01  0.2935E+00  0.2935E+00
      5.515  0.1996E-01  0.1996E-01  0.2957E+00  0.2957E+00
      5.622  0.2644E-01  0.2644E-01  0.2985E+00  0.2985E+00
      5.729  0.2478E-01  0.2476E-01  0.3011E+00  0.3011E+00
      5.835  0.2334E-01  0.2336E-01  0.3036E+00  0.3036E+00
      5.942  0.1924E-01  0.1924E-01  0.3057E+00  0.3057E+00
      6.049  0.1968E-01  0.1968E-01  0.3078E+00  0.3078E+00
      6.155  0.1536E-01  0.1535E-01  0.3094E+00  0.3094E+00
      6.262  0.1983E-01  0.1982E-01  0.3115E+00  0.3115E+00
      6.368  0.2288E-01  0.2289E-01  0.3140E+00  0.3140E+00
      6.475  0.2347E-01  0.2347E-01  0.3165E+00  0.3165E+00
      6.582  0.2495E-01  0.2495E-01  0.3191E+00  0.3191E+00
      6.688  0.2866E-01  0.2865E-01  0.3222E+00  0.3222E+00
      6.795  0.3212E-01  0.3212E-01  0.3256E+00  0.3256E+00
      6.902  0.2503E-01  0.2503E-01  0.3283E+00  0.3283E+00
      7.008  0.2579E-01  0.2578E-01  0.3310E+00  0.3310E+00
      7.115  0.2718E-01  0.2720E-01  0.3339E+00  0.3339E+00
      7.222  0.2126E-01  0.2128E-01  0.3362E+00  0.3362E+00
      7.328  0.1921E-01  0.1921E-01  0.3382E+00  0.3382E+00
      7.435  0.2055E-01  0.2052E-01  0.3404E+00  0.3404E+00
      7.542  0.2409E-01  0.2410E-01  0.3430E+00  0.3430E+00
      7.648  0.2510E-01  0.2511E-01  0.3457E+00  0.3457E+00
      7.755  0.3202E-01  0.3202E-01  0.3491E+00  0.3491E+00
      7.862  0.3263E-01  0.3264E-01  0.3526E+00  0.3526E+00
      7.968  0.2461E-01  0.2460E-01  0.3552E+00  0.3552E+00
      8.075  0.3286E-01  0.3285E-01  0.3587E+00  0.3587E+00
      8.182  0.3443E-01  0.3445E-01  0.3624E+00  0.3624E+00
      8.288  0.3445E-01  0.3445E-01  0.3660E+00  0.3660E+00
      8.395  0.3784E-01  0.3784E-01  0.3701E+00  0.3701E+00
      8.502  0.2376E-01  0.2377E-01  0.3726E+00  0.3726E+00
      8.608  0.1151E-01  0.1152E-01  0.3738E+00  0.3738E+00
      8.715  0.4795E-02  0.4797E-02  0.3744E+00  0.3744E+00
      8.821  0.3122E-02  0.3122E-02  0.3747E+00  0.3747E+00
      8.928  0.2396E-02  0.2396E-02  0.3749E+00  0.3749E+00
      9.035  0.5333E-03  0.5335E-03  0.3750E+00  0.3750E+00
      9.141  0.2085E-04  0.2086E-04  0.3750E+00  0.3750E+00
      9.248  0.1066E-06  0.1067E-06  0.3750E+00  0.3750E+00
      9.355  0.6296E-10  0.6304E-10  0.3750E+00  0.3750E+00
      9.461  0.4086E-14  0.4092E-14  0.3750E+00  0.3750E+00
      9.568  0.0000E+00  0.0000E+00  0.3750E+00  0.3750E+00
      9.675  0.0000E+00  0.0000E+00  0.3750E+00  0.3750E+00
      9.781  0.0000E+00  0.0000E+00  0.3750E+00  0.3750E+00
      9.888  0.0000E+00  0.0000E+00  0.3750E+00  0.3750E+00
      9.995  0.0000E+00  0.0000E+00  0.3750E+00  0.3750E+00
     10.101  0.0000E+00  0.0000E+00  0.3750E+00  0.3750E+00
     10.208  0.0000E+00  0.0000E+00  0.3750E+00  0.3750E+00
     10.315  0.0000E+00  0.0000E+00  0.3750E+00  0.3750E+00
