Lattice                                 
           1
     4.201955    2.426000    0.000000
    -4.201955    2.426000    0.000000
     0.000000    0.000000   15.000000
   B    C 
     4    11
Direct configuration=     1
   0.00415361  0.00267210  0.12034134
   0.35695335  0.00285503  0.09748893
   0.00423858  0.35550699  0.09749256
   0.65142295  0.65006557  0.09747688
   0.32808646  0.32671938  0.10030508
   0.68027775  0.00278085  0.10027562
   0.00416530  0.67883808  0.10026559
   0.99999933  0.49999967  0.33373333
   0.16666633  0.33333267  0.33373333
   0.99999933  0.99999967  0.33373333
   0.16666633  0.83333267  0.33373333
   0.49999933  0.49999967  0.33373333
   0.66666633  0.33333267  0.33373333
   0.49999933  0.99999967  0.33373333
   0.66666633  0.83333267  0.33373333
Direct configuration=     2
   0.00418007  0.00275119  0.11919035
   0.35580610  0.00303515  0.09784277
   0.00395800  0.35413389  0.09784483
   0.65278933  0.65117027  0.09783421
   0.32459349  0.32288056  0.10029690
   0.68407798  0.00310769  0.10027552
   0.00388327  0.68235307  0.10026826
   0.00012684  0.49997443  0.33374262
   0.16687024  0.33394238  0.33380267
   0.99999928  0.99999373  0.33363359
   0.16706477  0.83312743  0.33380555
   0.50004072  0.50016494  0.33374550
   0.66666630  0.33333787  0.33368541
   0.49984922  0.99987120  0.33374215
   0.66605506  0.83292351  0.33380233
Direct configuration=     3
   0.00416607  0.00270936  0.11979913
   0.35641290  0.00293988  0.09765562
   0.00410640  0.35486015  0.09765851
   0.65206663  0.65058598  0.09764521
   0.32644098  0.32491097  0.10030122
   0.68206798  0.00293482  0.10027557
   0.00403244  0.68049393  0.10026685
   0.00005940  0.49998778  0.33373771
   0.16676239  0.33361989  0.33376599
   0.99999931  0.99999687  0.33368634
   0.16685403  0.83323598  0.33376736
   0.50001883  0.50007752  0.33373907
   0.66666632  0.33333512  0.33371076
   0.49992862  0.99993915  0.33373749
   0.66637837  0.83313992  0.33376584
Direct configuration=     4
   0.00417988  0.00276475  0.11885609
   0.35685818  0.00305833  0.09796848
   0.00390652  0.35516125  0.09796983
   0.65178002  0.65011079  0.09796142
   0.32655487  0.32480570  0.10026292
   0.68215262  0.00312952  0.10024507
   0.00385098  0.68039812  0.10023846
  -0.00007923  0.50001135  0.33375809
   0.16662114  0.33315048  0.33381064
   0.99999995  0.00000277  0.33363131
   0.16653842  0.83338463  0.33381414
   0.49998407  0.49990731  0.33376156
   0.66666941  0.33333224  0.33366708
   0.50008826  0.00007951  0.33375744
   0.66685557  0.83347059  0.33381013
