       N       E                     dE             d eps       ncg     rms          rms(c)
DAV:   1    -0.123165515327E+03   -0.12317E+03   -0.12728E+03 27264   0.674E+01
DAV:   2    -0.124056570639E+03   -0.89106E+00   -0.88993E+00 21504   0.105E+01
DAV:   3    -0.124058418329E+03   -0.18477E-02   -0.18477E-02 28176   0.460E-01
DAV:   4    -0.124058420922E+03   -0.25928E-05   -0.25928E-05 24624   0.135E-02
DAV:   5    -0.124058420939E+03   -0.17612E-07   -0.17602E-07 28800   0.821E-04
   1 F= -.12405842E+03 E0= -.12405713E+03  d E =-.258363E-02
