  16  16   0  16
  0.2095219E+02  0.5080000E-09  0.5080000E-09  0.1500000E-08  0.5000000E-15
  1.000000000000000E-004
  CAR 
 Lattice                                 
      9.55899653    -21.22426252  301     -1.05469779      1.00000000
    -21.224  0.0000E+00  0.0000E+00  0.0000E+00  0.0000E+00
    -21.122  0.0000E+00  0.0000E+00  0.0000E+00  0.0000E+00
    -21.019  0.0000E+00  0.0000E+00  0.0000E+00  0.0000E+00
    -20.916  0.0000E+00  0.0000E+00  0.0000E+00  0.0000E+00
    -20.814  0.0000E+00  0.0000E+00  0.0000E+00  0.0000E+00
    -20.711  0.0000E+00  0.0000E+00  0.0000E+00  0.0000E+00
    -20.609  0.0000E+00  0.0000E+00  0.0000E+00  0.0000E+00
    -20.506  0.0000E+00  0.0000E+00  0.0000E+00  0.0000E+00
    -20.403  0.8805E-19  0.8805E-19  0.9035E-20  0.9035E-20
    -20.301  0.5082E-14  0.5082E-14  0.5215E-15  0.5215E-15
    -20.198  0.4367E-10  0.4367E-10  0.4482E-11  0.4482E-11
    -20.096  0.5364E-07  0.5364E-07  0.5509E-08  0.5509E-08
    -19.993  0.1015E-04  0.1015E-04  0.1047E-05  0.1047E-05
    -19.890  0.3254E-03  0.3254E-03  0.3444E-04  0.3444E-04
    -19.788  0.2159E-02  0.2159E-02  0.2560E-03  0.2560E-03
    -19.685  0.4452E-02  0.4452E-02  0.7129E-03  0.7129E-03
    -19.582  0.4978E-02  0.4978E-02  0.1224E-02  0.1224E-02
    -19.480  0.5216E-02  0.5216E-02  0.1759E-02  0.1759E-02
    -19.377  0.4745E-02  0.4745E-02  0.2246E-02  0.2246E-02
    -19.275  0.5715E-02  0.5715E-02  0.2832E-02  0.2832E-02
    -19.172  0.4331E-02  0.4331E-02  0.3277E-02  0.3277E-02
    -19.069  0.5403E-02  0.5403E-02  0.3831E-02  0.3831E-02
    -18.967  0.5882E-02  0.5882E-02  0.4435E-02  0.4435E-02
    -18.864  0.3728E-02  0.3728E-02  0.4817E-02  0.4817E-02
    -18.762  0.5509E-02  0.5509E-02  0.5382E-02  0.5382E-02
    -18.659  0.6375E-02  0.6375E-02  0.6036E-02  0.6036E-02
    -18.556  0.4351E-02  0.4351E-02  0.6483E-02  0.6483E-02
    -18.454  0.3612E-02  0.3612E-02  0.6854E-02  0.6854E-02
    -18.351  0.6946E-02  0.6946E-02  0.7566E-02  0.7566E-02
    -18.249  0.5887E-02  0.5887E-02  0.8170E-02  0.8170E-02
    -18.146  0.4246E-02  0.4246E-02  0.8606E-02  0.8606E-02
    -18.043  0.3489E-02  0.3489E-02  0.8964E-02  0.8964E-02
    -17.941  0.7426E-02  0.7426E-02  0.9726E-02  0.9726E-02
    -17.838  0.1166E-01  0.1166E-01  0.1092E-01  0.1092E-01
    -17.735  0.1112E-01  0.1112E-01  0.1206E-01  0.1206E-01
    -17.633  0.1147E-01  0.1147E-01  0.1324E-01  0.1324E-01
    -17.530  0.1345E-01  0.1345E-01  0.1462E-01  0.1462E-01
    -17.428  0.1742E-01  0.1742E-01  0.1641E-01  0.1641E-01
    -17.325  0.2117E-01  0.2117E-01  0.1858E-01  0.1858E-01
    -17.222  0.1978E-01  0.1978E-01  0.2061E-01  0.2061E-01
    -17.120  0.9067E-02  0.9067E-02  0.2154E-01  0.2154E-01
    -17.017  0.5601E-02  0.5601E-02  0.2212E-01  0.2212E-01
    -16.915  0.7443E-02  0.7443E-02  0.2288E-01  0.2288E-01
    -16.812  0.6696E-02  0.6696E-02  0.2357E-01  0.2357E-01
    -16.709  0.5436E-02  0.5436E-02  0.2413E-01  0.2413E-01
    -16.607  0.4466E-02  0.4466E-02  0.2458E-01  0.2458E-01
    -16.504  0.2531E-02  0.2531E-02  0.2484E-01  0.2484E-01
    -16.402  0.5545E-02  0.5545E-02  0.2541E-01  0.2541E-01
    -16.299  0.9275E-02  0.9275E-02  0.2636E-01  0.2636E-01
    -16.196  0.5860E-02  0.5860E-02  0.2697E-01  0.2697E-01
    -16.094  0.4796E-02  0.4796E-02  0.2746E-01  0.2746E-01
    -15.991  0.4418E-02  0.4418E-02  0.2791E-01  0.2791E-01
    -15.888  0.3965E-02  0.3965E-02  0.2832E-01  0.2832E-01
    -15.786  0.4591E-02  0.4591E-02  0.2879E-01  0.2879E-01
    -15.683  0.9939E-02  0.9939E-02  0.2981E-01  0.2981E-01
    -15.581  0.1105E-01  0.1105E-01  0.3094E-01  0.3094E-01
    -15.478  0.1330E-01  0.1330E-01  0.3231E-01  0.3231E-01
    -15.375  0.1636E-01  0.1636E-01  0.3399E-01  0.3399E-01
    -15.273  0.1553E-01  0.1553E-01  0.3558E-01  0.3558E-01
    -15.170  0.1302E-01  0.1302E-01  0.3691E-01  0.3691E-01
    -15.068  0.1648E-01  0.1648E-01  0.3861E-01  0.3861E-01
    -14.965  0.1827E-01  0.1827E-01  0.4048E-01  0.4048E-01
    -14.862  0.1537E-01  0.1537E-01  0.4206E-01  0.4206E-01
    -14.760  0.1135E-01  0.1135E-01  0.4322E-01  0.4322E-01
    -14.657  0.9292E-02  0.9292E-02  0.4418E-01  0.4418E-01
    -14.555  0.1217E-01  0.1217E-01  0.4542E-01  0.4542E-01
    -14.452  0.1811E-01  0.1811E-01  0.4728E-01  0.4728E-01
    -14.349  0.1854E-01  0.1854E-01  0.4918E-01  0.4918E-01
    -14.247  0.1354E-01  0.1354E-01  0.5057E-01  0.5057E-01
    -14.144  0.9796E-02  0.9796E-02  0.5158E-01  0.5158E-01
    -14.042  0.8487E-02  0.8487E-02  0.5245E-01  0.5245E-01
    -13.939  0.8551E-02  0.8551E-02  0.5333E-01  0.5333E-01
    -13.836  0.8130E-02  0.8130E-02  0.5416E-01  0.5416E-01
    -13.734  0.4164E-02  0.4164E-02  0.5459E-01  0.5459E-01
    -13.631  0.2605E-02  0.2605E-02  0.5486E-01  0.5486E-01
    -13.528  0.4630E-02  0.4630E-02  0.5533E-01  0.5533E-01
    -13.426  0.4826E-02  0.4826E-02  0.5583E-01  0.5583E-01
    -13.323  0.6585E-02  0.6585E-02  0.5650E-01  0.5650E-01
    -13.221  0.5891E-02  0.5891E-02  0.5711E-01  0.5711E-01
    -13.118  0.6790E-02  0.6790E-02  0.5780E-01  0.5780E-01
    -13.015  0.8808E-02  0.8808E-02  0.5871E-01  0.5871E-01
    -12.913  0.8224E-02  0.8224E-02  0.5955E-01  0.5955E-01
    -12.810  0.7497E-02  0.7497E-02  0.6032E-01  0.6032E-01
    -12.708  0.6040E-02  0.6040E-02  0.6094E-01  0.6094E-01
    -12.605  0.7346E-02  0.7346E-02  0.6169E-01  0.6169E-01
    -12.502  0.4572E-02  0.4572E-02  0.6216E-01  0.6216E-01
    -12.400  0.5255E-02  0.5255E-02  0.6270E-01  0.6270E-01
    -12.297  0.8147E-02  0.8147E-02  0.6354E-01  0.6354E-01
    -12.195  0.5337E-02  0.5337E-02  0.6409E-01  0.6409E-01
    -12.092  0.6219E-02  0.6219E-02  0.6472E-01  0.6472E-01
    -11.989  0.1154E-01  0.1154E-01  0.6591E-01  0.6591E-01
    -11.887  0.1590E-01  0.1590E-01  0.6754E-01  0.6754E-01
    -11.784  0.1479E-01  0.1479E-01  0.6906E-01  0.6906E-01
    -11.681  0.1404E-01  0.1404E-01  0.7050E-01  0.7050E-01
    -11.579  0.1661E-01  0.1661E-01  0.7220E-01  0.7220E-01
    -11.476  0.1684E-01  0.1684E-01  0.7393E-01  0.7393E-01
    -11.374  0.1049E-01  0.1049E-01  0.7501E-01  0.7501E-01
    -11.271  0.9862E-02  0.9862E-02  0.7602E-01  0.7602E-01
    -11.168  0.1009E-01  0.1009E-01  0.7705E-01  0.7705E-01
    -11.066  0.1064E-01  0.1064E-01  0.7815E-01  0.7815E-01
    -10.963  0.7504E-02  0.7504E-02  0.7892E-01  0.7892E-01
    -10.861  0.7502E-02  0.7502E-02  0.7969E-01  0.7969E-01
    -10.758  0.1331E-01  0.1331E-01  0.8105E-01  0.8105E-01
    -10.655  0.1610E-01  0.1610E-01  0.8270E-01  0.8270E-01
    -10.553  0.1018E-01  0.1018E-01  0.8375E-01  0.8375E-01
    -10.450  0.6364E-02  0.6364E-02  0.8440E-01  0.8440E-01
    -10.348  0.1343E-01  0.1343E-01  0.8578E-01  0.8578E-01
    -10.245  0.1777E-01  0.1777E-01  0.8760E-01  0.8760E-01
    -10.142  0.1524E-01  0.1524E-01  0.8917E-01  0.8917E-01
    -10.040  0.9781E-02  0.9781E-02  0.9017E-01  0.9017E-01
     -9.937  0.9289E-02  0.9289E-02  0.9112E-01  0.9112E-01
     -9.834  0.1265E-01  0.1265E-01  0.9242E-01  0.9242E-01
     -9.732  0.1063E-01  0.1063E-01  0.9351E-01  0.9351E-01
     -9.629  0.5934E-02  0.5934E-02  0.9412E-01  0.9412E-01
     -9.527  0.1072E-01  0.1072E-01  0.9522E-01  0.9522E-01
     -9.424  0.1261E-01  0.1261E-01  0.9651E-01  0.9651E-01
     -9.321  0.1112E-01  0.1112E-01  0.9766E-01  0.9766E-01
     -9.219  0.7885E-02  0.7885E-02  0.9846E-01  0.9846E-01
     -9.116  0.2712E-02  0.2712E-02  0.9874E-01  0.9874E-01
     -9.014  0.2854E-02  0.2854E-02  0.9904E-01  0.9904E-01
     -8.911  0.1307E-01  0.1307E-01  0.1004E+00  0.1004E+00
     -8.808  0.2031E-01  0.2031E-01  0.1025E+00  0.1025E+00
     -8.706  0.1519E-01  0.1519E-01  0.1040E+00  0.1040E+00
     -8.603  0.1054E-01  0.1054E-01  0.1051E+00  0.1051E+00
     -8.501  0.7382E-02  0.7382E-02  0.1059E+00  0.1059E+00
     -8.398  0.9611E-02  0.9611E-02  0.1068E+00  0.1068E+00
     -8.295  0.1612E-01  0.1612E-01  0.1085E+00  0.1085E+00
     -8.193  0.2234E-01  0.2234E-01  0.1108E+00  0.1108E+00
     -8.090  0.2141E-01  0.2141E-01  0.1130E+00  0.1130E+00
     -7.987  0.1950E-01  0.1950E-01  0.1150E+00  0.1150E+00
     -7.885  0.1434E-01  0.1434E-01  0.1165E+00  0.1165E+00
     -7.782  0.1429E-01  0.1429E-01  0.1179E+00  0.1179E+00
     -7.680  0.2101E-01  0.2101E-01  0.1201E+00  0.1201E+00
     -7.577  0.2680E-01  0.2680E-01  0.1228E+00  0.1228E+00
     -7.474  0.2557E-01  0.2557E-01  0.1255E+00  0.1255E+00
     -7.372  0.2228E-01  0.2228E-01  0.1277E+00  0.1277E+00
     -7.269  0.2378E-01  0.2378E-01  0.1302E+00  0.1302E+00
     -7.167  0.2478E-01  0.2478E-01  0.1327E+00  0.1327E+00
     -7.064  0.2662E-01  0.2662E-01  0.1355E+00  0.1355E+00
     -6.961  0.2169E-01  0.2169E-01  0.1377E+00  0.1377E+00
     -6.859  0.1975E-01  0.1975E-01  0.1397E+00  0.1397E+00
     -6.756  0.2782E-01  0.2782E-01  0.1426E+00  0.1426E+00
     -6.654  0.2499E-01  0.2499E-01  0.1451E+00  0.1451E+00
     -6.551  0.1859E-01  0.1859E-01  0.1470E+00  0.1470E+00
     -6.448  0.2522E-01  0.2522E-01  0.1496E+00  0.1496E+00
     -6.346  0.2518E-01  0.2518E-01  0.1522E+00  0.1522E+00
     -6.243  0.2399E-01  0.2399E-01  0.1547E+00  0.1547E+00
     -6.140  0.1803E-01  0.1803E-01  0.1565E+00  0.1565E+00
     -6.038  0.1455E-01  0.1455E-01  0.1580E+00  0.1580E+00
     -5.935  0.2210E-01  0.2210E-01  0.1603E+00  0.1603E+00
     -5.833  0.2788E-01  0.2788E-01  0.1631E+00  0.1631E+00
     -5.730  0.2235E-01  0.2235E-01  0.1654E+00  0.1654E+00
     -5.627  0.1805E-01  0.1805E-01  0.1673E+00  0.1673E+00
     -5.525  0.2122E-01  0.2122E-01  0.1695E+00  0.1695E+00
     -5.422  0.2769E-01  0.2769E-01  0.1723E+00  0.1723E+00
     -5.320  0.2848E-01  0.2848E-01  0.1752E+00  0.1752E+00
     -5.217  0.1828E-01  0.1828E-01  0.1771E+00  0.1771E+00
     -5.114  0.1507E-01  0.1507E-01  0.1786E+00  0.1786E+00
     -5.012  0.1823E-01  0.1823E-01  0.1805E+00  0.1805E+00
     -4.909  0.1732E-01  0.1732E-01  0.1823E+00  0.1823E+00
     -4.807  0.1563E-01  0.1563E-01  0.1839E+00  0.1839E+00
     -4.704  0.1868E-01  0.1868E-01  0.1858E+00  0.1858E+00
     -4.601  0.1748E-01  0.1748E-01  0.1876E+00  0.1876E+00
     -4.499  0.1588E-01  0.1588E-01  0.1892E+00  0.1892E+00
     -4.396  0.1779E-01  0.1779E-01  0.1911E+00  0.1911E+00
     -4.293  0.2357E-01  0.2357E-01  0.1935E+00  0.1935E+00
     -4.191  0.3450E-01  0.3450E-01  0.1970E+00  0.1970E+00
     -4.088  0.4137E-01  0.4137E-01  0.2013E+00  0.2013E+00
     -3.986  0.3032E-01  0.3032E-01  0.2044E+00  0.2044E+00
     -3.883  0.2205E-01  0.2205E-01  0.2066E+00  0.2066E+00
     -3.780  0.1448E-01  0.1448E-01  0.2081E+00  0.2081E+00
     -3.678  0.1295E-01  0.1295E-01  0.2095E+00  0.2095E+00
     -3.575  0.1737E-01  0.1737E-01  0.2112E+00  0.2112E+00
     -3.473  0.2300E-01  0.2300E-01  0.2136E+00  0.2136E+00
     -3.370  0.2001E-01  0.2001E-01  0.2156E+00  0.2156E+00
     -3.267  0.1310E-01  0.1310E-01  0.2170E+00  0.2170E+00
     -3.165  0.1386E-01  0.1386E-01  0.2184E+00  0.2184E+00
     -3.062  0.2049E-01  0.2049E-01  0.2205E+00  0.2205E+00
     -2.960  0.2645E-01  0.2645E-01  0.2232E+00  0.2232E+00
     -2.857  0.1896E-01  0.1896E-01  0.2252E+00  0.2252E+00
     -2.754  0.1079E-01  0.1079E-01  0.2263E+00  0.2263E+00
     -2.652  0.1427E-01  0.1427E-01  0.2277E+00  0.2277E+00
     -2.549  0.2132E-01  0.2132E-01  0.2299E+00  0.2299E+00
     -2.446  0.1836E-01  0.1836E-01  0.2318E+00  0.2318E+00
     -2.344  0.2165E-01  0.2165E-01  0.2340E+00  0.2340E+00
     -2.241  0.2447E-01  0.2447E-01  0.2366E+00  0.2366E+00
     -2.139  0.1278E-01  0.1278E-01  0.2379E+00  0.2379E+00
     -2.036  0.4820E-02  0.4820E-02  0.2384E+00  0.2384E+00
     -1.933  0.7838E-02  0.7838E-02  0.2392E+00  0.2392E+00
     -1.831  0.6438E-02  0.6438E-02  0.2398E+00  0.2398E+00
     -1.728  0.4725E-02  0.4725E-02  0.2403E+00  0.2403E+00
     -1.626  0.7493E-02  0.7493E-02  0.2411E+00  0.2411E+00
     -1.523  0.5761E-02  0.5761E-02  0.2417E+00  0.2417E+00
     -1.420  0.3022E-02  0.3022E-02  0.2420E+00  0.2420E+00
     -1.318  0.8882E-03  0.8882E-03  0.2421E+00  0.2421E+00
     -1.215  0.1030E-03  0.1030E-03  0.2421E+00  0.2421E+00
     -1.113  0.3841E-03  0.3841E-03  0.2421E+00  0.2421E+00
     -1.010  0.1345E-02  0.1345E-02  0.2423E+00  0.2423E+00
     -0.907  0.2300E-02  0.2300E-02  0.2425E+00  0.2425E+00
     -0.805  0.3244E-02  0.3244E-02  0.2428E+00  0.2428E+00
     -0.702  0.4662E-02  0.4662E-02  0.2433E+00  0.2433E+00
     -0.599  0.9023E-02  0.9023E-02  0.2442E+00  0.2442E+00
     -0.497  0.1011E-01  0.1011E-01  0.2453E+00  0.2453E+00
     -0.394  0.9642E-02  0.9642E-02  0.2463E+00  0.2463E+00
     -0.292  0.9641E-02  0.9641E-02  0.2472E+00  0.2472E+00
     -0.189  0.1129E-01  0.1129E-01  0.2484E+00  0.2484E+00
     -0.086  0.9551E-02  0.9551E-02  0.2494E+00  0.2494E+00
      0.016  0.3369E-02  0.3369E-02  0.2497E+00  0.2497E+00
      0.119  0.6751E-02  0.6751E-02  0.2504E+00  0.2504E+00
      0.221  0.1047E-01  0.1047E-01  0.2515E+00  0.2515E+00
      0.324  0.6852E-02  0.6852E-02  0.2522E+00  0.2522E+00
      0.427  0.6423E-02  0.6423E-02  0.2529E+00  0.2529E+00
      0.529  0.8761E-02  0.8761E-02  0.2538E+00  0.2538E+00
      0.632  0.1101E-01  0.1101E-01  0.2549E+00  0.2549E+00
      0.734  0.9853E-02  0.9853E-02  0.2559E+00  0.2559E+00
      0.837  0.1101E-01  0.1101E-01  0.2570E+00  0.2570E+00
      0.940  0.6549E-02  0.6549E-02  0.2577E+00  0.2577E+00
      1.042  0.4853E-02  0.4853E-02  0.2582E+00  0.2582E+00
      1.145  0.5720E-02  0.5720E-02  0.2588E+00  0.2588E+00
      1.248  0.4757E-02  0.4757E-02  0.2593E+00  0.2593E+00
      1.350  0.4228E-02  0.4228E-02  0.2597E+00  0.2597E+00
      1.453  0.5498E-02  0.5498E-02  0.2603E+00  0.2603E+00
      1.555  0.1203E-01  0.1203E-01  0.2615E+00  0.2615E+00
      1.658  0.7902E-02  0.7902E-02  0.2623E+00  0.2623E+00
      1.761  0.2525E-02  0.2525E-02  0.2626E+00  0.2626E+00
      1.863  0.4849E-02  0.4849E-02  0.2631E+00  0.2631E+00
      1.966  0.5352E-02  0.5352E-02  0.2636E+00  0.2636E+00
      2.068  0.8256E-02  0.8256E-02  0.2645E+00  0.2645E+00
      2.171  0.1521E-01  0.1521E-01  0.2660E+00  0.2660E+00
      2.274  0.1383E-01  0.1383E-01  0.2675E+00  0.2675E+00
      2.376  0.1293E-01  0.1293E-01  0.2688E+00  0.2688E+00
      2.479  0.1330E-01  0.1330E-01  0.2701E+00  0.2701E+00
      2.581  0.9555E-02  0.9555E-02  0.2711E+00  0.2711E+00
      2.684  0.7969E-02  0.7969E-02  0.2719E+00  0.2719E+00
      2.787  0.8993E-02  0.8995E-02  0.2729E+00  0.2729E+00
      2.889  0.9809E-02  0.9811E-02  0.2739E+00  0.2739E+00
      2.992  0.1459E-01  0.1459E-01  0.2754E+00  0.2754E+00
      3.095  0.1596E-01  0.1596E-01  0.2770E+00  0.2770E+00
      3.197  0.1111E-01  0.1111E-01  0.2781E+00  0.2781E+00
      3.300  0.8169E-02  0.8167E-02  0.2790E+00  0.2790E+00
      3.402  0.8548E-02  0.8548E-02  0.2799E+00  0.2799E+00
      3.505  0.1391E-01  0.1392E-01  0.2813E+00  0.2813E+00
      3.608  0.1059E-01  0.1059E-01  0.2824E+00  0.2824E+00
      3.710  0.8444E-02  0.8444E-02  0.2832E+00  0.2832E+00
      3.813  0.1424E-01  0.1424E-01  0.2847E+00  0.2847E+00
      3.915  0.1971E-01  0.1971E-01  0.2867E+00  0.2867E+00
      4.018  0.1861E-01  0.1861E-01  0.2886E+00  0.2886E+00
      4.121  0.1182E-01  0.1182E-01  0.2898E+00  0.2898E+00
      4.223  0.1177E-01  0.1177E-01  0.2911E+00  0.2911E+00
      4.326  0.1497E-01  0.1497E-01  0.2926E+00  0.2926E+00
      4.428  0.1584E-01  0.1584E-01  0.2942E+00  0.2942E+00
      4.531  0.1758E-01  0.1757E-01  0.2960E+00  0.2960E+00
      4.634  0.1203E-01  0.1204E-01  0.2973E+00  0.2973E+00
      4.736  0.1610E-01  0.1611E-01  0.2989E+00  0.2989E+00
      4.839  0.1889E-01  0.1889E-01  0.3008E+00  0.3008E+00
      4.942  0.1941E-01  0.1941E-01  0.3028E+00  0.3028E+00
      5.044  0.1827E-01  0.1827E-01  0.3047E+00  0.3047E+00
      5.147  0.1512E-01  0.1511E-01  0.3063E+00  0.3063E+00
      5.249  0.1346E-01  0.1347E-01  0.3076E+00  0.3076E+00
      5.352  0.1794E-01  0.1795E-01  0.3095E+00  0.3095E+00
      5.455  0.2240E-01  0.2239E-01  0.3118E+00  0.3118E+00
      5.557  0.1984E-01  0.1984E-01  0.3138E+00  0.3138E+00
      5.660  0.2277E-01  0.2278E-01  0.3162E+00  0.3162E+00
      5.762  0.2816E-01  0.2815E-01  0.3190E+00  0.3190E+00
      5.865  0.2282E-01  0.2281E-01  0.3214E+00  0.3214E+00
      5.968  0.2027E-01  0.2027E-01  0.3235E+00  0.3235E+00
      6.070  0.2660E-01  0.2662E-01  0.3262E+00  0.3262E+00
      6.173  0.2935E-01  0.2934E-01  0.3292E+00  0.3292E+00
      6.275  0.3080E-01  0.3079E-01  0.3324E+00  0.3324E+00
      6.378  0.2297E-01  0.2296E-01  0.3347E+00  0.3347E+00
      6.481  0.1676E-01  0.1677E-01  0.3364E+00  0.3364E+00
      6.583  0.2705E-01  0.2706E-01  0.3392E+00  0.3392E+00
      6.686  0.3354E-01  0.3352E-01  0.3427E+00  0.3427E+00
      6.789  0.3168E-01  0.3168E-01  0.3459E+00  0.3459E+00
      6.891  0.3282E-01  0.3282E-01  0.3493E+00  0.3493E+00
      6.994  0.3344E-01  0.3344E-01  0.3527E+00  0.3527E+00
      7.096  0.3440E-01  0.3441E-01  0.3562E+00  0.3562E+00
      7.199  0.3435E-01  0.3436E-01  0.3598E+00  0.3598E+00
      7.302  0.2939E-01  0.2938E-01  0.3628E+00  0.3628E+00
      7.404  0.2275E-01  0.2275E-01  0.3651E+00  0.3651E+00
      7.507  0.1867E-01  0.1868E-01  0.3670E+00  0.3670E+00
      7.609  0.2535E-01  0.2536E-01  0.3696E+00  0.3696E+00
      7.712  0.2221E-01  0.2219E-01  0.3719E+00  0.3719E+00
      7.815  0.1331E-01  0.1331E-01  0.3733E+00  0.3733E+00
      7.917  0.8901E-02  0.8900E-02  0.3742E+00  0.3742E+00
      8.020  0.4148E-02  0.4143E-02  0.3746E+00  0.3746E+00
      8.122  0.1510E-02  0.1509E-02  0.3748E+00  0.3748E+00
      8.225  0.1681E-02  0.1680E-02  0.3749E+00  0.3749E+00
      8.328  0.5364E-03  0.5352E-03  0.3750E+00  0.3750E+00
      8.430  0.2765E-04  0.2752E-04  0.3750E+00  0.3750E+00
      8.533  0.2065E-06  0.2050E-06  0.3750E+00  0.3750E+00
      8.635  0.2082E-09  0.2063E-09  0.3750E+00  0.3750E+00
      8.738  0.2725E-13  0.2694E-13  0.3750E+00  0.3750E+00
      8.841  0.7044E-18  0.7044E-18  0.3750E+00  0.3750E+00
      8.943  0.0000E+00  0.0000E+00  0.3750E+00  0.3750E+00
      9.046  0.0000E+00  0.0000E+00  0.3750E+00  0.3750E+00
      9.149  0.0000E+00  0.0000E+00  0.3750E+00  0.3750E+00
      9.251  0.0000E+00  0.0000E+00  0.3750E+00  0.3750E+00
      9.354  0.0000E+00  0.0000E+00  0.3750E+00  0.3750E+00
      9.456  0.0000E+00  0.0000E+00  0.3750E+00  0.3750E+00
      9.559  0.0000E+00  0.0000E+00  0.3750E+00  0.3750E+00
