Lattice                                 
           1
     4.260845    2.460000    0.000000
    -4.260845    2.460000    0.000000
     0.000000    0.000000   15.000000
   B    C 
   8   8
Direct configuration=     1
   0.66888689  0.00000000  0.10000000
   0.33111211  0.00000000  0.10000000
   0.00000000  0.33111211  0.10000000
   0.00000000  0.66888689  0.10000000
   0.33111211  0.33111211  0.10000000
   0.66888689  0.66888689  0.10000000
   0.66666600  0.33333300  0.09922189
   0.33333300  0.66666600  0.10077811
   0.27777711  0.22222189  0.46960000
   0.44444411  0.05555489  0.46960000
   0.27777711  0.72222189  0.46960000
   0.44444411  0.55555489  0.46960000
   0.77777711  0.22222189  0.46960000
   0.94444411  0.05555489  0.46960000
   0.77777711  0.72222189  0.46960000
   0.94444411  0.55555489  0.46960000
Direct configuration=     2
   0.67217654  0.00000000  0.10002661
   0.32782266 -0.00000004  0.10002665
  -0.00000000  0.32782246  0.10002661
   0.00000004  0.67217634  0.10002665
   0.32782233  0.32782224  0.10002667
   0.67217676  0.67217667  0.10002667
   0.66666613  0.33333287  0.09922635
   0.33333253  0.66666647  0.10083091
   0.27777216  0.22221722  0.46957317
   0.44444171  0.05555717  0.46957255
   0.27777725  0.72222175  0.46957207
   0.44444486  0.55555414  0.46957277
   0.77778068  0.22221832  0.46957298
   0.94444465  0.05555435  0.46957364
   0.77778178  0.72222684  0.46957317
   0.94444183  0.55555729  0.46957255
Direct configuration=     3
   0.67040423  0.00000000  0.10001227
   0.32959486 -0.00000002  0.10001229
  -0.00000000  0.32959477  0.10001227
   0.00000002  0.67040414  0.10001229
   0.32959471  0.32959467  0.10001230
   0.67040433  0.67040429  0.10001230
   0.66666606  0.33333294  0.09922394
   0.33333278  0.66666622  0.10080247
   0.27777483  0.22221974  0.46958763
   0.44444300  0.05555594  0.46958734
   0.27777717  0.72222183  0.46958712
   0.44444445  0.55555455  0.46958744
   0.77777876  0.22222024  0.46958754
   0.94444436  0.05555464  0.46958784
   0.77777926  0.72222417  0.46958763
   0.94444306  0.55555600  0.46958734
Direct configuration=     4
   0.67040546  0.00000000  0.10001228
   0.32959364 -0.00000002  0.10001230
  -0.00000000  0.32959354  0.10001228
   0.00000002  0.67040536  0.10001230
   0.32959348  0.32959344  0.10001231
   0.67040556  0.67040552  0.10001231
   0.66666606  0.33333294  0.09922395
   0.33333278  0.66666622  0.10080249
   0.27777482  0.22221974  0.46958762
   0.44444300  0.05555594  0.46958733
   0.27777717  0.72222183  0.46958711
   0.44444446  0.55555454  0.46958743
   0.77777876  0.22222024  0.46958753
   0.94444436  0.05555464  0.46958783
   0.77777926  0.72222418  0.46958762
   0.94444306  0.55555600  0.46958733
Direct configuration=     5
   0.67040543 -0.00000002  0.10003619
   0.32959376  0.00000003  0.10003624
   0.00000002  0.32959357  0.10003619
  -0.00000003  0.67040524  0.10003624
   0.32959363  0.32959363  0.10003626
   0.67040537  0.67040537  0.10003626
   0.66666603  0.33333297  0.09923303
   0.33333275  0.66666625  0.10084357
   0.27777776  0.22222339  0.46956361
   0.44444520  0.05555409  0.46956288
   0.27777672  0.72222228  0.46956234
   0.44444441  0.55555459  0.46956314
   0.77777589  0.22222311  0.46956340
   0.94444442  0.05555458  0.46956414
   0.77777561  0.72222124  0.46956361
   0.94444491  0.55555380  0.46956288
Direct configuration=     6
   0.67040536 -0.00000007  0.10010790
   0.32959414  0.00000018  0.10010805
   0.00000007  0.32959364  0.10010790
  -0.00000018  0.67040486  0.10010805
   0.32959407  0.32959417  0.10010812
   0.67040483  0.67040493  0.10010812
   0.66666595  0.33333305  0.09926030
   0.33333266  0.66666634  0.10096682
   0.27778657  0.22223434  0.46949161
   0.44445177  0.05554852  0.46948955
   0.27777537  0.72222363  0.46948803
   0.44444426  0.55555474  0.46949028
   0.77776728  0.22223172  0.46949103
   0.94444458  0.05555442  0.46949309
   0.77776466  0.72221243  0.46949161
   0.94445048  0.55554723  0.46948955
Direct configuration=     7
   0.67040521 -0.00000018  0.10025133
   0.32959490  0.00000047  0.10025166
   0.00000018  0.32959379  0.10025133
  -0.00000047  0.67040410  0.10025166
   0.32959496  0.32959527  0.10025184
   0.67040373  0.67040404  0.10025184
   0.66666580  0.33333320  0.09931483
   0.33333248  0.66666652  0.10121332
   0.27780420  0.22225625  0.46934760
   0.44446493  0.05553737  0.46934287
   0.27777265  0.72222635  0.46933942
   0.44444398  0.55555502  0.46934455
   0.77775005  0.22224895  0.46934628
   0.94444491  0.05555409  0.46935098
   0.77774275  0.72219480  0.46934760
   0.94446163  0.55553407  0.46934287
Direct configuration=     8
   0.67040491 -0.00000040  0.10053819
   0.32959642  0.00000106  0.10053890
   0.00000040  0.32959409  0.10053819
  -0.00000106  0.67040258  0.10053890
   0.32959674  0.32959745  0.10053928
   0.67040155  0.67040226  0.10053928
   0.66666549  0.33333351  0.09942388
   0.33333211  0.66666689  0.10170632
   0.27783945  0.22230006  0.46905959
   0.44449123  0.05551509  0.46904952
   0.27776723  0.72223177  0.46904220
   0.44444340  0.55555560  0.46905311
   0.77771561  0.22228339  0.46905677
   0.94444556  0.05555344  0.46906675
   0.77769894  0.72215955  0.46905959
   0.94448391  0.55550777  0.46904952
Direct configuration=     9
   0.67040432 -0.00000083  0.10111191
   0.32959946  0.00000223  0.10111337
   0.00000083  0.32959468  0.10111191
  -0.00000223  0.67039954  0.10111337
   0.32960029  0.32960183  0.10111415
   0.67039717  0.67039871  0.10111415
   0.66666487  0.33333413  0.09964200
   0.33333139  0.66666761  0.10269233
   0.27790995  0.22238769  0.46848355
   0.44454385  0.05547052  0.46846282
   0.27775638  0.72224262  0.46844776
   0.44444225  0.55555675  0.46847021
   0.77764671  0.22235229  0.46847777
   0.94444686  0.05555214  0.46849831
   0.77761131  0.72208905  0.46848355
   0.94452848  0.55545515  0.46846282
Direct configuration=    10
   0.67040313 -0.00000169  0.10225935
   0.32960554  0.00000458  0.10226232
   0.00000169  0.32959587  0.10225935
  -0.00000458  0.67039346  0.10226232
   0.32960739  0.32961057  0.10226390
   0.67038843  0.67039161  0.10226390
   0.66666362  0.33333538  0.10007823
   0.33332993  0.66666907  0.10466433
   0.27805094  0.22256295  0.46733149
   0.44464908  0.05538139  0.46728942
   0.27773469  0.72226431  0.46725888
   0.44443995  0.55555905  0.46730442
   0.77750892  0.22249008  0.46731976
   0.94444948  0.05554952  0.46736141
   0.77743605  0.72194806  0.46733149
   0.94461761  0.55534992  0.46728942
Direct configuration=    11
   0.67040075 -0.00000342  0.10455423
   0.32961770  0.00000927  0.10456021
   0.00000342  0.32959825  0.10455423
  -0.00000927  0.67038130  0.10456021
   0.32962160  0.32962807  0.10456339
   0.67037093  0.67037740  0.10456339
   0.66666114  0.33333786  0.10095068
   0.33332701  0.66667199  0.10860835
   0.27833294  0.22291346  0.46502736
   0.44485955  0.05520312  0.46494263
   0.27769130  0.72230770  0.46488112
   0.44443535  0.55556365  0.46497284
   0.77723335  0.22276565  0.46500374
   0.94445470  0.05554430  0.46508762
   0.77708554  0.72166606  0.46502736
   0.94479588  0.55513945  0.46494263
Direct configuration=    12
   0.67039600 -0.00000689  0.10914399
   0.32964203  0.00001866  0.10915599
   0.00000689  0.32960300  0.10914399
  -0.00001866  0.67035697  0.10915599
   0.32965001  0.32966305  0.10916237
   0.67033595  0.67034899  0.10916237
   0.66665617  0.33334283  0.10269559
   0.33332117  0.66667783  0.11649638
   0.27889692  0.22361448  0.46041911
   0.44528048  0.05484658  0.46024904
   0.27760452  0.72239448  0.46012560
   0.44442615  0.55557285  0.46030968
   0.77668220  0.22331680  0.46037171
   0.94446515  0.05553385  0.46054004
   0.77638452  0.72110208  0.46041911
   0.94515242  0.55471852  0.46024904
Direct configuration=    13
   0.67038650 -0.00001381  0.11832350
   0.32969067  0.00003744  0.11834756
   0.00001381  0.32961250  0.11832350
  -0.00003744  0.67030833  0.11834756
   0.32970683  0.32973302  0.11836035
   0.67026598  0.67029217  0.11836035
   0.66664623  0.33335277  0.10618542
   0.33330950  0.66668950  0.13227243
   0.28002489  0.22501653  0.45120260
   0.44612234  0.05413351  0.45086185
   0.27743096  0.72256804  0.45061455
   0.44440774  0.55559126  0.45098336
   0.77557990  0.22441910  0.45110763
   0.94448604  0.05551296  0.45144488
   0.77498247  0.71997411  0.45120260
   0.94586549  0.55387666  0.45086185
Direct configuration=    14
   0.67039218 -0.00000967  0.11283109
   0.32966156  0.00002621  0.11284794
   0.00000967  0.32960682  0.11283109
  -0.00002621  0.67033744  0.11284794
   0.32967283  0.32969116  0.11285689
   0.67030784  0.67032617  0.11285689
   0.66665218  0.33334682  0.10409734
   0.33331648  0.66668252  0.12283309
   0.27934999  0.22417764  0.45671715
   0.44561862  0.05456017  0.45647852
   0.27753480  0.72246420  0.45630533
   0.44441875  0.55558025  0.45656361
   0.77623944  0.22375956  0.45665064
   0.94447354  0.05552546  0.45688682
   0.77582136  0.72064901  0.45671715
   0.94543883  0.55438038  0.45647852
Direct configuration=    15
   0.67039218 -0.00000967  0.11283185
   0.32966157  0.00002621  0.11284870
   0.00000967  0.32960682  0.11283185
  -0.00002621  0.67033743  0.11284870
   0.32967284  0.32969117  0.11285766
   0.67030783  0.67032616  0.11285766
   0.66665218  0.33334682  0.10409763
   0.33331648  0.66668252  0.12283440
   0.27935004  0.22417769  0.45671638
   0.44561865  0.05456014  0.45647774
   0.27753480  0.72246420  0.45630454
   0.44441875  0.55558025  0.45656284
   0.77623940  0.22375960  0.45664987
   0.94447354  0.05552546  0.45688607
   0.77582131  0.72064896  0.45671638
   0.94543886  0.55438035  0.45647774
Direct configuration=    16
   0.67039215 -0.00000968  0.11283413
   0.32966160  0.00002621  0.11285098
   0.00000968  0.32960685  0.11283413
  -0.00002621  0.67033740  0.11285098
   0.32967287  0.32969121  0.11285994
   0.67030779  0.67032613  0.11285994
   0.66665217  0.33334683  0.10409849
   0.33331648  0.66668252  0.12283832
   0.27935018  0.22417783  0.45671409
   0.44561872  0.05456007  0.45647541
   0.27753480  0.72246420  0.45630218
   0.44441873  0.55558027  0.45656052
   0.77623930  0.22375970  0.45664757
   0.94447352  0.05552548  0.45688380
   0.77582117  0.72064882  0.45671409
   0.94543893  0.55438028  0.45647541
Direct configuration=    17
   0.67039210 -0.00000969  0.11283870
   0.32966166  0.00002620  0.11285556
   0.00000969  0.32960690  0.11283870
  -0.00002620  0.67033734  0.11285556
   0.32967293  0.32969128  0.11286452
   0.67030772  0.67032607  0.11286452
   0.66665217  0.33334683  0.10410022
   0.33331647  0.66668253  0.12284616
   0.27935046  0.22417811  0.45670951
   0.44561887  0.05455993  0.45647074
   0.27753479  0.72246421  0.45629746
   0.44441868  0.55558032  0.45655589
   0.77623908  0.22375992  0.45664296
   0.94447350  0.05552550  0.45687927
   0.77582089  0.72064854  0.45670951
   0.94543907  0.55438013  0.45647074
Direct configuration=    18
   0.67039200 -0.00000971  0.11284783
   0.32966177  0.00002620  0.11286470
   0.00000971  0.32960700  0.11284783
  -0.00002620  0.67033723  0.11286470
   0.32967305  0.32969143  0.11287366
   0.67030757  0.67032595  0.11287366
   0.66665217  0.33334683  0.10410368
   0.33331646  0.66668254  0.12286185
   0.27935103  0.22417866  0.45670034
   0.44561917  0.05455965  0.45646142
   0.27753477  0.72246423  0.45628801
   0.44441860  0.55558040  0.45654661
   0.77623864  0.22376036  0.45663375
   0.94447345  0.05552555  0.45687022
   0.77582034  0.72064797  0.45670034
   0.94543935  0.55437983  0.45646142
Direct configuration=    19
   0.67039180 -0.00000976  0.11286609
   0.32966198  0.00002619  0.11288298
   0.00000976  0.32960720  0.11286609
  -0.00002619  0.67033702  0.11288298
   0.32967328  0.32969172  0.11289196
   0.67030728  0.67032572  0.11289196
   0.66665215  0.33334685  0.10411060
   0.33331644  0.66668256  0.12289323
   0.27935217  0.22417978  0.45668200
   0.44561976  0.05455909  0.45644276
   0.27753474  0.72246426  0.45626913
   0.44441844  0.55558056  0.45652807
   0.77623777  0.22376123  0.45661532
   0.94447335  0.05552565  0.45685210
   0.77581922  0.72064683  0.45668200
   0.94543991  0.55437924  0.45644276
Direct configuration=    20
   0.67039140 -0.00000986  0.11290260
   0.32966242  0.00002616  0.11291954
   0.00000986  0.32960760  0.11290260
  -0.00002616  0.67033658  0.11291954
   0.32967376  0.32969231  0.11292854
   0.67030669  0.67032524  0.11292854
   0.66665213  0.33334687  0.10412443
   0.33331639  0.66668261  0.12295598
   0.27935445  0.22418201  0.45664532
   0.44562095  0.05455796  0.45640545
   0.27753467  0.72246433  0.45623135
   0.44441812  0.55558088  0.45649098
   0.77623603  0.22376297  0.45657847
   0.94447316  0.05552584  0.45681587
   0.77581699  0.72064455  0.45664532
   0.94544104  0.55437805  0.45640545
Direct configuration=    21
   0.67039059 -0.00001006  0.11297563
   0.32966330  0.00002611  0.11299267
   0.00001006  0.32960841  0.11297563
  -0.00002611  0.67033570  0.11299267
   0.32967470  0.32969349  0.11300172
   0.67030551  0.67032430  0.11300172
   0.66665208  0.33334692  0.10415211
   0.33331630  0.66668270  0.12308149
   0.27935901  0.22418648  0.45657197
   0.44562333  0.05455571  0.45633082
   0.27753454  0.72246446  0.45615581
   0.44441746  0.55558154  0.45641680
   0.77623255  0.22376645  0.45650476
   0.94447276  0.05552624  0.45674342
   0.77581252  0.72063999  0.45657197
   0.94544329  0.55437567  0.45633082
Direct configuration=    22
   0.67038898 -0.00001046  0.11312170
   0.32966506  0.00002602  0.11313892
   0.00001046  0.32961002  0.11312170
  -0.00002602  0.67033394  0.11313892
   0.32967659  0.32969584  0.11314807
   0.67030316  0.67032241  0.11314807
   0.66665197  0.33334703  0.10420745
   0.33331611  0.66668289  0.12333249
   0.27936812  0.22419541  0.45642526
   0.44562808  0.05455121  0.45618157
   0.27753428  0.72246472  0.45600472
   0.44441616  0.55558284  0.45626844
   0.77622558  0.22377342  0.45635735
   0.94447198  0.05552702  0.45659850
   0.77580359  0.72063088  0.45642526
   0.94544779  0.55437092  0.45618157
Direct configuration=    23
   0.67038576 -0.00001126  0.11341382
   0.32966858  0.00002583  0.11343143
   0.00001126  0.32961324  0.11341382
  -0.00002583  0.67033042  0.11343143
   0.32968036  0.32970055  0.11344078
   0.67029845  0.67031864  0.11344078
   0.66665177  0.33334723  0.10431814
   0.33331574  0.66668326  0.12383451
   0.27938634  0.22421327  0.45613185
   0.44563758  0.05454220  0.45588306
   0.27753375  0.72246525  0.45570253
   0.44441356  0.55558544  0.45597172
   0.77621164  0.22378736  0.45606253
   0.94447041  0.05552859  0.45630868
   0.77578573  0.72061266  0.45613185
   0.94545680  0.55436142  0.45588306
Direct configuration=    24
   0.67037931 -0.00001286  0.11399808
   0.32967561  0.00002546  0.11401645
   0.00001286  0.32961969  0.11399808
  -0.00002546  0.67032339  0.11401645
   0.32968791  0.32970997  0.11402619
   0.67028903  0.67031109  0.11402619
   0.66665136  0.33334764  0.10453951
   0.33331499  0.66668401  0.12483855
   0.27942278  0.22424899  0.45554502
   0.44565659  0.05452419  0.45528605
   0.27753270  0.72246630  0.45509817
   0.44440836  0.55559064  0.45537829
   0.77618377  0.22381523  0.45547288
   0.94446727  0.05553173  0.45572903
   0.77575001  0.72057622  0.45554502
   0.94547481  0.55434241  0.45528605
Direct configuration=    25
   0.67036642 -0.00001605  0.11516659
   0.32968967  0.00002470  0.11518648
   0.00001605  0.32963258  0.11516659
  -0.00002470  0.67030933  0.11518648
   0.32970300  0.32972881  0.11519702
   0.67027019  0.67029600  0.11519702
   0.66665053  0.33334847  0.10498226
   0.33331349  0.66668551  0.12684662
   0.27949567  0.22432042  0.45437136
   0.44569461  0.05448817  0.45409203
   0.27753059  0.72246841  0.45388943
   0.44439795  0.55560105  0.45419141
   0.77612804  0.22387096  0.45429359
   0.94446099  0.05553801  0.45456973
   0.77567858  0.72050333  0.45437136
   0.94551083  0.55430439  0.45409203
Direct configuration=    26
   0.67034064 -0.00002243  0.11750360
   0.32971779  0.00002320  0.11752655
   0.00002243  0.32965836  0.11750360
  -0.00002320  0.67028121  0.11752655
   0.32973319  0.32976650  0.11753867
   0.67023250  0.67026581  0.11753867
   0.66664889  0.33335011  0.10586776
   0.33331050  0.66668850  0.13086276
   0.27964145  0.22446330  0.45202404
   0.44577064  0.05441614  0.45170399
   0.27752637  0.72247263  0.45147196
   0.44437713  0.55562187  0.45181767
   0.77601656  0.22398244  0.45193501
   0.94444844  0.05555056  0.45225113
   0.77553570  0.72035755  0.45202404
   0.94558286  0.55422836  0.45170399
Direct configuration=    27
   0.67028907 -0.00003520  0.12217763
   0.32977404  0.00002018  0.12220668
   0.00003520  0.32970993  0.12217763
  -0.00002018  0.67022496  0.12220668
   0.32979357  0.32984186  0.12222196
   0.67015714  0.67020543  0.12222196
   0.66664559  0.33335341  0.10763876
   0.33330452  0.66669448  0.13889505
   0.27993300  0.22474905  0.44732941
   0.44592271  0.05427206  0.44692791
   0.27751794  0.72248106  0.44663703
   0.44433549  0.55566351  0.44707018
   0.77579360  0.22420540  0.44721785
   0.94442332  0.05557568  0.44761394
   0.77524995  0.72006600  0.44732941
   0.94572694  0.55407629  0.44692791
Direct configuration=    28
   0.67018594 -0.00006073  0.13152570
   0.32988653  0.00001416  0.13156695
   0.00006073  0.32981306  0.13152570
  -0.00001416  0.67011247  0.13156695
   0.32991432  0.32999259  0.13158856
   0.67000641  0.67008468  0.13158856
   0.66663901  0.33335999  0.11118076
   0.33329255  0.66670645  0.15495962
   0.28051611  0.22532056  0.43794014
   0.44622684  0.05398390  0.43737575
   0.27750107  0.72249793  0.43696715
   0.44425221  0.55574679  0.43757521
   0.77534769  0.22465131  0.43778352
   0.94437310  0.05562590  0.43833954
   0.77467844  0.71948289  0.43794014
   0.94601510  0.55377216  0.43737575
Direct configuration=    29
   0.67025999 -0.00004240  0.12481366
   0.32980576  0.00001848  0.12484615
   0.00004240  0.32973901  0.12481366
  -0.00001848  0.67019324  0.12484615
   0.32982762  0.32988436  0.12486321
   0.67011464  0.67017138  0.12486321
   0.66664374  0.33335526  0.10863756
   0.33330114  0.66669786  0.14342504
   0.28009743  0.22491021  0.44468176
   0.44600847  0.05419080  0.44423433
   0.27751318  0.72248582  0.44391026
   0.44431200  0.55568700  0.44439273
   0.77566786  0.22433114  0.44455750
   0.94440916  0.05558984  0.44499869
   0.77508879  0.71990157  0.44468176
   0.94580820  0.55399053  0.44423433
Direct configuration=    30
   0.67015674 -0.00006106  0.12621556
   0.32989046  0.00000002  0.12624984
   0.00006106  0.32984226  0.12621556
  -0.00000002  0.67010854  0.12624984
   0.32991349  0.32998859  0.12626773
   0.67001041  0.67008551  0.12626773
   0.66664407  0.33335493  0.10917238
   0.33329946  0.66669954  0.14581948
   0.27996828  0.22469571  0.44327258
   0.44586514  0.05429868  0.44280603
   0.27755843  0.72244057  0.44246824
   0.44428805  0.55571095  0.44297067
   0.77583673  0.22416227  0.44314326
   0.94438598  0.05561302  0.44360251
   0.77530329  0.72003072  0.44327258
   0.94570032  0.55413386  0.44280603
Direct configuration=    31
   0.66984700 -0.00011706  0.13042125
   0.33014457 -0.00005536  0.13046091
   0.00011706  0.33015200  0.13042125
   0.00005536  0.66985443  0.13046091
   0.33017111  0.33030126  0.13048126
   0.66969774  0.66982789  0.13048126
   0.66664508  0.33335392  0.11077684
   0.33329441  0.66670459  0.15300282
   0.27958084  0.22405222  0.43904504
   0.44543514  0.05462233  0.43852111
   0.27769416  0.72230484  0.43814220
   0.44421620  0.55578280  0.43870447
   0.77634334  0.22365566  0.43890056
   0.94431644  0.05568256  0.43941396
   0.77594678  0.72041816  0.43904504
   0.94537667  0.55456386  0.43852111
Direct configuration=    32
   0.66922752 -0.00022904  0.13883265
   0.33065279 -0.00016611  0.13888306
   0.00022904  0.33077148  0.13883265
   0.00016611  0.66934621  0.13888306
   0.33068634  0.33092661  0.13890833
   0.66907239  0.66931266  0.13890833
   0.66664709  0.33335191  0.11398577
   0.33328432  0.66671468  0.16736949
   0.27880594  0.22276522  0.43058994
   0.44457514  0.05526962  0.42995127
   0.27796564  0.72203336  0.42949012
   0.44407250  0.55592650  0.43017207
   0.77735656  0.22264244  0.43041515
   0.94417735  0.05582165  0.43103687
   0.77723378  0.72119306  0.43058994
   0.94472938  0.55542386  0.42995127
Direct configuration=    33
   0.66967734 -0.00014773  0.13272499
   0.33028376 -0.00008569  0.13276759
   0.00014773  0.33032166  0.13272499
   0.00008569  0.66971524  0.13276759
   0.33031222  0.33047253  0.13278929
   0.66952647  0.66968678  0.13278929
   0.66664563  0.33335337  0.11165571
   0.33329165  0.66670735  0.15693759
   0.27936861  0.22369973  0.43672934
   0.44519960  0.05479961  0.43617398
   0.27776851  0.72223049  0.43577255
   0.44417684  0.55582216  0.43636760
   0.77662084  0.22337816  0.43657656
   0.94427835  0.05572065  0.43711963
   0.77629927  0.72063039  0.43672934
   0.94519939  0.55479940  0.43617398
Direct configuration=    34
   0.66954002 -0.00017141  0.13222951
   0.33038817 -0.00011353  0.13227133
   0.00017141  0.33045898  0.13222951
   0.00011353  0.66961083  0.13227133
   0.33041509  0.33059682  0.13229240
   0.66940218  0.66958391  0.13229240
   0.66664757  0.33335143  0.11151681
   0.33329304  0.66670596  0.15600595
   0.27911878  0.22346565  0.43722590
   0.44507926  0.05491744  0.43668995
   0.27776837  0.72223063  0.43630264
   0.44422209  0.55577691  0.43687625
   0.77680354  0.22319546  0.43707845
   0.94430393  0.05569507  0.43760172
   0.77653335  0.72088022  0.43722590
   0.94508156  0.55491974  0.43668995
Direct configuration=    35
   0.66912806 -0.00024245  0.13074310
   0.33070139 -0.00019707  0.13078254
   0.00024245  0.33087094  0.13074310
   0.00019707  0.66929761  0.13078254
   0.33072368  0.33096967  0.13080174
   0.66902933  0.66927532  0.13080174
   0.66665338  0.33334562  0.11110009
   0.33329721  0.66670179  0.15321104
   0.27836929  0.22276339  0.43871560
   0.44471824  0.05527091  0.43823785
   0.27776794  0.72223106  0.43789291
   0.44435782  0.55564118  0.43840220
   0.77735164  0.22264736  0.43858411
   0.94438068  0.05561832  0.43904799
   0.77723561  0.72162971  0.43871560
   0.94472809  0.55528076  0.43823785
Direct configuration=    36
   0.66830414 -0.00038454  0.12777028
   0.33132784 -0.00036414  0.12780498
   0.00038454  0.33169486  0.12777028
   0.00036414  0.66867116  0.12780498
   0.33134086  0.33171537  0.12782042
   0.66828363  0.66865814  0.12782042
   0.66666501  0.33333399  0.11026667
   0.33330555  0.66669345  0.14762121
   0.27687032  0.22135888  0.44169500
   0.44399621  0.05597787  0.44133364
   0.27776708  0.72223192  0.44107344
   0.44462929  0.55536971  0.44145410
   0.77844785  0.22155115  0.44159544
   0.94453419  0.05546481  0.44194054
   0.77864012  0.72312868  0.44169500
   0.94402113  0.55600279  0.44133364
Direct configuration=    37
   0.66874341 -0.00030879  0.12935524
   0.33099385 -0.00027506  0.12939247
   0.00030879  0.33125559  0.12935524
   0.00027506  0.66900515  0.12939247
   0.33101181  0.33131780  0.12940991
   0.66868120  0.66898719  0.12940991
   0.66665881  0.33334019  0.11071101
   0.33330110  0.66669790  0.15060143
   0.27766949  0.22210770  0.44010653
   0.44438116  0.05560096  0.43968312
   0.27776754  0.72223146  0.43937774
   0.44448456  0.55551444  0.43982698
   0.77786341  0.22213559  0.43998995
   0.94445235  0.05554665  0.44039838
   0.77789130  0.72232951  0.44010653
   0.94439804  0.55561784  0.43968312
Direct configuration=    38
   0.66867318 -0.00029680  0.12937181
   0.33106767 -0.00026673  0.12940875
   0.00029680  0.33132582  0.12937181
   0.00026673  0.66893133  0.12940875
   0.33108370  0.33137718  0.12942582
   0.66862182  0.66891530  0.12942582
   0.66666029  0.33333871  0.11076802
   0.33330405  0.66669495  0.15053451
   0.27771387  0.22215673  0.44008554
   0.44441298  0.05557977  0.43968274
   0.27777183  0.72222717  0.43939251
   0.44447262  0.55552638  0.43981883
   0.77782352  0.22217548  0.43997410
   0.94445134  0.05554766  0.44036271
   0.77784227  0.72228513  0.44008554
   0.94441923  0.55558602  0.43968274
Direct configuration=    39
   0.66846247 -0.00026085  0.12942153
   0.33128914 -0.00024173  0.12945761
   0.00026085  0.33153653  0.12942153
   0.00024173  0.66870986  0.12945761
   0.33129937  0.33155533  0.12947355
   0.66844367  0.66869963  0.12947355
   0.66666472  0.33333428  0.11093905
   0.33331291  0.66668609  0.15033375
   0.27784699  0.22230385  0.44002257
   0.44450845  0.05551622  0.43968160
   0.27778470  0.72221430  0.43943682
   0.44443680  0.55556220  0.43979439
   0.77770384  0.22229516  0.43992657
   0.94444833  0.05555067  0.44025570
   0.77769515  0.72215201  0.44002257
   0.94448278  0.55549055  0.43968160
Direct configuration=    40
   0.66804107 -0.00018894  0.12952096
   0.33173207 -0.00019174  0.12955532
   0.00018894  0.33195793  0.12952096
   0.00019174  0.66826693  0.12955532
   0.33173070  0.33191163  0.12956901
   0.66808737  0.66826830  0.12956901
   0.66667357  0.33332543  0.11128112
   0.33333062  0.66666838  0.14993224
   0.27811323  0.22259807  0.43989662
   0.44469939  0.05538911  0.43967933
   0.27781043  0.72218857  0.43952544
   0.44436516  0.55563384  0.43974552
   0.77746449  0.22253451  0.43983152
   0.94444229  0.05555671  0.44004169
   0.77740093  0.72188577  0.43989662
   0.94460989  0.55529961  0.43967933
Direct configuration=    41
   0.66802333 -0.00018196  0.12954239
   0.33175101 -0.00018727  0.12957633
   0.00018196  0.33197567  0.12954239
   0.00018727  0.66824799  0.12957633
   0.33174803  0.33192234  0.12958963
   0.66807666  0.66825097  0.12958963
   0.66667395  0.33332505  0.11135523
   0.33333416  0.66666484  0.14984222
   0.27809777  0.22256822  0.43987054
   0.44467544  0.05540302  0.43967841
   0.27781203  0.72218697  0.43954255
   0.44436522  0.55563378  0.43973543
   0.77749117  0.22250783  0.43981198
   0.94443712  0.05556188  0.43999799
   0.77743078  0.72190123  0.43987054
   0.94459598  0.55532356  0.43967841
Direct configuration=    42
   0.66797011 -0.00016105  0.12960669
   0.33180783 -0.00017388  0.12963937
   0.00016105  0.33202889  0.12960669
   0.00017388  0.66819117  0.12963937
   0.33180004  0.33195446  0.12965148
   0.66804454  0.66819896  0.12965148
   0.66667508  0.33332392  0.11157756
   0.33334477  0.66665423  0.14957216
   0.27805141  0.22247866  0.43979230
   0.44460359  0.05544476  0.43967563
   0.27781681  0.72218219  0.43959390
   0.44436539  0.55563361  0.43970518
   0.77757123  0.22242777  0.43975337
   0.94442160  0.05557740  0.43986690
   0.77752034  0.72194759  0.43979230
   0.94455424  0.55539541  0.43967563
Direct configuration=    43
   0.66786367 -0.00011921  0.12973530
   0.33192147 -0.00014710  0.12976544
   0.00011921  0.33213533  0.12973530
   0.00014710  0.66807753  0.12976544
   0.33190404  0.33201871  0.12977517
   0.66798029  0.66809496  0.12977517
   0.66667733  0.33332167  0.11202223
   0.33336599  0.66663301  0.14903204
   0.27795867  0.22229953  0.43963582
   0.44445988  0.05552824  0.43967008
   0.27782638  0.72217262  0.43969658
   0.44436572  0.55563328  0.43964467
   0.77773133  0.22226767  0.43963615
   0.94439057  0.05560843  0.43960471
   0.77769947  0.72204033  0.43963582
   0.94447076  0.55553912  0.43967008
Direct configuration=    44
   0.66765080 -0.00003554  0.12999251
   0.33214874 -0.00009352  0.13001758
   0.00003554  0.33234820  0.12999251
   0.00009352  0.66785026  0.13001758
   0.33211205  0.33214721  0.13002256
   0.66785179  0.66788695  0.13002256
   0.66668184  0.33331716  0.11291156
   0.33340843  0.66659057  0.14795180
   0.27777320  0.22194128  0.43932287
   0.44417248  0.05569520  0.43965897
   0.27784553  0.72215347  0.43990195
   0.44436639  0.55563261  0.43952366
   0.77805154  0.22194746  0.43940171
   0.94432851  0.05567049  0.43908033
   0.77805772  0.72222580  0.43932287
   0.94430380  0.55582652  0.43965897
Direct configuration=    45
   0.66774788 -0.00007370  0.12987521
   0.33204509 -0.00011796  0.12990259
   0.00007370  0.33225112  0.12987521
   0.00011796  0.66795391  0.12990259
   0.33201718  0.33208861  0.12990974
   0.66791039  0.66798182  0.12990974
   0.66667979  0.33331921  0.11250598
   0.33338907  0.66660993  0.14844445
   0.27785779  0.22210466  0.43946559
   0.44430355  0.05561906  0.43966404
   0.27783680  0.72216220  0.43980829
   0.44436609  0.55563291  0.43957885
   0.77790551  0.22209349  0.43950863
   0.94435681  0.05564219  0.43931948
   0.77789434  0.72214121  0.43946559
   0.94437994  0.55569545  0.43966404
Direct configuration=    46
   0.66807091 -0.00006862  0.12995823
   0.33174164 -0.00011021  0.12998392
   0.00006862  0.33192809  0.12995823
   0.00011021  0.66825736  0.12998392
   0.33171596  0.33178859  0.12999023
   0.66821041  0.66828304  0.12999023
   0.66667299  0.33332601  0.11277377
   0.33339168  0.66660732  0.14812644
   0.27773191  0.22211210  0.43937890
   0.44435415  0.05560310  0.43964123
   0.27777870  0.72222030  0.43982828
   0.44444238  0.55555662  0.43953554
   0.77788159  0.22211741  0.43944054
   0.94442794  0.05557106  0.43919041
   0.77788690  0.72226709  0.43937890
   0.94439590  0.55564485  0.43964123
Direct configuration=    47
   0.66875573 -0.00005785  0.13013423
   0.33109831 -0.00009380  0.13015634
   0.00005785  0.33124327  0.13013423
   0.00009380  0.66890069  0.13015634
   0.33107737  0.33115254  0.13016087
   0.66884646  0.66892163  0.13016087
   0.66665859  0.33334041  0.11334149
   0.33339722  0.66660178  0.14745224
   0.27746505  0.22212787  0.43919511
   0.44446143  0.05556929  0.43959289
   0.27765552  0.72234348  0.43987067
   0.44460413  0.55539487  0.43944374
   0.77783087  0.22216813  0.43929621