   8   8   0  16
  0.4338553E+02  0.5169000E-09  0.5169000E-09  0.1500000E-08  0.5000000E-15
  1.000000000000000E-004
  CAR 
 Lattice                                 
      6.55863477    -21.14398056  301     -3.47630750      1.00000000
    -21.144  0.0000E+00  0.0000E+00
    -21.052  0.0000E+00  0.0000E+00
    -20.959  0.0000E+00  0.0000E+00
    -20.867  0.0000E+00  0.0000E+00
    -20.775  0.0000E+00  0.0000E+00
    -20.682  0.0000E+00  0.0000E+00
    -20.590  0.0000E+00  0.0000E+00
    -20.498  0.0000E+00  0.0000E+00
    -20.405  0.1327E-15  0.1226E-16
    -20.313  0.1223E-11  0.1130E-12
    -20.221  0.2210E-08  0.2042E-09
    -20.128  0.8112E-06  0.7511E-07
    -20.036  0.6416E-04  0.6000E-05
    -19.944  0.1208E-02  0.1176E-03
    -19.851  0.6424E-02  0.7108E-03
    -19.759  0.1299E-01  0.1911E-02
    -19.667  0.1590E-01  0.3379E-02
    -19.574  0.1759E-01  0.5004E-02
    -19.482  0.2036E-01  0.6884E-02
    -19.389  0.2648E-01  0.9330E-02
    -19.297  0.3389E-01  0.1246E-01
    -19.205  0.2572E-01  0.1483E-01
    -19.112  0.7792E-02  0.1555E-01
    -19.020  0.7531E-03  0.1562E-01
    -18.928  0.1940E-04  0.1562E-01
    -18.835  0.1158E-06  0.1562E-01
    -18.743  0.1465E-09  0.1562E-01
    -18.651  0.3720E-13  0.1562E-01
    -18.558  0.1631E-17  0.1562E-01
    -18.466  0.0000E+00  0.1562E-01
    -18.374  0.0000E+00  0.1562E-01
    -18.281  0.0000E+00  0.1562E-01
    -18.189  0.4683E-18  0.1562E-01
    -18.097  0.1163E-13  0.1563E-01
    -18.004  0.5321E-10  0.1563E-01
    -17.912  0.4838E-07  0.1563E-01
    -17.820  0.9137E-05  0.1563E-01
    -17.727  0.3862E-03  0.1566E-01
    -17.635  0.4150E-02  0.1604E-01
    -17.543  0.1420E-01  0.1736E-01
    -17.450  0.2288E-01  0.1947E-01
    -17.358  0.2516E-01  0.2179E-01
    -17.266  0.1992E-01  0.2363E-01
    -17.173  0.1510E-01  0.2503E-01
    -17.081  0.1441E-01  0.2636E-01
    -16.989  0.1486E-01  0.2773E-01
    -16.896  0.1551E-01  0.2916E-01
    -16.804  0.1639E-01  0.3067E-01
    -16.712  0.1763E-01  0.3230E-01
    -16.619  0.1967E-01  0.3412E-01
    -16.527  0.2360E-01  0.3630E-01
    -16.435  0.2787E-01  0.3887E-01
    -16.342  0.2557E-01  0.4123E-01
    -16.250  0.1984E-01  0.4307E-01
    -16.158  0.1613E-01  0.4456E-01
    -16.065  0.1334E-01  0.4579E-01
    -15.973  0.8698E-02  0.4659E-01
    -15.880  0.2778E-02  0.4685E-01
    -15.788  0.2909E-03  0.4687E-01
    -15.696  0.7885E-05  0.4687E-01
    -15.603  0.4836E-07  0.4687E-01
    -15.511  0.6200E-10  0.4687E-01
    -15.419  0.1586E-13  0.4687E-01
    -15.326  0.7517E-18  0.4687E-01
    -15.234  0.0000E+00  0.4687E-01
    -15.142  0.0000E+00  0.4687E-01
    -15.049  0.0000E+00  0.4687E-01
    -14.957  0.0000E+00  0.4687E-01
    -14.865  0.0000E+00  0.4687E-01
    -14.772  0.3469E-19  0.4687E-01
    -14.680  0.2458E-14  0.4687E-01
    -14.588  0.1396E-10  0.4688E-01
    -14.495  0.1568E-07  0.4688E-01
    -14.403  0.3632E-05  0.4688E-01
    -14.311  0.1858E-03  0.4689E-01
    -14.218  0.2361E-02  0.4711E-01
    -14.126  0.9116E-02  0.4795E-01
    -14.034  0.1521E-01  0.4936E-01
    -13.941  0.1783E-01  0.5100E-01
    -13.849  0.2056E-01  0.5290E-01
    -13.757  0.2548E-01  0.5525E-01
    -13.664  0.2723E-01  0.5777E-01
    -13.572  0.2011E-01  0.5963E-01
    -13.480  0.1416E-01  0.6093E-01
    -13.387  0.1222E-01  0.6206E-01
    -13.295  0.1143E-01  0.6312E-01
    -13.203  0.1091E-01  0.6412E-01
    -13.110  0.1051E-01  0.6510E-01
    -13.018  0.1017E-01  0.6603E-01
    -12.926  0.9893E-02  0.6695E-01
    -12.833  0.1010E-01  0.6788E-01
    -12.741  0.1193E-01  0.6898E-01
    -12.649  0.1490E-01  0.7036E-01
    -12.556  0.1562E-01  0.7180E-01
    -12.464  0.1477E-01  0.7316E-01
    -12.371  0.1379E-01  0.7444E-01
    -12.279  0.1285E-01  0.7562E-01
    -12.187  0.1208E-01  0.7674E-01
    -12.094  0.1143E-01  0.7780E-01
    -12.002  0.1082E-01  0.7879E-01
    -11.910  0.9767E-02  0.7970E-01
    -11.817  0.7052E-02  0.8035E-01
    -11.725  0.4284E-02  0.8074E-01
    -11.633  0.3534E-02  0.8107E-01
    -11.540  0.3563E-02  0.8140E-01
    -11.448  0.3658E-02  0.8174E-01
    -11.356  0.3804E-02  0.8209E-01
    -11.263  0.4374E-02  0.8249E-01
    -11.171  0.5595E-02  0.8301E-01
    -11.079  0.6456E-02  0.8360E-01
    -10.986  0.6909E-02  0.8424E-01
    -10.894  0.8160E-02  0.8500E-01
    -10.802  0.1045E-01  0.8596E-01
    -10.709  0.1201E-01  0.8707E-01
    -10.617  0.1284E-01  0.8826E-01
    -10.525  0.1364E-01  0.8951E-01
    -10.432  0.1471E-01  0.9087E-01
    -10.340  0.1653E-01  0.9240E-01
    -10.248  0.1831E-01  0.9409E-01
    -10.155  0.1603E-01  0.9557E-01
    -10.063  0.1184E-01  0.9666E-01
     -9.971  0.1017E-01  0.9760E-01
     -9.878  0.1375E-01  0.9887E-01
     -9.786  0.2067E-01  0.1008E+00
     -9.694  0.2114E-01  0.1027E+00
     -9.601  0.1817E-01  0.1044E+00
     -9.509  0.1635E-01  0.1059E+00
     -9.417  0.1503E-01  0.1073E+00
     -9.324  0.1458E-01  0.1087E+00
     -9.232  0.1478E-01  0.1100E+00
     -9.140  0.1578E-01  0.1115E+00
     -9.047  0.1743E-01  0.1131E+00
     -8.955  0.1926E-01  0.1149E+00
     -8.862  0.2052E-01  0.1168E+00
     -8.770  0.1951E-01  0.1186E+00
     -8.678  0.2001E-01  0.1204E+00
     -8.585  0.2297E-01  0.1225E+00
     -8.493  0.2320E-01  0.1247E+00
     -8.401  0.2003E-01  0.1265E+00
     -8.308  0.1722E-01  0.1281E+00
     -8.216  0.1563E-01  0.1296E+00
     -8.124  0.1597E-01  0.1310E+00
     -8.031  0.1973E-01  0.1329E+00
     -7.939  0.2457E-01  0.1351E+00
     -7.847  0.3053E-01  0.1379E+00
     -7.754  0.3429E-01  0.1411E+00
     -7.662  0.3410E-01  0.1443E+00
     -7.570  0.3296E-01  0.1473E+00
     -7.477  0.2577E-01  0.1497E+00
     -7.385  0.1675E-01  0.1512E+00
     -7.293  0.1328E-01  0.1525E+00
     -7.200  0.1632E-01  0.1540E+00
     -7.108  0.1618E-01  0.1555E+00
     -7.016  0.1369E-01  0.1567E+00
     -6.923  0.1268E-01  0.1579E+00
     -6.831  0.1261E-01  0.1591E+00
     -6.739  0.1351E-01  0.1603E+00
     -6.646  0.1742E-01  0.1619E+00
     -6.554  0.2593E-01  0.1643E+00
     -6.462  0.3921E-01  0.1679E+00
     -6.369  0.5871E-01  0.1733E+00
     -6.277  0.6046E-01  0.1789E+00
     -6.185  0.4408E-01  0.1830E+00
     -6.092  0.3122E-01  0.1859E+00
     -6.000  0.2192E-01  0.1879E+00
     -5.908  0.1839E-01  0.1896E+00
     -5.815  0.1829E-01  0.1913E+00
     -5.723  0.1875E-01  0.1930E+00
     -5.631  0.1935E-01  0.1948E+00
     -5.538  0.2005E-01  0.1967E+00
     -5.446  0.2091E-01  0.1986E+00
     -5.353  0.2196E-01  0.2006E+00
     -5.261  0.2333E-01  0.2028E+00
     -5.169  0.2527E-01  0.2051E+00
     -5.076  0.2839E-01  0.2077E+00
     -4.984  0.3201E-01  0.2107E+00
     -4.892  0.3349E-01  0.2138E+00
     -4.799  0.3551E-01  0.2171E+00
     -4.707  0.3754E-01  0.2205E+00
     -4.615  0.3451E-01  0.2237E+00
     -4.522  0.2918E-01  0.2264E+00
     -4.430  0.2022E-01  0.2283E+00
     -4.338  0.1224E-01  0.2294E+00
     -4.245  0.9944E-02  0.2303E+00
     -4.153  0.9482E-02  0.2312E+00
     -4.061  0.9173E-02  0.2320E+00
     -3.968  0.8880E-02  0.2329E+00
     -3.876  0.8287E-02  0.2336E+00
     -3.784  0.5876E-02  0.2342E+00
     -3.691  0.1988E-02  0.2344E+00
     -3.599  0.2178E-03  0.2344E+00
     -3.507  0.6152E-05  0.2344E+00
     -3.414  0.3135E-06  0.2344E+00
     -3.322  0.2694E-04  0.2344E+00
     -3.230  0.6202E-03  0.2344E+00
     -3.137  0.3922E-02  0.2348E+00
     -3.045  0.9003E-02  0.2356E+00
     -2.953  0.1172E-01  0.2367E+00
     -2.860  0.1324E-01  0.2379E+00
     -2.768  0.1535E-01  0.2394E+00
     -2.676  0.1902E-01  0.2411E+00
     -2.583  0.2118E-01  0.2431E+00
     -2.491  0.1741E-01  0.2447E+00
     -2.399  0.1283E-01  0.2459E+00
     -2.306  0.1014E-01  0.2468E+00
     -2.214  0.8356E-02  0.2476E+00
     -2.122  0.6988E-02  0.2482E+00
     -2.029  0.5770E-02  0.2487E+00
     -1.937  0.4354E-02  0.2491E+00
     -1.844  0.2997E-02  0.2494E+00
     -1.752  0.2212E-02  0.2496E+00
     -1.660  0.1691E-02  0.2498E+00
     -1.567  0.1211E-02  0.2499E+00
     -1.475  0.7503E-03  0.2500E+00
     -1.383  0.3807E-03  0.2500E+00
     -1.290  0.3311E-03  0.2500E+00
     -1.198  0.6506E-03  0.2501E+00
     -1.106  0.1109E-02  0.2502E+00
     -1.013  0.1596E-02  0.2503E+00
     -0.921  0.2108E-02  0.2505E+00
     -0.829  0.2654E-02  0.2508E+00
     -0.736  0.3249E-02  0.2511E+00
     -0.644  0.3913E-02  0.2514E+00
     -0.552  0.4677E-02  0.2519E+00
     -0.459  0.5593E-02  0.2524E+00
     -0.367  0.6834E-02  0.2530E+00
     -0.275  0.9566E-02  0.2539E+00
     -0.182  0.1677E-01  0.2555E+00
     -0.090  0.2390E-01  0.2577E+00
      0.002  0.2134E-01  0.2596E+00
      0.095  0.1594E-01  0.2611E+00
      0.187  0.1303E-01  0.2623E+00
      0.279  0.1144E-01  0.2634E+00
      0.372  0.1066E-01  0.2643E+00
      0.464  0.1108E-01  0.2654E+00
      0.556  0.1183E-01  0.2665E+00
      0.649  0.1136E-01  0.2675E+00
      0.741  0.9548E-02  0.2684E+00
      0.833  0.8946E-02  0.2692E+00
      0.926  0.1185E-01  0.2703E+00
      1.018  0.1409E-01  0.2716E+00
      1.110  0.1474E-01  0.2730E+00
      1.203  0.1515E-01  0.2744E+00
      1.295  0.1564E-01  0.2758E+00
      1.387  0.1628E-01  0.2773E+00
      1.480  0.1730E-01  0.2789E+00
      1.572  0.1865E-01  0.2806E+00
      1.665  0.1892E-01  0.2824E+00
      1.757  0.1827E-01  0.2841E+00
      1.849  0.1937E-01  0.2859E+00
      1.942  0.2219E-01  0.2879E+00
      2.034  0.2345E-01  0.2901E+00
      2.126  0.2345E-01  0.2922E+00
      2.219  0.2399E-01  0.2945E+00
      2.311  0.2667E-01  0.2969E+00
      2.403  0.2954E-01  0.2996E+00
      2.496  0.3028E-01  0.3024E+00
      2.588  0.3021E-01  0.3052E+00
      2.680  0.3013E-01  0.3080E+00
      2.773  0.3002E-01  0.3108E+00
      2.865  0.2994E-01  0.3136E+00
      2.957  0.2988E-01  0.3163E+00
      3.050  0.2979E-01  0.3191E+00
      3.142  0.2974E-01  0.3218E+00
      3.234  0.2969E-01  0.3245E+00
      3.327  0.2966E-01  0.3273E+00
      3.419  0.2969E-01  0.3300E+00
      3.511  0.2968E-01  0.3328E+00
      3.604  0.2950E-01  0.3355E+00
      3.696  0.2955E-01  0.3382E+00
      3.788  0.2982E-01  0.3410E+00
      3.881  0.3041E-01  0.3438E+00
      3.973  0.3166E-01  0.3467E+00
      4.065  0.3104E-01  0.3496E+00
      4.158  0.2653E-01  0.3520E+00
      4.250  0.2373E-01  0.3542E+00
      4.342  0.2661E-01  0.3567E+00
      4.435  0.3061E-01  0.3595E+00
      4.527  0.2855E-01  0.3621E+00
      4.619  0.2260E-01  0.3642E+00
      4.712  0.1842E-01  0.3659E+00
      4.804  0.1781E-01  0.3676E+00
      4.896  0.2034E-01  0.3694E+00
      4.989  0.2160E-01  0.3714E+00
      5.081  0.1667E-01  0.3730E+00
      5.174  0.1149E-01  0.3740E+00
      5.266  0.7243E-02  0.3747E+00
      5.358  0.2697E-02  0.3750E+00
      5.451  0.4266E-03  0.3750E+00
      5.543  0.2200E-04  0.3750E+00
      5.635  0.2949E-06  0.3750E+00
      5.728  0.8850E-09  0.3750E+00
      5.820  0.5449E-12  0.3750E+00
      5.912  0.6560E-16  0.3750E+00
      6.005  0.0000E+00  0.3750E+00
      6.097  0.0000E+00  0.3750E+00
      6.189  0.0000E+00  0.3750E+00
      6.282  0.0000E+00  0.3750E+00
      6.374  0.0000E+00  0.3750E+00
      6.466  0.0000E+00  0.3750E+00
      6.559  0.0000E+00  0.3750E+00
