Automatically generated mesh
    1625
Reciprocal lattice
    0.00000000000000    0.00000000000000    0.00000000000000             1
    0.01754385964912    0.00000000000000    0.00000000000000             2
    0.00000000000000    0.01754385964912    0.00000000000000             2
   -0.01754385964912    0.01754385964912    0.00000000000000             2
    0.03508771929825    0.00000000000000    0.00000000000000             2
    0.00000000000000    0.03508771929825    0.00000000000000             2
   -0.03508771929825    0.03508771929825    0.00000000000000             2
    0.05263157894737   -0.00000000000000    0.00000000000000             2
   -0.00000000000000    0.05263157894737    0.00000000000000             2
   -0.05263157894737    0.05263157894737    0.00000000000000             2
    0.07017543859649    0.00000000000000    0.00000000000000             2
    0.00000000000000    0.07017543859649    0.00000000000000             2
   -0.07017543859649    0.07017543859649    0.00000000000000             2
    0.08771929824562    0.00000000000000    0.00000000000000             2
    0.00000000000000    0.08771929824562    0.00000000000000             2
   -0.08771929824562    0.08771929824562    0.00000000000000             2
    0.10526315789474   -0.00000000000000    0.00000000000000             2
   -0.00000000000000    0.10526315789474    0.00000000000000             2
   -0.10526315789474    0.10526315789474    0.00000000000000             2
    0.12280701754386    0.00000000000000    0.00000000000000             2
    0.00000000000000    0.12280701754386    0.00000000000000             2
   -0.12280701754386    0.12280701754386    0.00000000000000             2
    0.14035087719298    0.00000000000000    0.00000000000000             2
    0.00000000000000    0.14035087719298    0.00000000000000             2
   -0.14035087719298    0.14035087719298    0.00000000000000             2
    0.15789473684210   -0.00000000000000    0.00000000000000             2
   -0.00000000000000    0.15789473684210    0.00000000000000             2
   -0.15789473684210    0.15789473684210    0.00000000000000             2
    0.17543859649123    0.00000000000000    0.00000000000000             2
   -0.00000000000000    0.17543859649123    0.00000000000000             2
   -0.17543859649123    0.17543859649123    0.00000000000000             2
    0.19298245614035    0.00000000000000    0.00000000000000             2
    0.00000000000000    0.19298245614035    0.00000000000000             2
   -0.19298245614035    0.19298245614035    0.00000000000000             2
    0.21052631578947    0.00000000000000    0.00000000000000             2
    0.00000000000000    0.21052631578947    0.00000000000000             2
   -0.21052631578947    0.21052631578947    0.00000000000000             2
    0.22807017543860    0.00000000000000    0.00000000000000             2
    0.00000000000000    0.22807017543860    0.00000000000000             2
   -0.22807017543860    0.22807017543860    0.00000000000000             2
    0.24561403508772   -0.00000000000000    0.00000000000000             2
   -0.00000000000000    0.24561403508772    0.00000000000000             2
   -0.24561403508772    0.24561403508772    0.00000000000000             2
    0.26315789473684    0.00000000000000    0.00000000000000             2
    0.00000000000000    0.26315789473684    0.00000000000000             2
   -0.26315789473684    0.26315789473684    0.00000000000000             2
    0.28070175438597   -0.00000000000000    0.00000000000000             2
   -0.00000000000000    0.28070175438597    0.00000000000000             2
   -0.28070175438597    0.28070175438597    0.00000000000000             2
    0.29824561403509    0.00000000000000    0.00000000000000             2
    0.00000000000000    0.29824561403509    0.00000000000000             2
   -0.29824561403509    0.29824561403509    0.00000000000000             2
    0.31578947368421    0.00000000000000    0.00000000000000             2
    0.00000000000000    0.31578947368421    0.00000000000000             2
   -0.31578947368421    0.31578947368421    0.00000000000000             2
    0.33333333333334   -0.00000000000000    0.00000000000000             2
   -0.00000000000000    0.33333333333334    0.00000000000000             2
   -0.33333333333334    0.33333333333334    0.00000000000000             2
    0.35087719298246    0.00000000000000    0.00000000000000             2
    0.00000000000000    0.35087719298246    0.00000000000000             2
   -0.35087719298246    0.35087719298246    0.00000000000000             2
    0.36842105263158    0.00000000000000    0.00000000000000             2
   -0.00000000000000    0.36842105263158    0.00000000000000             2
   -0.36842105263158    0.36842105263158    0.00000000000000             2
    0.38596491228070    0.00000000000000    0.00000000000000             2
    0.00000000000000    0.38596491228070    0.00000000000000             2
   -0.38596491228070    0.38596491228070    0.00000000000000             2
    0.40350877192982    0.00000000000000    0.00000000000000             2
    0.00000000000000    0.40350877192982    0.00000000000000             2
   -0.40350877192982    0.40350877192982    0.00000000000000             2
    0.42105263157895    0.00000000000000    0.00000000000000             2
    0.00000000000000    0.42105263157895    0.00000000000000             2
   -0.42105263157895    0.42105263157895    0.00000000000000             2
    0.43859649122807   -0.00000000000000    0.00000000000000             2
   -0.00000000000000    0.43859649122807    0.00000000000000             2
   -0.43859649122807    0.43859649122807    0.00000000000000             2
    0.45614035087719    0.00000000000000    0.00000000000000             2
    0.00000000000000    0.45614035087719    0.00000000000000             2
   -0.45614035087719    0.45614035087719    0.00000000000000             2
    0.47368421052632    0.00000000000000    0.00000000000000             2
   -0.00000000000000    0.47368421052632    0.00000000000000             2
   -0.47368421052632    0.47368421052632    0.00000000000000             2
    0.49122807017544   -0.00000000000000    0.00000000000000             2
   -0.00000000000000    0.49122807017544    0.00000000000000             2
   -0.49122807017544    0.49122807017544    0.00000000000000             2
    0.01754385964912    0.01754385964912    0.00000000000000             2
   -0.01754385964912    0.03508771929825    0.00000000000000             2
   -0.03508771929825    0.01754385964912    0.00000000000000             2
    0.03508771929825    0.01754385964912    0.00000000000000             2
   -0.01754385964912    0.05263157894737    0.00000000000000             2
   -0.05263157894737    0.03508771929825    0.00000000000000             2
   -0.03508771929825    0.05263157894737    0.00000000000000             2
    0.01754385964912    0.03508771929825    0.00000000000000             2
    0.05263157894737   -0.01754385964912    0.00000000000000             2
    0.05263157894737    0.01754385964912    0.00000000000000             2
   -0.01754385964912    0.07017543859649    0.00000000000000             2
   -0.07017543859649    0.05263157894737    0.00000000000000             2
   -0.05263157894737    0.07017543859649    0.00000000000000             2
    0.01754385964912    0.05263157894737    0.00000000000000             2
    0.07017543859649   -0.01754385964912    0.00000000000000             2
    0.07017543859649    0.01754385964912    0.00000000000000             2
   -0.01754385964912    0.08771929824562    0.00000000000000             2
   -0.08771929824562    0.07017543859649    0.00000000000000             2
   -0.07017543859649    0.08771929824562    0.00000000000000             2
    0.01754385964912    0.07017543859649    0.00000000000000             2
    0.08771929824562   -0.01754385964912    0.00000000000000             2
    0.08771929824562    0.01754385964912    0.00000000000000             2
   -0.01754385964912    0.10526315789474    0.00000000000000             2
   -0.10526315789474    0.08771929824562    0.00000000000000             2
   -0.08771929824562    0.10526315789474    0.00000000000000             2
    0.01754385964912    0.08771929824562    0.00000000000000             2
    0.10526315789474   -0.01754385964912    0.00000000000000             2
    0.10526315789474    0.01754385964912    0.00000000000000             2
   -0.01754385964912    0.12280701754386    0.00000000000000             2
   -0.12280701754386    0.10526315789474    0.00000000000000             2
   -0.10526315789474    0.12280701754386    0.00000000000000             2
    0.01754385964912    0.10526315789474    0.00000000000000             2
    0.12280701754386   -0.01754385964912    0.00000000000000             2
    0.12280701754386    0.01754385964912    0.00000000000000             2
   -0.01754385964912    0.14035087719299    0.00000000000000             2
   -0.14035087719299    0.12280701754386    0.00000000000000             2
   -0.12280701754386    0.14035087719299    0.00000000000000             2
    0.01754385964912    0.12280701754386    0.00000000000000             2
    0.14035087719299   -0.01754385964912    0.00000000000000             2
    0.14035087719298    0.01754385964912    0.00000000000000             2
   -0.01754385964912    0.15789473684210    0.00000000000000             2
   -0.15789473684210    0.14035087719298    0.00000000000000             2
   -0.14035087719298    0.15789473684210    0.00000000000000             2
    0.01754385964912    0.14035087719298    0.00000000000000             2
    0.15789473684210   -0.01754385964912    0.00000000000000             2
    0.15789473684210    0.01754385964912    0.00000000000000             2
   -0.01754385964912    0.17543859649123    0.00000000000000             2
   -0.17543859649123    0.15789473684210    0.00000000000000             2
   -0.15789473684210    0.17543859649123    0.00000000000000             2
    0.01754385964912    0.15789473684210    0.00000000000000             2
    0.17543859649123   -0.01754385964912    0.00000000000000             2
    0.17543859649123    0.01754385964912    0.00000000000000             2
   -0.01754385964912    0.19298245614035    0.00000000000000             2
   -0.19298245614035    0.17543859649123    0.00000000000000             2
   -0.17543859649123    0.19298245614035    0.00000000000000             2
    0.01754385964912    0.17543859649123    0.00000000000000             2
    0.19298245614035   -0.01754385964912    0.00000000000000             2
    0.19298245614035    0.01754385964912    0.00000000000000             2
   -0.01754385964912    0.21052631578947    0.00000000000000             2
   -0.21052631578947    0.19298245614035    0.00000000000000             2
   -0.19298245614035    0.21052631578947    0.00000000000000             2
    0.01754385964912    0.19298245614035    0.00000000000000             2
    0.21052631578947   -0.01754385964912    0.00000000000000             2
    0.21052631578947    0.01754385964912    0.00000000000000             2
   -0.01754385964912    0.22807017543860    0.00000000000000             2
   -0.22807017543860    0.21052631578947    0.00000000000000             2
   -0.21052631578947    0.22807017543860    0.00000000000000             2
    0.01754385964912    0.21052631578947    0.00000000000000             2
    0.22807017543860   -0.01754385964912    0.00000000000000             2
    0.22807017543860    0.01754385964912    0.00000000000000             2
   -0.01754385964912    0.24561403508772    0.00000000000000             2
   -0.24561403508772    0.22807017543860    0.00000000000000             2
   -0.22807017543860    0.24561403508772    0.00000000000000             2
    0.01754385964912    0.22807017543860    0.00000000000000             2
    0.24561403508772   -0.01754385964912    0.00000000000000             2
    0.24561403508772    0.01754385964912    0.00000000000000             2
   -0.01754385964912    0.26315789473684    0.00000000000000             2
   -0.26315789473684    0.24561403508772    0.00000000000000             2
   -0.24561403508772    0.26315789473684    0.00000000000000             2
    0.01754385964912    0.24561403508772    0.00000000000000             2
    0.26315789473684   -0.01754385964912    0.00000000000000             2
    0.26315789473684    0.01754385964912    0.00000000000000             2
   -0.01754385964912    0.28070175438597    0.00000000000000             2
   -0.28070175438597    0.26315789473684    0.00000000000000             2
   -0.26315789473684    0.28070175438597    0.00000000000000             2
    0.01754385964912    0.26315789473684    0.00000000000000             2
    0.28070175438597   -0.01754385964912    0.00000000000000             2
    0.28070175438597    0.01754385964912    0.00000000000000             2
   -0.01754385964912    0.29824561403509    0.00000000000000             2
   -0.29824561403509    0.28070175438597    0.00000000000000             2
   -0.28070175438597    0.29824561403509    0.00000000000000             2
    0.01754385964912    0.28070175438597    0.00000000000000             2
    0.29824561403509   -0.01754385964912    0.00000000000000             2
    0.29824561403509    0.01754385964912    0.00000000000000             2
   -0.01754385964912    0.31578947368421    0.00000000000000             2
   -0.31578947368421    0.29824561403509    0.00000000000000             2
   -0.29824561403509    0.31578947368421    0.00000000000000             2
    0.01754385964912    0.29824561403509    0.00000000000000             2
    0.31578947368421   -0.01754385964912    0.00000000000000             2
    0.31578947368421    0.01754385964912    0.00000000000000             2
   -0.01754385964912    0.33333333333334    0.00000000000000             2
   -0.33333333333334    0.31578947368421    0.00000000000000             2
   -0.31578947368421    0.33333333333334    0.00000000000000             2
    0.01754385964912    0.31578947368421    0.00000000000000             2
    0.33333333333334   -0.01754385964912    0.00000000000000             2
    0.33333333333334    0.01754385964912    0.00000000000000             2
   -0.01754385964912    0.35087719298246    0.00000000000000             2
   -0.35087719298246    0.33333333333334    0.00000000000000             2
   -0.33333333333334    0.35087719298246    0.00000000000000             2
    0.01754385964912    0.33333333333334    0.00000000000000             2
    0.35087719298246   -0.01754385964912    0.00000000000000             2
    0.35087719298246    0.01754385964912    0.00000000000000             2
   -0.01754385964912    0.36842105263158    0.00000000000000             2
   -0.36842105263158    0.35087719298246    0.00000000000000             2
   -0.35087719298246    0.36842105263158    0.00000000000000             2
    0.01754385964912    0.35087719298246    0.00000000000000             2
    0.36842105263158   -0.01754385964912    0.00000000000000             2
    0.36842105263158    0.01754385964912    0.00000000000000             2
   -0.01754385964912    0.38596491228071    0.00000000000000             2
   -0.38596491228071    0.36842105263158    0.00000000000000             2
   -0.36842105263158    0.38596491228071    0.00000000000000             2
    0.01754385964912    0.36842105263158    0.00000000000000             2
    0.38596491228071   -0.01754385964912    0.00000000000000             2
    0.38596491228070    0.01754385964912    0.00000000000000             2
   -0.01754385964912    0.40350877192982    0.00000000000000             2
   -0.40350877192982    0.38596491228070    0.00000000000000             2
   -0.38596491228070    0.40350877192982    0.00000000000000             2
    0.01754385964912    0.38596491228070    0.00000000000000             2
    0.40350877192982   -0.01754385964912    0.00000000000000             2
    0.40350877192982    0.01754385964912    0.00000000000000             2
   -0.01754385964912    0.42105263157895    0.00000000000000             2
   -0.42105263157895    0.40350877192982    0.00000000000000             2
   -0.40350877192982    0.42105263157895    0.00000000000000             2
    0.01754385964912    0.40350877192982    0.00000000000000             2
    0.42105263157895   -0.01754385964912    0.00000000000000             2
    0.42105263157895    0.01754385964912    0.00000000000000             2
   -0.01754385964912    0.43859649122807    0.00000000000000             2
   -0.43859649122807    0.42105263157895    0.00000000000000             2
   -0.42105263157895    0.43859649122807    0.00000000000000             2
    0.01754385964912    0.42105263157895    0.00000000000000             2
    0.43859649122807   -0.01754385964912    0.00000000000000             2
    0.43859649122807    0.01754385964912    0.00000000000000             2
   -0.01754385964912    0.45614035087719    0.00000000000000             2
   -0.45614035087719    0.43859649122807    0.00000000000000             2
   -0.43859649122807    0.45614035087719    0.00000000000000             2
    0.01754385964912    0.43859649122807    0.00000000000000             2
    0.45614035087719   -0.01754385964912    0.00000000000000             2
    0.45614035087719    0.01754385964912    0.00000000000000             2
   -0.01754385964912    0.47368421052632    0.00000000000000             2
   -0.47368421052631    0.45614035087719    0.00000000000000             2
   -0.45614035087719    0.47368421052632    0.00000000000000             2
    0.01754385964912    0.45614035087719    0.00000000000000             2
    0.47368421052632   -0.01754385964912    0.00000000000000             2
    0.47368421052632    0.01754385964912    0.00000000000000             2
   -0.01754385964912    0.49122807017544    0.00000000000000             2
   -0.49122807017544    0.47368421052631    0.00000000000000             2
   -0.47368421052632    0.49122807017544    0.00000000000000             2
    0.01754385964912    0.47368421052632    0.00000000000000             2
    0.49122807017544   -0.01754385964912    0.00000000000000             2
    0.49122807017544    0.01754385964912    0.00000000000000             2
   -0.01754385964912   -0.49122807017544    0.00000000000000             2
    0.49122807017544    0.49122807017544    0.00000000000000             2
    0.03508771929825    0.03508771929825    0.00000000000000             2
   -0.03508771929825    0.07017543859649    0.00000000000000             2
   -0.07017543859649    0.03508771929825    0.00000000000000             2
    0.05263157894737    0.03508771929825    0.00000000000000             2
   -0.03508771929825    0.08771929824562    0.00000000000000             2
   -0.08771929824562    0.05263157894737    0.00000000000000             2
   -0.05263157894737    0.08771929824562    0.00000000000000             2
    0.03508771929825    0.05263157894737    0.00000000000000             2
    0.08771929824562   -0.03508771929825    0.00000000000000             2
    0.07017543859649    0.03508771929825    0.00000000000000             2
   -0.03508771929825    0.10526315789474    0.00000000000000             2
   -0.10526315789474    0.07017543859649    0.00000000000000             2
   -0.07017543859649    0.10526315789474    0.00000000000000             2
    0.03508771929825    0.07017543859649    0.00000000000000             2
    0.10526315789474   -0.03508771929825    0.00000000000000             2
    0.08771929824562    0.03508771929825    0.00000000000000             2
   -0.03508771929825    0.12280701754386    0.00000000000000             2
   -0.12280701754386    0.08771929824562    0.00000000000000             2
   -0.08771929824562    0.12280701754386    0.00000000000000             2
    0.03508771929825    0.08771929824562    0.00000000000000             2
    0.12280701754386   -0.03508771929825    0.00000000000000             2
    0.10526315789474    0.03508771929825    0.00000000000000             2
   -0.03508771929825    0.14035087719299    0.00000000000000             2
   -0.14035087719299    0.10526315789474    0.00000000000000             2
   -0.10526315789474    0.14035087719299    0.00000000000000             2
    0.03508771929825    0.10526315789474    0.00000000000000             2
    0.14035087719299   -0.03508771929825    0.00000000000000             2
    0.12280701754386    0.03508771929825    0.00000000000000             2
   -0.03508771929825    0.15789473684211    0.00000000000000             2
   -0.15789473684211    0.12280701754386    0.00000000000000             2
   -0.12280701754386    0.15789473684211    0.00000000000000             2
    0.03508771929825    0.12280701754386    0.00000000000000             2
    0.15789473684211   -0.03508771929825    0.00000000000000             2
    0.14035087719298    0.03508771929825    0.00000000000000             2
   -0.03508771929825    0.17543859649123    0.00000000000000             2
   -0.17543859649123    0.14035087719298    0.00000000000000             2
   -0.14035087719298    0.17543859649123    0.00000000000000             2
    0.03508771929825    0.14035087719298    0.00000000000000             2
    0.17543859649123   -0.03508771929825    0.00000000000000             2
    0.15789473684210    0.03508771929825    0.00000000000000             2
   -0.03508771929825    0.19298245614035    0.00000000000000             2
   -0.19298245614035    0.15789473684210    0.00000000000000             2
   -0.15789473684210    0.19298245614035    0.00000000000000             2
    0.03508771929825    0.15789473684210    0.00000000000000             2
    0.19298245614035   -0.03508771929825    0.00000000000000             2
    0.17543859649123    0.03508771929825    0.00000000000000             2
   -0.03508771929825    0.21052631578947    0.00000000000000             2
   -0.21052631578947    0.17543859649123    0.00000000000000             2
   -0.17543859649123    0.21052631578947    0.00000000000000             2
    0.03508771929825    0.17543859649123    0.00000000000000             2
    0.21052631578947   -0.03508771929825    0.00000000000000             2
    0.19298245614035    0.03508771929825    0.00000000000000             2
   -0.03508771929825    0.22807017543860    0.00000000000000             2
   -0.22807017543860    0.19298245614035    0.00000000000000             2
   -0.19298245614035    0.22807017543860    0.00000000000000             2
    0.03508771929825    0.19298245614035    0.00000000000000             2
    0.22807017543860   -0.03508771929825    0.00000000000000             2
    0.21052631578947    0.03508771929825    0.00000000000000             2
   -0.03508771929825    0.24561403508772    0.00000000000000             2
   -0.24561403508772    0.21052631578947    0.00000000000000             2
   -0.21052631578947    0.24561403508772    0.00000000000000             2
    0.03508771929825    0.21052631578947    0.00000000000000             2
    0.24561403508772   -0.03508771929825    0.00000000000000             2
    0.22807017543860    0.03508771929825    0.00000000000000             2
   -0.03508771929825    0.26315789473684    0.00000000000000             2
   -0.26315789473684    0.22807017543860    0.00000000000000             2
   -0.22807017543860    0.26315789473684    0.00000000000000             2
    0.03508771929825    0.22807017543860    0.00000000000000             2
    0.26315789473684   -0.03508771929825    0.00000000000000             2
    0.24561403508772    0.03508771929825    0.00000000000000             2
   -0.03508771929825    0.28070175438597    0.00000000000000             2
   -0.28070175438597    0.24561403508772    0.00000000000000             2
   -0.24561403508772    0.28070175438597    0.00000000000000             2
    0.03508771929825    0.24561403508772    0.00000000000000             2
    0.28070175438597   -0.03508771929825    0.00000000000000             2
    0.26315789473684    0.03508771929825    0.00000000000000             2
   -0.03508771929825    0.29824561403509    0.00000000000000             2
   -0.29824561403509    0.26315789473684    0.00000000000000             2
   -0.26315789473684    0.29824561403509    0.00000000000000             2
    0.03508771929825    0.26315789473684    0.00000000000000             2
    0.29824561403509   -0.03508771929825    0.00000000000000             2
    0.28070175438597    0.03508771929825    0.00000000000000             2
   -0.03508771929825    0.31578947368421    0.00000000000000             2
   -0.31578947368421    0.28070175438597    0.00000000000000             2
   -0.28070175438597    0.31578947368421    0.00000000000000             2
    0.03508771929825    0.28070175438597    0.00000000000000             2
    0.31578947368421   -0.03508771929825    0.00000000000000             2
    0.29824561403509    0.03508771929825    0.00000000000000             2
   -0.03508771929825    0.33333333333334    0.00000000000000             2
   -0.33333333333334    0.29824561403509    0.00000000000000             2
   -0.29824561403509    0.33333333333334    0.00000000000000             2
    0.03508771929825    0.29824561403509    0.00000000000000             2
    0.33333333333334   -0.03508771929825    0.00000000000000             2
    0.31578947368421    0.03508771929825    0.00000000000000             2
   -0.03508771929825    0.35087719298246    0.00000000000000             2
   -0.35087719298246    0.31578947368421    0.00000000000000             2
   -0.31578947368421    0.35087719298246    0.00000000000000             2
    0.03508771929825    0.31578947368421    0.00000000000000             2
    0.35087719298246   -0.03508771929825    0.00000000000000             2
    0.33333333333334    0.03508771929825    0.00000000000000             2
   -0.03508771929825    0.36842105263158    0.00000000000000             2
   -0.36842105263158    0.33333333333334    0.00000000000000             2
   -0.33333333333334    0.36842105263158    0.00000000000000             2
    0.03508771929825    0.33333333333334    0.00000000000000             2
    0.36842105263158   -0.03508771929825    0.00000000000000             2
    0.35087719298246    0.03508771929825    0.00000000000000             2
   -0.03508771929825    0.38596491228071    0.00000000000000             2
   -0.38596491228071    0.35087719298246    0.00000000000000             2
   -0.35087719298246    0.38596491228071    0.00000000000000             2
    0.03508771929825    0.35087719298246    0.00000000000000             2
    0.38596491228071   -0.03508771929825    0.00000000000000             2
    0.36842105263158    0.03508771929825    0.00000000000000             2
   -0.03508771929825    0.40350877192983    0.00000000000000             2
   -0.40350877192983    0.36842105263158    0.00000000000000             2
   -0.36842105263158    0.40350877192983    0.00000000000000             2
    0.03508771929825    0.36842105263158    0.00000000000000             2
    0.40350877192983   -0.03508771929825    0.00000000000000             2
    0.38596491228070    0.03508771929825    0.00000000000000             2
   -0.03508771929825    0.42105263157895    0.00000000000000             2
   -0.42105263157895    0.38596491228070    0.00000000000000             2
   -0.38596491228070    0.42105263157895    0.00000000000000             2
    0.03508771929825    0.38596491228070    0.00000000000000             2
    0.42105263157895   -0.03508771929825    0.00000000000000             2
    0.40350877192982    0.03508771929825    0.00000000000000             2
   -0.03508771929825    0.43859649122807    0.00000000000000             2
   -0.43859649122807    0.40350877192982    0.00000000000000             2
   -0.40350877192982    0.43859649122807    0.00000000000000             2
    0.03508771929825    0.40350877192982    0.00000000000000             2
    0.43859649122807   -0.03508771929825    0.00000000000000             2
    0.42105263157895    0.03508771929825    0.00000000000000             2
   -0.03508771929825    0.45614035087719    0.00000000000000             2
   -0.45614035087719    0.42105263157895    0.00000000000000             2
   -0.42105263157895    0.45614035087719    0.00000000000000             2
    0.03508771929825    0.42105263157895    0.00000000000000             2
    0.45614035087719   -0.03508771929825    0.00000000000000             2
    0.43859649122807    0.03508771929825    0.00000000000000             2
   -0.03508771929825    0.47368421052632    0.00000000000000             2
   -0.47368421052632    0.43859649122807    0.00000000000000             2
   -0.43859649122807    0.47368421052631    0.00000000000000             2
    0.03508771929825    0.43859649122807    0.00000000000000             2
    0.47368421052632   -0.03508771929825    0.00000000000000             2
    0.45614035087719    0.03508771929825    0.00000000000000             2
   -0.03508771929825    0.49122807017544    0.00000000000000             2
   -0.49122807017544    0.45614035087719    0.00000000000000             2
   -0.45614035087719    0.49122807017544    0.00000000000000             2
    0.03508771929825    0.45614035087719    0.00000000000000             2
    0.49122807017544   -0.03508771929825    0.00000000000000             2
    0.47368421052632    0.03508771929825    0.00000000000000             2
   -0.03508771929825   -0.49122807017544    0.00000000000000             2
    0.49122807017544    0.47368421052632    0.00000000000000             2
   -0.47368421052632   -0.49122807017544    0.00000000000000             2
    0.03508771929825    0.47368421052632    0.00000000000000             2