       N       E                     dE             d eps       ncg     rms          rms(c)
DAV:   1     0.184535968496E+03    0.18454E+03   -0.11429E+04 78000   0.827E+02
DAV:   2    -0.562506606171E+02   -0.24079E+03   -0.23999E+03127704   0.158E+02
DAV:   3    -0.733049313375E+02   -0.17054E+02   -0.17028E+02127080   0.640E+01
DAV:   4    -0.734310371072E+02   -0.12611E+00   -0.12611E+00127584   0.546E+00
DAV:   5    -0.734312597455E+02   -0.22264E-03   -0.22264E-03123192   0.212E-01    0.131E+01
DAV:   6    -0.689927372898E+02    0.44385E+01   -0.58729E+00149688   0.104E+01    0.746E+00
DAV:   7    -0.673334294321E+02    0.16593E+01   -0.39173E+00150744   0.857E+00    0.213E+00
DAV:   8    -0.672503324984E+02    0.83097E-01   -0.17090E-01121944   0.178E+00    0.602E-01
DAV:   9    -0.672309160917E+02    0.19416E-01   -0.13505E-02118656   0.657E-01    0.169E-01
DAV:  10    -0.672219311618E+02    0.89849E-02   -0.95454E-03105648   0.344E-01    0.973E-02
DAV:  11    -0.672195732706E+02    0.23579E-02   -0.48817E-03106056   0.255E-01    0.594E-02
DAV:  12    -0.672202487622E+02   -0.67549E-03   -0.66667E-04 86376   0.116E-01    0.281E-02
DAV:  13    -0.672232649369E+02   -0.30162E-02   -0.57065E-04127608   0.870E-02    0.197E-02
DAV:  14    -0.672248523176E+02   -0.15874E-02   -0.29021E-04102624   0.599E-02    0.123E-02
DAV:  15    -0.672255909071E+02   -0.73859E-03   -0.83480E-05107016   0.322E-02    0.488E-03
DAV:  16    -0.672258299228E+02   -0.23902E-03   -0.29879E-05 90888   0.165E-02    0.213E-03
DAV:  17    -0.672259037520E+02   -0.73829E-04   -0.37265E-06 82608   0.685E-03    0.123E-03
DAV:  18    -0.672259089806E+02   -0.52286E-05   -0.23201E-07114144   0.214E-03    0.229E-04
DAV:  19    -0.672259111230E+02   -0.21424E-05   -0.54118E-08 85488   0.750E-04    0.157E-04
DAV:  20    -0.672259114241E+02   -0.30107E-06   -0.63529E-09102456   0.247E-04
   1 F= -.67904248E+02 E0= -.67904248E+02  d E =-.679042E+02
       N       E                     dE             d eps       ncg     rms          rms(c)
DAV:   1    -0.672219936835E+02    0.39174E-02   -0.32493E+00 78168   0.107E+01    0.493E-01
DAV:   2    -0.672164062985E+02    0.55874E-02   -0.54976E-02135696   0.146E+00    0.241E-01
DAV:   3    -0.672156331018E+02    0.77320E-03   -0.90046E-03100872   0.500E-01    0.943E-02
DAV:   4    -0.672156294096E+02    0.36922E-05   -0.12979E-03104016   0.181E-01    0.426E-02
DAV:   5    -0.672156354874E+02   -0.60779E-05   -0.74610E-05 84024   0.554E-02    0.682E-03
DAV:   6    -0.672156363768E+02   -0.88938E-06   -0.13790E-05 87600   0.218E-02    0.420E-03
DAV:   7    -0.672156383222E+02   -0.19454E-05   -0.23450E-06 81120   0.842E-03    0.750E-04
DAV:   8    -0.672156395449E+02   -0.12226E-05   -0.22553E-07 86688   0.252E-03    0.446E-04
DAV:   9    -0.672156411523E+02   -0.16075E-05   -0.90116E-08 81312   0.981E-04    0.324E-04
DAV:  10    -0.672156421626E+02   -0.10102E-05   -0.52016E-08120768   0.895E-04    0.245E-04
DAV:  11    -0.672156430675E+02   -0.90498E-06   -0.55441E-08115512   0.801E-04
   2 F= -.67892987E+02 E0= -.67892987E+02  d E =0.112614E-01
       N       E                     dE             d eps       ncg     rms          rms(c)
DAV:   1    -0.672325559575E+02   -0.16914E-01   -0.14763E+00 78000   0.720E+00    0.332E-01
DAV:   2    -0.672299524705E+02    0.26035E-02   -0.25439E-02122232   0.978E-01    0.163E-01
DAV:   3    -0.672296466959E+02    0.30577E-03   -0.41076E-03129528   0.339E-01    0.646E-02
DAV:   4    -0.672296435543E+02    0.31416E-05   -0.51255E-04 93936   0.112E-01    0.289E-02
DAV:   5    -0.672296486606E+02   -0.51063E-05   -0.37848E-05104496   0.387E-02    0.468E-03
DAV:   6    -0.672296496779E+02   -0.10173E-05   -0.61135E-06 91992   0.146E-02    0.289E-03
DAV:   7    -0.672296513700E+02   -0.16921E-05   -0.11720E-06 80424   0.588E-03    0.555E-04
DAV:   8    -0.672296523349E+02   -0.96490E-06   -0.14829E-07 96000   0.197E-03
   3 F= -.67907689E+02 E0= -.67907689E+02  d E =-.344115E-02
       N       E                     dE             d eps       ncg     rms          rms(c)
DAV:   1    -0.672296532325E+02   -0.18624E-05   -0.17137E-07105864   0.214E-03    0.231E-04
DAV:   2    -0.672296534211E+02   -0.18866E-06   -0.78589E-09141960   0.392E-04
   4 F= -.67907690E+02 E0= -.67907690E+02  d E =-.344243E-02
       N       E                     dE             d eps       ncg     rms          rms(c)
DAV:   1    -0.672296573344E+02   -0.41019E-05   -0.43031E-03 79320   0.425E-01    0.138E-02
DAV:   2    -0.672296604516E+02   -0.31172E-05   -0.60474E-05 93384   0.471E-02    0.879E-03
DAV:   3    -0.672296600721E+02    0.37943E-06   -0.31593E-06 88776   0.108E-02
   5 F= -.67907695E+02 E0= -.67907695E+02  d E =-.493123E-05
       N       E                     dE             d eps       ncg     rms          rms(c)
DAV:   1    -0.672296677847E+02   -0.73331E-05   -0.88468E-04 81456   0.193E-01    0.580E-03
DAV:   2    -0.672296684980E+02   -0.71328E-06   -0.13435E-05 92304   0.221E-02    0.376E-03
DAV:   3    -0.672296684162E+02    0.81767E-07   -0.63974E-07 94416   0.489E-03
   6 F= -.67907704E+02 E0= -.67907704E+02  d E =-.140513E-04
       N       E                     dE             d eps       ncg     rms          rms(c)
DAV:   1    -0.672296835756E+02   -0.15078E-04   -0.15044E-03 78648   0.258E-01    0.651E-03
DAV:   2    -0.672296847254E+02   -0.11498E-05   -0.14552E-05 84072   0.210E-02    0.485E-03
DAV:   3    -0.672296848717E+02   -0.14626E-06   -0.50925E-07 80088   0.395E-03
   7 F= -.67907721E+02 E0= -.67907721E+02  d E =-.168236E-04
       N       E                     dE             d eps       ncg     rms          rms(c)
DAV:   1    -0.672296895808E+02   -0.48554E-05   -0.19210E-03 78864   0.292E-01    0.760E-03
DAV:   2    -0.672296910108E+02   -0.14300E-05   -0.18694E-05 80616   0.239E-02    0.562E-03
DAV:   3    -0.672296912163E+02   -0.20552E-06   -0.68706E-07 79224   0.460E-03
   8 F= -.67907728E+02 E0= -.67907728E+02  d E =-.235636E-04
       N       E                     dE             d eps       ncg     rms          rms(c)
DAV:   1    -0.672296911618E+02   -0.15097E-06   -0.23488E-05 83424   0.292E-02    0.137E-03
DAV:   2    -0.672296911483E+02    0.13455E-07   -0.47287E-07138984   0.424E-03
   9 F= -.67907728E+02 E0= -.67907728E+02  d E =-.304423E-06
