    8    8  128    1
  0.4338553E+02  0.5169000E-09  0.5169000E-09  0.1500000E-08  0.5000000E-15
  1.000000000000000E-004
  CAR 
 Lattice                                 
     30    313     24
 
  0.0000000E+00  0.0000000E+00  0.0000000E+00  0.1600000E-02
      1        -19.884836   1.000000
      2        -15.983259   1.000000
      3        -15.983051   1.000000
      4        -13.641878   1.000000
      5        -13.641790   1.000000
      6        -12.573353   1.000000
      7        -11.250066   1.000000
      8         -8.688733   1.000000
      9         -8.456712   1.000000
     10         -6.304389   1.000000
     11         -6.304213   1.000000
     12         -4.480811   1.000000
     13         -4.480698   1.000000
     14         -3.791956   0.999996
     15         -3.791864   0.999996
     16         -1.963924   0.000000
     17         -0.227819   0.000000
     18         -0.227766   0.000000
     19          0.431658   0.000000
     20          0.839914   0.000000
     21          1.841834   0.000000
     22          2.254733   0.000000
     23          4.224053   0.000000
     24          4.852955   0.000000
 
  0.4000000E-01  0.2621096E-17  0.0000000E+00  0.3200000E-02
      1        -19.878537   1.000000
      2        -16.015196   1.000000
      3        -15.993483   1.000000
      4        -13.650406   1.000000
      5        -13.618532   1.000000
      6        -12.542165   1.000000
      7        -11.212058   1.000000
      8         -8.679208   1.000000
      9         -8.469782   1.000000
     10         -6.333135   1.000000
     11         -6.310055   1.000000
     12         -4.509993   1.000000
     13         -4.485705   1.000000
     14         -3.825217   1.000000
     15         -3.808079   0.999999
     16         -2.019304   0.000000
     17         -0.213917   0.000000
     18         -0.145600   0.000000
     19          0.457985   0.000000
     20          0.851864   0.000000
     21          1.854778   0.000000
     22          2.266745   0.000000
     23          4.235850   0.000000
     24          4.865814   0.000000
 
  0.2621096E-17  0.4000000E-01  0.0000000E+00  0.3200000E-02
      1        -19.878537   1.000000
      2        -16.015181   1.000000
      3        -15.993497   1.000000
      4        -13.650408   1.000000
      5        -13.618531   1.000000
      6        -12.542164   1.000000
      7        -11.212058   1.000000
      8         -8.679208   1.000000
      9         -8.469782   1.000000
     10         -6.333106   1.000000
     11         -6.310083   1.000000
     12         -4.509982   1.000000
     13         -4.485716   1.000000
     14         -3.825192   1.000000
     15         -3.808103   0.999999
     16         -2.019304   0.000000
     17         -0.213917   0.000000
     18         -0.145602   0.000000
     19          0.457986   0.000000
     20          0.851864   0.000000
     21          1.854778   0.000000
     22          2.266745   0.000000
     23          4.235850   0.000000
     24          4.865813   0.000000
 
 -0.4000000E-01  0.4000000E-01  0.0000000E+00  0.3200000E-02
      1        -19.878537   1.000000
      2        -16.015342   1.000000
      3        -15.993336   1.000000
      4        -13.650340   1.000000
      5        -13.618595   1.000000
      6        -12.542168   1.000000
      7        -11.212056   1.000000
      8         -8.679208   1.000000
      9         -8.469782   1.000000
     10         -6.333250   1.000000
     11         -6.309940   1.000000
     12         -4.510070   1.000000
     13         -4.485626   1.000000
     14         -3.825269   1.000000
     15         -3.808026   0.999999
     16         -2.019306   0.000000
     17         -0.213956   0.000000
     18         -0.145556   0.000000
     19          0.457982   0.000000
     20          0.851864   0.000000
     21          1.854777   0.000000
     22          2.266745   0.000000
     23          4.235850   0.000000
     24          4.865811   0.000000
 
  0.8000000E-01  0.5242191E-17  0.0000000E+00  0.3200000E-02
      1        -19.859747   1.000000
      2        -16.106356   1.000000
      3        -16.022815   1.000000
      4        -13.677528   1.000000
      5        -13.550354   1.000000
      6        -12.448652   1.000000
      7        -11.101735   1.000000
      8         -8.650654   1.000000
      9         -8.509706   1.000000
     10         -6.418238   1.000000
     11         -6.325289   1.000000
     12         -4.596223   1.000000
     13         -4.499956   1.000000
     14         -3.923812   1.000000
     15         -3.855696   1.000000
     16         -2.155898   0.000000
     17         -0.172836   0.000000
     18          0.062459   0.000000
     19          0.543625   0.000000
     20          0.887681   0.000000
     21          1.893793   0.000000
     22          2.302760   0.000000
     23          4.271241   0.000000
     24          4.902858   0.000000
 
  0.5242191E-17  0.8000000E-01  0.0000000E+00  0.3200000E-02
      1        -19.859747   1.000000
      2        -16.106342   1.000000
      3        -16.022829   1.000000
      4        -13.677532   1.000000
      5        -13.550354   1.000000
      6        -12.448649   1.000000
      7        -11.101736   1.000000
      8         -8.650654   1.000000
      9         -8.509706   1.000000
     10         -6.418210   1.000000
     11         -6.325317   1.000000
     12         -4.596212   1.000000
     13         -4.499967   1.000000
     14         -3.923788   1.000000
     15         -3.855721   1.000000
     16         -2.155896   0.000000
     17         -0.172836   0.000000
     18          0.062452   0.000000
     19          0.543630   0.000000
     20          0.887681   0.000000
     21          1.893793   0.000000
     22          2.302760   0.000000
     23          4.271241   0.000000
     24          4.902858   0.000000
 
 -0.8000000E-01  0.8000000E-01  0.0000000E+00  0.3200000E-02
      1        -19.859747   1.000000
      2        -16.106499   1.000000
      3        -16.022672   1.000000
      4        -13.677462   1.000000
      5        -13.550414   1.000000
      6        -12.448665   1.000000
      7        -11.101728   1.000000
      8         -8.650653   1.000000
      9         -8.509706   1.000000
     10         -6.418354   1.000000
     11         -6.325174   1.000000
     12         -4.596297   1.000000
     13         -4.499878   1.000000
     14         -3.923863   1.000000
     15         -3.855646   1.000000
     16         -2.155904   0.000000
     17         -0.172875   0.000000
     18          0.062517   0.000000
     19          0.543610   0.000000
     20          0.887681   0.000000
     21          1.893792   0.000000
     22          2.302760   0.000000
     23          4.271241   0.000000
     24          4.902854   0.000000
 
  0.1200000E+00  0.1604204E-16  0.0000000E+00  0.3200000E-02
      1        -19.828810   1.000000
      2        -16.243969   1.000000
      3        -16.067222   1.000000
      4        -13.723895   1.000000
      5        -13.441764   1.000000
      6        -12.296015   1.000000
      7        -10.928127   1.000000
      8         -8.603262   1.000000
      9         -8.578331   1.000000
     10         -6.555608   1.000000
     11         -6.344589   1.000000
     12         -4.734222   1.000000
     13         -4.522316   1.000000
     14         -4.084364   1.000000
     15         -3.932525   1.000000
     16         -2.323969   0.000000
     17         -0.106970   0.000000
     18          0.310489   0.000000
     19          0.717542   0.000000
     20          0.947277   0.000000
     21          1.959582   0.000000
     22          2.362728   0.000000
     23          4.330178   0.000000
     24          4.961128   0.000000
 
  0.9103141E-17  0.1200000E+00  0.0000000E+00  0.3200000E-02
      1        -19.828810   1.000000
      2        -16.243954   1.000000
      3        -16.067235   1.000000
      4        -13.723901   1.000000
      5        -13.441764   1.000000
      6        -12.296009   1.000000
      7        -10.928129   1.000000
      8         -8.603262   1.000000
      9         -8.578330   1.000000
     10         -6.555580   1.000000
     11         -6.344617   1.000000
     12         -4.734212   1.000000
     13         -4.522326   1.000000
     14         -4.084340   1.000000
     15         -3.932549   1.000000
     16         -2.323965   0.000000
     17         -0.106970   0.000000
     18          0.310475   0.000000
     19          0.717552   0.000000
     20          0.947277   0.000000
     21          1.959583   0.000000
     22          2.362728   0.000000
     23          4.330179   0.000000
     24          4.961127   0.000000
 
 -0.1200000E+00  0.1200000E+00  0.0000000E+00  0.3200000E-02
      1        -19.828808   1.000000
      2        -16.244107   1.000000
      3        -16.067084   1.000000
      4        -13.723830   1.000000
      5        -13.441818   1.000000
      6        -12.296039   1.000000
      7        -10.928113   1.000000
      8         -8.603261   1.000000
      9         -8.578330   1.000000
     10         -6.555724   1.000000
     11         -6.344475   1.000000
     12         -4.734292   1.000000
     13         -4.522239   1.000000
     14         -4.084412   1.000000
     15         -3.932477   1.000000
     16         -2.323979   0.000000
     17         -0.107008   0.000000
     18          0.310565   0.000000
     19          0.717512   0.000000
     20          0.947277   0.000000
     21          1.959579   0.000000
     22          2.362728   0.000000
     23          4.330178   0.000000
     24          4.961120   0.000000
 
  0.1600000E+00  0.1048438E-16  0.0000000E+00  0.3200000E-02
      1        -19.786356   1.000000
      2        -16.413095   1.000000
      3        -16.121550   1.000000
      4        -13.785479   1.000000
      5        -13.298810   1.000000
      6        -12.093102   1.000000
      7        -10.701798   1.000000
      8         -8.677618   1.000000
      9         -8.537333   1.000000
     10         -6.739235   1.000000
     11         -6.360848   1.000000
     12         -4.915683   1.000000
     13         -4.550947   1.000000
     14         -4.301372   1.000000
     15         -4.034569   1.000000
     16         -2.491234   0.000000
     17         -0.020130   0.000000
     18          0.519679   0.000000
     19          1.013463   0.000000
     20          1.030541   0.000000
     21          2.053986   0.000000
     22          2.446585   0.000000
     23          4.412572   0.000000
     24          5.038067   0.000000
 
  0.1048438E-16  0.1600000E+00  0.0000000E+00  0.3200000E-02
      1        -19.786357   1.000000
      2        -16.413081   1.000000
      3        -16.121563   1.000000
      4        -13.785487   1.000000
      5        -13.298811   1.000000
      6        -12.093094   1.000000
      7        -10.701800   1.000000
      8         -8.677617   1.000000
      9         -8.537333   1.000000
     10         -6.739207   1.000000
     11         -6.360876   1.000000
     12         -4.915674   1.000000
     13         -4.550957   1.000000
     14         -4.301349   1.000000
     15         -4.034593   1.000000
     16         -2.491229   0.000000
     17         -0.020131   0.000000
     18          0.519663   0.000000
     19          1.013474   0.000000
     20          1.030541   0.000000
     21          2.053987   0.000000
     22          2.446585   0.000000
     23          4.412572   0.000000
     24          5.038065   0.000000
 
 -0.1600000E+00  0.1600000E+00  0.0000000E+00  0.3200000E-02
      1        -19.786353   1.000000
      2        -16.413229   1.000000
      3        -16.121418   1.000000
      4        -13.785417   1.000000
      5        -13.298858   1.000000
      6        -12.093135   1.000000
      7        -10.701775   1.000000
      8         -8.677617   1.000000
      9         -8.537331   1.000000
     10         -6.739352   1.000000
     11         -6.360736   1.000000
     12         -4.915748   1.000000
     13         -4.550871   1.000000
     14         -4.301418   1.000000
     15         -4.034525   1.000000
     16         -2.491250   0.000000
     17         -0.020168   0.000000
     18          0.519755   0.000000
     19          1.013437   0.000000
     20          1.030541   0.000000
     21          2.053980   0.000000
     22          2.446585   0.000000
     23          4.412572   0.000000
     24          5.038059   0.000000
 
  0.2000000E+00  0.2352789E-16  0.0000000E+00  0.3200000E-02
      1        -19.733379   1.000000
      2        -16.600099   1.000000
      3        -16.180645   1.000000
      4        -13.855365   1.000000
      5        -13.128053   1.000000
      6        -11.851437   1.000000
      7        -10.432565   1.000000
      8         -8.808140   1.000000
      9         -8.453458   1.000000
     10         -6.961589   1.000000
     11         -6.367030   1.000000
     12         -5.130340   1.000000
     13         -4.583642   1.000000
     14         -4.568326   1.000000
     15         -4.157054   1.000000
     16         -2.643318   0.000000
     17          0.083009   0.000000
     18          0.694046   0.000000
     19          1.137348   0.000000
     20          1.393785   0.000000
     21          2.182068   0.000000
     22          2.554264   0.000000
     23          4.518202   0.000000
     24          5.130751   0.000000
 
  0.2352789E-16  0.2000000E+00  0.0000000E+00  0.3200000E-02
      1        -19.733380   1.000000
      2        -16.600084   1.000000
      3        -16.180657   1.000000
      4        -13.855374   1.000000
      5        -13.128055   1.000000
      6        -11.851428   1.000000
      7        -10.432568   1.000000
      8         -8.808139   1.000000
      9         -8.453459   1.000000
     10         -6.961561   1.000000
     11         -6.367057   1.000000
     12         -5.130332   1.000000
     13         -4.583652   1.000000
     14         -4.568304   1.000000
     15         -4.157077   1.000000
     16         -2.643312   0.000000
     17          0.083009   0.000000
     18          0.694031   0.000000
     19          1.137348   0.000000
     20          1.393792   0.000000
     21          2.182071   0.000000
     22          2.554264   0.000000
     23          4.518202   0.000000
     24          5.130747   0.000000
 
 -0.2000000E+00  0.2000000E+00  0.0000000E+00  0.3200000E-02
      1        -19.733373   1.000000
      2        -16.600229   1.000000
      3        -16.180519   1.000000
      4        -13.855306   1.000000
      5        -13.128094   1.000000
      6        -11.851479   1.000000
      7        -10.432534   1.000000
      8         -8.808137   1.000000
      9         -8.453456   1.000000
     10         -6.961707   1.000000
     11         -6.366918   1.000000
     12         -5.130401   1.000000
     13         -4.583568   1.000000
     14         -4.568368   1.000000
     15         -4.157015   1.000000
     16         -2.643339   0.000000
     17          0.082974   0.000000
     18          0.694113   0.000000
     19          1.137347   0.000000
     20          1.393774   0.000000
     21          2.182055   0.000000
     22          2.554264   0.000000
     23          4.518202   0.000000
     24          5.130744   0.000000
 
  0.2400000E+00 -0.2846443E-17  0.0000000E+00  0.3200000E-02
      1        -19.671349   1.000000
      2        -16.793724   1.000000
      3        -16.240043   1.000000
      4        -13.926835   1.000000
      5        -12.936074   1.000000
      6        -11.581589   1.000000
      7        -10.129130   1.000000
      8         -8.968131   1.000000
      9         -8.352425   1.000000
     10         -7.214292   1.000000
     11         -6.358142   1.000000
     12         -5.367126   1.000000
     13         -4.877893   1.000000
     14         -4.618051   1.000000
     15         -4.294442   1.000000
     16         -2.775306   0.000000
     17          0.196590   0.000000
     18          0.859642   0.000000
     19          1.267582   0.000000
     20          1.796247   0.000000
     21          2.359279   0.000000
     22          2.685707   0.000000
     23          4.646575   0.000000
     24          5.041136   0.000000
 
  0.1268448E-16  0.2400000E+00  0.0000000E+00  0.3200000E-02
      1        -19.671351   1.000000
      2        -16.793709   1.000000
      3        -16.240055   1.000000
      4        -13.926844   1.000000
      5        -12.936077   1.000000
      6        -11.581579   1.000000
      7        -10.129133   1.000000
      8         -8.968130   1.000000
      9         -8.352426   1.000000
     10         -7.214264   1.000000
     11         -6.358170   1.000000
     12         -5.367118   1.000000
     13         -4.877872   1.000000
     14         -4.618062   1.000000
     15         -4.294464   1.000000
     16         -2.775299   0.000000
     17          0.196589   0.000000
     18          0.859628   0.000000
     19          1.267582   0.000000
     20          1.796250   0.000000
     21          2.359284   0.000000
     22          2.685707   0.000000
     23          4.646576   0.000000
     24          5.041135   0.000000
 
 -0.2400000E+00  0.2400000E+00  0.0000000E+00  0.3200000E-02
      1        -19.671341   1.000000
      2        -16.793852   1.000000
      3        -16.239922   1.000000
      4        -13.926779   1.000000
      5        -12.936109   1.000000
      6        -11.581636   1.000000
      7        -10.129090   1.000000
      8         -8.968128   1.000000
      9         -8.352422   1.000000
     10         -7.214414   1.000000
     11         -6.358031   1.000000
     12         -5.367183   1.000000
     13         -4.877932   1.000000
     14         -4.617978   1.000000
     15         -4.294408   1.000000
     16         -2.775330   0.000000
     17          0.196555   0.000000
     18          0.859703   0.000000
     19          1.267581   0.000000
     20          1.796255   0.000000
     21          2.359254   0.000000
     22          2.685707   0.000000
     23          4.646576   0.000000
     24          5.041139   0.000000
 
  0.2800000E+00  0.2959665E-16  0.0000000E+00  0.3200000E-02
      1        -19.602422   1.000000
      2        -16.984708   1.000000
      3        -16.296175   1.000000
      4        -13.994673   1.000000
      5        -12.729640   1.000000
      6        -11.291906   1.000000
      7         -9.800256   1.000000
      8         -9.152469   1.000000
      9         -8.235575   1.000000
     10         -7.487661   1.000000
     11         -6.332131   1.000000
     12         -5.615597   1.000000
     13         -5.222533   1.000000
     14         -4.652047   1.000000
     15         -4.440496   1.000000
     16         -2.886500   0.000000
     17          0.313911   0.000000
     18          1.022143   0.000000
     19          1.421146   0.000000
     20          2.156307   0.000000
     21          2.626330   0.000000
     22          2.840869   0.000000
     23          4.622362   0.000000
     24          4.795805   0.000000
 
  0.2959665E-16  0.2800000E+00  0.0000000E+00  0.3200000E-02
      1        -19.602423   1.000000
      2        -16.984692   1.000000
      3        -16.296187   1.000000
      4        -13.994682   1.000000
      5        -12.729644   1.000000
      6        -11.291897   1.000000
      7         -9.800260   1.000000
      8         -9.152466   1.000000
      9         -8.235576   1.000000
     10         -7.487632   1.000000
     11         -6.332158   1.000000
     12         -5.615589   1.000000
     13         -5.222512   1.000000
     14         -4.652057   1.000000
     15         -4.440517   1.000000
     16         -2.886492   0.000000
     17          0.313910   0.000000
     18          1.022130   0.000000
     19          1.421146   0.000000
     20          2.156305   0.000000
     21          2.626339   0.000000
     22          2.840869   0.000000
     23          4.622362   0.000000
     24          4.795807   0.000000
 
 -0.2800000E+00  0.2800000E+00  0.0000000E+00  0.3200000E-02
      1        -19.602410   1.000000
      2        -16.984836   1.000000
      3        -16.296059   1.000000
      4        -13.994619   1.000000
      5        -12.729669   1.000000
      6        -11.291957   1.000000
      7         -9.800206   1.000000
      8         -9.152464   1.000000
      9         -8.235569   1.000000
     10         -7.487789   1.000000
     11         -6.332019   1.000000
     12         -5.615652   1.000000
     13         -5.222570   1.000000
     14         -4.651975   1.000000
     15         -4.440468   1.000000
     16         -2.886528   0.000000
     17          0.313878   0.000000
     18          1.022202   0.000000
     19          1.421145   0.000000
     20          2.156332   0.000000
     21          2.626291   0.000000
     22          2.840869   0.000000
     23          4.622364   0.000000
     24          4.795810   0.000000
 
  0.3200000E+00  0.3593731E-16  0.0000000E+00  0.3200000E-02
      1        -19.529714   1.000000
      2        -17.164884   1.000000
      3        -16.346319   1.000000
      4        -14.055183   1.000000
      5        -12.516338   1.000000
      6        -10.988831   1.000000
      7         -9.457842   1.000000
      8         -9.352816   1.000000
      9         -8.105035   1.000000
     10         -7.768226   1.000000
     11         -6.290233   1.000000
     12         -5.865782   1.000000
     13         -5.594860   1.000000
     14         -4.683453   1.000000
     15         -4.588180   1.000000
     16         -2.977526   0.000000
     17          0.427790   0.000000
     18          1.177771   0.000000
     19          1.597962   0.000000
     20          2.433605   0.000000
     21          3.010476   0.000000
     22          3.019717   0.000000
     23          4.220793   0.000000
     24          4.943062   0.000000
 
  0.3263103E-16  0.3200000E+00  0.0000000E+00  0.3200000E-02
      1        -19.529717   1.000000
      2        -17.164867   1.000000
      3        -16.346330   1.000000
      4        -14.055193   1.000000
      5        -12.516342   1.000000
      6        -10.988822   1.000000
      7         -9.457848   1.000000
      8         -9.352813   1.000000
      9         -8.105037   1.000000
     10         -7.768195   1.000000
     11         -6.290260   1.000000
     12         -5.865774   1.000000
     13         -5.594840   1.000000
     14         -4.683463   1.000000
     15         -4.588199   1.000000
     16         -2.977517   0.000000
     17          0.427788   0.000000
     18          1.177758   0.000000
     19          1.597962   0.000000
     20          2.433601   0.000000
     21          3.010485   0.000000
     22          3.019717   0.000000
     23          4.220793   0.000000
     24          4.943070   0.000000
 
 -0.3200000E+00  0.3200000E+00  0.0000000E+00  0.3200000E-02
      1        -19.529698   1.000000
      2        -17.165012   1.000000
      3        -16.346207   1.000000
      4        -14.055131   1.000000
      5        -12.516362   1.000000
      6        -10.988884   1.000000
      7         -9.457776   1.000000
      8         -9.352811   1.000000
      9         -8.105027   1.000000
     10         -7.768367   1.000000
     11         -6.290119   1.000000
     12         -5.865837   1.000000
     13         -5.594896   1.000000
     14         -4.683382   1.000000
     15         -4.588159   1.000000
     16         -2.977556   0.000000
     17          0.427757   0.000000
     18          1.177830   0.000000
     19          1.597962   0.000000
     20          2.433632   0.000000
     21          3.010435   0.000000
     22          3.019716   0.000000
     23          4.220793   0.000000
     24          4.943098   0.000000
 
  0.3600000E+00  0.3897169E-16  0.0000000E+00  0.3200000E-02
      1        -19.457700   1.000000
      2        -17.326259   1.000000
      3        -16.388472   1.000000
      4        -14.105868   1.000000
      5        -12.305929   1.000000
      6        -10.678052   1.000000
      7         -9.557189   1.000000
      8         -9.129035   1.000000
      9         -8.026837   1.000000
     10         -7.964686   1.000000
     11         -6.236616   1.000000
     12         -6.107922   1.000000
     13         -5.987565   1.000000
     14         -4.729450   1.000000
     15         -4.710768   1.000000
     16         -3.049331   0.000000
     17          0.531225   0.000000
     18          1.319026   0.000000
     19          1.797964   0.000000
     20          2.669508   0.000000
     21          3.222222   0.000000
     22          3.458178   0.000000
     23          3.839780   0.000000
     24          4.730672   0.000000
 
  0.7909838E-17  0.3600000E+00  0.0000000E+00  0.3200000E-02
      1        -19.457703   1.000000
      2        -17.326243   1.000000
      3        -16.388484   1.000000
      4        -14.105878   1.000000
      5        -12.305935   1.000000
      6        -10.678044   1.000000
      7         -9.557184   1.000000
      8         -9.129044   1.000000
      9         -8.026801   1.000000
     10         -7.964688   1.000000
     11         -6.236644   1.000000
     12         -6.107913   1.000000
     13         -5.987546   1.000000
     14         -4.729468   1.000000
     15         -4.710778   1.000000
     16         -3.049322   0.000000
     17          0.531223   0.000000
     18          1.319014   0.000000
     19          1.797964   0.000000
     20          2.669504   0.000000
     21          3.222222   0.000000
     22          3.458186   0.000000
     23          3.839780   0.000000
     24          4.730677   0.000000
 
 -0.3600000E+00  0.3600000E+00  0.0000000E+00  0.3200000E-02
      1        -19.457679   1.000000
      2        -17.326391   1.000000
      3        -16.388363   1.000000
      4        -14.105819   1.000000
      5        -12.305949   1.000000
      6        -10.678105   1.000000
      7         -9.557183   1.000000
      8         -9.128943   1.000000
      9         -8.027001   1.000000
     10         -7.964673   1.000000
     11         -6.236498   1.000000
     12         -6.107978   1.000000
     13         -5.987601   1.000000
     14         -4.729437   1.000000
     15         -4.710698   1.000000
     16         -3.049363   0.000000
     17          0.531193   0.000000
     18          1.319086   0.000000
     19          1.797963   0.000000
     20          2.669530   0.000000
     21          3.222221   0.000000
     22          3.458142   0.000000
     23          3.839780   0.000000
     24          4.730697   0.000000
 
  0.4000000E+00  0.6976165E-16  0.0000000E+00  0.3200000E-02
      1        -19.392531   1.000000
      2        -17.460264   1.000000
      3        -16.421198   1.000000
      4        -14.145073   1.000000
      5        -12.112421   1.000000
      6        -10.366482   1.000000
      7         -9.749036   1.000000
      8         -8.913640   1.000000
      9         -8.160452   1.000000
     10         -7.822013   1.000000
     11         -6.393310   1.000000
     12         -6.330210   1.000000
     13         -6.178856   1.000000
     14         -4.854593   1.000000
     15         -4.732399   1.000000
     16         -3.102615   0.000000
     17          0.616810   0.000000
     18          1.436934   0.000000
     19          2.021089   0.000000
     20          2.902825   0.000000
     21          3.448330   0.000000
     22          3.480417   0.000000
     23          3.895285   0.000000
     24          4.426651   0.000000
 
  0.6976165E-16  0.4000000E+00  0.0000000E+00  0.3200000E-02
      1        -19.392535   1.000000
      2        -17.460247   1.000000
      3        -16.421209   1.000000
      4        -14.145082   1.000000
      5        -12.112428   1.000000
      6        -10.366477   1.000000
      7         -9.749031   1.000000
      8         -8.913650   1.000000
      9         -8.160414   1.000000
     10         -7.822017   1.000000
     11         -6.393291   1.000000
     12         -6.330201   1.000000
     13         -6.178885   1.000000
     14         -4.854610   1.000000
     15         -4.732408   1.000000
     16         -3.102607   0.000000
     17          0.616807   0.000000
     18          1.436921   0.000000
     19          2.021089   0.000000
     20          2.902821   0.000000
     21          3.448330   0.000000
     22          3.480417   0.000000
     23          3.895288   0.000000
     24          4.426657   0.000000
 
 -0.4000000E+00  0.4000000E+00  0.0000000E+00  0.3200000E-02
      1        -19.392504   1.000000
      2        -17.460399   1.000000
      3        -16.421091   1.000000
      4        -14.145024   1.000000
      5        -12.112439   1.000000
      6        -10.366534   1.000000
      7         -9.749030   1.000000
      8         -8.913532   1.000000
      9         -8.160630   1.000000
     10         -7.821995   1.000000
     11         -6.393347   1.000000
     12         -6.330270   1.000000
     13         -6.178732   1.000000
     14         -4.854590   1.000000
     15         -4.732330   1.000000
     16         -3.102648   0.000000
     17          0.616778   0.000000
     18          1.436996   0.000000
     19          2.021089   0.000000
     20          2.902840   0.000000
     21          3.448333   0.000000
     22          3.480414   0.000000
     23          3.895251   0.000000
     24          4.426669   0.000000
 
  0.4400000E+00  0.7279603E-16  0.0000000E+00  0.3200000E-02
      1        -19.341948   1.000000
      2        -17.557560   1.000000
      3        -16.443517   1.000000
      4        -14.171732   1.000000
      5        -11.956826   1.000000
      6        -10.068317   1.000000
      7         -9.904971   1.000000