   8   8   0   0
  0.4338553E+02  0.5169000E-09  0.5169000E-09  0.1500000E-08  0.5000000E-15
  1.000000000000000E-004
  CAR 
 BC3                                     
      9.53060760    -21.28559801  301     -3.47912723      1.00000000
    -21.286  0.0000E+00  0.0000E+00
    -21.183  0.0000E+00  0.0000E+00
    -21.080  0.0000E+00  0.0000E+00
    -20.977  0.0000E+00  0.0000E+00
    -20.875  0.0000E+00  0.0000E+00
    -20.772  0.0000E+00  0.0000E+00
    -20.669  0.0000E+00  0.0000E+00
    -20.567  0.0000E+00  0.0000E+00
    -20.464  0.1103E-18  0.1133E-19
    -20.361  0.1494E-13  0.1534E-14
    -20.258  0.1443E-09  0.1482E-10
    -20.156  0.1912E-06  0.1965E-07
    -20.053  0.3710E-04  0.3831E-05
    -19.950  0.1199E-02  0.1270E-03
    -19.848  0.8107E-02  0.9597E-03
    -19.745  0.1714E-01  0.2720E-02
    -19.642  0.2080E-01  0.4857E-02
    -19.539  0.2343E-01  0.7263E-02
    -19.437  0.2878E-01  0.1022E-01
    -19.334  0.3995E-01  0.1432E-01
    -19.231  0.3924E-01  0.1835E-01
    -19.128  0.1455E-01  0.1985E-01
    -19.026  0.1435E-02  0.2000E-01
    -18.923  0.2899E-04  0.2000E-01
    -18.820  0.9779E-07  0.2000E-01
    -18.718  0.4856E-10  0.2000E-01
    -18.615  0.3293E-14  0.2000E-01
    -18.512  0.0000E+00  0.2000E-01
    -18.409  0.0000E+00  0.2000E-01
    -18.307  0.0000E+00  0.2000E-01
    -18.204  0.1654E-18  0.2000E-01
    -18.101  0.1089E-13  0.2000E-01
    -17.999  0.1124E-09  0.2000E-01
    -17.896  0.1628E-06  0.2000E-01
    -17.793  0.3603E-04  0.2000E-01
    -17.690  0.1363E-02  0.2014E-01
    -17.588  0.1060E-01  0.2123E-01
    -17.485  0.2529E-01  0.2383E-01
    -17.382  0.3226E-01  0.2715E-01
    -17.279  0.2721E-01  0.2994E-01
    -17.177  0.1994E-01  0.3199E-01
    -17.074  0.1812E-01  0.3385E-01
    -16.971  0.1929E-01  0.3583E-01
    -16.869  0.2032E-01  0.3792E-01
    -16.766  0.2090E-01  0.4007E-01
    -16.663  0.2442E-01  0.4257E-01
    -16.560  0.2674E-01  0.4532E-01
    -16.458  0.3568E-01  0.4899E-01
    -16.355  0.3279E-01  0.5235E-01
    -16.252  0.2667E-01  0.5509E-01
    -16.150  0.2033E-01  0.5718E-01
    -16.047  0.1638E-01  0.5886E-01
    -15.944  0.9137E-02  0.5980E-01
    -15.841  0.1824E-02  0.5999E-01
    -15.739  0.9054E-04  0.6000E-01
    -15.636  0.8248E-06  0.6000E-01
    -15.533  0.1151E-08  0.6000E-01
    -15.431  0.2247E-12  0.6000E-01
    -15.328  0.5404E-17  0.6000E-01
    -15.225  0.0000E+00  0.6000E-01
    -15.122  0.0000E+00  0.6000E-01
    -15.020  0.0000E+00  0.6000E-01
    -14.917  0.0000E+00  0.6000E-01
    -14.814  0.0000E+00  0.6000E-01
    -14.711  0.2102E-15  0.6000E-01
    -14.609  0.4703E-11  0.6000E-01
    -14.506  0.1389E-07  0.6000E-01
    -14.403  0.5645E-05  0.6000E-01
    -14.301  0.3452E-03  0.6004E-01
    -14.198  0.3992E-02  0.6045E-01
    -14.095  0.1414E-01  0.6190E-01
    -13.992  0.2271E-01  0.6423E-01
    -13.890  0.2152E-01  0.6644E-01
    -13.787  0.3005E-01  0.6953E-01
    -13.684  0.4022E-01  0.7366E-01
    -13.582  0.2302E-01  0.7602E-01
    -13.479  0.1632E-01  0.7770E-01
    -13.376  0.2051E-01  0.7981E-01
    -13.273  0.1391E-01  0.8124E-01
    -13.171  0.1172E-01  0.8244E-01
    -13.068  0.1205E-01  0.8368E-01
    -12.965  0.1538E-01  0.8526E-01
    -12.863  0.1518E-01  0.8682E-01
    -12.760  0.8774E-02  0.8772E-01
    -12.657  0.1880E-01  0.8965E-01
    -12.554  0.2599E-01  0.9232E-01
    -12.452  0.1562E-01  0.9392E-01
    -12.349  0.1376E-01  0.9534E-01
    -12.246  0.1981E-01  0.9737E-01
    -12.143  0.1738E-01  0.9916E-01
    -12.041  0.9529E-02  0.1001E+00
    -11.938  0.1346E-01  0.1015E+00
    -11.835  0.1298E-01  0.1029E+00
    -11.733  0.6578E-02  0.1035E+00
    -11.630  0.2220E-02  0.1038E+00
    -11.527  0.1417E-02  0.1039E+00
    -11.424  0.7339E-02  0.1047E+00
    -11.322  0.8863E-02  0.1056E+00
    -11.219  0.5668E-02  0.1061E+00
    -11.116  0.5024E-02  0.1067E+00
    -11.014  0.3890E-02  0.1071E+00
    -10.911  0.1240E-01  0.1083E+00
    -10.808  0.2057E-01  0.1105E+00
    -10.705  0.1391E-01  0.1119E+00
    -10.603  0.1322E-01  0.1132E+00
    -10.500  0.1239E-01  0.1145E+00
    -10.397  0.2031E-01  0.1166E+00
    -10.294  0.3164E-01  0.1198E+00
    -10.192  0.1906E-01  0.1218E+00
    -10.089  0.1517E-01  0.1234E+00
     -9.986  0.1493E-01  0.1249E+00
     -9.884  0.1220E-01  0.1261E+00
     -9.781  0.2610E-01  0.1288E+00
     -9.678  0.3150E-01  0.1321E+00
     -9.575  0.2150E-01  0.1343E+00
     -9.473  0.1986E-01  0.1363E+00
     -9.370  0.2303E-01  0.1387E+00
     -9.267  0.1343E-01  0.1401E+00
     -9.165  0.1360E-01  0.1415E+00
     -9.062  0.2726E-01  0.1443E+00
     -8.959  0.3139E-01  0.1475E+00
     -8.856  0.2459E-01  0.1500E+00
     -8.754  0.1931E-01  0.1520E+00
     -8.651  0.2371E-01  0.1544E+00
     -8.548  0.3475E-01  0.1580E+00
     -8.446  0.2957E-01  0.1610E+00
     -8.343  0.2208E-01  0.1633E+00
     -8.240  0.1987E-01  0.1653E+00
     -8.137  0.1974E-01  0.1674E+00
     -8.035  0.2699E-01  0.1701E+00
     -7.932  0.2909E-01  0.1731E+00
     -7.829  0.3788E-01  0.1770E+00
     -7.726  0.4864E-01  0.1820E+00
     -7.624  0.4422E-01  0.1866E+00
     -7.521  0.3466E-01  0.1901E+00
     -7.418  0.2680E-01  0.1929E+00
     -7.316  0.1863E-01  0.1948E+00
     -7.213  0.1947E-01  0.1968E+00
     -7.110  0.2100E-01  0.1989E+00
     -7.007  0.1857E-01  0.2009E+00
     -6.905  0.1284E-01  0.2022E+00
     -6.802  0.1910E-01  0.2041E+00
     -6.699  0.1879E-01  0.2061E+00
     -6.597  0.2607E-01  0.2087E+00
     -6.494  0.4152E-01  0.2130E+00
     -6.391  0.6819E-01  0.2200E+00
     -6.288  0.8155E-01  0.2284E+00
     -6.186  0.5716E-01  0.2343E+00
     -6.083  0.3674E-01  0.2380E+00
     -5.980  0.2792E-01  0.2409E+00
     -5.877  0.2701E-01  0.2437E+00
     -5.775  0.2106E-01  0.2458E+00
     -5.672  0.2062E-01  0.2480E+00
     -5.569  0.3201E-01  0.2512E+00
     -5.467  0.2251E-01  0.2536E+00
     -5.364  0.2658E-01  0.2563E+00
     -5.261  0.3381E-01  0.2598E+00
     -5.158  0.3220E-01  0.2631E+00
     -5.056  0.3199E-01  0.2664E+00
     -4.953  0.4561E-01  0.2710E+00
     -4.850  0.4547E-01  0.2757E+00
     -4.748  0.4348E-01  0.2802E+00
     -4.645  0.4867E-01  0.2852E+00
     -4.542  0.3761E-01  0.2890E+00
     -4.439  0.2849E-01  0.2920E+00
     -4.337  0.1832E-01  0.2938E+00
     -4.234  0.9239E-02  0.2948E+00
     -4.131  0.1367E-01  0.2962E+00
     -4.029  0.1204E-01  0.2974E+00
     -3.926  0.1038E-01  0.2985E+00
     -3.823  0.9747E-02  0.2995E+00
     -3.720  0.4231E-02  0.2999E+00
     -3.618  0.5798E-03  0.3000E+00
     -3.515  0.1805E-04  0.3000E+00
     -3.412  0.7670E-06  0.3000E+00
     -3.309  0.8006E-04  0.3000E+00
     -3.207  0.1541E-02  0.3002E+00
     -3.104  0.6295E-02  0.3008E+00
     -3.001  0.1260E-01  0.3021E+00
     -2.899  0.2003E-01  0.3042E+00
     -2.796  0.1651E-01  0.3059E+00
     -2.693  0.1774E-01  0.3077E+00
     -2.590  0.3235E-01  0.3110E+00
     -2.488  0.2562E-01  0.3136E+00
     -2.385  0.1169E-01  0.3148E+00
     -2.282  0.1027E-01  0.3159E+00
     -2.180  0.1205E-01  0.3171E+00
     -2.077  0.1128E-01  0.3183E+00
     -1.974  0.4539E-02  0.3188E+00
     -1.871  0.3460E-02  0.3191E+00
     -1.769  0.2756E-02  0.3194E+00
     -1.666  0.2768E-02  0.3197E+00
     -1.563  0.2637E-02  0.3200E+00
     -1.461  0.4722E-03  0.3200E+00
     -1.358  0.1333E-04  0.3200E+00
     -1.255  0.4193E-04  0.3200E+00
     -1.152  0.9024E-03  0.3201E+00
     -1.050  0.3107E-02  0.3204E+00
     -0.947  0.2555E-02  0.3207E+00
     -0.844  0.3168E-02  0.3210E+00
     -0.741  0.2205E-02  0.3212E+00
     -0.639  0.3833E-02  0.3216E+00
     -0.536  0.1045E-01  0.3227E+00
     -0.433  0.8986E-02  0.3236E+00
     -0.331  0.5216E-02  0.3242E+00
     -0.228  0.1106E-01  0.3253E+00
     -0.125  0.3377E-01  0.3288E+00
     -0.022  0.3348E-01  0.3322E+00
      0.080  0.1846E-01  0.3341E+00
      0.183  0.1303E-01  0.3354E+00
      0.286  0.1263E-01  0.3367E+00
      0.388  0.1890E-01  0.3387E+00
      0.491  0.1847E-01  0.3406E+00
      0.594  0.1090E-01  0.3417E+00
      0.697  0.9851E-02  0.3427E+00
      0.799  0.1311E-01  0.3440E+00
      0.902  0.1727E-01  0.3458E+00
      1.005  0.1597E-01  0.3475E+00
      1.108  0.1640E-01  0.3491E+00
      1.210  0.2296E-01  0.3515E+00
      1.313  0.2077E-01  0.3536E+00
      1.416  0.1695E-01  0.3554E+00
      1.518  0.2415E-01  0.3579E+00
      1.621  0.2764E-01  0.3607E+00
      1.724  0.1803E-01  0.3626E+00
      1.827  0.2327E-01  0.3649E+00
      1.929  0.3816E-01  0.3689E+00
      2.032  0.2813E-01  0.3718E+00
      2.135  0.2007E-01  0.3738E+00
      2.237  0.3312E-01  0.3772E+00
      2.340  0.3993E-01  0.3813E+00
      2.443  0.4411E-01  0.3858E+00
      2.546  0.3811E-01  0.3898E+00
      2.648  0.2915E-01  0.3928E+00
      2.751  0.4310E-01  0.3972E+00
      2.854  0.4290E-01  0.4016E+00
      2.956  0.3307E-01  0.4050E+00
      3.059  0.3758E-01  0.4088E+00
      3.162  0.3777E-01  0.4127E+00
      3.265  0.4097E-01  0.4169E+00
      3.367  0.4547E-01  0.4216E+00
      3.470  0.3134E-01  0.4248E+00
      3.573  0.2536E-01  0.4274E+00
      3.676  0.4519E-01  0.4321E+00
      3.778  0.4691E-01  0.4369E+00
      3.881  0.4068E-01  0.4411E+00
      3.984  0.3299E-01  0.4445E+00
      4.086  0.3413E-01  0.4480E+00
      4.189  0.3423E-01  0.4515E+00
      4.292  0.3937E-01  0.4555E+00
      4.395  0.4206E-01  0.4598E+00
      4.497  0.4792E-01  0.4648E+00
      4.600  0.4718E-01  0.4696E+00
      4.703  0.5012E-01  0.4748E+00
      4.805  0.4815E-01  0.4797E+00
      4.908  0.4743E-01  0.4846E+00
      5.011  0.6410E-01  0.4912E+00
      5.114  0.6878E-01  0.4982E+00
      5.216  0.6877E-01  0.5053E+00
      5.319  0.6206E-01  0.5117E+00
      5.422  0.6858E-01  0.5187E+00
      5.525  0.8573E-01  0.5275E+00
      5.627  0.7734E-01  0.5355E+00
      5.730  0.6108E-01  0.5417E+00
      5.833  0.7295E-01  0.5492E+00
      5.935  0.7478E-01  0.5569E+00
      6.038  0.7358E-01  0.5645E+00
      6.141  0.7720E-01  0.5724E+00
      6.244  0.5942E-01  0.5785E+00
      6.346  0.7121E-01  0.5858E+00
      6.449  0.7912E-01  0.5939E+00
      6.552  0.7523E-01  0.6017E+00
      6.654  0.7507E-01  0.6094E+00
      6.757  0.6349E-01  0.6159E+00
      6.860  0.6058E-01  0.6221E+00
      6.963  0.5779E-01  0.6281E+00
      7.065  0.3917E-01  0.6321E+00
      7.168  0.2660E-01  0.6348E+00
      7.271  0.1185E-01  0.6360E+00
      7.373  0.9731E-02  0.6370E+00
      7.476  0.9761E-02  0.6380E+00
      7.579  0.4915E-02  0.6385E+00
      7.682  0.6044E-02  0.6392E+00
      7.784  0.4629E-02  0.6396E+00
      7.887  0.1110E-02  0.6398E+00
      7.990  0.5974E-03  0.6398E+00
      8.093  0.8480E-03  0.6399E+00
      8.195  0.7704E-03  0.6400E+00
      8.298  0.1869E-03  0.6400E+00
      8.401  0.8819E-05  0.6400E+00
      8.503  0.6396E-07  0.6400E+00
      8.606  0.6335E-10  0.6400E+00
      8.709  0.8133E-14  0.6400E+00
      8.812  0.1103E-18  0.6400E+00
      8.914  0.0000E+00  0.6400E+00
      9.017  0.0000E+00  0.6400E+00
      9.120  0.0000E+00  0.6400E+00
      9.222  0.0000E+00  0.6400E+00
      9.325  0.0000E+00  0.6400E+00
      9.428  0.0000E+00  0.6400E+00
      9.531  0.0000E+00  0.6400E+00
