 running   24 mpi-ranks, on    1 nodes
 distrk:  each k-point on   24 cores,    1 groups
 distr:  one band on    1 cores,   24 groups
 vasp.6.3.2 27Jun22 (build May 31 2023 12:07:17) complex                        
  
 POSCAR found type information on POSCAR B C 
 POSCAR found :  2 types and      15 ions
 Reading from existing POTCAR
 scaLAPACK will be used
 -----------------------------------------------------------------------------
|                                                                             |
|           W    W    AA    RRRRR   N    N  II  N    N   GGGG   !!!           |
|           W    W   A  A   R    R  NN   N  II  NN   N  G    G  !!!           |
|           W    W  A    A  R    R  N N  N  II  N N  N  G       !!!           |
|           W WW W  AAAAAA  RRRRR   N  N N  II  N  N N  G  GGG   !            |
|           WW  WW  A    A  R   R   N   NN  II  N   NN  G    G                |
|           W    W  A    A  R    R  N    N  II  N    N   GGGG   !!!           |
|                                                                             |
|     For optimal performance we recommend to set                             |
|       NCORE = 2 up to number-of-cores-per-socket                            |
|     NCORE specifies how many cores store one orbital (NPAR=cpu/NCORE).      |
|     This setting can greatly improve the performance of VASP for DFT.       |
|     The default, NCORE=1 might be grossly inefficient on modern             |
|     multi-core architectures or massively parallel machines. Do your        |
|     own testing! More info at https://www.vasp.at/wiki/index.php/NCORE      |
|     Unfortunately you need to use the default for GW and RPA                |
|     calculations (for HF NCORE is supported but not extensively tested      |
|     yet).                                                                   |
|                                                                             |
 -----------------------------------------------------------------------------

 Reading from existing POTCAR
 LDA part: xc-table for Pade appr. of Perdew
 -----------------------------------------------------------------------------
|                                                                             |
|           W    W    AA    RRRRR   N    N  II  N    N   GGGG   !!!           |
|           W    W   A  A   R    R  NN   N  II  NN   N  G    G  !!!           |
|           W    W  A    A  R    R  N N  N  II  N N  N  G       !!!           |
|           W WW W  AAAAAA  RRRRR   N  N N  II  N  N N  G  GGG   !            |
|           WW  WW  A    A  R   R   N   NN  II  N   NN  G    G                |
|           W    W  A    A  R    R  N    N  II  N    N   GGGG   !!!           |
|                                                                             |
|     The number of bands has been changed from the values supplied in        |
|     the INCAR file. This is a result of running the parallel version.       |
|     The orbitals not found in the WAVECAR file will be initialized with     |
|     random numbers, which is usually adequate. For correlated               |
|     calculations, however, you should redo the groundstate calculation.     |
|     I found NBANDS = 128. Now, NBANDS = 144.                                |
|                                                                             |
 -----------------------------------------------------------------------------

 found WAVECAR, reading the header
  number of bands has changed, file:    48 present:   144
  trying to continue reading WAVECAR, but it might fail
  number of k-points has changed, file:   145 present:     5
  trying to continue reading WAVECAR, but it might fail
 POSCAR, INCAR and KPOINTS ok, starting setup
 FFT: planning ... GRIDC
 FFT: planning ... GRID_SOFT
 FFT: planning ... GRID
 reading WAVECAR
 random initialization beyond band           48
 the WAVECAR file was read successfully
 initial charge from wavefunction
 entering main loop
       N       E                     dE             d eps       ncg     rms          ort
 gam= 0.000 g(H,U,f)=  0.276E+02 0.521E+02 0.113E-13 ort(H,U,f) = 0.000E+00 0.000E+00 0.000E+00
SDA:   1    -0.886797824106E+02   -0.88680E+02   -0.31862E+02   720   0.797E+02 0.000E+00
 gam= 0.382 g(H,U,f)=  0.100E+02 0.265E+02 0.947E-16 ort(H,U,f) = 0.107E+02 0.307E+02-0.278E-15
DMP:   2    -0.113367521186E+03   -0.24688E+02   -0.20933E+02   720   0.365E+02 0.415E+02
 gam= 0.382 g(H,U,f)=  0.433E+01 0.105E+02 0.629E-13 ort(H,U,f) = 0.501E+01 0.194E+02-0.286E-14
DMP:   3    -0.128827193724E+03   -0.15460E+02   -0.96436E+01   720   0.148E+02 0.244E+02
 gam= 0.382 g(H,U,f)=  0.157E+01 0.447E+01 0.173E-12 ort(H,U,f) = 0.187E+01 0.101E+02 0.187E-12
DMP:   4    -0.136145608961E+03   -0.73184E+01   -0.42452E+01   720   0.603E+01 0.120E+02
 gam= 0.382 g(H,U,f)=  0.580E+00 0.214E+01 0.819E-13 ort(H,U,f) = 0.488E+00 0.540E+01 0.317E-12
DMP:   5    -0.139532951979E+03   -0.33873E+01   -0.19884E+01   720   0.272E+01 0.589E+01
 gam= 0.382 g(H,U,f)=  0.268E+00 0.109E+01 0.131E-14 ort(H,U,f) = 0.922E-01 0.300E+01 0.522E-14
DMP:   6    -0.141192297998E+03   -0.16593E+01   -0.10168E+01   720   0.136E+01 0.309E+01
 gam= 0.382 g(H,U,f)=  0.139E+00 0.571E+00 0.432E-16 ort(H,U,f) = 0.449E-01 0.169E+01 0.178E-15
DMP:   7    -0.142065317491E+03   -0.87302E+00   -0.54844E+00   720   0.710E+00 0.173E+01
 gam= 0.382 g(H,U,f)=  0.622E-01 0.297E+00 0.000E+00 ort(H,U,f) = 0.395E-01 0.940E+00 0.000E+00
DMP:   8    -0.142541120980E+03   -0.47580E+00   -0.29341E+00   720   0.359E+00 0.980E+00
 gam= 0.382 g(H,U,f)=  0.218E-01 0.152E+00 0.280E-16 ort(H,U,f) = 0.205E-01 0.509E+00 0.140E-15
DMP:   9    -0.142795558904E+03   -0.25444E+00   -0.15040E+00   720   0.174E+00 0.529E+00
 gam= 0.382 g(H,U,f)=  0.680E-02 0.747E-01 0.000E+00 ort(H,U,f) = 0.564E-02 0.262E+00 0.000E+00
DMP:  10    -0.142925214392E+03   -0.12966E+00   -0.73509E-01   720   0.815E-01 0.268E+00
 gam= 0.382 g(H,U,f)=  0.266E-02 0.345E-01 0.443E-16 ort(H,U,f) = 0.892E-03 0.127E+00 0.230E-15
DMP:  11    -0.142987973690E+03   -0.62759E-01   -0.34410E-01   720   0.372E-01 0.128E+00
 gam= 0.382 g(H,U,f)=  0.127E-02 0.150E-01 0.000E+00 ort(H,U,f) = 0.554E-03 0.576E-01 0.000E+00
DMP:  12    -0.143016975774E+03   -0.29002E-01   -0.15366E-01   720   0.162E-01 0.581E-01
 gam= 0.382 g(H,U,f)=  0.552E-03 0.610E-02 0.194E-16 ort(H,U,f) = 0.552E-03 0.245E-01 0.713E-16
DMP:  13    -0.143029728771E+03   -0.12753E-01   -0.64850E-02   720   0.665E-02 0.250E-01
 gam= 0.382 g(H,U,f)=  0.210E-03 0.236E-02 0.000E+00 ort(H,U,f) = 0.325E-03 0.985E-02 0.000E+00
DMP:  14    -0.143035025766E+03   -0.52970E-02   -0.25811E-02   720   0.257E-02 0.102E-01
 gam= 0.382 g(H,U,f)=  0.762E-04 0.873E-03 0.460-259 ort(H,U,f) = 0.137E-03 0.378E-02 0.227-258
DMP:  15    -0.143037104470E+03   -0.20787E-02   -0.97732E-03   720   0.949E-03 0.391E-02
 gam= 0.382 g(H,U,f)=  0.300E-04 0.315E-03 0.689-218 ort(H,U,f) = 0.510E-04 0.139E-02 0.375-217
DMP:  16    -0.143037883557E+03   -0.77909E-03   -0.35847E-03   720   0.345E-03 0.144E-02
 gam= 0.382 g(H,U,f)=  0.128E-04 0.114E-03 0.339-187 ort(H,U,f) = 0.210E-04 0.502E-03 0.209-186
DMP:  17    -0.143038167975E+03   -0.28442E-03   -0.13069E-03   720   0.127E-03 0.523E-03
 gam= 0.382 g(H,U,f)=  0.581E-05 0.443E-04 0.173E-16 ort(H,U,f) = 0.990E-05 0.182E-03 0.572E-16
DMP:  18    -0.143038272000E+03   -0.10403E-03   -0.49415E-04   720   0.501E-04 0.192E-03
 gam= 0.382 g(H,U,f)=  0.284E-05 0.202E-04 0.193-179 ort(H,U,f) = 0.518E-05 0.708E-04 0.184-178
DMP:  19    -0.143038312017E+03   -0.40017E-04   -0.20831E-04   720   0.230E-04 0.760E-04
 gam= 0.382 g(H,U,f)=  0.161E-05 0.115E-04 0.145E-17 ort(H,U,f) = 0.303E-05 0.322E-04 0.622E-17
DMP:  20    -0.143038329524E+03   -0.17507E-04   -0.10615E-04   720   0.131E-04 0.352E-04
 gam= 0.382 g(H,U,f)=  0.103E-05 0.786E-05 0.136E-20 ort(H,U,f) = 0.198E-05 0.181E-04 0.745E-20
DMP:  21    -0.143038338887E+03   -0.93626E-05   -0.66337E-05   720   0.889E-05 0.201E-04
 gam= 0.382 g(H,U,f)=  0.726E-06 0.599E-05 0.383E-21 ort(H,U,f) = 0.140E-05 0.124E-04 0.342E-20
DMP:  22    -0.143038344974E+03   -0.60873E-05   -0.47897E-05   720   0.672E-05 0.138E-04
 gam= 0.382 g(H,U,f)=  0.548E-06 0.479E-05 0.837-177 ort(H,U,f) = 0.105E-05 0.940E-05-0.107-176
DMP:  23    -0.143038349470E+03   -0.44963E-05   -0.37311E-05   720   0.534E-05 0.104E-04
 gam= 0.382 g(H,U,f)=  0.427E-06 0.391E-05 0.254E-19 ort(H,U,f) = 0.823E-06 0.751E-05-0.744E-19
DMP:  24    -0.143038353010E+03   -0.35402E-05   -0.30064E-05   720   0.433E-05 0.833E-05
 gam= 0.382 g(H,U,f)=  0.346E-06 0.322E-05 0.190-176 ort(H,U,f) = 0.659E-06 0.613E-05 0.379-176
DMP:  25    -0.143038355877E+03   -0.28664E-05   -0.24609E-05   720   0.356E-05 0.678E-05
 gam= 0.382 g(H,U,f)=  0.285E-06 0.266E-05 0.345E-21 ort(H,U,f) = 0.539E-06 0.504E-05 0.425E-21
DMP:  26    -0.143038358229E+03   -0.23521E-05   -0.20308E-05   720   0.294E-05 0.558E-05
 gam= 0.382 g(H,U,f)=  0.240E-06 0.221E-05 0.799E-20 ort(H,U,f) = 0.448E-06 0.417E-05 0.155E-19
DMP:  27    -0.143038360172E+03   -0.19438E-05   -0.16848E-05   720   0.245E-05 0.462E-05
 gam= 0.382 g(H,U,f)=  0.205E-06 0.184E-05-0.193-170 ort(H,U,f) = 0.378E-06 0.347E-05 0.124-169
DMP:  28    -0.143038361787E+03   -0.16141E-05   -0.14040E-05   720   0.204E-05 0.384E-05
 gam= 0.382 g(H,U,f)=  0.178E-06 0.153E-05 0.256-172 ort(H,U,f) = 0.323E-06 0.289E-05-0.167-172
DMP:  29    -0.143038363133E+03   -0.13462E-05   -0.11746E-05   720   0.171E-05 0.321E-05
 gam= 0.382 g(H,U,f)=  0.155E-06 0.128E-05 0.453-173 ort(H,U,f) = 0.280E-06 0.241E-05 0.220-173
DMP:  30    -0.143038364260E+03   -0.11268E-05   -0.98556E-06   720   0.144E-05 0.269E-05
 gam= 0.382 g(H,U,f)=  0.134E-06 0.108E-05 0.408-173 ort(H,U,f) = 0.243E-06 0.202E-05 0.404-173
DMP:  31    -0.143038365205E+03   -0.94584E-06   -0.82884E-06   720   0.121E-05 0.226E-05
 gam= 0.382 g(H,U,f)=  0.117E-06 0.904E-06 0.213-172 ort(H,U,f) = 0.210E-06 0.169E-05 0.272-172
DMP:  32    -0.143038366001E+03   -0.79570E-06   -0.69900E-06   720   0.102E-05 0.190E-05
 gam= 0.382 g(H,U,f)=  0.101E-06 0.763E-06 0.596-171 ort(H,U,f) = 0.182E-06 0.142E-05 0.866-171
DMP:  33    -0.143038366672E+03   -0.67129E-06   -0.59096E-06   720   0.864E-06 0.161E-05
 gam= 0.382 g(H,U,f)=  0.869E-07 0.646E-06 0.786-169 ort(H,U,f) = 0.157E-06 0.120E-05 0.124-168
DMP:  34    -0.143038367240E+03   -0.56786E-06   -0.50096E-06   720   0.733E-06 0.136E-05
 gam= 0.382 g(H,U,f)=  0.749E-07 0.550E-06 0.422E-22 ort(H,U,f) = 0.135E-06 0.102E-05-0.579E-22
DMP:  35    -0.143038367722E+03   -0.48170E-06   -0.42613E-06   720   0.625E-06 0.115E-05
 gam= 0.382 g(H,U,f)=  0.650E-07 0.470E-06 0.844E-23 ort(H,U,f) = 0.117E-06 0.867E-06-0.307E-24
DMP:  36    -0.143038368132E+03   -0.41007E-06   -0.36406E-06   720   0.535E-06 0.983E-06
 gam= 0.382 g(H,U,f)=  0.567E-07 0.403E-06 0.823E-24 ort(H,U,f) = 0.101E-06 0.741E-06 0.470E-24
DMP:  37    -0.143038368483E+03   -0.35074E-06   -0.31255E-06   720   0.460E-06 0.842E-06
 gam= 0.382 g(H,U,f)=  0.502E-07 0.348E-06 0.138-179 ort(H,U,f) = 0.875E-07 0.637E-06 0.246-179
DMP:  38    -0.143038368784E+03   -0.30122E-06   -0.26999E-06   720   0.398E-06 0.724E-06
 gam= 0.382 g(H,U,f)=  0.472E-07 0.302E-06 0.545-175 ort(H,U,f) = 0.756E-07 0.550E-06 0.983-175
DMP:  39    -0.143038369045E+03   -0.26085E-06   -0.23551E-06   720   0.350E-06 0.626E-06
 gam= 0.382 g(H,U,f)=  0.608E-07 0.265E-06 0.237-170 ort(H,U,f) = 0.597E-07 0.479E-06 0.431-170
DMP:  40    -0.143038369269E+03   -0.22458E-06   -0.21250E-06   720   0.326E-06 0.539E-06
 gam= 0.382 g(H,U,f)=  0.157E-06 0.233E-06 0.676E-22 ort(H,U,f) = 0.164E-07 0.420E-06 0.875E-22
DMP:  41    -0.143038369466E+03   -0.19651E-06   -0.22293E-06   720   0.391E-06 0.436E-06
 gam= 0.382 g(H,U,f)=  0.728E-06 0.208E-06 0.227E-23 ort(H,U,f) =-0.213E-06 0.371E-06 0.401E-23
DMP:  42    -0.143038369602E+03   -0.13570E-06   -0.39819E-06   720   0.935E-06 0.157E-06
 gam= 0.382 g(H,U,f)=  0.306E-05 0.186E-06 0.937-181 ort(H,U,f) =-0.123E-05 0.330E-06 0.176-180
DMP:  43    -0.143038369638E+03   -0.36393E-07   -0.11619E-05   720   0.325E-05-0.898E-06
 gam= 0.382 g(H,U,f)=  0.109E-04 0.169E-06 0.103-178 ort(H,U,f) =-0.497E-05 0.296E-06 0.180-178
DMP:  44    -0.143038369252E+03    0.38611E-06   -0.37026E-05   720   0.110E-04-0.467E-05
 gam= 0.382 g(H,U,f)=  0.332E-04 0.153E-06 0.881-176 ort(H,U,f) =-0.158E-04 0.268E-06 0.178-175
DMP:  45    -0.143038368061E+03    0.11912E-05   -0.10989E-04   720   0.334E-04-0.155E-04
 gam= 0.382 g(H,U,f)=  0.105E-03 0.143E-06 0.174-173 ort(H,U,f) =-0.489E-04 0.245E-06 0.257-173
DMP:  46    -0.143038363755E+03    0.43058E-05   -0.34562E-04   720   0.105E-03-0.486E-04
 gam= 0.382 g(H,U,f)=  0.324E-03 0.132E-06 0.497-172 ort(H,U,f) =-0.155E-03 0.224E-06 0.108-171
DMP:  47    -0.143038350109E+03    0.13646E-04   -0.10582E-03   720   0.324E-03-0.155E-03
 gam= 0.382 g(H,U,f)=  0.811E-03 0.129E-06 0.925-171 ort(H,U,f) =-0.436E-03 0.205E-06 0.873-171
DMP:  48    -0.143038315804E+03    0.34305E-04   -0.25785E-03   720   0.811E-03-0.436E-03
 gam= 0.382 g(H,U,f)=  0.140E-02 0.128E-06 0.287-170 ort(H,U,f) =-0.883E-03 0.187E-06 0.561-170
DMP:  49    -0.143038268162E+03    0.47642E-04   -0.42380E-03   720   0.140E-02-0.883E-03
 gam= 0.382 g(H,U,f)=  0.148E-02 0.125E-06 0.181-169 ort(H,U,f) =-0.114E-02 0.170E-06 0.180-169
DMP:  50    -0.143038252480E+03    0.15682E-04   -0.41801E-03   720   0.148E-02-0.114E-02
 gam= 0.382 g(H,U,f)=  0.841E-03 0.116E-06 0.121-171 ort(H,U,f) =-0.813E-03 0.161E-06 0.997-169
DMP:  51    -0.143038298860E+03   -0.46381E-04   -0.21202E-03   720   0.841E-03-0.813E-03
 gam= 0.382 g(H,U,f)=  0.272E-03 0.102E-06 0.189E-24 ort(H,U,f) =-0.281E-03 0.158E-06-0.361E-24
DMP:  52    -0.143038348815E+03   -0.49954E-04   -0.65901E-04   720   0.272E-03-0.280E-03
 gam= 0.382 g(H,U,f)=  0.258E-03 0.974E-07-0.863-172 ort(H,U,f) =-0.148E-03 0.155E-06 0.138-171
DMP:  53    -0.143038352073E+03   -0.32581E-05   -0.80466E-04   720   0.258E-03-0.148E-03
 gam= 0.382 g(H,U,f)=  0.362E-03 0.948E-07 0.771E-23 ort(H,U,f) =-0.247E-03 0.148E-06-0.207E-22
DMP:  54    -0.143038342962E+03    0.91112E-05   -0.10728E-03   720   0.363E-03-0.247E-03
 gam= 0.382 g(H,U,f)=  0.358E-03 0.924E-07-0.603-171 ort(H,U,f) =-0.268E-03 0.144E-06 0.330-170
DMP:  55    -0.143038342918E+03    0.43971E-07   -0.10241E-03   720   0.358E-03-0.268E-03
 gam= 0.382 g(H,U,f)=  0.261E-03 0.886E-07 0.267-181 ort(H,U,f) =-0.225E-03 0.140E-06 0.767-182
DMP:  56    -0.143038349210E+03   -0.62922E-05   -0.70040E-04   720   0.261E-03-0.225E-03
 gam= 0.382 g(H,U,f)=  0.100E-03 0.857E-07 0.295E-21 ort(H,U,f) =-0.111E-03 0.137E-06 0.124E-21
DMP:  57    -0.143038362068E+03   -0.12858E-04   -0.23141E-04   720   0.100E-03-0.111E-03
 gam= 0.382 g(H,U,f)=  0.167E-04 0.832E-07 0.305-177 ort(H,U,f) =-0.205E-04 0.136E-06 0.100-176
DMP:  58    -0.143038369567E+03   -0.74992E-05   -0.35959E-05   720   0.168E-04-0.203E-04
 gam= 0.382 g(H,U,f)=  0.102E-04 0.815E-07 0.256E-23 ort(H,U,f) =-0.620E-05 0.133E-06 0.588E-23
DMP:  59    -0.143038370164E+03   -0.59671E-06   -0.32027E-05   720   0.103E-04-0.606E-05
 gam= 0.382 g(H,U,f)=  0.557E-05 0.806E-07 0.100-170 ort(H,U,f) =-0.598E-05 0.131E-06 0.151-170
DMP:  60    -0.143038370589E+03   -0.42581E-06   -0.13664E-05   720   0.565E-05-0.585E-05
 final diagonalization
 -----------------------------------------------------------------------------
|                                                                             |
|           W    W    AA    RRRRR   N    N  II  N    N   GGGG   !!!           |
|           W    W   A  A   R    R  NN   N  II  NN   N  G    G  !!!           |
|           W    W  A    A  R    R  N N  N  II  N N  N  G       !!!           |
|           W WW W  AAAAAA  RRRRR   N  N N  II  N  N N  G  GGG   !            |
|           WW  WW  A    A  R   R   N   NN  II  N   NN  G    G                |
|           W    W  A    A  R    R  N    N  II  N    N   GGGG   !!!           |
|                                                                             |
|     The electronic self-consistency was not achieved in the given           |
|     number of steps (NELM). The forces and other quantities evaluated       |
|     might not be reliable so examine the results carefully. If you find     |
|     spurious results, we suggest increasing NELM, if you were close to      |
|     convergence or switching to a different ALGO or adjusting the           |
|     density mixing parameters otherwise.                                    |
|                                                                             |
 -----------------------------------------------------------------------------

   1 F= -.14303837E+03 E0= -.14303837E+03  d E =-.103584E-11
 writing wavefunctions
 optical routines
 imaginary and real dielectric function
 recalculating local potential from charge density
 direction            1
 direction            2
 direction            3
 PROFILE, used timers:     467
