Lattice                                 
           1
     4.359572    2.517000    0.000000
    -4.359572    2.517000    0.000000
     0.000000    0.000000   15.000000
   B    C 
     2    14
Direct configuration=     1
   0.33833034  0.66916432  0.10000000
   0.67165522  0.33584146  0.10000000
   0.16373946  0.31999962  0.10000000
   0.32250218  0.16126397  0.10000000
   0.16376430  0.84376384  0.10000000
   0.84623863  0.16123684  0.10000000
   0.68749850  0.84373000  0.10000000
   0.84626736  0.68499594  0.10000000
   0.24999933  0.24999967  0.32633333
   0.41666633  0.08333267  0.32633333
   0.24999933  0.74999967  0.32633333
   0.41666633  0.58333267  0.32633333
   0.74999933  0.24999967  0.32633333
   0.91666633  0.08333267  0.32633333
   0.74999933  0.74999967  0.32633333
   0.91666633  0.58333267  0.32633333
Direct configuration=     2
   0.33844025  0.66905732  0.10014211
   0.67179294  0.33570269  0.10008321
   0.16732484  0.32712033  0.09994423
   0.32931521  0.16470159  0.09997533
   0.16715633  0.84036583  0.09995634
   0.84265341  0.16480431  0.09996005
   0.68039378  0.84016988  0.09994465
   0.84280457  0.67819495  0.09997558
   0.24986513  0.24959913  0.32640480
   0.41630275  0.08328180  0.32639528
   0.24982196  0.75018878  0.32626972
   0.41677222  0.58322324  0.32622949
   0.75003458  0.24995573  0.32620863
   0.91686687  0.08312459  0.32638090
   0.75040061  0.75014086  0.32640628
   0.91671323  0.58369431  0.32639009
Direct configuration=     3
   0.33835967  0.66913577  0.10003792
   0.67169197  0.33580443  0.10002220
   0.16469625  0.32189983  0.09998512
   0.32432029  0.16218132  0.09999342
   0.16466949  0.84285706  0.09998835
   0.84528189  0.16218885  0.09998934
   0.68560256  0.84277996  0.09998523
   0.84534329  0.68318105  0.09999348
   0.24996352  0.24989278  0.32635241
   0.41656931  0.08331909  0.32634986
   0.24995200  0.75005013  0.32631636
   0.41669459  0.58330346  0.32630562
   0.75000874  0.24998794  0.32630006
   0.91671985  0.08327714  0.32634603
   0.75010642  0.75003735  0.32635280
   0.91667885  0.58342917  0.32634848
Direct configuration=     4
   0.33835965  0.66913578  0.10003790
   0.67169194  0.33580445  0.10002219
   0.16469567  0.32189868  0.09998513
   0.32431919  0.16218076  0.09999342
   0.16466894  0.84285761  0.09998836
   0.84528247  0.16218827  0.09998934
   0.68560370  0.84278053  0.09998524
   0.84534384  0.68318215  0.09999349
   0.24996354  0.24989285  0.32635239
   0.41656937  0.08331910  0.32634985
   0.24995203  0.75005010  0.32631637
   0.41669457  0.58330348  0.32630564
   0.75000873  0.24998795  0.32630008
   0.91671982  0.08327717  0.32634602
   0.75010635  0.75003732  0.32635279
   0.91667884  0.58342912  0.32634847
Direct configuration=     5
   0.33835981  0.66914078  0.10013043
   0.67169090  0.33580591  0.10007600
   0.16464578  0.32190345  0.09994974
   0.32432509  0.16221873  0.09997412
   0.16464945  0.84286297  0.09996365
   0.84530841  0.16218019  0.09995950
   0.68559139  0.84283571  0.09995008
   0.84530074  0.68318028  0.09997452
   0.24995780  0.24984147  0.32640158
   0.41654349  0.08329429  0.32638759
   0.24993768  0.75006385  0.32627622
   0.41671631  0.58328190  0.32623783
   0.75001480  0.24997984  0.32622247
   0.91675747  0.08323885  0.32637730
   0.75015613  0.75004201  0.32640283
   0.91670342  0.58345509  0.32638281
Direct configuration=     6
   0.33835986  0.66914253  0.10016303
   0.67169054  0.33580642  0.10009497
   0.16462820  0.32190513  0.09993727
   0.32432717  0.16223211  0.09996733
   0.16464259  0.84286487  0.09995494
   0.84531756  0.16217734  0.09994898
   0.68558705  0.84285515  0.09993769
   0.84528555  0.68317962  0.09996784
   0.24995577  0.24982337  0.32641891
   0.41653437  0.08328555  0.32640089
   0.24993263  0.75006869  0.32626208
   0.41672397  0.58327430  0.32621394
   0.75001693  0.24997699  0.32619512
   0.91677074  0.08322535  0.32638832
   0.75017366  0.75004367  0.32642046
   0.91671208  0.58346424  0.32639491
Direct configuration=     7
   0.33828937  0.66919080  0.10024996
   0.67169483  0.33581491  0.10015143
   0.16479533  0.32195615  0.09990841
   0.32422664  0.16217971  0.09994022
   0.16460427  0.84292016  0.09994410
   0.84519870  0.16227134  0.09990419
   0.68556975  0.84273085  0.09990925
   0.84530116  0.68326754  0.09994121
   0.25002078  0.24989156  0.32646265
   0.41664124  0.08329814  0.32641318
   0.25001602  0.74998458  0.32623184
   0.41671557  0.58327850  0.32616821
   0.75005416  0.24994254  0.32615687
   0.91672778  0.08326618  0.32641644
   0.75010668  0.74997868  0.32646412
   0.91669640  0.58335370  0.32640457
Direct configuration=     8
   0.33833489  0.66915963  0.10019383
   0.67169206  0.33580943  0.10011497
   0.16468742  0.32192320  0.09992705
   0.32429155  0.16221354  0.09995772
   0.16462901  0.84288446  0.09995110
   0.84527544  0.16221064  0.09993311
   0.68558092  0.84281111  0.09992762
   0.84529108  0.68321077  0.09995841
   0.24997881  0.24984753  0.32643441
   0.41657224  0.08329001  0.32640524
   0.24996217  0.75003889  0.32625137
   0.41672100  0.58327579  0.32619774
   0.75003012  0.24996478  0.32618157
   0.91675551  0.08323981  0.32639828
   0.75014993  0.75002064  0.32643592
   0.91670652  0.58342508  0.32639833
Direct configuration=     9
   0.33831165  0.66918827  0.10022077
   0.67165025  0.33584616  0.10013434
   0.16465042  0.32194315  0.09991904
   0.32430532  0.16219970  0.09994472
   0.16459297  0.84290115  0.09995634
   0.84528909  0.16221987  0.09990658
   0.68555140  0.84284097  0.09991996
   0.84531419  0.68320770  0.09994573
   0.25000590  0.24986562  0.32644501
   0.41662026  0.08328380  0.32639387
   0.24999560  0.75000402  0.32624583
   0.41672934  0.58326611  0.32619915
   0.75004783  0.24994692  0.32619424
   0.91675134  0.08324340  0.32640870
   0.75013116  0.74999252  0.32644583
   0.91671194  0.58337596  0.32638654
Direct configuration=    10
   0.33832192  0.66917562  0.10020887
   0.67166872  0.33582993  0.10012579
   0.16466676  0.32193434  0.09992258
   0.32429924  0.16220582  0.09995046
   0.16460889  0.84289377  0.09995403
   0.84528306  0.16221580  0.09991830
   0.68556444  0.84282778  0.09992334
   0.84530398  0.68320906  0.09995133
   0.24999393  0.24985763  0.32644033
   0.41659905  0.08328654  0.32639889
   0.24998083  0.75001942  0.32624827
   0.41672565  0.58327039  0.32619853
   0.75004001  0.24995481  0.32618865
   0.91675318  0.08324181  0.32640410
   0.75013945  0.75000494  0.32644145
   0.91670955  0.58339766  0.32639175
Direct configuration=    11
   0.33829833  0.66919915  0.10022780
   0.67165197  0.33584987  0.10013777
   0.16465160  0.32194265  0.09991505
   0.32428446  0.16224017  0.09994176
   0.16460441  0.84290083  0.09996089
   0.84527077  0.16222955  0.09989467
   0.68555848  0.84285190  0.09991625
   0.84526238  0.68322083  0.09994302
   0.25000739  0.24983536  0.32644508
   0.41661157  0.08326616  0.32638628
   0.24999303  0.75000602  0.32624481
   0.41674523  0.58325011  0.32620817
   0.75005518  0.24993818  0.32620678
   0.91677432  0.08321987  0.32641386
   0.75016036  0.74999020  0.32644544
   0.91672919  0.58338448  0.32637903
Direct configuration=    12
   0.33829045  0.66920701  0.10023412
   0.67164637  0.33585654  0.10014177
   0.16464654  0.32194543  0.09991254
   0.32427953  0.16225165  0.09993885
   0.16460291  0.84290318  0.09996319
   0.84526666  0.16223415  0.09988677
   0.68555648  0.84285995  0.09991389
   0.84524848  0.68322477  0.09994024
   0.25001188  0.24982791  0.32644667
   0.41661575  0.08325935  0.32638207
   0.24999711  0.75000154  0.32624365
   0.41675177  0.58324333  0.32621139
   0.75006024  0.24993262  0.32621284
   0.91678139  0.08321253  0.32641713
   0.75016735  0.74998528  0.32644678
   0.91673576  0.58338008  0.32637477
Direct configuration=    13
   0.33828637  0.66921300  0.10024531
   0.67163782  0.33586461  0.10014334
   0.16463440  0.32198119  0.09990192
   0.32425013  0.16225466  0.09993821
   0.16456412  0.84293557  0.09996953
   0.84524041  0.16226537  0.09986865
   0.68552203  0.84287377  0.09990379
   0.84524654  0.68325945  0.09994005
   0.25002815  0.24979267  0.32644703
   0.41662050  0.08323663  0.32637702
   0.25001118  0.74998688  0.32623965
   0.41677179  0.58322194  0.32622362
   0.75008005  0.24991179  0.32622466
   0.91680656  0.08318569  0.32642761
   0.75020172  0.74996828  0.32644659
   0.91675690  0.58337382  0.32636969
Direct configuration=    14
   0.33828564  0.66921407  0.10024731
   0.67163629  0.33586604  0.10014362
   0.16463224  0.32198756  0.09990003
   0.32424490  0.16225519  0.09993809
   0.16455721  0.84294134  0.09997065
   0.84523574  0.16227093  0.09986543
   0.68551590  0.84287623  0.09990199
   0.84524619  0.68326563  0.09994001
   0.25003105  0.24978639  0.32644709
   0.41662135  0.08323258  0.32637612
   0.25001368  0.74998427  0.32623894
   0.41677535  0.58321813  0.32622580
   0.75008357  0.24990808  0.32622676
   0.91681104  0.08318091  0.32642948
   0.75020784  0.74996525  0.32644656
   0.91676066  0.58337271  0.32636879
Direct configuration=    15
   0.33826584  0.66923486  0.10024981
   0.67161779  0.33588645  0.10013771
   0.16460919  0.32200633  0.09988901
   0.32422485  0.16227884  0.09994300
   0.16453870  0.84296038  0.09997709
   0.84521644  0.16229240  0.09985272
   0.68549857  0.84290203  0.09989150
   0.84522208  0.68328600  0.09994537
   0.25005243  0.24976804  0.32644649
   0.41664447  0.08321224  0.32637818
   0.25003572  0.74996099  0.32623647
   0.41679468  0.58319757  0.32623464
   0.75010380  0.24988674  0.32623068
   0.91682928  0.08316149  0.32643741
   0.75022504  0.74994267  0.32644575
   0.91677978  0.58334831  0.32637084
Direct configuration=    16
   0.33820643  0.66929726  0.10025733
   0.67156227  0.33594766  0.10011997
   0.16454003  0.32206265  0.09985595
   0.32416470  0.16234977  0.09995772
   0.16448317  0.84301752  0.09999639
   0.84515853  0.16235679  0.09981461
   0.68544660  0.84297941  0.09986000
   0.84514976  0.68334712  0.09996146
   0.25011658  0.24971297  0.32644469
   0.41671383  0.08315119  0.32638439
   0.25010182  0.74989115  0.32622903
   0.41685266  0.58313589  0.32626116
   0.75016449  0.24982269  0.32624244
   0.91688399  0.08310324  0.32646119
   0.75027666  0.74987490  0.32644333
   0.91683714  0.58327513  0.32637698
Direct configuration=    17
   0.33808760  0.66942204  0.10027237
   0.67145124  0.33607008  0.10008450
   0.16440173  0.32217530  0.09978984
   0.32404440  0.16249163  0.09998716
   0.16437211  0.84313180  0.10003500
   0.84504271  0.16248558  0.09973839
   0.68534266  0.84313418  0.09979702
   0.84500512  0.68346934  0.09999365
   0.25024488  0.24960285  0.32644109
   0.41685256  0.08302909  0.32639679
   0.25023403  0.74975145  0.32621417
   0.41696862  0.58301253  0.32631421
   0.75028587  0.24969460  0.32626597
   0.91699342  0.08298673  0.32650876
   0.75037988  0.74973938  0.32643849
   0.91695185  0.58312876  0.32638928
Direct configuration=    18
   0.33815135  0.66935509  0.10026430
   0.67151081  0.33600440  0.10010353
   0.16447593  0.32211486  0.09982531
   0.32410894  0.16241552  0.09997136
   0.16443169  0.84307049  0.10001429
   0.84510485  0.16241648  0.09977928
   0.68539843  0.84305115  0.09983081
   0.84508272  0.68340376  0.09997638
   0.25017605  0.24966193  0.32644302
   0.41677813  0.08309460  0.32639014
   0.25016310  0.74982640  0.32622214
   0.41690641  0.58307872  0.32628575
   0.75022075  0.24976332  0.32625335
   0.91693471  0.08304924  0.32648324
   0.75032450  0.74981209  0.32644108
   0.91689030  0.58320729  0.32638268
Direct configuration=    19
   0.33813800  0.66936954  0.10026269
   0.67149537  0.33601989  0.10010040
   0.16446502  0.32212891  0.09982023
   0.32409736  0.16242694  0.09997340
   0.16441851  0.84308369  0.10002012
   0.84509298  0.16242984  0.09977049
   0.68538473  0.84306261  0.09982605
   0.84507236  0.68341673  0.09997871
   0.25018813  0.24964866  0.32644491
   0.41679068  0.08308097  0.32639154
   0.25017502  0.74981366  0.32622324
   0.41691958  0.58306487  0.32628747
   0.75023304  0.24975017  0.32625517
   0.91694767  0.08303559  0.32648523
   0.75033696  0.74979920  0.32644295
   0.91690326  0.58319407  0.32638406
Direct configuration=    20
   0.33809793  0.66941288  0.10025787
   0.67144904  0.33606636  0.10009103
   0.16443227  0.32217105  0.09980500
   0.32406263  0.16246119  0.09997952
   0.16437895  0.84312332  0.10003762
   0.84505740  0.16246992  0.09974413
   0.68534366  0.84309699  0.09981178
   0.84504127  0.68345561  0.09998569
   0.25022436  0.24960884  0.32645057
   0.41682832  0.08304008  0.32639573
   0.25021079  0.74977543  0.32622652
   0.41695909  0.58302332  0.32629262
   0.75026990  0.24971072  0.32626062
   0.91698656  0.08299465  0.32649121
   0.75037434  0.74976053  0.32644856
   0.91694214  0.58315443  0.32638819
Direct configuration=    21
   0.33801780  0.66949957  0.10024821
   0.67135639  0.33615932  0.10007228
   0.16436679  0.32225535  0.09977455
   0.32399316  0.16252971  0.09999175
   0.16429984  0.84320257  0.10007263
   0.84498624  0.16255007  0.09969141
   0.68526150  0.84316575  0.09978323
   0.84497909  0.68353337  0.09999967
   0.25029684  0.24952920  0.32646190
   0.41690360  0.08295830  0.32640412
   0.25028232  0.74969898  0.32623309
   0.41703812  0.58294024  0.32630292
   0.75034364  0.24963183  0.32627154
   0.91706433  0.08291277  0.32650316
   0.75044910  0.74968318  0.32645977
   0.91701989  0.58307513  0.32639644
Direct configuration=    22
   0.33785754  0.66967296  0.10022891
   0.67117109  0.33634522  0.10003478
   0.16423581  0.32242393  0.09971364
   0.32385422  0.16266673  0.10001622
   0.16414163  0.84336106  0.10014263
   0.84484392  0.16271038  0.09958596
   0.68509719  0.84330328  0.09972614
   0.84485473  0.68368891  0.10002761
   0.25044179  0.24936991  0.32648456
   0.41705417  0.08279475  0.32642090
   0.25042538  0.74954609  0.32624622
   0.41719617  0.58277406  0.32632354
   0.75049111  0.24947403  0.32629336
   0.91721988  0.08274902  0.32652706
   0.75059863  0.74952849  0.32648220
   0.91717540  0.58291653  0.32641295
Direct configuration=    23
   0.33753702  0.67001972  0.10019029
   0.67080048  0.33671702  0.09995979
   0.16397386  0.32276109  0.09959181
   0.32357634  0.16294079  0.10006515
   0.16382519  0.84367806  0.10028264
   0.84455927  0.16303099  0.09937506
   0.68476858  0.84357833  0.09961196
   0.84460602  0.68399997  0.10008350
   0.25073168  0.24905134  0.32652987
   0.41735530  0.08246764  0.32645445
   0.25071151  0.74924029  0.32627248
   0.41751228  0.58244171  0.32636476
   0.75078606  0.24915844  0.32633701
   0.91753098  0.08242150  0.32657486
   0.75089769  0.74921910  0.32652706
   0.91748642  0.58259934  0.32644597
Direct configuration=    24
   0.33751801  0.67003928  0.10018729
   0.67078309  0.33673622  0.09995582
   0.16395630  0.32277993  0.09958471
   0.32355602  0.16296116  0.10006776
   0.16380801  0.84369741  0.10029149
   0.84453936  0.16305102  0.09936197
   0.68475170  0.84359826  0.09960531
   0.84458547  0.68402035  0.10008654
   0.25075069  0.24903115  0.32653298
   0.41737336  0.08244822  0.32645664
   0.25073050  0.74922028  0.32627480
   0.41753045  0.58242236  0.32636652
   0.75080494  0.24913853  0.32633947
   0.91754929  0.08240200  0.32657706
   0.75091686  0.74919906  0.32653017
   0.91750464  0.58258008  0.32644814
Direct configuration=    25
   0.33746101  0.67009799  0.10017827
   0.67073093  0.33679382  0.09994393
   0.16390360  0.32283645  0.09956340
   0.32349504  0.16302228  0.10007558
   0.16375647  0.84375548  0.10031802
   0.84447962  0.16311112  0.09932268
   0.68470107  0.84365807  0.09958538
   0.84452382  0.68408148  0.10009566
   0.25080771  0.24897058  0.32654232
   0.41742754  0.08238996  0.32646321
   0.25078747  0.74916024  0.32628178
   0.41758494  0.58236433  0.32637180
   0.75086159  0.24907880  0.32634684
   0.91760420  0.08234349  0.32658364
   0.75097436  0.74913895  0.32653952
   0.91755928  0.58252229  0.32645463
Direct configuration=    26
   0.33734700  0.67021540  0.10016024
   0.67062661  0.33690903  0.09992015
   0.16379822  0.32294948  0.09952078
   0.32337309  0.16314453  0.10009123
   0.16365340  0.84387161  0.10037108
   0.84436015  0.16323131  0.09924412
   0.68459982  0.84377769  0.09954550
   0.84440052  0.68420375  0.10011390
   0.25092175  0.24884942  0.32656099
   0.41753588  0.08227343  0.32647636
   0.25090142  0.74904017  0.32629573
   0.41769393  0.58224825  0.32638235
   0.75097490  0.24895934  0.32636159
   0.91771404  0.08222647  0.32659682
   0.75108937  0.74901874  0.32655820
   0.91766858  0.58240672  0.32646761
Direct configuration=    27
   0.33711899  0.67045022  0.10012418
   0.67041796  0.33713944  0.09987259
   0.16358744  0.32317555  0.09943555
   0.32312920  0.16338902  0.10012253
   0.16344726  0.84410387  0.10047720
   0.84412120  0.16347170  0.09908700
   0.68439731  0.84401693  0.09946575
   0.84415392  0.68444828  0.10015037
   0.25114984  0.24860712  0.32659834
   0.41775258  0.08204038  0.32650265
   0.25112931  0.74880002  0.32632362
   0.41791191  0.58201610  0.32640347
   0.75120150  0.24872042  0.32639108
   0.91793371  0.08199242  0.32662317
   0.75131938  0.74877831  0.32659558
   0.91788716  0.58217557  0.32649358
Direct configuration=    28
   0.33666296  0.67091986  0.10005207
   0.67000067  0.33760025  0.09977747
   0.16316589  0.32362769  0.09926509
   0.32264141  0.16387799  0.10018514
   0.16303497  0.84456839  0.10068944
   0.84364330  0.16395248  0.09877275
   0.68399230  0.84449540  0.09930626
   0.84366072  0.68493734  0.10022331
   0.25160602  0.24812252  0.32667303
   0.41818597  0.08157428  0.32655524
   0.25158509  0.74831972  0.32637942
   0.41834786  0.58155180  0.32644570
   0.75165472  0.24824258  0.32645007
   0.91837305  0.08152434  0.32667586
   0.75177942  0.74829744  0.32667033
   0.91832433  0.58171326  0.32654552
Direct configuration=    29
   0.33648767  0.67110039  0.10002434
   0.66984026  0.33777739  0.09974090
   0.16300386  0.32380148  0.09919956
   0.32245391  0.16406595  0.10020920
   0.16287649  0.84474694  0.10077103
   0.84345960  0.16413728  0.09865195
   0.68383662  0.84467932  0.09924495
   0.84347114  0.68512532  0.10025135
   0.25178137  0.24793624  0.32670174
   0.41835256  0.08139512  0.32657545
   0.25176028  0.74813510  0.32640086
   0.41851544  0.58137333  0.32646193
   0.75182893  0.24805890  0.32647274
   0.91854193  0.08134441  0.32669611
   0.75195625  0.74811261  0.32669906
   0.91849238  0.58153556  0.32656548
Direct configuration=    30
   0.33635180  0.67124998  0.09999856
   0.66969699  0.33792795  0.09971471
   0.16281136  0.32396545  0.09914024
   0.32230560  0.16423308  0.10022949
   0.16270737  0.84491213  0.10084157
   0.84331590  0.16430235  0.09854546
   0.68367477  0.84487120  0.09918926
   0.84332254  0.68528940  0.10027518
   0.25193934  0.24777492  0.32672529
   0.41851179  0.08123202  0.32659620
   0.25191921  0.74796689  0.32642280
   0.41866832  0.58121105  0.32647630
   0.75198402  0.24789493  0.32649072
   0.91869519  0.08118178  0.32671196
   0.75210839  0.74794543  0.32672279
   0.91864606  0.58136678  0.32658615
Direct configuration=    31
   0.33609045  0.67153773  0.09994895
   0.66942140  0.33821758  0.09966432
   0.16244107  0.32428086  0.09902612
   0.32202032  0.16455459  0.10026852
   0.16238205  0.84522988  0.10097726
   0.84303947  0.16461989  0.09834061
   0.68336345  0.84524031  0.09908211
   0.84303668  0.68560501  0.10032103
   0.25224322  0.24746460  0.32677058
   0.41881810  0.08091828  0.32663613
   0.25222492  0.74764330  0.32646501
   0.41896240  0.58089889  0.32650395
   0.75228237  0.24757950  0.32652531
   0.91899003  0.08086894  0.32674243
   0.75240106  0.74762385  0.32676842
   0.91894168  0.58104212  0.32662591
Direct configuration=    32
   0.33556774  0.67211323  0.09984974
   0.66887020  0.33879685  0.09956354
   0.16170050  0.32491168  0.09879788
   0.32144975  0.16519761  0.10034658
   0.16173141  0.84586539  0.10124865
   0.84248662  0.16525496  0.09793092
   0.68274081  0.84597852  0.09886783
   0.84246496  0.68623623  0.10041273
   0.25285097  0.24684396  0.32686118
   0.41943072  0.08029081  0.32671599
   0.25283635  0.74699612  0.32654943
   0.41955056  0.58027457  0.32655924
   0.75287906  0.24694865  0.32659448
   0.91957969  0.08024325  0.32680337
   0.75298641  0.74698069  0.32685968
   0.91953292  0.58039280  0.32670544
Direct configuration=    33
   0.33595407  0.67168789  0.09992307
   0.66927758  0.33836872  0.09963802
   0.16224785  0.32444545  0.09896657
   0.32187145  0.16472237  0.10028889
   0.16221229  0.84539569  0.10104807
   0.84289522  0.16478559  0.09823372
   0.68320099  0.84543292  0.09902620
   0.84288751  0.68576970  0.10034495
   0.25240179  0.24730267  0.32679422
   0.41897794  0.08075457  0.32665697
   0.25238445  0.74747444  0.32648704
   0.41911586  0.58073600  0.32651837
   0.75243806  0.24741491  0.32654336
   0.91914388  0.08070569  0.32675833
   0.75255379  0.74745604  0.32679223
   0.91909594  0.58087271  0.32664666
Direct configuration=    34
   0.33592326  0.67172209  0.09991981
   0.66924008  0.33840495  0.09964452
   0.16222256  0.32448852  0.09895264
   0.32184774  0.16475690  0.10029174
   0.16217687  0.84543325  0.10105335
   0.84286337  0.16481787  0.09821954
   0.68315834  0.84545575  0.09901263
   0.84285944  0.68579959  0.10034842
   0.25242919  0.24727711  0.32679216
   0.41901873  0.08071753  0.32666536
   0.25241146  0.74744428  0.32649368
   0.41915395  0.58069699  0.32652450
   0.75246590  0.24738394  0.32654326
   0.91917920  0.08066967  0.32675938
   0.75257623  0.74742555  0.32679039
   0.91913235  0.58083132  0.32665531
Direct configuration=    35
   0.33583084  0.67182470  0.09991003
   0.66912757  0.33851364  0.09966400
   0.16214671  0.32461771  0.09891085
   0.32177663  0.16486051  0.10030029
   0.16207062  0.84554593  0.10106917
   0.84276780  0.16491470  0.09817701
   0.68303039  0.84552425  0.09897193
   0.84277523  0.68588927  0.10035881
   0.25251138  0.24720045  0.32678597
   0.41914110  0.08060643  0.32669054
   0.25249249  0.74735381  0.32651361
   0.41926820  0.58057999  0.32654287
   0.75254943  0.24729106  0.32654296
   0.91928516  0.08056161  0.32676254
   0.75264353  0.74733409  0.32678486
   0.91924158  0.58070718  0.32668124
Direct configuration=    36
   0.33564601  0.67202993  0.09989047
   0.66890256  0.33873101  0.09970297
   0.16199500  0.32487610  0.09882727
   0.32163440  0.16506772  0.10031740
   0.16185812  0.84577128  0.10110082
   0.84257666  0.16510837  0.09809195
   0.68277449  0.84566125  0.09889052
   0.84260682  0.68606861  0.10037958
   0.25267576  0.24704713  0.32677359
   0.41938583  0.08038423  0.32674090
   0.25265454  0.74717286  0.32655346
   0.41949672  0.58034598  0.32657961
   0.75271649  0.24710530  0.32654236
   0.91949708  0.08034549  0.32676886
   0.75277814  0.74715118  0.32677381
   0.91946004  0.58045890  0.32673310
Direct configuration=    37
   0.33577764  0.67188378  0.09990440
   0.66906280  0.33857621  0.09967522
   0.16210304  0.32469209  0.09888679
   0.32173569  0.16492016  0.10030522
   0.16200945  0.84561080  0.10107828
   0.84271278  0.16497045  0.09815252
   0.68295673  0.84556368  0.09894849
   0.84272675  0.68594089  0.10036479
   0.25255870  0.24715632  0.32678241
   0.41921155  0.08054247  0.32670504
   0.25253914  0.74730172  0.32652508
   0.41933398  0.58051263  0.32655345
   0.75259752  0.24723759  0.32654279
   0.91934616  0.08049940  0.32676436
   0.75268228  0.74728144  0.32678168
   0.91930447  0.58063571  0.32669617
Direct configuration=    38
   0.33572332  0.67193728  0.09990069
   0.66902313  0.33862262  0.09969142
   0.16206906  0.32473443  0.09886861
   0.32168711  0.16497480  0.10030708
   0.16197560  0.84565977  0.10107951
   0.84266410  0.16501114  0.09813889
   0.68292006  0.84560164  0.09893050
   0.84267338  0.68598650  0.10036736
   0.25260727  0.24710562  0.32677759
   0.41924974  0.08050016  0.32671623
   0.25258689  0.74725244  0.32653687
   0.41937258  0.58047030  0.32656173
   0.75264622  0.24718735  0.32654290
   0.91938582  0.08045606  0.32676220
   0.75273124  0.74723123  0.32677726
   0.91934314  0.58059401  0.32670784
Direct configuration=    39
   0.33557764  0.67208076  0.09989074
   0.66891673  0.33874709  0.09973489
   0.16197794  0.32484800  0.09881984
   0.32155682  0.16512136  0.10031207
   0.16188481  0.84579110  0.10108280
   0.84253356  0.16512028  0.09810233
   0.68282170  0.84570342  0.09888223
   0.84253025  0.68610880  0.10037426
   0.25273753  0.24696965  0.32676468
   0.41935217  0.08038668  0.32674624
   0.25271497  0.74712026  0.32656849
   0.41947610  0.58035678  0.32658393
   0.75277685  0.24705258  0.32654320
   0.91949219  0.08033982  0.32675640
   0.75286257  0.74709657  0.32676541
   0.91944685  0.58048217  0.32673915
Direct configuration=    40
   0.33554664  0.67211130  0.09988862
   0.66889408  0.33877359  0.09974414
   0.16195854  0.32487217  0.09880946
   0.32152908  0.16515256  0.10031314
   0.16186548  0.84581905  0.10108350
   0.84250577  0.16514351  0.09809455
   0.68280077  0.84572509  0.09887195
   0.84249978  0.68613484  0.10037573
   0.25276526  0.24694070  0.32676193
   0.41937397  0.08036253  0.32675262
   0.25274223  0.74709213  0.32657522
   0.41949813  0.58033262  0.32658866
   0.75280465  0.24702390  0.32654326
   0.91951483  0.08031508  0.32675517
   0.75289053  0.74706791  0.32676289
   0.91946892  0.58045836  0.32674581
Direct configuration=    41
   0.33550372  0.67215937  0.09988339
   0.66885566  0.33881467  0.09976460
   0.16187474  0.32491452  0.09879746
   0.32148618  0.16519541  0.10031057
   0.16180473  0.84587307  0.10107950
   0.84247542  0.16518666  0.09808790
   0.68275303  0.84579619  0.09885973
   0.84247509  0.68618623  0.10037354
   0.25281648  0.24687921  0.32676094
   0.41940827  0.08031652  0.32675753
   0.25279327  0.74703974  0.32659110
   0.41953618  0.58029054  0.32659203
   0.75285494  0.24697248  0.32654869
   0.91955990  0.08026571  0.32674617
   0.75295041  0.74701523  0.32676229
   0.91951064  0.58041978  0.32675123
Direct configuration=    42
   0.33545821  0.67221032  0.09987784
   0.66881492  0.33885822  0.09978629
   0.16178588  0.32495942  0.09878474
   0.32144069  0.16524084  0.10030785
   0.16174032  0.84593034  0.10107526
   0.84244324  0.16523241  0.09808086
   0.68270243  0.84587158  0.09884676
   0.84244891  0.68624073  0.10037121
   0.25287078  0.24681401  0.32675989
   0.41944463  0.08026773  0.32676272
   0.25284739  0.74698419  0.32660794
   0.41957653  0.58024592  0.32659561
   0.75290825  0.24691797  0.32655444
   0.91960769  0.08021337  0.32673663
   0.75301391  0.74695939  0.32676166
   0.91955487  0.58037888  0.32675696
Direct configuration=    43
   0.33541495  0.67225469  0.09987098
   0.66877909  0.33889833  0.09980427
   0.16173776  0.32501340  0.09878291
   0.32138948  0.16529602  0.10030066
   0.16169353  0.84598424  0.10106678
   0.84238684  0.16528423  0.09808310
   0.68265490  0.84592090  0.09884431
   0.84239825  0.68629487  0.10036390
   0.25291101  0.24676728  0.32676368
   0.41949764  0.08021160  0.32676044
   0.25288829  0.74693902  0.32662319
   0.41963000  0.58019105  0.32659364
   0.75294825  0.24687380  0.32656410
   0.91966283  0.08015674  0.32672395
   0.75305636  0.74691487  0.32676573
   0.91960948  0.58032430  0.32675504
Direct configuration=    44
   0.33531312  0.67235911  0.09985483
   0.66869476  0.33899274  0.09984657
   0.16162447  0.32514044  0.09877861
   0.32126893  0.16542591  0.10028372
   0.16158339  0.84611112  0.10104682
   0.84225406  0.16540620  0.09808838
   0.68254301  0.84603700  0.09883854
   0.84227898  0.68642229  0.10034668
   0.25300572  0.24665728  0.32677260
   0.41962243  0.08007947  0.32675506
   0.25298455  0.74683270  0.32665907
   0.41975587  0.58006189  0.32658901
   0.75304240  0.24676985  0.32658682
   0.91979265  0.08002343  0.32669412
   0.75315629  0.74681008  0.32677533
   0.91973802  0.58019582  0.32675050
Direct configuration=    45
   0.33524696  0.67243089  0.09984754
   0.66861682  0.33907276  0.09985565
   0.16158426  0.32520800  0.09878584
   0.32121432  0.16550109  0.10027407
   0.16153655  0.84617339  0.10103031
   0.84219000  0.16546744  0.09810326
   0.68247850  0.84608326  0.09884469
   0.84220444  0.68647651  0.10033627
   0.25307393  0.24659786  0.32677491
   0.41968527  0.08002078  0.32675358
   0.25305272  0.74676173  0.32666448
   0.41981523  0.57999765  0.32658892
   0.75311156  0.24669749  0.32659231
   0.91984270  0.07996882  0.32668795
   0.75321325  0.74673925  0.32677775
   0.91979218  0.58012841  0.32674913
Direct configuration=    46
   0.33504847  0.67264624  0.09982568
   0.66838297  0.33931281  0.09988287
   0.16146362  0.32541066  0.09880754
   0.32105050  0.16572663  0.10024512
   0.16139604  0.84636019  0.10098076
   0.84199781  0.16565113  0.09814791
   0.68228496  0.84622204  0.09886315
   0.84198081  0.68663918  0.10030504
   0.25327855  0.24641962  0.32678183
   0.41987382  0.07984469  0.32674915
   0.25325725  0.74654885  0.32668071
   0.41999328  0.57980493  0.32658865
   0.75331902  0.24648043  0.32660880
   0.91999285  0.07980501  0.32666942
   0.75338410  0.74652673  0.32678502
   0.91995464  0.57992620  0.32674501
