<?xml version="1.0" encoding="ISO-8859-1"?>
<modeling>
 <generator>
  <i name="program" type="string">vasp </i>
  <i name="version" type="string">6.3.2  </i>
  <i name="subversion" type="string">27Jun22 (build Dec 22 2022 13:13:19) complex                          parallel </i>
  <i name="platform" type="string">LinuxIFC </i>
  <i name="date" type="string">2023 08 22 </i>
  <i name="time" type="string">20:01:35 </i>
 </generator>
 <incar>
  <i type="string" name="SYSTEM">Lattice</i>
  <i type="int" name="ISTART">     0</i>
  <i type="string" name="PREC">Accurate</i>
  <i type="string" name="ALGO">Normal</i>
  <i type="int" name="ISPIN">     2</i>
  <i type="int" name="ICHARG">     2</i>
  <i type="int" name="NELM">    64</i>
  <i type="int" name="IBRION">     2</i>
  <i name="EDIFF">      0.00000100</i>
  <i name="EDIFFG">     -0.00100000</i>
  <i type="int" name="NSW">   128</i>
  <i type="int" name="ISIF">     2</i>
  <i name="ENCUT">    450.00000000</i>
  <i name="POTIM">      0.50000000</i>
  <i type="int" name="ISMEAR">     0</i>
  <i name="SIGMA">      0.10000000</i>
  <i type="logical" name="LWAVE"> F  </i>
  <i type="logical" name="LCHARG"> F  </i>
  <i type="string" name="GGA">PE</i>
  <i type="int" name="IVDW">    12</i>
 </incar>
 <primitive_cell>
  <structure name="primitive_cell" >
   <crystal>
    <varray name="basis" >
     <v>       4.34744839       2.51000050       0.00000000 </v>
     <v>      -4.34744839       2.51000050       0.00000000 </v>
     <v>       0.00000000       0.00000000      15.00000000 </v>
    </varray>
    <i name="volume">    327.36292921 </i>
    <varray name="rec_basis" >
     <v>       0.11500999       0.19920315       0.00000000 </v>
     <v>      -0.11500999       0.19920315       0.00000000 </v>
     <v>       0.00000000       0.00000000       0.06666667 </v>
    </varray>
   </crystal>
   <varray name="positions" >
    <v>       0.66888689       1.00000000       0.10000000 </v>
    <v>       0.33111211       1.00000000       0.10000000 </v>
    <v>       1.00000000       0.33111211       0.10000000 </v>
    <v>       1.00000000       0.66888689       0.10000000 </v>
    <v>       0.33111211       0.33111211       0.10000000 </v>
    <v>       0.66888689       0.66888689       0.10000000 </v>
    <v>       0.66666600       0.33333300       0.09922189 </v>
    <v>       0.33333300       0.66666600       0.10077811 </v>
    <v>       0.27777711       0.22222189       0.46960000 </v>
    <v>       0.44444411       0.05555489       0.46960000 </v>
    <v>       0.27777711       0.72222189       0.46960000 </v>
    <v>       0.44444411       0.55555489       0.46960000 </v>
    <v>       0.77777711       0.22222189       0.46960000 </v>
    <v>       0.94444411       0.05555489       0.46960000 </v>
    <v>       0.77777711       0.72222189       0.46960000 </v>
    <v>       0.94444411       0.55555489       0.46960000 </v>
   </varray>
  </structure>
  <varray name="primitive_index" >
   <v type="int" >        1 </v>
   <v type="int" >        2 </v>
   <v type="int" >        3 </v>
   <v type="int" >        4 </v>
   <v type="int" >        5 </v>
   <v type="int" >        6 </v>
   <v type="int" >        7 </v>
   <v type="int" >        8 </v>
   <v type="int" >        9 </v>
   <v type="int" >       10 </v>
   <v type="int" >       11 </v>
   <v type="int" >       12 </v>
   <v type="int" >       13 </v>
   <v type="int" >       14 </v>
   <v type="int" >       15 </v>
   <v type="int" >       16 </v>
  </varray>
 </primitive_cell>
 <kpoints>
  <generation param="Gamma">
   <v type="int" name="divisions">      12       12        1 </v>
   <v name="usershift">      0.00000000       0.00000000       0.00000000 </v>
   <v name="genvec1">      0.08333333      -0.00000000       0.00000000 </v>
   <v name="genvec2">     -0.00000000       0.08333333       0.00000000 </v>
   <v name="genvec3">      0.00000000       0.00000000       1.00000000 </v>
   <v name="shift">      0.00000000       0.00000000       0.00000000 </v>
  </generation>
  <varray name="kpointlist" >
   <v>       0.00000000       0.00000000       0.00000000 </v>
   <v>       0.08333333       0.00000000       0.00000000 </v>
   <v>      -0.08333333       0.08333333       0.00000000 </v>
   <v>       0.16666667       0.00000000       0.00000000 </v>
   <v>      -0.16666667       0.16666667       0.00000000 </v>
   <v>       0.25000000       0.00000000       0.00000000 </v>
   <v>      -0.25000000       0.25000000       0.00000000 </v>
   <v>       0.33333333       0.00000000       0.00000000 </v>
   <v>      -0.33333333       0.33333333       0.00000000 </v>
   <v>       0.41666667       0.00000000       0.00000000 </v>
   <v>      -0.41666667       0.41666667       0.00000000 </v>
   <v>       0.50000000       0.00000000       0.00000000 </v>
   <v>       0.50000000       0.50000000       0.00000000 </v>
   <v>       0.08333333       0.08333333       0.00000000 </v>
   <v>      -0.08333333       0.16666667       0.00000000 </v>
   <v>       0.16666667       0.08333333       0.00000000 </v>
   <v>      -0.08333333       0.25000000       0.00000000 </v>
   <v>      -0.25000000       0.16666667       0.00000000 </v>
   <v>       0.25000000       0.08333333       0.00000000 </v>
   <v>      -0.08333333       0.33333333       0.00000000 </v>
   <v>      -0.33333333       0.25000000       0.00000000 </v>
   <v>       0.33333333       0.08333333       0.00000000 </v>
   <v>      -0.08333333       0.41666667       0.00000000 </v>
   <v>      -0.41666667       0.33333333       0.00000000 </v>
   <v>       0.41666667       0.08333333       0.00000000 </v>
   <v>      -0.08333333       0.50000000       0.00000000 </v>
   <v>       0.50000000       0.41666667       0.00000000 </v>
   <v>       0.16666667       0.16666667       0.00000000 </v>
   <v>      -0.16666667       0.33333333       0.00000000 </v>
   <v>       0.25000000       0.16666667       0.00000000 </v>
   <v>      -0.16666667       0.41666667       0.00000000 </v>
   <v>      -0.41666667       0.25000000       0.00000000 </v>
   <v>       0.33333333       0.16666667       0.00000000 </v>
   <v>      -0.16666667       0.50000000       0.00000000 </v>
   <v>       0.50000000       0.33333333       0.00000000 </v>
   <v>       0.41666667       0.16666667       0.00000000 </v>
   <v>       0.41666667       0.41666667       0.00000000 </v>
   <v>       0.25000000       0.25000000       0.00000000 </v>
   <v>      -0.25000000       0.50000000       0.00000000 </v>
   <v>       0.33333333       0.25000000       0.00000000 </v>
   <v>      -0.25000000      -0.41666667       0.00000000 </v>
   <v>       0.41666667       0.33333333       0.00000000 </v>
   <v>       0.33333333       0.33333333       0.00000000 </v>
  </varray>
  <varray name="weights" >
   <v>       0.00694444 </v>
   <v>       0.02777778 </v>
   <v>       0.01388889 </v>
   <v>       0.02777778 </v>
   <v>       0.01388889 </v>
   <v>       0.02777778 </v>
   <v>       0.01388889 </v>
   <v>       0.02777778 </v>
   <v>       0.01388889 </v>
   <v>       0.02777778 </v>
   <v>       0.01388889 </v>
   <v>       0.01388889 </v>
   <v>       0.00694444 </v>
   <v>       0.01388889 </v>
   <v>       0.02777778 </v>
   <v>       0.02777778 </v>
   <v>       0.02777778 </v>
   <v>       0.02777778 </v>
   <v>       0.02777778 </v>
   <v>       0.02777778 </v>
   <v>       0.02777778 </v>
   <v>       0.02777778 </v>
   <v>       0.02777778 </v>
   <v>       0.02777778 </v>
   <v>       0.02777778 </v>
   <v>       0.02777778 </v>
   <v>       0.02777778 </v>
   <v>       0.01388889 </v>
   <v>       0.02777778 </v>
   <v>       0.02777778 </v>
   <v>       0.02777778 </v>
   <v>       0.02777778 </v>
   <v>       0.02777778 </v>
   <v>       0.02777778 </v>
   <v>       0.02777778 </v>
   <v>       0.02777778 </v>
   <v>       0.01388889 </v>
   <v>       0.01388889 </v>
   <v>       0.02777778 </v>
   <v>       0.02777778 </v>
   <v>       0.02777778 </v>
   <v>       0.02777778 </v>
   <v>       0.01388889 </v>
  </varray>
 </kpoints>
 <parameters>
  <separator name="general" >
   <i type="string" name="SYSTEM">Lattice</i>
   <i type="logical" name="LCOMPAT"> F  </i>
  </separator>
  <separator name="electronic" >
   <i type="string" name="PREC">accura</i>
   <i name="ENMAX">    450.00000000</i>
   <i name="ENAUG">    644.87300000</i>
   <i name="EDIFF">      0.00000100</i>
   <i type="int" name="IALGO">    38</i>
   <i type="int" name="IWAVPR">    11</i>
   <i type="int" name="NBANDS">    48</i>
   <i type="int" name="NBANDSLOW">    -1</i>
   <i type="int" name="NBANDSHIGH">    -1</i>
   <i name="NELECT">     56.00000000</i>
   <i type="int" name="TURBO">     0</i>
   <i type="int" name="IRESTART">     0</i>
   <i type="int" name="NREBOOT">     0</i>
   <i type="int" name="NMIN">     0</i>
   <i name="EREF">      0.00000000</i>
   <separator name="electronic smearing" >
    <i type="int" name="ISMEAR">     0</i>
    <i name="SIGMA">      0.10000000</i>
    <i name="KSPACING">      0.50000000</i>
    <i type="logical" name="KGAMMA"> T  </i>
    <i type="logical" name="KBLOWUP"> T  </i>
   </separator>
   <separator name="electronic projectors" >
    <i type="logical" name="LREAL"> F  </i>
    <v name="ROPT">      0.00000000      0.00000000</v>
    <i type="int" name="LMAXPAW">  -100</i>
    <i type="int" name="LMAXMIX">     2</i>
    <i type="logical" name="NLSPLINE"> F  </i>
   </separator>
   <separator name="electronic startup" >
    <i type="int" name="ISTART">     0</i>
    <i type="int" name="ICHARG">     2</i>
    <i type="int" name="INIWAV">     1</i>
   </separator>
   <separator name="electronic spin" >
    <i type="int" name="ISPIN">     2</i>
    <i type="logical" name="LNONCOLLINEAR"> F  </i>
    <v name="MAGMOM">      1.00000000      1.00000000      1.00000000      1.00000000      1.00000000      1.00000000      1.00000000      1.00000000      1.00000000      1.00000000      1.00000000      1.00000000      1.00000000      1.00000000      1.00000000      1.00000000</v>
    <i name="NUPDOWN">     -1.00000000</i>
    <i type="logical" name="LSORBIT"> F  </i>
    <v name="SAXIS">      0.00000000      0.00000000      1.00000000</v>
    <i type="logical" name="LSPIRAL"> F  </i>
    <v name="QSPIRAL">      0.00000000      0.00000000      0.00000000</v>
    <i type="logical" name="LZEROZ"> F  </i>
   </separator>
   <separator name="electronic exchange-correlation" >
    <i type="logical" name="LASPH"> F  </i>
    <i type="logical" name="LMETAGGA"> F  </i>
   </separator>
   <separator name="electronic convergence" >
    <i type="int" name="NELM">    64</i>
    <i type="int" name="NELMDL">    -5</i>
    <i type="int" name="NELMIN">     2</i>
    <i name="ENINI">    450.00000000</i>
    <separator name="electronic convergence detail" >
     <i type="logical" name="LDIAG"> T  </i>
     <i type="logical" name="LSUBROT"> F  </i>
     <i name="WEIMIN">      0.00100000</i>
     <i name="EBREAK">      0.00000001</i>
     <i name="DEPER">      0.30000000</i>
     <i type="int" name="NRMM">     4</i>
     <i name="TIME">      0.40000000</i>
    </separator>
   </separator>
   <separator name="electronic mixer" >
    <i name="AMIX">      0.40000000</i>
    <i name="BMIX">      1.00000000</i>
    <i name="AMIN">      0.10000000</i>
    <i name="AMIX_MAG">      1.60000000</i>
    <i name="BMIX_MAG">      1.00000000</i>
    <separator name="electronic mixer details" >
     <i type="int" name="IMIX">     4</i>
     <i type="logical" name="MIXFIRST"> F  </i>
     <i type="int" name="MAXMIX">   -45</i>
     <i name="WC">    100.00000000</i>
     <i type="int" name="INIMIX">     1</i>
     <i type="int" name="MIXPRE">     1</i>
     <i type="int" name="MREMOVE">     5</i>
    </separator>
   </separator>
   <separator name="electronic dipolcorrection" >
    <i type="logical" name="LDIPOL"> F  </i>
    <i type="logical" name="LMONO"> F  </i>
    <i type="int" name="IDIPOL">     0</i>
    <i name="EPSILON">      1.00000000</i>
    <v name="DIPOL">   -100.00000000   -100.00000000   -100.00000000</v>
    <i name="EFIELD">      0.00000000</i>
   </separator>
  </separator>
  <separator name="grids" >
   <i type="int" name="NGX">    36</i>
   <i type="int" name="NGY">    36</i>
   <i type="int" name="NGZ">   108</i>
   <i type="int" name="NGXF">    72</i>
   <i type="int" name="NGYF">    72</i>
   <i type="int" name="NGZF">   216</i>
   <i type="logical" name="ADDGRID"> F  </i>
  </separator>
  <separator name="ionic" >
   <i type="int" name="NSW">   128</i>
   <i type="int" name="IBRION">     2</i>
   <i type="int" name="MDALGO">     0</i>
   <i type="int" name="ISIF">     2</i>
   <i name="PSTRESS">      0.00000000</i>
   <i name="EDIFFG">     -0.00100000</i>
   <i type="int" name="NFREE">     1</i>
   <i name="POTIM">      0.50000000</i>
   <i name="SMASS">     -3.00000000</i>
   <i name="SCALEE">      1.00000000</i>
  </separator>
  <separator name="ionic md" >
   <i name="TEBEG">      0.00010000</i>
   <i name="TEEND">      0.00010000</i>
   <i type="int" name="NBLOCK">     1</i>
   <i type="int" name="KBLOCK">   128</i>
   <i type="int" name="NPACO">   256</i>
   <i name="APACO">     10.00000000</i>
  </separator>
  <separator name="symmetry" >
   <i type="int" name="ISYM">     2</i>
   <i name="SYMPREC">      0.00001000</i>
  </separator>
  <separator name="dos" >
   <i type="int" name="LORBIT">     0</i>
   <v name="RWIGS">     -1.00000000     -1.00000000</v>
   <i type="int" name="NEDOS">   301</i>
   <i name="EMIN">     10.00000000</i>
   <i name="EMAX">    -10.00000000</i>
   <i name="EFERMI">      0.00000000</i>
  </separator>
  <separator name="writing" >
   <i type="int" name="NWRITE">     2</i>
   <i type="logical" name="LWAVE"> F  </i>
   <i type="logical" name="LDOWNSAMPLE"> F  </i>
   <i type="logical" name="LCHARG"> F  </i>
   <i type="logical" name="LPARD"> F  </i>
   <i type="logical" name="LVTOT"> F  </i>
   <i type="logical" name="LVHAR"> F  </i>
   <i type="logical" name="LELF"> F  </i>
   <i type="logical" name="LOPTICS"> F  </i>
   <v name="STM">      0.00000000      0.00000000      0.00000000      0.00000000      0.00000000      0.00000000      0.00000000</v>
  </separator>
  <separator name="performance" >
   <i type="int" name="NPAR">    48</i>
   <i type="int" name="NSIM">     4</i>
   <i type="int" name="NBLK">    -1</i>
   <i type="logical" name="LPLANE"> T  </i>
   <i type="logical" name="LSCALAPACK"> T  </i>
   <i type="logical" name="LSCAAWARE"> F  </i>
   <i type="logical" name="LSCALU"> F  </i>
   <i type="logical" name="LASYNC"> F  </i>
   <i type="logical" name="LORBITALREAL"> F  </i>
  </separator>
  <separator name="miscellaneous" >
   <i type="int" name="IDIOT">     3</i>
   <i type="int" name="PHON_NSTRUCT">    -1</i>
   <i type="logical" name="LMUSIC"> F  </i>
   <v name="POMASS">     10.81100000     12.01100000</v>
   <v name="DARWINR">      0.00000000      0.00000000</v>
   <v name="DARWINV">      1.00000000      1.00000000</v>
   <i type="logical" name="LCORR"> T  </i>
  </separator>
  <i type="logical" name="GGA_COMPAT"> T  </i>
  <i type="logical" name="LBERRY"> F  </i>
  <i type="int" name="ICORELEVEL">     0</i>
  <i type="logical" name="LDAU"> F  </i>
  <i type="int" name="I_CONSTRAINED_M">     0</i>
  <separator name="electronic exchange-correlation" >
   <i type="string" name="GGA">PE</i>
   <i type="int" name="VOSKOWN">     0</i>
   <i type="logical" name="LHFCALC"> F  </i>
   <i type="string" name="PRECFOCK"></i>
   <i type="logical" name="LSYMGRAD"> F  </i>
   <i type="logical" name="LHFONE"> F  </i>
   <i type="logical" name="LRHFCALC"> F  </i>
   <i type="logical" name="LTHOMAS"> F  </i>
   <i type="logical" name="LMODELHF"> F  </i>
   <i type="logical" name="LFOCKACE"> F  </i>
   <i name="ENCUT4O">     -1.00000000</i>
   <i type="int" name="EXXOEP">     0</i>
   <i type="int" name="FOURORBIT">     0</i>
   <i name="AEXX">      0.00000000</i>
   <i name="HFALPHA">      0.00000000</i>
   <i name="MCALPHA">      0.00000000</i>
   <i name="ALDAX">      1.00000000</i>
   <i name="AGGAX">      1.00000000</i>
   <i name="ALDAC">      1.00000000</i>
   <i name="AGGAC">      1.00000000</i>
   <i type="int" name="NKREDX">     1</i>
   <i type="int" name="NKREDY">     1</i>
   <i type="int" name="NKREDZ">     1</i>
   <i type="logical" name="SHIFTRED"> F  </i>
   <i type="logical" name="ODDONLY"> F  </i>
   <i type="logical" name="EVENONLY"> F  </i>
   <i type="int" name="LMAXFOCK">     0</i>
   <i type="int" name="NMAXFOCKAE">     0</i>
   <i type="logical" name="LFOCKAEDFT"> F  </i>
   <i name="HFSCREEN">      0.00000000</i>
   <i name="HFSCREENC">      0.00000000</i>
   <i type="int" name="NBANDSGWLOW">     0</i>
  </separator>
  <separator name="vdW DFT" >
   <i type="logical" name="LUSE_VDW"> F  </i>
   <i name="Zab_VDW">     -0.84910000</i>
   <i name="PARAM1">      0.12340000</i>
   <i name="PARAM2">      1.00000000</i>
   <i name="PARAM3">      0.00000000</i>
  </separator>
  <separator name="model GW" >
   <i type="int" name="MODEL_GW">     0</i>
   <i name="MODEL_EPS0">     12.27610985</i>
   <i name="MODEL_ALPHA">      1.00000000</i>
  </separator>
  <separator name="linear response parameters" >
   <i type="logical" name="LEPSILON"> F  </i>
   <i type="logical" name="LRPA"> F  </i>
   <i type="logical" name="LNABLA"> F  </i>
   <i type="logical" name="LVEL"> F  </i>
   <i name="CSHIFT">      0.10000000</i>
   <i name="OMEGAMAX">     -1.00000000</i>
   <i name="DEG_THRESHOLD">      0.00200000</i>
   <i name="RTIME">     -0.10000000</i>
   <i name="WPLASMAI">      0.00000000</i>
   <v name="DFIELD">      0.00000000      0.00000000      0.00000000</v>
   <v name="WPLASMA">      0.00000000      0.00000000      0.00000000      0.00000000      0.00000000      0.00000000      0.00000000      0.00000000      0.00000000</v>
  </separator>
  <separator name="orbital magnetization" >
   <i type="logical" name="NUCIND"> F  </i>
   <v name="MAGPOS">      0.00000000      0.00000000      0.00000000</v>
   <i type="logical" name="LNICSALL"> T  </i>
   <i type="logical" name="ORBITALMAG"> F  </i>
   <i type="logical" name="LMAGBLOCH"> F  </i>
   <i type="logical" name="LCHIMAG"> F  </i>
   <i type="logical" name="LGAUGE"> T  </i>
   <i type="int" name="MAGATOM">     0</i>
   <v name="MAGDIPOL">      0.00000000      0.00000000      0.00000000</v>
   <v name="AVECCONST">      0.00000000      0.00000000      0.00000000</v>
  </separator>
  <separator name="response functions" >
   <i type="logical" name="LFINITE_TEMPERATURE"> F  </i>
   <i type="logical" name="LADDER"> F  </i>
   <i type="logical" name="LRPAFORCE"> F  </i>
   <i type="logical" name="LFXC"> F  </i>
   <i type="logical" name="LHARTREE"> T  </i>
   <i type="int" name="IBSE">     0</i>
   <v type="int" name="KPOINT">    -1     0     0     0</v>
   <i type="logical" name="LTCTC"> F  </i>
   <i type="logical" name="LTCTE"> F  </i>
   <i type="logical" name="LTETE"> F  </i>
   <i type="logical" name="LTRIPLET"> F  </i>
   <i type="logical" name="LFXCEPS"> F  </i>
   <i type="logical" name="LFXHEG"> F  </i>
   <i type="int" name="NATURALO">     2</i>
   <i type="logical" name="LHOLEGF"> F  </i>
   <i type="logical" name="L2ORDER"> F  </i>
   <i type="logical" name="LDMP1"> F  </i>
   <i type="logical" name="LMP2LT"> F  </i>
   <i type="logical" name="LSMP2LT"> F  </i>
   <i type="logical" name="LGWLF"> F  </i>
   <i name="ENCUTGW">     -2.00000000</i>
   <i name="ENCUTGWSOFT">     -2.00000000</i>
   <i name="ENCUTLF">     -1.00000000</i>
   <i type="logical" name="LESF_SPLINES"> F  </i>
   <i type="int" name="LMAXMP2">    -1</i>
   <i name="SCISSOR">      0.00000000</i>
   <i type="int" name="NOMEGA">     0</i>
   <i type="int" name="NOMEGAR">     0</i>
   <i type="int" name="NBANDSGW">    -1</i>
   <i type="int" name="NBANDSO">    -1</i>
   <i type="int" name="NBANDSV">    -1</i>
   <i type="int" name="NELMGW">     1</i>
   <i type="int" name="NELMHF">     1</i>
   <i type="int" name="DIM">     3</i>
   <i type="int" name="IESPILON">     4</i>
   <i type="int" name="ANTIRES">     0</i>
   <i name="OMEGAMAX">    -30.00000000</i>
   <i name="OMEGAMIN">    -30.00000000</i>
   <i name="OMEGATL">   -200.00000000</i>
   <i type="int" name="OMEGAGRID">     0</i>
   <i name="CSHIFT">     -0.10000000</i>
   <i type="logical" name="LSELFENERGY"> F  </i>
   <i type="logical" name="LSPECTRAL"> F  </i>
   <i type="logical" name="LSPECTRALGW"> F  </i>
   <i type="logical" name="LSINGLES"> F  </i>
   <i type="logical" name="LFERMIGW"> F  </i>
   <i type="logical" name="ODDONLYGW"> F  </i>
   <i type="logical" name="EVENONLYGW"> F  </i>
   <i type="int" name="NKREDLFX">     1</i>
   <i type="int" name="NKREDLFY">     1</i>
   <i type="int" name="NKREDLFZ">     1</i>
   <i type="int" name="MAXMEM">  2800</i>
   <i type="int" name="TELESCOPE">     0</i>
   <i type="int" name="NTAUPAR">    -1</i>
   <i type="int" name="NOMEGAPAR">    -1</i>
   <i name="DAMP_NEWTON">      0.80000001</i>
   <i name="LAMBDA">      1.00000000</i>
  </separator>
  <separator name="External order field" >
   <i name="OFIELD_KAPPA">      0.00000000</i>
   <v name="OFIELD_K">      0.00000000      0.00000000      0.00000000</v>
   <i name="OFIELD_Q6_NEAR">      0.00000000</i>
   <i name="OFIELD_Q6_FAR">      0.00000000</i>
   <i name="OFIELD_A">      0.00000000</i>
  </separator>
  <separator name="optional k-points parameters" >
   <i type="int" name="KPOINTS_OPT_MODE">     1</i>
   <i type="logical" name="LKPOINTS_OPT"> F  </i>
  </separator>
  <separator name="solvation model" >
   <i type="logical" name="LSOL"> F  </i>
  </separator>
 </parameters>
 <atominfo>
  <atoms>      16 </atoms>
  <types>       2 </types>
  <array name="atoms" >
   <dimension dim="1">ion</dimension>
   <field type="string">element</field>
   <field type="int">atomtype</field>
   <set>
    <rc><c>B </c><c>   1</c></rc>
    <rc><c>B </c><c>   1</c></rc>
    <rc><c>B </c><c>   1</c></rc>
    <rc><c>B </c><c>   1</c></rc>
    <rc><c>B </c><c>   1</c></rc>
    <rc><c>B </c><c>   1</c></rc>
    <rc><c>B </c><c>   1</c></rc>
    <rc><c>B </c><c>   1</c></rc>
    <rc><c>C </c><c>   2</c></rc>
    <rc><c>C </c><c>   2</c></rc>
    <rc><c>C </c><c>   2</c></rc>
    <rc><c>C </c><c>   2</c></rc>
    <rc><c>C </c><c>   2</c></rc>
    <rc><c>C </c><c>   2</c></rc>
    <rc><c>C </c><c>   2</c></rc>
    <rc><c>C </c><c>   2</c></rc>
   </set>
  </array>
  <array name="atomtypes" >
   <dimension dim="1">type</dimension>
   <field type="int">atomspertype</field>
   <field type="string">element</field>
   <field>mass</field>
   <field>valence</field>
   <field type="string">pseudopotential</field>
   <set>
    <rc><c>   8</c><c>B </c><c>     10.81100000</c><c>      3.00000000</c><c>  PAW_PBE B 06Sep2000                   </c></rc>
    <rc><c>   8</c><c>C </c><c>     12.01100000</c><c>      4.00000000</c><c>  PAW_PBE C 08Apr2002                   </c></rc>
   </set>
  </array>
 </atominfo>
 <structure name="initialpos" >
  <crystal>
   <varray name="basis" >
    <v>       4.34744839       2.51000050       0.00000000 </v>
    <v>      -4.34744839       2.51000050       0.00000000 </v>
    <v>       0.00000000       0.00000000      15.00000000 </v>
   </varray>
   <i name="volume">    327.36292921 </i>
   <varray name="rec_basis" >
    <v>       0.11500999       0.19920315       0.00000000 </v>
    <v>      -0.11500999       0.19920315       0.00000000 </v>
    <v>       0.00000000       0.00000000       0.06666667 </v>
   </varray>
  </crystal>
  <varray name="positions" >
   <v>       0.66888689       0.00000000       0.10000000 </v>
   <v>       0.33111211       0.00000000       0.10000000 </v>
   <v>       0.00000000       0.33111211       0.10000000 </v>
   <v>       0.00000000       0.66888689       0.10000000 </v>
   <v>       0.33111211       0.33111211       0.10000000 </v>
   <v>       0.66888689       0.66888689       0.10000000 </v>
   <v>       0.66666600       0.33333300       0.09922189 </v>
   <v>       0.33333300       0.66666600       0.10077811 </v>
   <v>       0.27777711       0.22222189       0.46960000 </v>
   <v>       0.44444411       0.05555489       0.46960000 </v>
   <v>       0.27777711       0.72222189       0.46960000 </v>
   <v>       0.44444411       0.55555489       0.46960000 </v>
   <v>       0.77777711       0.22222189       0.46960000 </v>
   <v>       0.94444411       0.05555489       0.46960000 </v>
   <v>       0.77777711       0.72222189       0.46960000 </v>
   <v>       0.94444411       0.55555489       0.46960000 </v>
  </varray>
 </structure>
 <calculation>
  <scstep>
   <time name="dav">    3.48    3.53</time>
   <time name="total">    3.53    3.58</time>
   <energy>
    <i name="alphaZ">     59.48698404 </i>
    <i name="ewald">   1811.48819071 </i>
    <i name="hartreedc">  -3231.80614264 </i>
    <i name="XCdc">    162.70965585 </i>
    <i name="pawpsdc">   1214.24570090 </i>
    <i name="pawaedc">  -1211.68112031 </i>
    <i name="eentropy">     -0.01859674 </i>
    <i name="bandstr">   -365.16007449 </i>
    <i name="atom">   1746.50554237 </i>
    <i name="e_fr_energy">    185.77013969 </i>
    <i name="e_wo_entrp">    185.78873643 </i>
    <i name="e_0_energy">    185.77943806 </i>
   </energy>
  </scstep>
  <scstep>
   <time name="dav">    5.59    5.63</time>
   <time name="total">    5.59    5.63</time>
   <energy>
    <i name="e_fr_energy">   -117.87091797 </i>
    <i name="e_wo_entrp">   -117.85912509 </i>
    <i name="e_0_energy">   -117.86502153 </i>
   </energy>
  </scstep>
  <scstep>
   <time name="dav">    6.01    6.05</time>
   <time name="total">    6.01    6.05</time>
   <energy>
    <i name="e_fr_energy">   -127.18202911 </i>
    <i name="e_wo_entrp">   -127.16918208 </i>
    <i name="e_0_energy">   -127.17560559 </i>
   </energy>
  </scstep>
  <scstep>
   <time name="dav">    5.78    5.81</time>
   <time name="total">    5.78    5.81</time>
   <energy>
    <i name="e_fr_energy">   -127.21080043 </i>
    <i name="e_wo_entrp">   -127.19791188 </i>
    <i name="e_0_energy">   -127.20435616 </i>
   </energy>
  </scstep>
  <scstep>
   <time name="dav">    5.37    5.40</time>
   <time name="total">    5.56    5.64</time>
   <energy>
    <i name="e_fr_energy">   -127.21083073 </i>
    <i name="e_wo_entrp">   -127.19794217 </i>
    <i name="e_0_energy">   -127.20438645 </i>
   </energy>
  </scstep>
  <scstep>
   <time name="dav">    4.70    4.73</time>
   <time name="total">    4.92    4.98</time>
   <energy>
    <i name="e_fr_energy">    -94.25728414 </i>
    <i name="e_wo_entrp">    -94.24748175 </i>
    <i name="e_0_energy">    -94.25238295 </i>
   </energy>
  </scstep>
  <scstep>
   <time name="dav">    5.29    5.32</time>
   <time name="total">    5.51    5.56</time>
   <energy>
    <i name="e_fr_energy">   -105.51343011 </i>
    <i name="e_wo_entrp">   -105.50398771 </i>
    <i name="e_0_energy">   -105.50870891 </i>
   </energy>
  </scstep>
  <scstep>
   <time name="dav">    5.48    5.52</time>
   <time name="total">    5.71    5.75</time>
   <energy>
    <i name="e_fr_energy">   -111.38565568 </i>
    <i name="e_wo_entrp">   -111.37608152 </i>
    <i name="e_0_energy">   -111.38086860 </i>
   </energy>
  </scstep>
  <scstep>
   <time name="dav">    4.30    4.34</time>
   <time name="total">    4.53    4.57</time>
   <energy>
    <i name="e_fr_energy">   -116.63869478 </i>
    <i name="e_wo_entrp">   -116.63564545 </i>
    <i name="e_0_energy">   -116.63717011 </i>
   </energy>
  </scstep>
  <scstep>
   <time name="dav">    5.26    5.28</time>
   <time name="total">    5.48    5.51</time>
   <energy>
    <i name="e_fr_energy">   -120.82505073 </i>
    <i name="e_wo_entrp">   -120.82032049 </i>
    <i name="e_0_energy">   -120.82268561 </i>
   </energy>
  </scstep>
  <scstep>
   <time name="dav">    4.85    4.86</time>
   <time name="total">    5.06    5.10</time>
   <energy>
    <i name="e_fr_energy">   -122.73615646 </i>
    <i name="e_wo_entrp">   -122.73289820 </i>
    <i name="e_0_energy">   -122.73452733 </i>
   </energy>
  </scstep>
  <scstep>
   <time name="dav">    5.92    6.12</time>
   <time name="total">    6.13    6.33</time>
   <energy>
    <i name="e_fr_energy">   -123.72514579 </i>
    <i name="e_wo_entrp">   -123.72076063 </i>
    <i name="e_0_energy">   -123.72295321 </i>
   </energy>
  </scstep>
  <scstep>
   <time name="dav">    4.75    4.78</time>
   <time name="total">    4.97    5.00</time>
   <energy>
    <i name="e_fr_energy">   -124.03214559 </i>
    <i name="e_wo_entrp">   -124.02617903 </i>
    <i name="e_0_energy">   -124.02916231 </i>
   </energy>
  </scstep>
  <scstep>
   <time name="dav">    4.72    4.74</time>
   <time name="total">    4.93    4.95</time>
   <energy>
    <i name="e_fr_energy">   -124.08866999 </i>
    <i name="e_wo_entrp">   -124.08255478 </i>
    <i name="e_0_energy">   -124.08561239 </i>
   </energy>
  </scstep>
  <scstep>
   <time name="dav">    3.80    3.81</time>
   <time name="total">    4.01    4.03</time>
   <energy>
    <i name="e_fr_energy">   -124.11076573 </i>
    <i name="e_wo_entrp">   -124.10465257 </i>
    <i name="e_0_energy">   -124.10770915 </i>
   </energy>
  </scstep>
  <scstep>
   <time name="dav">    4.16    4.17</time>
   <time name="total">    4.37    4.40</time>
   <energy>
    <i name="e_fr_energy">   -124.11259394 </i>
    <i name="e_wo_entrp">   -124.10653035 </i>
    <i name="e_0_energy">   -124.10956215 </i>
   </energy>
  </scstep>
  <scstep>
   <time name="dav">    4.00    4.02</time>
   <time name="total">    4.22    4.26</time>
   <energy>
    <i name="e_fr_energy">   -124.11338551 </i>
    <i name="e_wo_entrp">   -124.10734412 </i>
    <i name="e_0_energy">   -124.11036481 </i>
   </energy>
  </scstep>
  <scstep>
   <time name="dav">    3.65    3.67</time>
   <time name="total">    3.86    3.89</time>
   <energy>
    <i name="e_fr_energy">   -124.11337894 </i>
    <i name="e_wo_entrp">   -124.10732401 </i>
    <i name="e_0_energy">   -124.11035147 </i>
   </energy>
  </scstep>
  <scstep>
   <time name="dav">    3.67    3.68</time>
   <time name="total">    3.87    3.90</time>
   <energy>
    <i name="e_fr_energy">   -124.11341486 </i>
    <i name="e_wo_entrp">   -124.10735484 </i>
    <i name="e_0_energy">   -124.11038485 </i>
   </energy>
  </scstep>
  <scstep>
   <time name="dav">    3.30    3.31</time>
   <time name="total">    3.51    3.54</time>
   <energy>
    <i name="e_fr_energy">   -124.11343836 </i>
    <i name="e_wo_entrp">   -124.10737983 </i>
    <i name="e_0_energy">   -124.11040909 </i>
   </energy>
  </scstep>
  <scstep>
   <time name="dav">    3.44    3.46</time>
   <time name="total">    3.65    3.67</time>
   <energy>
    <i name="e_fr_energy">   -124.11348639 </i>
    <i name="e_wo_entrp">   -124.10742775 </i>
    <i name="e_0_energy">   -124.11045707 </i>
   </energy>
  </scstep>
  <scstep>
   <time name="dav">    4.03    4.05</time>
   <time name="total">    4.23    4.26</time>
   <energy>
    <i name="e_fr_energy">   -124.11351293 </i>
    <i name="e_wo_entrp">   -124.10745418 </i>
    <i name="e_0_energy">   -124.11048356 </i>
   </energy>
  </scstep>
  <scstep>
   <time name="dav">    4.36    4.37</time>
   <time name="total">    4.56    4.59</time>
   <energy>
    <i name="e_fr_energy">   -124.11351634 </i>
    <i name="e_wo_entrp">   -124.10745808 </i>
    <i name="e_0_energy">   -124.11048721 </i>
   </energy>
  </scstep>
  <scstep>
   <time name="dav">    4.41    4.43</time>
   <time name="total">    4.62    4.64</time>
   <energy>
    <i name="e_fr_energy">   -124.11351991 </i>
    <i name="e_wo_entrp">   -124.10746166 </i>
    <i name="e_0_energy">   -124.11049078 </i>
   </energy>
  </scstep>
  <scstep>
   <time name="dav">    5.14    5.16</time>
   <time name="total">    5.34    5.38</time>
   <energy>
    <i name="e_fr_energy">   -124.11352101 </i>
    <i name="e_wo_entrp">   -124.10746278 </i>
    <i name="e_0_energy">   -124.11049189 </i>
   </energy>
  </scstep>
  <scstep>
   <time name="dav">    5.20    5.21</time>
   <time name="total">    5.23    5.25</time>
   <energy>
    <i name="alphaZ">     59.48698404 </i>
    <i name="ewald">   1811.48819071 </i>
    <i name="hartreedc">  -3419.51792919 </i>
    <i name="XCdc">    167.31724410 </i>
    <i name="pawpsdc">   5573.68262367 </i>
    <i name="pawaedc">  -5572.96488545 </i>
    <i name="eentropy">     -0.00605807 </i>
    <i name="bandstr">   -490.10523350 </i>
    <i name="atom">   1746.50554237 </i>
    <i name="e_fr_energy">   -124.11352133 </i>
    <i name="e_wo_entrp">   -124.10746326 </i>
    <i name="e_0_energy">   -124.11049230 </i>
   </energy>
  </scstep>
  <structure>
   <crystal>
    <varray name="basis" >
     <v>       4.34744839       2.51000050       0.00000000 </v>
     <v>      -4.34744839       2.51000050       0.00000000 </v>
     <v>       0.00000000       0.00000000      15.00000000 </v>
    </varray>
    <i name="volume">    327.36292921 </i>
    <varray name="rec_basis" >
     <v>       0.11500999       0.19920315       0.00000000 </v>
     <v>      -0.11500999       0.19920315       0.00000000 </v>
     <v>       0.00000000       0.00000000       0.06666667 </v>
    </varray>
   </crystal>
   <varray name="positions" >
    <v>       0.66888689       0.00000000       0.10000000 </v>
    <v>       0.33111211       0.00000000       0.10000000 </v>
    <v>       0.00000000       0.33111211       0.10000000 </v>
    <v>       0.00000000       0.66888689       0.10000000 </v>
    <v>       0.33111211       0.33111211       0.10000000 </v>
    <v>       0.66888689       0.66888689       0.10000000 </v>
    <v>       0.66666600       0.33333300       0.09922189 </v>
    <v>       0.33333300       0.66666600       0.10077811 </v>
    <v>       0.27777711       0.22222189       0.46960000 </v>
    <v>       0.44444411       0.05555489       0.46960000 </v>
    <v>       0.27777711       0.72222189       0.46960000 </v>
    <v>       0.44444411       0.55555489       0.46960000 </v>
    <v>       0.77777711       0.22222189       0.46960000 </v>
    <v>       0.94444411       0.05555489       0.46960000 </v>
    <v>       0.77777711       0.72222189       0.46960000 </v>
    <v>       0.94444411       0.55555489       0.46960000 </v>
   </varray>
  </structure>
  <varray name="forces" >
   <v>       0.06182837       0.03568010       0.00802614 </v>
   <v>      -0.06179243      -0.03569206       0.00804701 </v>
   <v>       0.06182837      -0.03568010       0.00802614 </v>
   <v>      -0.06179243       0.03569206       0.00804701 </v>
   <v>      -0.00000192      -0.07140214       0.00805670 </v>
   <v>      -0.00000192       0.07140214       0.00805670 </v>
   <v>       0.00002080       0.00000000       0.01025667 </v>
   <v>      -0.00007096       0.00000000       0.00807997 </v>
   <v>      -0.00004195      -0.00046934      -0.00822858 </v>
   <v>      -0.00039440       0.00000527      -0.00842033 </v>
   <v>       0.00000866       0.00000000      -0.00857777 </v>
   <v>       0.00015079       0.00000000      -0.00835014 </v>
   <v>       0.00059747      -0.00000000      -0.00828397 </v>
   <v>       0.00009788      -0.00000000      -0.00808666 </v>
   <v>      -0.00004195       0.00046934      -0.00822858 </v>
   <v>      -0.00039440      -0.00000527      -0.00842033 </v>
  </varray>
  <varray name="stress" >
   <v>     -34.24323985      -0.00000000      -0.00052123 </v>
   <v>      -0.00000000     -34.24284297       0.00000000 </v>
   <v>      -0.00052121       0.00000000      -3.56704311 </v>
  </varray>
  <energy>
   <i name="e_fr_energy">   -125.58499619 </i>
   <i name="e_wo_entrp">   -125.57893812 </i>
   <i name="e_0_energy">   -125.58196716 </i>
  </energy>
  <time name="totalsc">  128.34  129.45</time>
 </calculation>
 <calculation>
  <scstep>
