Lattice                                 
           1
     4.347448    2.510000    0.000000
    -4.347448    2.510000    0.000000
     0.000000    0.000000   15.000000
   B    C 
     8     8
Direct configuration=     1
   0.66888689  0.00000000  0.10000000
   0.33111211  0.00000000  0.10000000
   0.00000000  0.33111211  0.10000000
   0.00000000  0.66888689  0.10000000
   0.33111211  0.33111211  0.10000000
   0.66888689  0.66888689  0.10000000
   0.66666600  0.33333300  0.09922189
   0.33333300  0.66666600  0.10077811
   0.27777711  0.22222189  0.46960000
   0.44444411  0.05555489  0.46960000
   0.27777711  0.72222189  0.46960000
   0.44444411  0.55555489  0.46960000
   0.77777711  0.22222189  0.46960000
   0.94444411  0.05555489  0.46960000
   0.77777711  0.72222189  0.46960000
   0.94444411  0.55555489  0.46960000
