  16  16   0  16
  0.2046017E+02  0.5020000E-09  0.5020000E-09  0.1500000E-08  0.5000000E-15
  1.000000000000000E-004
  CAR 
 Lattice                                 
      9.30655598    -20.94459736  301     -0.26807665      1.00000000
    -20.945  0.0000E+00  0.0000E+00  0.0000E+00  0.0000E+00
    -20.844  0.0000E+00  0.0000E+00  0.0000E+00  0.0000E+00
    -20.743  0.0000E+00  0.0000E+00  0.0000E+00  0.0000E+00
    -20.642  0.0000E+00  0.0000E+00  0.0000E+00  0.0000E+00
    -20.541  0.0000E+00  0.0000E+00  0.0000E+00  0.0000E+00
    -20.440  0.0000E+00  0.0000E+00  0.0000E+00  0.0000E+00
    -20.340  0.0000E+00  0.0000E+00  0.0000E+00  0.0000E+00
    -20.239  0.0000E+00  0.0000E+00  0.0000E+00  0.0000E+00
    -20.138  0.2389E-18  0.2389E-18  0.2409E-19  0.2409E-19
    -20.037  0.1139E-13  0.1139E-13  0.1149E-14  0.1149E-14
    -19.936  0.7243E-10  0.7244E-10  0.7305E-11  0.7305E-11
    -19.835  0.7069E-07  0.7069E-07  0.7136E-08  0.7136E-08
    -19.735  0.1140E-04  0.1140E-04  0.1157E-05  0.1157E-05
    -19.634  0.3326E-03  0.3326E-03  0.3470E-04  0.3470E-04
    -19.533  0.2116E-02  0.2116E-02  0.2481E-03  0.2481E-03
    -19.432  0.4344E-02  0.4344E-02  0.6862E-03  0.6862E-03
    -19.331  0.4837E-02  0.4837E-02  0.1174E-02  0.1174E-02
    -19.230  0.5172E-02  0.5172E-02  0.1696E-02  0.1696E-02
    -19.130  0.4535E-02  0.4535E-02  0.2153E-02  0.2153E-02
    -19.029  0.5616E-02  0.5616E-02  0.2719E-02  0.2719E-02
    -18.928  0.4497E-02  0.4497E-02  0.3173E-02  0.3173E-02
    -18.827  0.4676E-02  0.4676E-02  0.3644E-02  0.3644E-02
    -18.726  0.6207E-02  0.6207E-02  0.4270E-02  0.4270E-02
    -18.625  0.4056E-02  0.4056E-02  0.4679E-02  0.4679E-02
    -18.525  0.4343E-02  0.4343E-02  0.5117E-02  0.5117E-02
    -18.424  0.6414E-02  0.6414E-02  0.5764E-02  0.5764E-02
    -18.323  0.5373E-02  0.5373E-02  0.6305E-02  0.6305E-02
    -18.222  0.3195E-02  0.3195E-02  0.6628E-02  0.6628E-02
    -18.121  0.5019E-02  0.5019E-02  0.7134E-02  0.7134E-02
    -18.020  0.7094E-02  0.7094E-02  0.7849E-02  0.7849E-02
    -17.919  0.4792E-02  0.4792E-02  0.8332E-02  0.8332E-02
    -17.819  0.3891E-02  0.3891E-02  0.8725E-02  0.8725E-02
    -17.718  0.3576E-02  0.3576E-02  0.9085E-02  0.9085E-02
    -17.617  0.7241E-02  0.7241E-02  0.9815E-02  0.9815E-02
    -17.516  0.6608E-02  0.6608E-02  0.1048E-01  0.1048E-01
    -17.415  0.3598E-02  0.3598E-02  0.1084E-01  0.1084E-01
    -17.314  0.3706E-02  0.3706E-02  0.1122E-01  0.1122E-01
    -17.214  0.4598E-02  0.4598E-02  0.1168E-01  0.1168E-01
    -17.113  0.6956E-02  0.6956E-02  0.1238E-01  0.1238E-01
    -17.012  0.6803E-02  0.6803E-02  0.1307E-01  0.1307E-01
    -16.911  0.4680E-02  0.4680E-02  0.1354E-01  0.1354E-01
    -16.810  0.2472E-02  0.2472E-02  0.1379E-01  0.1379E-01
    -16.709  0.4318E-02  0.4318E-02  0.1423E-01  0.1423E-01
    -16.609  0.7224E-02  0.7224E-02  0.1495E-01  0.1495E-01
    -16.508  0.6697E-02  0.6697E-02  0.1563E-01  0.1563E-01
    -16.407  0.5543E-02  0.5543E-02  0.1619E-01  0.1619E-01
    -16.306  0.4631E-02  0.4631E-02  0.1666E-01  0.1666E-01
    -16.205  0.2986E-02  0.2986E-02  0.1696E-01  0.1696E-01
    -16.104  0.3546E-02  0.3546E-02  0.1731E-01  0.1731E-01
    -16.004  0.1068E-01  0.1068E-01  0.1839E-01  0.1839E-01
    -15.903  0.1210E-01  0.1210E-01  0.1961E-01  0.1961E-01
    -15.802  0.1105E-01  0.1105E-01  0.2073E-01  0.2073E-01
    -15.701  0.1067E-01  0.1067E-01  0.2180E-01  0.2180E-01
    -15.600  0.1113E-01  0.1113E-01  0.2293E-01  0.2293E-01
    -15.499  0.1006E-01  0.1006E-01  0.2394E-01  0.2394E-01
    -15.399  0.1363E-01  0.1363E-01  0.2531E-01  0.2531E-01
    -15.298  0.1737E-01  0.1737E-01  0.2707E-01  0.2707E-01
    -15.197  0.1597E-01  0.1597E-01  0.2868E-01  0.2868E-01
    -15.096  0.1341E-01  0.1341E-01  0.3003E-01  0.3003E-01
    -14.995  0.9887E-02  0.9887E-02  0.3103E-01  0.3103E-01
    -14.894  0.7924E-02  0.7924E-02  0.3183E-01  0.3183E-01
    -14.794  0.6399E-02  0.6399E-02  0.3247E-01  0.3247E-01
    -14.693  0.1049E-01  0.1049E-01  0.3353E-01  0.3353E-01
    -14.592  0.1176E-01  0.1176E-01  0.3471E-01  0.3471E-01
    -14.491  0.1261E-01  0.1261E-01  0.3599E-01  0.3599E-01
    -14.390  0.1243E-01  0.1243E-01  0.3724E-01  0.3724E-01
    -14.289  0.9945E-02  0.9945E-02  0.3824E-01  0.3824E-01
    -14.189  0.9026E-02  0.9026E-02  0.3915E-01  0.3915E-01
    -14.088  0.1135E-01  0.1135E-01  0.4030E-01  0.4030E-01
    -13.987  0.1343E-01  0.1343E-01  0.4165E-01  0.4165E-01
    -13.886  0.7210E-02  0.7210E-02  0.4238E-01  0.4238E-01
    -13.785  0.3404E-02  0.3404E-02  0.4272E-01  0.4272E-01
    -13.684  0.3151E-02  0.3151E-02  0.4304E-01  0.4304E-01
    -13.583  0.6302E-02  0.6302E-02  0.4367E-01  0.4367E-01
    -13.483  0.5943E-02  0.5943E-02  0.4427E-01  0.4427E-01
    -13.382  0.5921E-02  0.5921E-02  0.4487E-01  0.4487E-01
    -13.281  0.5694E-02  0.5694E-02  0.4544E-01  0.4544E-01
    -13.180  0.7666E-02  0.7666E-02  0.4622E-01  0.4622E-01
    -13.079  0.7041E-02  0.7041E-02  0.4693E-01  0.4693E-01
    -12.978  0.6421E-02  0.6421E-02  0.4758E-01  0.4758E-01
    -12.878  0.6968E-02  0.6968E-02  0.4828E-01  0.4828E-01
    -12.777  0.8892E-02  0.8892E-02  0.4917E-01  0.4917E-01
    -12.676  0.1321E-01  0.1321E-01  0.5051E-01  0.5051E-01
    -12.575  0.1271E-01  0.1271E-01  0.5179E-01  0.5179E-01
    -12.474  0.1506E-01  0.1506E-01  0.5331E-01  0.5331E-01
    -12.373  0.1452E-01  0.1452E-01  0.5477E-01  0.5477E-01
    -12.273  0.1449E-01  0.1449E-01  0.5623E-01  0.5623E-01
    -12.172  0.1787E-01  0.1787E-01  0.5803E-01  0.5803E-01
    -12.071  0.1502E-01  0.1502E-01  0.5955E-01  0.5955E-01
    -11.970  0.1669E-01  0.1669E-01  0.6123E-01  0.6123E-01
    -11.869  0.1634E-01  0.1634E-01  0.6288E-01  0.6288E-01
    -11.768  0.9611E-02  0.9611E-02  0.6385E-01  0.6385E-01
    -11.668  0.6003E-02  0.6003E-02  0.6445E-01  0.6445E-01
    -11.567  0.5216E-02  0.5216E-02  0.6498E-01  0.6498E-01
    -11.466  0.6682E-02  0.6682E-02  0.6565E-01  0.6565E-01
    -11.365  0.5808E-02  0.5808E-02  0.6624E-01  0.6624E-01
    -11.264  0.5580E-02  0.5580E-02  0.6680E-01  0.6680E-01
    -11.163  0.4681E-02  0.4681E-02  0.6727E-01  0.6727E-01
    -11.063  0.4115E-02  0.4115E-02  0.6769E-01  0.6769E-01
    -10.962  0.5751E-02  0.5751E-02  0.6827E-01  0.6827E-01
    -10.861  0.1114E-01  0.1114E-01  0.6939E-01  0.6939E-01
    -10.760  0.1200E-01  0.1200E-01  0.7060E-01  0.7060E-01
    -10.659  0.1207E-01  0.1207E-01  0.7182E-01  0.7182E-01
    -10.558  0.1467E-01  0.1467E-01  0.7330E-01  0.7330E-01
    -10.458  0.1271E-01  0.1271E-01  0.7458E-01  0.7458E-01
    -10.357  0.1241E-01  0.1241E-01  0.7583E-01  0.7583E-01
    -10.256  0.1072E-01  0.1072E-01  0.7691E-01  0.7691E-01
    -10.155  0.9739E-02  0.9739E-02  0.7789E-01  0.7789E-01
    -10.054  0.9619E-02  0.9619E-02  0.7886E-01  0.7886E-01
     -9.953  0.6192E-02  0.6192E-02  0.7949E-01  0.7949E-01
     -9.853  0.1153E-01  0.1153E-01  0.8065E-01  0.8065E-01
     -9.752  0.1157E-01  0.1157E-01  0.8182E-01  0.8182E-01
     -9.651  0.1489E-01  0.1489E-01  0.8332E-01  0.8332E-01
     -9.550  0.1810E-01  0.1810E-01  0.8515E-01  0.8515E-01
     -9.449  0.1182E-01  0.1182E-01  0.8634E-01  0.8634E-01
     -9.348  0.1721E-01  0.1721E-01  0.8807E-01  0.8807E-01
     -9.247  0.1635E-01  0.1635E-01  0.8972E-01  0.8972E-01
     -9.147  0.1163E-01  0.1163E-01  0.9089E-01  0.9089E-01
     -9.046  0.1118E-01  0.1118E-01  0.9202E-01  0.9202E-01
     -8.945  0.1955E-01  0.1955E-01  0.9399E-01  0.9399E-01
     -8.844  0.2277E-01  0.2277E-01  0.9629E-01  0.9629E-01
     -8.743  0.9671E-02  0.9671E-02  0.9726E-01  0.9726E-01
     -8.642  0.6012E-02  0.6012E-02  0.9787E-01  0.9787E-01
     -8.542  0.1336E-01  0.1336E-01  0.9922E-01  0.9922E-01
     -8.441  0.1793E-01  0.1793E-01  0.1010E+00  0.1010E+00
     -8.340  0.1584E-01  0.1584E-01  0.1026E+00  0.1026E+00
     -8.239  0.1573E-01  0.1573E-01  0.1042E+00  0.1042E+00
     -8.138  0.1235E-01  0.1235E-01  0.1055E+00  0.1055E+00
     -8.037  0.9699E-02  0.9699E-02  0.1064E+00  0.1064E+00
     -7.937  0.1286E-01  0.1286E-01  0.1077E+00  0.1077E+00
     -7.836  0.1788E-01  0.1788E-01  0.1095E+00  0.1095E+00
     -7.735  0.2297E-01  0.2297E-01  0.1118E+00  0.1118E+00
     -7.634  0.1709E-01  0.1709E-01  0.1136E+00  0.1136E+00
     -7.533  0.1416E-01  0.1416E-01  0.1150E+00  0.1150E+00
     -7.432  0.1305E-01  0.1305E-01  0.1163E+00  0.1163E+00
     -7.332  0.1519E-01  0.1519E-01  0.1178E+00  0.1178E+00
     -7.231  0.2163E-01  0.2163E-01  0.1200E+00  0.1200E+00
     -7.130  0.1609E-01  0.1609E-01  0.1216E+00  0.1216E+00
     -7.029  0.1757E-01  0.1757E-01  0.1234E+00  0.1234E+00
     -6.928  0.2035E-01  0.2035E-01  0.1255E+00  0.1255E+00
     -6.827  0.2268E-01  0.2268E-01  0.1278E+00  0.1278E+00
     -6.727  0.2556E-01  0.2556E-01  0.1303E+00  0.1303E+00
     -6.626  0.3292E-01  0.3292E-01  0.1337E+00  0.1337E+00
     -6.525  0.3612E-01  0.3612E-01  0.1373E+00  0.1373E+00
     -6.424  0.2278E-01  0.2278E-01  0.1396E+00  0.1396E+00
     -6.323  0.1643E-01  0.1643E-01  0.1413E+00  0.1413E+00
     -6.222  0.1751E-01  0.1751E-01  0.1430E+00  0.1430E+00
     -6.122  0.1780E-01  0.1780E-01  0.1448E+00  0.1448E+00
     -6.021  0.1853E-01  0.1853E-01  0.1467E+00  0.1467E+00
     -5.920  0.1573E-01  0.1573E-01  0.1483E+00  0.1483E+00
     -5.819  0.1547E-01  0.1547E-01  0.1498E+00  0.1498E+00
     -5.718  0.1862E-01  0.1862E-01  0.1517E+00  0.1517E+00
     -5.617  0.1497E-01  0.1497E-01  0.1532E+00  0.1532E+00
     -5.517  0.1011E-01  0.1011E-01  0.1542E+00  0.1542E+00
     -5.416  0.1349E-01  0.1349E-01  0.1556E+00  0.1556E+00
     -5.315  0.1916E-01  0.1916E-01  0.1575E+00  0.1575E+00
     -5.214  0.1779E-01  0.1779E-01  0.1593E+00  0.1593E+00
     -5.113  0.1278E-01  0.1278E-01  0.1606E+00  0.1606E+00
     -5.012  0.1552E-01  0.1552E-01  0.1622E+00  0.1622E+00
     -4.911  0.2151E-01  0.2151E-01  0.1643E+00  0.1643E+00
     -4.811  0.1377E-01  0.1377E-01  0.1657E+00  0.1657E+00
     -4.710  0.8110E-02  0.8110E-02  0.1665E+00  0.1665E+00
     -4.609  0.1602E-01  0.1602E-01  0.1682E+00  0.1682E+00
     -4.508  0.2045E-01  0.2045E-01  0.1702E+00  0.1702E+00
     -4.407  0.1929E-01  0.1929E-01  0.1722E+00  0.1722E+00
     -4.306  0.2252E-01  0.2252E-01  0.1744E+00  0.1744E+00
     -4.206  0.2220E-01  0.2220E-01  0.1767E+00  0.1767E+00
     -4.105  0.2213E-01  0.2213E-01  0.1789E+00  0.1789E+00
     -4.004  0.2359E-01  0.2359E-01  0.1813E+00  0.1813E+00
     -3.903  0.2836E-01  0.2836E-01  0.1842E+00  0.1842E+00
     -3.802  0.2751E-01  0.2751E-01  0.1869E+00  0.1869E+00
     -3.701  0.1991E-01  0.1991E-01  0.1889E+00  0.1889E+00
     -3.601  0.1957E-01  0.1957E-01  0.1909E+00  0.1909E+00
     -3.500  0.1681E-01  0.1681E-01  0.1926E+00  0.1926E+00
     -3.399  0.1379E-01  0.1379E-01  0.1940E+00  0.1940E+00
     -3.298  0.7101E-02  0.7101E-02  0.1947E+00  0.1947E+00
     -3.197  0.7448E-02  0.7448E-02  0.1955E+00  0.1955E+00
     -3.096  0.1309E-01  0.1309E-01  0.1968E+00  0.1968E+00
     -2.996  0.1649E-01  0.1649E-01  0.1984E+00  0.1984E+00
     -2.895  0.1337E-01  0.1337E-01  0.1998E+00  0.1998E+00
     -2.794  0.1262E-01  0.1262E-01  0.2011E+00  0.2011E+00
     -2.693  0.1110E-01  0.1110E-01  0.2022E+00  0.2022E+00
     -2.592  0.1079E-01  0.1079E-01  0.2033E+00  0.2033E+00
     -2.491  0.1418E-01  0.1418E-01  0.2047E+00  0.2047E+00
     -2.391  0.1479E-01  0.1479E-01  0.2062E+00  0.2062E+00
     -2.290  0.9896E-02  0.9896E-02  0.2072E+00  0.2072E+00
     -2.189  0.1200E-01  0.1200E-01  0.2084E+00  0.2084E+00
     -2.088  0.8466E-02  0.8466E-02  0.2093E+00  0.2093E+00
     -1.987  0.4883E-02  0.4883E-02  0.2097E+00  0.2097E+00
     -1.886  0.5194E-02  0.5194E-02  0.2103E+00  0.2103E+00
     -1.786  0.8945E-02  0.8945E-02  0.2112E+00  0.2112E+00
     -1.685  0.9194E-02  0.9194E-02  0.2121E+00  0.2121E+00
     -1.584  0.9200E-02  0.9200E-02  0.2130E+00  0.2130E+00
     -1.483  0.8220E-02  0.8220E-02  0.2139E+00  0.2139E+00
     -1.382  0.5147E-02  0.5147E-02  0.2144E+00  0.2144E+00
     -1.281  0.5023E-02  0.5023E-02  0.2149E+00  0.2149E+00
     -1.181  0.5645E-02  0.5645E-02  0.2154E+00  0.2154E+00
     -1.080  0.7405E-02  0.7405E-02  0.2162E+00  0.2162E+00
     -0.979  0.6889E-02  0.6889E-02  0.2169E+00  0.2169E+00
     -0.878  0.4011E-02  0.4011E-02  0.2173E+00  0.2173E+00
     -0.777  0.2094E-02  0.2094E-02  0.2175E+00  0.2175E+00
     -0.676  0.8826E-03  0.8826E-03  0.2176E+00  0.2176E+00
     -0.575  0.2562E-02  0.2562E-02  0.2179E+00  0.2179E+00
     -0.475  0.4061E-02  0.4061E-02  0.2183E+00  0.2183E+00
     -0.374  0.2131E-02  0.2131E-02  0.2185E+00  0.2185E+00
     -0.273  0.2526E-02  0.2526E-02  0.2187E+00  0.2187E+00
     -0.172  0.4184E-02  0.4184E-02  0.2192E+00  0.2192E+00
     -0.071  0.4341E-02  0.4341E-02  0.2196E+00  0.2196E+00
      0.030  0.3605E-02  0.3605E-02  0.2200E+00  0.2200E+00
      0.130  0.6435E-02  0.6435E-02  0.2206E+00  0.2206E+00
      0.231  0.1104E-01  0.1104E-01  0.2217E+00  0.2217E+00
      0.332  0.1220E-01  0.1220E-01  0.2229E+00  0.2229E+00
      0.433  0.1148E-01  0.1148E-01  0.2241E+00  0.2241E+00
      0.534  0.5715E-02  0.5715E-02  0.2247E+00  0.2247E+00
      0.635  0.5350E-02  0.5350E-02  0.2252E+00  0.2252E+00
      0.735  0.1086E-01  0.1086E-01  0.2263E+00  0.2263E+00
      0.836  0.7489E-02  0.7489E-02  0.2271E+00  0.2271E+00
      0.937  0.3895E-02  0.3895E-02  0.2275E+00  0.2275E+00
      1.038  0.4863E-02  0.4863E-02  0.2280E+00  0.2280E+00
      1.139  0.1213E-01  0.1213E-01  0.2292E+00  0.2292E+00
      1.240  0.1904E-01  0.1904E-01  0.2311E+00  0.2311E+00
      1.340  0.1857E-01  0.1857E-01  0.2330E+00  0.2330E+00
      1.441  0.1302E-01  0.1302E-01  0.2343E+00  0.2343E+00
      1.542  0.8108E-02  0.8108E-02  0.2351E+00  0.2351E+00
      1.643  0.1060E-01  0.1060E-01  0.2362E+00  0.2362E+00
      1.744  0.1017E-01  0.1017E-01  0.2372E+00  0.2372E+00
      1.845  0.8837E-02  0.8837E-02  0.2381E+00  0.2381E+00
      1.945  0.1495E-01  0.1495E-01  0.2396E+00  0.2396E+00
      2.046  0.1559E-01  0.1559E-01  0.2412E+00  0.2412E+00
      2.147  0.1222E-01  0.1222E-01  0.2424E+00  0.2424E+00
      2.248  0.7504E-02  0.7504E-02  0.2432E+00  0.2432E+00
      2.349  0.5099E-02  0.5099E-02  0.2437E+00  0.2437E+00
      2.450  0.9301E-02  0.9301E-02  0.2446E+00  0.2446E+00
      2.550  0.1203E-01  0.1203E-01  0.2458E+00  0.2458E+00
      2.651  0.1583E-01  0.1583E-01  0.2474E+00  0.2474E+00
      2.752  0.1643E-01  0.1643E-01  0.2491E+00  0.2491E+00
      2.853  0.1434E-01  0.1434E-01  0.2505E+00  0.2505E+00
      2.954  0.1195E-01  0.1195E-01  0.2517E+00  0.2517E+00
      3.055  0.1311E-01  0.1311E-01  0.2530E+00  0.2530E+00
      3.155  0.1371E-01  0.1371E-01  0.2544E+00  0.2544E+00
      3.256  0.2140E-01  0.2140E-01  0.2566E+00  0.2566E+00
      3.357  0.1906E-01  0.1906E-01  0.2585E+00  0.2585E+00
      3.458  0.1698E-01  0.1698E-01  0.2602E+00  0.2602E+00
      3.559  0.2223E-01  0.2224E-01  0.2625E+00  0.2625E+00
      3.660  0.2620E-01  0.2620E-01  0.2651E+00  0.2651E+00
      3.761  0.2450E-01  0.2450E-01  0.2676E+00  0.2676E+00
      3.861  0.1806E-01  0.1807E-01  0.2694E+00  0.2694E+00
      3.962  0.1750E-01  0.1750E-01  0.2712E+00  0.2712E+00
      4.063  0.1977E-01  0.1976E-01  0.2732E+00  0.2732E+00
      4.164  0.1804E-01  0.1804E-01  0.2750E+00  0.2750E+00
      4.265  0.2182E-01  0.2183E-01  0.2772E+00  0.2772E+00
      4.366  0.2372E-01  0.2372E-01  0.2796E+00  0.2796E+00
      4.466  0.1885E-01  0.1885E-01  0.2815E+00  0.2815E+00
      4.567  0.2213E-01  0.2213E-01  0.2837E+00  0.2837E+00
      4.668  0.2536E-01  0.2537E-01  0.2863E+00  0.2863E+00
      4.769  0.3085E-01  0.3086E-01  0.2894E+00  0.2894E+00
      4.870  0.2498E-01  0.2498E-01  0.2919E+00  0.2919E+00
      4.971  0.1593E-01  0.1594E-01  0.2935E+00  0.2935E+00
      5.071  0.2297E-01  0.2297E-01  0.2958E+00  0.2958E+00
      5.172  0.2675E-01  0.2674E-01  0.2985E+00  0.2985E+00
      5.273  0.2387E-01  0.2388E-01  0.3009E+00  0.3009E+00
      5.374  0.2478E-01  0.2478E-01  0.3034E+00  0.3034E+00
      5.475  0.2958E-01  0.2958E-01  0.3064E+00  0.3064E+00
      5.576  0.2939E-01  0.2939E-01  0.3094E+00  0.3094E+00
      5.676  0.2903E-01  0.2904E-01  0.3123E+00  0.3123E+00
      5.777  0.2518E-01  0.2516E-01  0.3148E+00  0.3148E+00
      5.878  0.1341E-01  0.1341E-01  0.3162E+00  0.3162E+00
      5.979  0.1949E-01  0.1951E-01  0.3181E+00  0.3181E+00
      6.080  0.2878E-01  0.2878E-01  0.3210E+00  0.3210E+00
      6.181  0.2998E-01  0.2997E-01  0.3241E+00  0.3241E+00
      6.281  0.3145E-01  0.3146E-01  0.3272E+00  0.3272E+00
      6.382  0.3036E-01  0.3035E-01  0.3303E+00  0.3303E+00
      6.483  0.2310E-01  0.2309E-01  0.3326E+00  0.3326E+00
      6.584  0.2372E-01  0.2373E-01  0.3350E+00  0.3350E+00
      6.685  0.3292E-01  0.3291E-01  0.3383E+00  0.3383E+00
      6.786  0.2741E-01  0.2741E-01  0.3411E+00  0.3411E+00
      6.886  0.3205E-01  0.3206E-01  0.3443E+00  0.3443E+00
      6.987  0.3825E-01  0.3825E-01  0.3482E+00  0.3482E+00
      7.088  0.3360E-01  0.3360E-01  0.3516E+00  0.3516E+00
      7.189  0.3435E-01  0.3436E-01  0.3550E+00  0.3550E+00
      7.290  0.3184E-01  0.3184E-01  0.3583E+00  0.3583E+00
      7.391  0.2836E-01  0.2836E-01  0.3611E+00  0.3611E+00
      7.491  0.3420E-01  0.3420E-01  0.3646E+00  0.3646E+00
      7.592  0.3353E-01  0.3352E-01  0.3679E+00  0.3679E+00
      7.693  0.2622E-01  0.2622E-01  0.3706E+00  0.3706E+00
      7.794  0.1976E-01  0.1976E-01  0.3726E+00  0.3726E+00
      7.895  0.1439E-01  0.1439E-01  0.3740E+00  0.3740E+00
      7.996  0.8093E-02  0.8086E-02  0.3748E+00  0.3748E+00
      8.097  0.1469E-02  0.1464E-02  0.3750E+00  0.3750E+00
      8.197  0.5681E-04  0.5640E-04  0.3750E+00  0.3750E+00
      8.298  0.3934E-06  0.3887E-06  0.3750E+00  0.3750E+00
      8.399  0.4340E-09  0.4264E-09  0.3750E+00  0.3750E+00
      8.500  0.7056E-13  0.6894E-13  0.3750E+00  0.3750E+00
      8.601  0.1434E-17  0.1434E-17  0.3750E+00  0.3750E+00
      8.702  0.0000E+00  0.0000E+00  0.3750E+00  0.3750E+00
      8.802  0.0000E+00  0.0000E+00  0.3750E+00  0.3750E+00
      8.903  0.0000E+00  0.0000E+00  0.3750E+00  0.3750E+00
      9.004  0.0000E+00  0.0000E+00  0.3750E+00  0.3750E+00
      9.105  0.0000E+00  0.0000E+00  0.3750E+00  0.3750E+00
      9.206  0.0000E+00  0.0000E+00  0.3750E+00  0.3750E+00
      9.307  0.0000E+00  0.0000E+00  0.3750E+00  0.3750E+00
