 vasp.6.3.2 27Jun22 (build Dec 22 2022 13:13:19) complex                        
  
 executed on             LinuxIFC date 2023.09.12  17:21:22
 running   24 mpi-ranks, with    1 threads/rank
 distrk:  each k-point on   24 cores,    1 groups
 distr:  one band on NCORE=   1 cores,   24 groups


--------------------------------------------------------------------------------------------------------


 INCAR:
   SYSTEM = Lattice
   ISTART = 0
   ICHARG = 2
   PREC = Accurate
   ENCUT = 450
   LCHARG = .FALSE.
   LWAVE = .FALSE.
   ALGO = Normal
   NELM = 64
   EDIFF = 1E-6
   EDIFFG = -1E-3
   SIGMA = 0.1
   ISMEAR = 0
   ISPIN = 1
   NSW = 128
   IBRION = 2
   POTIM = .5
   ISIF = 2
   GGA = PE
   IVDW = 12

 POTCAR:    PAW_PBE B 06Sep2000                   
 POTCAR:    PAW_PBE C 08Apr2002                   
 POTCAR:    PAW_PBE B 06Sep2000                   
   SHA256 =  a32ced30f5ae56fd4d10b4325ff17eb3e4e38ee0f4288bc219fb012fddfa6e97 B/POTCAR              
   COPYR  = (c) Copyright 06Sep2000 Georg Kresse                                                    
   COPYR  = This file is part of the software VASP. Any use, copying, and all other rights are regul
   COPYR  = If you do not have a valid VASP license, you may not use, copy or distribute this file. 
   VRHFIN =B: s2p1                                                                                  
   LEXCH  = PE                                                                                      
   EATOM  =    71.1703 eV,    5.2309 Ry                                                             
                                                                                                    
   TITEL  = PAW_PBE B 06Sep2000                                                                     
   LULTRA =        F    use ultrasoft PP ?                                                          
   IUNSCR =        1    unscreen: 0-lin 1-nonlin 2-no                                               
   RPACOR =    1.200    partial core radius                                                         
   POMASS =   10.811; ZVAL   =    3.000    mass and valenz                                          
   RCORE  =    1.700    outmost cutoff radius                                                       
   RWIGS  =    1.710; RWIGS  =    0.905    wigner-seitz radius (au A)                               
   ENMAX  =  318.614; ENMIN  =  238.960 eV                                                          
   ICORE  =        2    local potential                                                             
   LCOR   =        T    correct aug charges                                                         
   LPAW   =        T    paw PP                                                                      
   EAUG   =  535.514                                                                                
   DEXC   =    0.000                                                                                
   RMAX   =    1.732    core radius for proj-oper                                                   
   RAUG   =    1.300    factor for augmentation sphere                                              
   RDEP   =    1.757    radius for radial grids                                                     
   RDEPT  =    1.436    core radius for aug-charge                                                  
                                                                                                    
   Atomic configuration                                                                             
    4 entries                                                                                       
     n  l   j            E        occ.                                                              
     1  0  0.50      -180.5896   2.0000                                                             
     2  0  0.50        -9.4431   2.0000                                                             
     2  1  0.50        -3.6068   1.0000                                                             
     3  2  1.50        -4.0817   0.0000                                                             
   Description                                                                                      
     l       E           TYP  RCUT    TYP  RCUT                                                     
     0     -9.4430752     23  1.500                                                                 
     0      0.8675899     23  1.500                                                                 
     1     -3.6067955     23  1.700                                                                 
     1      6.1086146     23  1.700                                                                 
     2     -4.0817478      7  1.700                                                                 
  local pseudopotential read in
  partial core-charges read in
  partial kinetic energy density read in
  atomic valenz-charges read in
  non local Contribution for L=           0  read in
    real space projection operators read in
  non local Contribution for L=           0  read in
    real space projection operators read in
  non local Contribution for L=           1  read in
    real space projection operators read in
  non local Contribution for L=           1  read in
    real space projection operators read in
    PAW grid and wavefunctions read in
 
   number of l-projection  operators is LMAX  =           4
   number of lm-projection operators is LMMAX =           8
 
 POTCAR:    PAW_PBE C 08Apr2002                   
   SHA256 =  253f7b50bb8d59471dbedb8285d89021f4a42ed1a2c5d38a03a736e69125dd95 C/POTCAR              
   COPYR  = (c) Copyright 08Apr2002 Georg Kresse                                                    
   COPYR  = This file is part of the software VASP. Any use, copying, and all other rights are regul
   COPYR  = If you do not have a valid VASP license, you may not use, copy or distribute this file. 
   VRHFIN =C: s2p2                                                                                  
   LEXCH  = PE                                                                                      
   EATOM  =   147.1560 eV,   10.8157 Ry                                                             
                                                                                                    
   TITEL  = PAW_PBE C 08Apr2002                                                                     
   LULTRA =        F    use ultrasoft PP ?                                                          
   IUNSCR =        1    unscreen: 0-lin 1-nonlin 2-no                                               
   RPACOR =    1.200    partial core radius                                                         
   POMASS =   12.011; ZVAL   =    4.000    mass and valenz                                          
   RCORE  =    1.500    outmost cutoff radius                                                       
   RWIGS  =    1.630; RWIGS  =    0.863    wigner-seitz radius (au A)                               
   ENMAX  =  400.000; ENMIN  =  300.000 eV                                                          
   ICORE  =        2    local potential                                                             
   LCOR   =        T    correct aug charges                                                         
   LPAW   =        T    paw PP                                                                      
   EAUG   =  644.873                                                                                
   DEXC   =    0.000                                                                                
   RMAX   =    1.529    core radius for proj-oper                                                   
   RAUG   =    1.300    factor for augmentation sphere                                              
   RDEP   =    1.501    radius for radial grids                                                     
   RDEPT  =    1.300    core radius for aug-charge                                                  
                                                                                                    
   Atomic configuration                                                                             
    4 entries                                                                                       
     n  l   j            E        occ.                                                              
     1  0  0.50      -273.3789   2.0000                                                             
     2  0  0.50       -13.7508   2.0000                                                             
     2  1  0.50        -5.2854   2.0000                                                             
     3  2  1.50        -5.4423   0.0000                                                             
   Description                                                                                      
     l       E           TYP  RCUT    TYP  RCUT                                                     
     0    -13.7508458     23  1.200                                                                 
     0     -8.2022199     23  1.200                                                                 
     1     -5.2854383     23  1.500                                                                 
     1     34.0145650     23  1.500                                                                 
     2     -5.4423304      7  1.500                                                                 
  local pseudopotential read in
  partial core-charges read in
  partial kinetic energy density read in
  atomic valenz-charges read in
  non local Contribution for L=           0  read in
    real space projection operators read in
  non local Contribution for L=           0  read in
    real space projection operators read in
  non local Contribution for L=           1  read in
    real space projection operators read in
  non local Contribution for L=           1  read in
    real space projection operators read in
    PAW grid and wavefunctions read in
 
   number of l-projection  operators is LMAX  =           4
   number of lm-projection operators is LMMAX =           8
 
  PAW_PBE B 06Sep2000                   :
 energy of atom  1       EATOM=  -71.1703
 kinetic energy error for atom=    0.0015 (will be added to EATOM!!)
  PAW_PBE C 08Apr2002                   :
 energy of atom  2       EATOM= -147.1560
 kinetic energy error for atom=    0.0116 (will be added to EATOM!!)
 
 
 POSCAR: BC3 with lattice parameter 5.169
  positions in direct lattice
  No initial velocities read in
 exchange correlation table for  LEXCH =        8
   RHO(1)=    0.500       N(1)  =     2000
   RHO(2)=  100.500       N(2)  =     4000

 VTST: version 4.2, (08/11/21)

 CHAIN: initializing optimizer
 
 OPT: Using VASP Conjugate-Gradient optimizer
 CHAIN: Read ICHAIN            0
 
 POSCAR: BC3 with lattice parameter 5.169
  positions in direct lattice
  No initial velocities read in
 


--------------------------------------------------------------------------------------------------------


 ion  position               nearest neighbor table
   1  0.338  0.669  0.250-   7 1.56   5 1.56   3 1.56
   2  0.672  0.336  0.250-   6 1.56   4 1.56   8 1.56
   3  0.164  0.321  0.250-   6 1.43   4 1.43   1 1.56
   4  0.323  0.162  0.250-   5 1.43   3 1.43   2 1.56
   5  0.164  0.844  0.250-   8 1.43   4 1.43   1 1.56
   6  0.846  0.161  0.250-   3 1.43   7 1.43   2 1.56
   7  0.687  0.843  0.250-   6 1.43   8 1.43   1 1.56
   8  0.846  0.684  0.250-   5 1.43   7 1.43   2 1.56
 
  LATTYP: Found a hexagonal cell.
 ALAT       =     5.1689997297
 C/A-ratio  =     2.9019154158
  
  Lattice vectors:
  
 A1 = (   4.4764850000,   2.5845000000,   0.0000000000)
 A2 = (  -4.4764850000,   2.5845000000,   0.0000000000)
 A3 = (   0.0000000000,   0.0000000000,  15.0000000000)


Analysis of symmetry for initial positions (statically):
=====================================================================
 Subroutine PRICEL returns:
 Original cell was already a primitive cell.
 

 Routine SETGRP: Setting up the symmetry group for a 
 hexagonal supercell.


 Subroutine GETGRP returns: Found  2 space group operations
 (whereof  1 operations were pure point group operations)
 out of a pool of 24 trial point group operations.


The static configuration has the point symmetry C_1 .
 The point group associated with its full space group is C_1h.


Analysis of symmetry for dynamics (positions and initial velocities):
=====================================================================
 Subroutine PRICEL returns:
 Original cell was already a primitive cell.
 

 Routine SETGRP: Setting up the symmetry group for a 
 hexagonal supercell.


 Subroutine GETGRP returns: Found  2 space group operations
 (whereof  1 operations were pure point group operations)
 out of a pool of 24 trial point group operations.


The dynamic configuration has the point symmetry C_1 .
 The point group associated with its full space group is C_1h.


 Subroutine INISYM returns: Found  2 space group operations
 (whereof  1 operations are pure point group operations),
 and found     1 'primitive' translations


----------------------------------------------------------------------------------------

                                     Primitive cell                                     

  volume of cell :     347.0843

  direct lattice vectors                    reciprocal lattice vectors
     4.476485000  2.584500000  0.000000000     0.111694778  0.193461018  0.000000000
    -4.476485000  2.584500000  0.000000000    -0.111694778  0.193461018  0.000000000
     0.000000000  0.000000000 15.000000000     0.000000000  0.000000000  0.066666667

  length of vectors
     5.168999730  5.168999730 15.000000000     0.223389545  0.223389545  0.066666667

  position of ions in fractional coordinates (direct lattice)
     0.338355679  0.669193380  0.250000000
     0.671685498  0.335784119  0.250000000
     0.163934177  0.320961209  0.250000000
     0.323443825  0.161949178  0.250000000
     0.164451415  0.843507827  0.250000000
     0.845556746  0.161476941  0.250000000
     0.686507302  0.843049958  0.250000000
     0.846061357  0.684073387  0.250000000

  ion indices of the primitive-cell ions
   primitive index   ion index
                 1           1
                 2           2
                 3           3
                 4           4
                 5           5
                 6           6
                 7           7
                 8           8

----------------------------------------------------------------------------------------

 
 
 KPOINTS: k-points 23                             

Automatic generation of k-mesh.
 Grid dimensions read from file:
 generate k-points for:   23   23    1

 Generating k-lattice:

  Cartesian coordinates                     Fractional coordinates (reciprocal lattice)
     0.004856295  0.008411349  0.000000000     0.043478261  0.000000000  0.000000000
    -0.004856295  0.008411349  0.000000000     0.000000000  0.043478261  0.000000000
     0.000000000  0.000000000  0.066666667     0.000000000  0.000000000  1.000000000

  Length of vectors
     0.009712589  0.009712589  0.066666667

  Shift w.r.t. Gamma in fractional coordinates (k-lattice)
     0.000000000  0.000000000  0.000000000

 
 Subroutine IBZKPT returns following result:
 ===========================================
 
 Found    265 irreducible k-points:
 
 Following reciprocal coordinates:
            Coordinates               Weight
  0.000000  0.000000  0.000000      1.000000
  0.043478  0.000000  0.000000      2.000000
  0.000000  0.043478  0.000000      2.000000
 -0.043478  0.043478  0.000000      2.000000
  0.086957 -0.000000  0.000000      2.000000
  0.000000  0.086957  0.000000      2.000000
 -0.086957  0.086957  0.000000      2.000000
  0.130435  0.000000  0.000000      2.000000
  0.000000  0.130435  0.000000      2.000000
 -0.130435  0.130435  0.000000      2.000000
  0.173913 -0.000000  0.000000      2.000000
 -0.000000  0.173913  0.000000      2.000000
 -0.173913  0.173913  0.000000      2.000000
  0.217391 -0.000000  0.000000      2.000000
  0.000000  0.217391  0.000000      2.000000
 -0.217391  0.217391  0.000000      2.000000
  0.260870  0.000000  0.000000      2.000000
  0.000000  0.260870  0.000000      2.000000
 -0.260870  0.260870  0.000000      2.000000
  0.304348  0.000000  0.000000      2.000000
  0.000000  0.304348  0.000000      2.000000
 -0.304348  0.304348  0.000000      2.000000
  0.347826  0.000000  0.000000      2.000000
  0.000000  0.347826  0.000000      2.000000
 -0.347826  0.347826  0.000000      2.000000
  0.391304  0.000000  0.000000      2.000000
 -0.000000  0.391304  0.000000      2.000000
 -0.391304  0.391304  0.000000      2.000000
  0.434783  0.000000  0.000000      2.000000
  0.000000  0.434783  0.000000      2.000000
 -0.434783  0.434783  0.000000      2.000000
  0.478261 -0.000000  0.000000      2.000000
 -0.000000  0.478261  0.000000      2.000000
 -0.478261  0.478261  0.000000      2.000000
  0.043478  0.043478  0.000000      2.000000
 -0.043478  0.086957  0.000000      2.000000
 -0.086957  0.043478  0.000000      2.000000
  0.086957  0.043478  0.000000      2.000000
 -0.043478  0.130435  0.000000      2.000000
 -0.130435  0.086957  0.000000      2.000000
 -0.086957  0.130435  0.000000      2.000000
  0.043478  0.086957  0.000000      2.000000
  0.130435 -0.043478  0.000000      2.000000
  0.130435  0.043478  0.000000      2.000000
 -0.043478  0.173913  0.000000      2.000000
 -0.173913  0.130435  0.000000      2.000000
 -0.130435  0.173913  0.000000      2.000000
  0.043478  0.130435  0.000000      2.000000
  0.173913 -0.043478  0.000000      2.000000
  0.173913  0.043478  0.000000      2.000000
 -0.043478  0.217391  0.000000      2.000000
 -0.217391  0.173913  0.000000      2.000000
 -0.173913  0.217391  0.000000      2.000000
  0.043478  0.173913  0.000000      2.000000
  0.217391 -0.043478  0.000000      2.000000
  0.217391  0.043478  0.000000      2.000000
 -0.043478  0.260870  0.000000      2.000000
 -0.260870  0.217391  0.000000      2.000000
 -0.217391  0.260870  0.000000      2.000000
  0.043478  0.217391  0.000000      2.000000
  0.260870 -0.043478  0.000000      2.000000
  0.260870  0.043478  0.000000      2.000000
 -0.043478  0.304348  0.000000      2.000000
 -0.304348  0.260870  0.000000      2.000000
 -0.260870  0.304348  0.000000      2.000000
  0.043478  0.260870  0.000000      2.000000
  0.304348 -0.043478  0.000000      2.000000
  0.304348  0.043478  0.000000      2.000000
 -0.043478  0.347826  0.000000      2.000000
 -0.347826  0.304348  0.000000      2.000000
 -0.304348  0.347826  0.000000      2.000000
  0.043478  0.304348  0.000000      2.000000
  0.347826 -0.043478  0.000000      2.000000
  0.347826  0.043478  0.000000      2.000000
 -0.043478  0.391304  0.000000      2.000000
 -0.391304  0.347826  0.000000      2.000000
 -0.347826  0.391304  0.000000      2.000000
  0.043478  0.347826  0.000000      2.000000
  0.391304 -0.043478  0.000000      2.000000
  0.391304  0.043478  0.000000      2.000000
 -0.043478  0.434783  0.000000      2.000000
 -0.434783  0.391304  0.000000      2.000000
 -0.391304  0.434783  0.000000      2.000000
  0.043478  0.391304  0.000000      2.000000
  0.434783 -0.043478  0.000000      2.000000
  0.434783  0.043478  0.000000      2.000000
 -0.043478  0.478261  0.000000      2.000000
 -0.478261  0.434783  0.000000      2.000000
 -0.434783  0.478261  0.000000      2.000000
  0.043478  0.434783  0.000000      2.000000
  0.478261 -0.043478  0.000000      2.000000
  0.478261  0.043478  0.000000      2.000000
 -0.043478 -0.478261  0.000000      2.000000
  0.478261  0.478261  0.000000      2.000000
  0.086957  0.086957  0.000000      2.000000
 -0.086957  0.173913  0.000000      2.000000
 -0.173913  0.086957  0.000000      2.000000
  0.130435  0.086957  0.000000      2.000000
 -0.086957  0.217391  0.000000      2.000000
 -0.217391  0.130435  0.000000      2.000000
 -0.130435  0.217391  0.000000      2.000000
  0.086957  0.130435  0.000000      2.000000
  0.217391 -0.086957  0.000000      2.000000
  0.173913  0.086957  0.000000      2.000000
 -0.086957  0.260870  0.000000      2.000000
 -0.260870  0.173913  0.000000      2.000000
 -0.173913  0.260870  0.000000      2.000000
  0.086957  0.173913  0.000000      2.000000
  0.260870 -0.086957  0.000000      2.000000
  0.217391  0.086957  0.000000      2.000000
 -0.086957  0.304348  0.000000      2.000000
 -0.304348  0.217391  0.000000      2.000000
 -0.217391  0.304348  0.000000      2.000000
  0.086957  0.217391  0.000000      2.000000
  0.304348 -0.086957  0.000000      2.000000
  0.260870  0.086957  0.000000      2.000000
 -0.086957  0.347826  0.000000      2.000000
 -0.347826  0.260870  0.000000      2.000000
 -0.260870  0.347826  0.000000      2.000000
  0.086957  0.260870  0.000000      2.000000
  0.347826 -0.086957  0.000000      2.000000
  0.304348  0.086957  0.000000      2.000000
 -0.086957  0.391304  0.000000      2.000000
 -0.391304  0.304348  0.000000      2.000000
 -0.304348  0.391304  0.000000      2.000000
  0.086957  0.304348  0.000000      2.000000
  0.391304 -0.086957  0.000000      2.000000
  0.347826  0.086957  0.000000      2.000000
 -0.086957  0.434783  0.000000      2.000000
 -0.434783  0.347826  0.000000      2.000000
 -0.347826  0.434783  0.000000      2.000000
  0.086957  0.347826  0.000000      2.000000
  0.434783 -0.086957  0.000000      2.000000
  0.391304  0.086957  0.000000      2.000000
 -0.086957  0.478261  0.000000      2.000000
 -0.478261  0.391304  0.000000      2.000000
 -0.391304  0.478261  0.000000      2.000000
  0.086957  0.391304  0.000000      2.000000
  0.478261 -0.086957  0.000000      2.000000
  0.434783  0.086957  0.000000      2.000000
 -0.086957 -0.478261  0.000000      2.000000
  0.478261  0.434783  0.000000      2.000000
 -0.434783 -0.478261  0.000000      2.000000
  0.086957  0.434783  0.000000      2.000000
 -0.478261 -0.086957  0.000000      2.000000
  0.130435  0.130435  0.000000      2.000000
 -0.130435  0.260870  0.000000      2.000000
 -0.260870  0.130435  0.000000      2.000000
  0.173913  0.130435  0.000000      2.000000
 -0.130435  0.304348  0.000000      2.000000
 -0.304348  0.173913  0.000000      2.000000
 -0.173913  0.304348  0.000000      2.000000
  0.130435  0.173913  0.000000      2.000000
  0.304348 -0.130435  0.000000      2.000000
  0.217391  0.130435  0.000000      2.000000
 -0.130435  0.347826  0.000000      2.000000
 -0.347826  0.217391  0.000000      2.000000
 -0.217391  0.347826  0.000000      2.000000
  0.130435  0.217391  0.000000      2.000000
  0.347826 -0.130435  0.000000      2.000000
  0.260870  0.130435  0.000000      2.000000
 -0.130435  0.391304  0.000000      2.000000
 -0.391304  0.260870  0.000000      2.000000
 -0.260870  0.391304  0.000000      2.000000
  0.130435  0.260870  0.000000      2.000000
  0.391304 -0.130435  0.000000      2.000000
  0.304348  0.130435  0.000000      2.000000
 -0.130435  0.434783  0.000000      2.000000
 -0.434783  0.304348  0.000000      2.000000
 -0.304348  0.434783  0.000000      2.000000
  0.130435  0.304348  0.000000      2.000000
  0.434783 -0.130435  0.000000      2.000000
  0.347826  0.130435  0.000000      2.000000
 -0.130435  0.478261  0.000000      2.000000
 -0.478261  0.347826  0.000000      2.000000
 -0.347826  0.478261  0.000000      2.000000
  0.130435  0.347826  0.000000      2.000000
  0.478261 -0.130435  0.000000      2.000000
  0.391304  0.130435  0.000000      2.000000
 -0.130435 -0.478261  0.000000      2.000000
  0.478261  0.391304  0.000000      2.000000
 -0.391304 -0.478261  0.000000      2.000000
  0.130435  0.391304  0.000000      2.000000
 -0.478261 -0.130435  0.000000      2.000000
  0.434783  0.130435  0.000000      2.000000
 -0.130435 -0.434783  0.000000      2.000000
  0.434783  0.434783  0.000000      2.000000
  0.173913  0.173913  0.000000      2.000000
 -0.173913  0.347826  0.000000      2.000000
 -0.347826  0.173913  0.000000      2.000000
  0.217391  0.173913  0.000000      2.000000
 -0.173913  0.391304  0.000000      2.000000
 -0.391304  0.217391  0.000000      2.000000
 -0.217391  0.391304  0.000000      2.000000
  0.173913  0.217391  0.000000      2.000000
  0.391304 -0.173913  0.000000      2.000000
  0.260870  0.173913  0.000000      2.000000
 -0.173913  0.434783  0.000000      2.000000
 -0.434783  0.260870  0.000000      2.000000
 -0.260870  0.434783  0.000000      2.000000
  0.173913  0.260870  0.000000      2.000000
  0.434783 -0.173913  0.000000      2.000000
  0.304348  0.173913  0.000000      2.000000
 -0.173913  0.478261  0.000000      2.000000
 -0.478261  0.304348  0.000000      2.000000
 -0.304348  0.478261  0.000000      2.000000
  0.173913  0.304348  0.000000      2.000000
  0.478261 -0.173913  0.000000      2.000000
  0.347826  0.173913  0.000000      2.000000
 -0.173913 -0.478261  0.000000      2.000000
  0.478261  0.347826  0.000000      2.000000
 -0.347826 -0.478261  0.000000      2.000000
  0.173913  0.347826  0.000000      2.000000
 -0.478261 -0.173913  0.000000      2.000000
  0.391304  0.173913  0.000000      2.000000
 -0.173913 -0.434783  0.000000      2.000000
  0.434783  0.391304  0.000000      2.000000
 -0.391304 -0.434783  0.000000      2.000000
  0.173913  0.391304  0.000000      2.000000
 -0.434783 -0.173913  0.000000      2.000000
  0.217391  0.217391  0.000000      2.000000
 -0.217391  0.434783  0.000000      2.000000
 -0.434783  0.217391  0.000000      2.000000
  0.260870  0.217391  0.000000      2.000000
 -0.217391  0.478261  0.000000      2.000000
 -0.478261  0.260870  0.000000      2.000000
 -0.260870  0.478261  0.000000      2.000000
  0.217391  0.260870  0.000000      2.000000
  0.478261 -0.217391  0.000000      2.000000
  0.304348  0.217391  0.000000      2.000000
 -0.217391 -0.478261  0.000000      2.000000
  0.478261  0.304348  0.000000      2.000000
 -0.304348 -0.478261  0.000000      2.000000
  0.217391  0.304348  0.000000      2.000000
 -0.478261 -0.217391  0.000000      2.000000
  0.347826  0.217391  0.000000      2.000000
 -0.217391 -0.434783  0.000000      2.000000
  0.434783  0.347826  0.000000      2.000000
 -0.347826 -0.434783  0.000000      2.000000
  0.217391  0.347826  0.000000      2.000000
 -0.434783 -0.217391  0.000000      2.000000
  0.391304  0.217391  0.000000      2.000000
 -0.217391 -0.391304  0.000000      2.000000
  0.391304  0.391304  0.000000      2.000000
  0.260870  0.260870  0.000000      2.000000
 -0.260870 -0.478261  0.000000      2.000000
  0.478261  0.260870  0.000000      2.000000
  0.304348  0.260870  0.000000      2.000000
 -0.260870 -0.434783  0.000000      2.000000
  0.434783  0.304348  0.000000      2.000000
 -0.304348 -0.434783  0.000000      2.000000
  0.260870  0.304348  0.000000      2.000000
 -0.434783 -0.260870  0.000000      2.000000
  0.347826  0.260870  0.000000      2.000000
 -0.260870 -0.391304  0.000000      2.000000
  0.391304  0.347826  0.000000      2.000000
 -0.347826 -0.391304  0.000000      2.000000
  0.260870  0.347826  0.000000      2.000000
 -0.391304 -0.260870  0.000000      2.000000
  0.304348  0.304348  0.000000      2.000000
 -0.304348 -0.391304  0.000000      2.000000
  0.391304  0.304348  0.000000      2.000000
  0.347826  0.304348  0.000000      2.000000
 -0.304348 -0.347826  0.000000      2.000000
  0.347826  0.347826  0.000000      2.000000
 
 Following cartesian coordinates:
            Coordinates               Weight
  0.000000  0.000000  0.000000      1.000000
  0.004856  0.008411  0.000000      2.000000
 -0.004856  0.008411  0.000000      2.000000
 -0.009713 -0.000000  0.000000      2.000000
  0.009713  0.016823  0.000000      2.000000
 -0.009713  0.016823  0.000000      2.000000
 -0.019425  0.000000  0.000000      2.000000
  0.014569  0.025234  0.000000      2.000000
 -0.014569  0.025234  0.000000      2.000000
 -0.029138  0.000000  0.000000      2.000000
  0.019425  0.033645  0.000000      2.000000
 -0.019425  0.033645  0.000000      2.000000
 -0.038850 -0.000000  0.000000      2.000000
  0.024281  0.042057  0.000000      2.000000
 -0.024281  0.042057  0.000000      2.000000
 -0.048563  0.000000  0.000000      2.000000
  0.029138  0.050468  0.000000      2.000000
 -0.029138  0.050468  0.000000      2.000000
 -0.058276  0.000000  0.000000      2.000000
  0.033994  0.058879  0.000000      2.000000
 -0.033994  0.058879  0.000000      2.000000
 -0.067988  0.000000  0.000000      2.000000
  0.038850  0.067291  0.000000      2.000000
 -0.038850  0.067291  0.000000      2.000000
 -0.077701 -0.000000  0.000000      2.000000
  0.043707  0.075702  0.000000      2.000000
 -0.043707  0.075702  0.000000      2.000000
 -0.087413  0.000000  0.000000      2.000000
  0.048563  0.084113  0.000000      2.000000
 -0.048563  0.084113  0.000000      2.000000
 -0.097126 -0.000000  0.000000      2.000000
  0.053419  0.092525  0.000000      2.000000
 -0.053419  0.092525  0.000000      2.000000
 -0.106838 -0.000000  0.000000      2.000000
 -0.000000  0.016823  0.000000      2.000000
 -0.014569  0.008411  0.000000      2.000000
 -0.014569 -0.008411  0.000000      2.000000
  0.004856  0.025234  0.000000      2.000000
 -0.019425  0.016823  0.000000      2.000000
 -0.024281 -0.008411  0.000000      2.000000
 -0.024281  0.008411  0.000000      2.000000
 -0.004856  0.025234  0.000000      2.000000
  0.019425  0.016823  0.000000      2.000000
  0.009713  0.033645  0.000000      2.000000
 -0.024281  0.025234  0.000000      2.000000
 -0.033994 -0.008411  0.000000      2.000000
 -0.033994  0.008411  0.000000      2.000000
 -0.009713  0.033645  0.000000      2.000000
  0.024281  0.025234  0.000000      2.000000
  0.014569  0.042057  0.000000      2.000000
 -0.029138  0.033645  0.000000      2.000000
 -0.043707 -0.008411  0.000000      2.000000
 -0.043707  0.008411  0.000000      2.000000
 -0.014569  0.042057  0.000000      2.000000
  0.029138  0.033645  0.000000      2.000000
  0.019425  0.050468  0.000000      2.000000
 -0.033994  0.042057  0.000000      2.000000
 -0.053419 -0.008411  0.000000      2.000000
 -0.053419  0.008411  0.000000      2.000000
 -0.019425  0.050468  0.000000      2.000000
  0.033994  0.042057  0.000000      2.000000
  0.024281  0.058879  0.000000      2.000000
 -0.038850  0.050468  0.000000      2.000000
 -0.063132 -0.008411  0.000000      2.000000
 -0.063132  0.008411  0.000000      2.000000
 -0.024281  0.058879  0.000000      2.000000
  0.038850  0.050468  0.000000      2.000000
  0.029138  0.067291  0.000000      2.000000
 -0.043707  0.058879  0.000000      2.000000
 -0.072844 -0.008411  0.000000      2.000000
 -0.072844  0.008411  0.000000      2.000000
 -0.029138  0.067291  0.000000      2.000000
  0.043707  0.058879  0.000000      2.000000
  0.033994  0.075702  0.000000      2.000000
 -0.048563  0.067291  0.000000      2.000000
 -0.082557 -0.008411  0.000000      2.000000
 -0.082557  0.008411  0.000000      2.000000
 -0.033994  0.075702  0.000000      2.000000
  0.048563  0.067291  0.000000      2.000000
  0.038850  0.084113  0.000000      2.000000
 -0.053419  0.075702  0.000000      2.000000
 -0.092270 -0.008411  0.000000      2.000000
 -0.092270  0.008411  0.000000      2.000000
 -0.038850  0.084113  0.000000      2.000000
  0.053419  0.075702  0.000000      2.000000
  0.043707  0.092525  0.000000      2.000000
 -0.058276  0.084113  0.000000      2.000000
 -0.101982 -0.008411  0.000000      2.000000
 -0.101982  0.008411  0.000000      2.000000
 -0.043707  0.092525  0.000000      2.000000
  0.058276  0.084113  0.000000      2.000000
  0.048563  0.100936  0.000000      2.000000
  0.048563 -0.100936  0.000000      2.000000
 -0.000000  0.185050  0.000000      2.000000
  0.000000  0.033645  0.000000      2.000000
 -0.029138  0.016823  0.000000      2.000000
 -0.029138 -0.016823  0.000000      2.000000
  0.004856  0.042057  0.000000      2.000000
 -0.033994  0.025234  0.000000      2.000000
 -0.038850 -0.016823  0.000000      2.000000
 -0.038850  0.016823  0.000000      2.000000
 -0.004856  0.042057  0.000000      2.000000
  0.033994  0.025234  0.000000      2.000000
  0.009713  0.050468  0.000000      2.000000
 -0.038850  0.033645  0.000000      2.000000
 -0.048563 -0.016823  0.000000      2.000000
 -0.048563  0.016823  0.000000      2.000000
 -0.009713  0.050468  0.000000      2.000000
  0.038850  0.033645  0.000000      2.000000
  0.014569  0.058879  0.000000      2.000000
 -0.043707  0.042057  0.000000      2.000000
 -0.058276 -0.016823  0.000000      2.000000
 -0.058276  0.016823  0.000000      2.000000
 -0.014569  0.058879  0.000000      2.000000
  0.043707  0.042057  0.000000      2.000000
  0.019425  0.067291  0.000000      2.000000
 -0.048563  0.050468  0.000000      2.000000
 -0.067988 -0.016823  0.000000      2.000000
 -0.067988  0.016823  0.000000      2.000000
 -0.019425  0.067291  0.000000      2.000000
  0.048563  0.050468  0.000000      2.000000
  0.024281  0.075702  0.000000      2.000000
 -0.053419  0.058879  0.000000      2.000000
 -0.077701 -0.016823  0.000000      2.000000
 -0.077701  0.016823  0.000000      2.000000
 -0.024281  0.075702  0.000000      2.000000
  0.053419  0.058879  0.000000      2.000000
  0.029138  0.084113  0.000000      2.000000
 -0.058276  0.067291  0.000000      2.000000
 -0.087413 -0.016823  0.000000      2.000000
 -0.087413  0.016823  0.000000      2.000000
 -0.029138  0.084113  0.000000      2.000000
  0.058276  0.067291  0.000000      2.000000
  0.033994  0.092525  0.000000      2.000000
 -0.063132  0.075702  0.000000      2.000000
 -0.097126 -0.016823  0.000000      2.000000
 -0.097126  0.016823  0.000000      2.000000
 -0.033994  0.092525  0.000000      2.000000
  0.063132  0.075702  0.000000      2.000000
  0.038850  0.100936  0.000000      2.000000
  0.043707 -0.109348  0.000000      2.000000
  0.004856  0.176638  0.000000      2.000000
  0.004856 -0.176638  0.000000      2.000000
 -0.038850  0.100936  0.000000      2.000000
 -0.043707 -0.109348  0.000000      2.000000
  0.000000  0.050468  0.000000      2.000000
 -0.043707  0.025234  0.000000      2.000000
 -0.043707 -0.025234  0.000000      2.000000
  0.004856  0.058879  0.000000      2.000000
 -0.048563  0.033645  0.000000      2.000000
 -0.053419 -0.025234  0.000000      2.000000
 -0.053419  0.025234  0.000000      2.000000
 -0.004856  0.058879  0.000000      2.000000
  0.048563  0.033645  0.000000      2.000000
  0.009713  0.067291  0.000000      2.000000
 -0.053419  0.042057  0.000000      2.000000
 -0.063132 -0.025234  0.000000      2.000000
 -0.063132  0.025234  0.000000      2.000000
 -0.009713  0.067291  0.000000      2.000000
  0.053419  0.042057  0.000000      2.000000
  0.014569  0.075702  0.000000      2.000000
 -0.058276  0.050468  0.000000      2.000000
 -0.072844 -0.025234  0.000000      2.000000
 -0.072844  0.025234  0.000000      2.000000
 -0.014569  0.075702  0.000000      2.000000
  0.058276  0.050468  0.000000      2.000000
  0.019425  0.084113  0.000000      2.000000
 -0.063132  0.058879  0.000000      2.000000
 -0.082557 -0.025234  0.000000      2.000000
 -0.082557  0.025234  0.000000      2.000000
 -0.019425  0.084113  0.000000      2.000000
  0.063132  0.058879  0.000000      2.000000
  0.024281  0.092525  0.000000      2.000000
 -0.067988  0.067291  0.000000      2.000000
 -0.092270 -0.025234  0.000000      2.000000
 -0.092270  0.025234  0.000000      2.000000
 -0.024281  0.092525  0.000000      2.000000
  0.067988  0.067291  0.000000      2.000000
  0.029138  0.100936  0.000000      2.000000
  0.038850 -0.117759  0.000000      2.000000
  0.009713  0.168227  0.000000      2.000000
  0.009713 -0.168227  0.000000      2.000000
 -0.029138  0.100936  0.000000      2.000000
 -0.038850 -0.117759  0.000000      2.000000
  0.033994  0.109348  0.000000      2.000000
  0.033994 -0.109348  0.000000      2.000000
  0.000000  0.168227  0.000000      2.000000
 -0.000000  0.067291  0.000000      2.000000
 -0.058276  0.033645  0.000000      2.000000
 -0.058276 -0.033645  0.000000      2.000000
  0.004856  0.075702  0.000000      2.000000
 -0.063132  0.042057  0.000000      2.000000
 -0.067988 -0.033645  0.000000      2.000000
 -0.067988  0.033645  0.000000      2.000000
 -0.004856  0.075702  0.000000      2.000000
  0.063132  0.042057  0.000000      2.000000
  0.009713  0.084113  0.000000      2.000000
 -0.067988  0.050468  0.000000      2.000000
 -0.077701 -0.033645  0.000000      2.000000
 -0.077701  0.033645  0.000000      2.000000
 -0.009713  0.084113  0.000000      2.000000
  0.067988  0.050468  0.000000      2.000000
  0.014569  0.092525  0.000000      2.000000
 -0.072844  0.058879  0.000000      2.000000
 -0.087413 -0.033645  0.000000      2.000000
 -0.087413  0.033645  0.000000      2.000000
 -0.014569  0.092525  0.000000      2.000000
  0.072844  0.058879  0.000000      2.000000
  0.019425  0.100936  0.000000      2.000000
  0.033994 -0.126170  0.000000      2.000000
  0.014569  0.159816  0.000000      2.000000
  0.014569 -0.159816  0.000000      2.000000
 -0.019425  0.100936  0.000000      2.000000
 -0.033994 -0.126170  0.000000      2.000000
  0.024281  0.109348  0.000000      2.000000
  0.029138 -0.117759  0.000000      2.000000
  0.004856  0.159816  0.000000      2.000000
  0.004856 -0.159816  0.000000      2.000000
 -0.024281  0.109348  0.000000      2.000000
 -0.029138 -0.117759  0.000000      2.000000
  0.000000  0.084113  0.000000      2.000000
 -0.072844  0.042057  0.000000      2.000000
 -0.072844 -0.042057  0.000000      2.000000
  0.004856  0.092525  0.000000      2.000000
 -0.077701  0.050468  0.000000      2.000000
 -0.082557 -0.042057  0.000000      2.000000
 -0.082557  0.042057  0.000000      2.000000
 -0.004856  0.092525  0.000000      2.000000
  0.077701  0.050468  0.000000      2.000000
  0.009713  0.100936  0.000000      2.000000
  0.029138 -0.134582  0.000000      2.000000
  0.019425  0.151404  0.000000      2.000000
  0.019425 -0.151404  0.000000      2.000000
 -0.009713  0.100936  0.000000      2.000000
 -0.029138 -0.134582  0.000000      2.000000
  0.014569  0.109348  0.000000      2.000000
  0.024281 -0.126170  0.000000      2.000000
  0.009713  0.151404  0.000000      2.000000
  0.009713 -0.151404  0.000000      2.000000
 -0.014569  0.109348  0.000000      2.000000
 -0.024281 -0.126170  0.000000      2.000000
  0.019425  0.117759  0.000000      2.000000
  0.019425 -0.117759  0.000000      2.000000
  0.000000  0.151404  0.000000      2.000000
  0.000000  0.100936  0.000000      2.000000
  0.024281 -0.142993  0.000000      2.000000
  0.024281  0.142993  0.000000      2.000000
  0.004856  0.109348  0.000000      2.000000
  0.019425 -0.134582  0.000000      2.000000
  0.014569  0.142993  0.000000      2.000000
  0.014569 -0.142993  0.000000      2.000000
 -0.004856  0.109348  0.000000      2.000000
 -0.019425 -0.134582  0.000000      2.000000
  0.009713  0.117759  0.000000      2.000000
  0.014569 -0.126170  0.000000      2.000000
  0.004856  0.142993  0.000000      2.000000
  0.004856 -0.142993  0.000000      2.000000
 -0.009713  0.117759  0.000000      2.000000
 -0.014569 -0.126170  0.000000      2.000000
 -0.000000  0.117759  0.000000      2.000000
  0.009713 -0.134582  0.000000      2.000000
  0.009713  0.134582  0.000000      2.000000
  0.004856  0.126170  0.000000      2.000000
  0.004856 -0.126170  0.000000      2.000000
  0.000000  0.134582  0.000000      2.000000
 


--------------------------------------------------------------------------------------------------------




 Dimension of arrays:
   k-points           NKPTS =    265   k-points in BZ     NKDIM =    265   number of bands    NBANDS=     24
   number of dos      NEDOS =    301   number of ions     NIONS =      8
   non local maximal  LDIM  =      4   non local SUM 2l+1 LMDIM =      8
   total plane-waves  NPLWV = 139968
   max r-space proj   IRMAX =      1   max aug-charges    IRDMAX=   6487
   dimension x,y,z NGX =    36 NGY =   36 NGZ =  108
   dimension x,y,z NGXF=    72 NGYF=   72 NGZF=  216
   support grid    NGXF=    72 NGYF=   72 NGZF=  216
   ions per type =               2   6
   NGX,Y,Z   is equivalent  to a cutoff of  11.58, 11.58, 11.97 a.u.
   NGXF,Y,Z  is equivalent  to a cutoff of  23.16, 23.16, 23.94 a.u.

 SYSTEM =  Lattice                                 
 POSCAR =  BC3 with lattice parameter 5.169        

 Startparameter for this run:
   NWRITE =      2    write-flag & timer
   PREC   = accura    normal or accurate (medium, high low for compatibility)
   ISTART =      0    job   : 0-new  1-cont  2-samecut
   ICHARG =      2    charge: 1-file 2-atom 10-const
   ISPIN  =      1    spin polarized calculation?
   LNONCOLLINEAR =      F non collinear calculations
   LSORBIT =      F    spin-orbit coupling
   INIWAV =      1    electr: 0-lowe 1-rand  2-diag
   LASPH  =      F    aspherical Exc in radial PAW
 Electronic Relaxation 1
   ENCUT  =  450.0 eV  33.07 Ry    5.75 a.u.   8.94  8.94 25.95*2*pi/ulx,y,z
   ENINI  =  450.0     initial cutoff
   ENAUG  =  644.9 eV  augmentation charge cutoff
   NELM   =     64;   NELMIN=  2; NELMDL= -5     # of ELM steps 
   EDIFF  = 0.1E-05   stopping-criterion for ELM
   LREAL  =      F    real-space projection
   NLSPLINE    = F    spline interpolate recip. space projectors
   LCOMPAT=      F    compatible to vasp.4.4
   GGA_COMPAT  = T    GGA compatible to vasp.4.4-vasp.4.6
   LMAXPAW     = -100 max onsite density
   LMAXMIX     =    2 max onsite mixed and CHGCAR
   VOSKOWN=      0    Vosko Wilk Nusair interpolation
   ROPT   =    0.00000   0.00000
 Ionic relaxation
   EDIFFG = -.1E-02   stopping-criterion for IOM
   NSW    =    128    number of steps for IOM
   NBLOCK =      1;   KBLOCK =    128    inner block; outer block 
   IBRION =      2    ionic relax: 0-MD 1-quasi-New 2-CG
   NFREE  =      1    steps in history (QN), initial steepest desc. (CG)
   ISIF   =      2    stress and relaxation
   IWAVPR =     11    prediction:  0-non 1-charg 2-wave 3-comb
   ISYM   =      2    0-nonsym 1-usesym 2-fastsym
   LCORR  =      T    Harris-Foulkes like correction to forces

   POTIM  = 0.5000    time-step for ionic-motion
   TEIN   =    0.0    initial temperature
   TEBEG  =    0.0;   TEEND  =   0.0 temperature during run
   SMASS  =  -3.00    Nose mass-parameter (am)
   estimated Nose-frequenzy (Omega)   =  0.10E-29 period in steps = 0.13E+47 mass=  -0.611E-27a.u.
   SCALEE = 1.0000    scale energy and forces
   NPACO  =    256;   APACO  = 10.0  distance and # of slots for P.C.
   PSTRESS=    0.0 pullay stress

  Mass of Ions in am
   POMASS =  10.81 12.01
  Ionic Valenz
   ZVAL   =   3.00  4.00
  Atomic Wigner-Seitz radii
   RWIGS  =  -1.00 -1.00
  virtual crystal weights 
   VCA    =   1.00  1.00
   NELECT =      30.0000    total number of electrons
   NUPDOWN=      -1.0000    fix difference up-down

 DOS related values:
   EMIN   =  10.00;   EMAX   =-10.00  energy-range for DOS
   EFERMI =   0.00
   ISMEAR =     0;   SIGMA  =   0.10  broadening in eV -4-tet -1-fermi 0-gaus

 Electronic relaxation 2 (details)
   IALGO  =     38    algorithm
   LDIAG  =      T    sub-space diagonalisation (order eigenvalues)
   LSUBROT=      F    optimize rotation matrix (better conditioning)
   TURBO    =      0    0=normal 1=particle mesh
   IRESTART =      0    0=no restart 2=restart with 2 vectors
   NREBOOT  =      0    no. of reboots
   NMIN     =      0    reboot dimension
   EREF     =   0.00    reference energy to select bands
   IMIX   =      4    mixing-type and parameters
     AMIX     =   0.40;   BMIX     =  1.00
     AMIX_MAG =   1.60;   BMIX_MAG =  1.00
     AMIN     =   0.10
     WC   =   100.;   INIMIX=   1;  MIXPRE=   1;  MAXMIX= -45

 Intra band minimization:
   WEIMIN = 0.0010     energy-eigenvalue tresh-hold
   EBREAK =  0.10E-07  absolut break condition
   DEPER  =   0.30     relativ break condition  

   TIME   =   0.40     timestep for ELM

  volume/ion in A,a.u.               =      43.39       292.78
  Fermi-wavevector in a.u.,A,eV,Ry     =   0.723831  1.367842  7.128511  0.523931
  Thomas-Fermi vector in A             =   1.814147
 
 Write flags
   LWAVE        =      F    write WAVECAR
   LDOWNSAMPLE  =      F    k-point downsampling of WAVECAR
   LCHARG       =      F    write CHGCAR
   LVTOT        =      F    write LOCPOT, total local potential
   LVHAR        =      F    write LOCPOT, Hartree potential only
   LELF         =      F    write electronic localiz. function (ELF)
   LORBIT       =      0    0 simple, 1 ext, 2 COOP (PROOUT), +10 PAW based schemes


 Dipole corrections
   LMONO  =      F    monopole corrections only (constant potential shift)
   LDIPOL =      F    correct potential (dipole corrections)
   IDIPOL =      0    1-x, 2-y, 3-z, 4-all directions 
   EPSILON=  1.0000000 bulk dielectric constant

 Exchange correlation treatment:
   GGA     =    PE    GGA type
   LEXCH   =     8    internal setting for exchange type
   LIBXC   =     F    Libxc                    
   VOSKOWN =     0    Vosko Wilk Nusair interpolation
   LHFCALC =     F    Hartree Fock is set to
   LHFONE  =     F    Hartree Fock one center treatment
   AEXX    =    0.0000 exact exchange contribution

 Linear response parameters
   LEPSILON=     F    determine dielectric tensor
   LRPA    =     F    only Hartree local field effects (RPA)
   LNABLA  =     F    use nabla operator in PAW spheres
   LVEL    =     F    velocity operator in full k-point grid
   CSHIFT  =0.1000    complex shift for real part using Kramers Kronig
   OMEGAMAX=  -1.0    maximum frequency
   DEG_THRESHOLD= 0.2000000E-02 threshold for treating states as degnerate
   RTIME   =   -0.100 relaxation time in fs
  (WPLASMAI=    0.000 imaginary part of plasma frequency in eV, 0.658/RTIME)
   DFIELD  = 0.0000000 0.0000000 0.0000000 field for delta impulse in time
 
  Optional k-point grid parameters
   LKPOINTS_OPT  =     F    use optional k-point grid
   KPOINTS_OPT_MODE=     1    mode for optional k-point grid
 
 Orbital magnetization related:
   ORBITALMAG=     F  switch on orbital magnetization
   LCHIMAG   =     F  perturbation theory with respect to B field
   DQ        =  0.001000  dq finite difference perturbation B field
   LLRAUG    =     F  two centre corrections for induced B field



--------------------------------------------------------------------------------------------------------


 conjugate gradient relaxation of ions
 charge density and potential will be updated during run
 non-spin polarized calculation
 Variant of blocked Davidson
 Davidson routine will perform the subspace rotation
 perform sub-space diagonalisation
    after iterative eigenvector-optimisation
 modified Broyden-mixing scheme, WC =      100.0
 initial mixing is a Kerker type mixing with AMIX =  0.4000 and BMIX =      1.0000
 Hartree-type preconditioning will be used
 using additional bands            9
 reciprocal scheme for non local part
 use partial core corrections
 calculate Harris-corrections to forces 
   (improved forces if not selfconsistent)
 use gradient corrections 
 use of overlap-Matrix (Vanderbilt PP)
 Gauss-broadening in eV      SIGMA  =   0.10


--------------------------------------------------------------------------------------------------------


  energy-cutoff  :      450.00
  volume of cell :      347.08
      direct lattice vectors                 reciprocal lattice vectors
     4.476485000  2.584500000  0.000000000     0.111694778  0.193461018  0.000000000
    -4.476485000  2.584500000  0.000000000    -0.111694778  0.193461018  0.000000000
     0.000000000  0.000000000 15.000000000     0.000000000  0.000000000  0.066666667

  length of vectors
     5.168999730  5.168999730 15.000000000     0.223389545  0.223389545  0.066666667


 
 k-points in units of 2pi/SCALE and weight: k-points 23                             
   0.00000000  0.00000000  0.00000000       0.002
   0.00485629  0.00841135  0.00000000       0.004
  -0.00485629  0.00841135  0.00000000       0.004
  -0.00971259 -0.00000000  0.00000000       0.004
   0.00971259  0.01682270  0.00000000       0.004
  -0.00971259  0.01682270  0.00000000       0.004
  -0.01942518  0.00000000  0.00000000       0.004
   0.01456888  0.02523405  0.00000000       0.004
  -0.01456888  0.02523405  0.00000000       0.004
  -0.02913777  0.00000000  0.00000000       0.004
   0.01942518  0.03364539  0.00000000       0.004
  -0.01942518  0.03364539  0.00000000       0.004
  -0.03885036 -0.00000000  0.00000000       0.004
   0.02428147  0.04205674  0.00000000       0.004
  -0.02428147  0.04205674  0.00000000       0.004
  -0.04856295  0.00000000  0.00000000       0.004
   0.02913777  0.05046809  0.00000000       0.004
  -0.02913777  0.05046809  0.00000000       0.004
  -0.05827554  0.00000000  0.00000000       0.004
   0.03399406  0.05887944  0.00000000       0.004
  -0.03399406  0.05887944  0.00000000       0.004
  -0.06798813  0.00000000  0.00000000       0.004
   0.03885036  0.06729079  0.00000000       0.004
  -0.03885036  0.06729079  0.00000000       0.004
  -0.07770072 -0.00000000  0.00000000       0.004
   0.04370665  0.07570214  0.00000000       0.004
  -0.04370665  0.07570214  0.00000000       0.004
  -0.08741330  0.00000000  0.00000000       0.004
   0.04856295  0.08411349  0.00000000       0.004
  -0.04856295  0.08411349  0.00000000       0.004
  -0.09712589 -0.00000000  0.00000000       0.004
   0.05341924  0.09252483  0.00000000       0.004
  -0.05341924  0.09252483  0.00000000       0.004
  -0.10683848 -0.00000000  0.00000000       0.004
  -0.00000000  0.01682270  0.00000000       0.004
  -0.01456888  0.00841135  0.00000000       0.004
  -0.01456888 -0.00841135  0.00000000       0.004
   0.00485629  0.02523405  0.00000000       0.004
  -0.01942518  0.01682270  0.00000000       0.004
  -0.02428147 -0.00841135  0.00000000       0.004
  -0.02428147  0.00841135  0.00000000       0.004
  -0.00485629  0.02523405  0.00000000       0.004
   0.01942518  0.01682270  0.00000000       0.004
   0.00971259  0.03364539  0.00000000       0.004
  -0.02428147  0.02523405  0.00000000       0.004
  -0.03399406 -0.00841135  0.00000000       0.004
  -0.03399406  0.00841135  0.00000000       0.004
  -0.00971259  0.03364539  0.00000000       0.004
   0.02428147  0.02523405  0.00000000       0.004
   0.01456888  0.04205674  0.00000000       0.004
  -0.02913777  0.03364539  0.00000000       0.004
  -0.04370665 -0.00841135  0.00000000       0.004
  -0.04370665  0.00841135  0.00000000       0.004
  -0.01456888  0.04205674  0.00000000       0.004
   0.02913777  0.03364539  0.00000000       0.004
   0.01942518  0.05046809  0.00000000       0.004
  -0.03399406  0.04205674  0.00000000       0.004
  -0.05341924 -0.00841135  0.00000000       0.004
  -0.05341924  0.00841135  0.00000000       0.004
  -0.01942518  0.05046809  0.00000000       0.004
   0.03399406  0.04205674  0.00000000       0.004
   0.02428147  0.05887944  0.00000000       0.004
  -0.03885036  0.05046809  0.00000000       0.004
  -0.06313183 -0.00841135  0.00000000       0.004
  -0.06313183  0.00841135  0.00000000       0.004
  -0.02428147  0.05887944  0.00000000       0.004
   0.03885036  0.05046809  0.00000000       0.004
   0.02913777  0.06729079  0.00000000       0.004
  -0.04370665  0.05887944  0.00000000       0.004
  -0.07284442 -0.00841135  0.00000000       0.004
  -0.07284442  0.00841135  0.00000000       0.004
  -0.02913777  0.06729079  0.00000000       0.004
   0.04370665  0.05887944  0.00000000       0.004
   0.03399406  0.07570214  0.00000000       0.004
  -0.04856295  0.06729079  0.00000000       0.004
  -0.08255701 -0.00841135  0.00000000       0.004
  -0.08255701  0.00841135  0.00000000       0.004
  -0.03399406  0.07570214  0.00000000       0.004
   0.04856295  0.06729079  0.00000000       0.004
   0.03885036  0.08411349  0.00000000       0.004
  -0.05341924  0.07570214  0.00000000       0.004
  -0.09226960 -0.00841135  0.00000000       0.004
  -0.09226960  0.00841135  0.00000000       0.004
  -0.03885036  0.08411349  0.00000000       0.004
   0.05341924  0.07570214  0.00000000       0.004
   0.04370665  0.09252483  0.00000000       0.004
  -0.05827554  0.08411349  0.00000000       0.004
  -0.10198219 -0.00841135  0.00000000       0.004
  -0.10198219  0.00841135  0.00000000       0.004
  -0.04370665  0.09252483  0.00000000       0.004
   0.05827554  0.08411349  0.00000000       0.004
   0.04856295  0.10093618  0.00000000       0.004
   0.04856295 -0.10093618  0.00000000       0.004
  -0.00000000  0.18504967  0.00000000       0.004
   0.00000000  0.03364539  0.00000000       0.004
  -0.02913777  0.01682270  0.00000000       0.004
  -0.02913777 -0.01682270  0.00000000       0.004
   0.00485629  0.04205674  0.00000000       0.004
  -0.03399406  0.02523405  0.00000000       0.004
  -0.03885036 -0.01682270  0.00000000       0.004
  -0.03885036  0.01682270  0.00000000       0.004
  -0.00485629  0.04205674  0.00000000       0.004
   0.03399406  0.02523405  0.00000000       0.004
   0.00971259  0.05046809  0.00000000       0.004
  -0.03885036  0.03364539  0.00000000       0.004
  -0.04856295 -0.01682270  0.00000000       0.004
  -0.04856295  0.01682270  0.00000000       0.004
  -0.00971259  0.05046809  0.00000000       0.004
   0.03885036  0.03364539  0.00000000       0.004
   0.01456888  0.05887944  0.00000000       0.004
  -0.04370665  0.04205674  0.00000000       0.004
  -0.05827554 -0.01682270  0.00000000       0.004
  -0.05827554  0.01682270  0.00000000       0.004
  -0.01456888  0.05887944  0.00000000       0.004
   0.04370665  0.04205674  0.00000000       0.004
   0.01942518  0.06729079  0.00000000       0.004
  -0.04856295  0.05046809  0.00000000       0.004
  -0.06798813 -0.01682270  0.00000000       0.004
  -0.06798813  0.01682270  0.00000000       0.004
  -0.01942518  0.06729079  0.00000000       0.004
   0.04856295  0.05046809  0.00000000       0.004
   0.02428147  0.07570214  0.00000000       0.004
  -0.05341924  0.05887944  0.00000000       0.004
  -0.07770072 -0.01682270  0.00000000       0.004
  -0.07770072  0.01682270  0.00000000       0.004
  -0.02428147  0.07570214  0.00000000       0.004
   0.05341924  0.05887944  0.00000000       0.004
   0.02913777  0.08411349  0.00000000       0.004
  -0.05827554  0.06729079  0.00000000       0.004
  -0.08741330 -0.01682270  0.00000000       0.004
  -0.08741330  0.01682270  0.00000000       0.004
  -0.02913777  0.08411349  0.00000000       0.004
   0.05827554  0.06729079  0.00000000       0.004
   0.03399406  0.09252483  0.00000000       0.004
  -0.06313183  0.07570214  0.00000000       0.004
  -0.09712589 -0.01682270  0.00000000       0.004
  -0.09712589  0.01682270  0.00000000       0.004
  -0.03399406  0.09252483  0.00000000       0.004
   0.06313183  0.07570214  0.00000000       0.004
   0.03885036  0.10093618  0.00000000       0.004
   0.04370665 -0.10934753  0.00000000       0.004
   0.00485629  0.17663832  0.00000000       0.004
   0.00485629 -0.17663832  0.00000000       0.004
  -0.03885036  0.10093618  0.00000000       0.004
  -0.04370665 -0.10934753  0.00000000       0.004
   0.00000000  0.05046809  0.00000000       0.004
  -0.04370665  0.02523405  0.00000000       0.004
  -0.04370665 -0.02523405  0.00000000       0.004
   0.00485629  0.05887944  0.00000000       0.004
  -0.04856295  0.03364539  0.00000000       0.004
  -0.05341924 -0.02523405  0.00000000       0.004
  -0.05341924  0.02523405  0.00000000       0.004
  -0.00485629  0.05887944  0.00000000       0.004
   0.04856295  0.03364539  0.00000000       0.004
   0.00971259  0.06729079  0.00000000       0.004
  -0.05341924  0.04205674  0.00000000       0.004
  -0.06313183 -0.02523405  0.00000000       0.004
  -0.06313183  0.02523405  0.00000000       0.004
  -0.00971259  0.06729079  0.00000000       0.004
   0.05341924  0.04205674  0.00000000       0.004
   0.01456888  0.07570214  0.00000000       0.004
  -0.05827554  0.05046809  0.00000000       0.004
  -0.07284442 -0.02523405  0.00000000       0.004
  -0.07284442  0.02523405  0.00000000       0.004
  -0.01456888  0.07570214  0.00000000       0.004
   0.05827554  0.05046809  0.00000000       0.004
   0.01942518  0.08411349  0.00000000       0.004
  -0.06313183  0.05887944  0.00000000       0.004
  -0.08255701 -0.02523405  0.00000000       0.004
  -0.08255701  0.02523405  0.00000000       0.004
  -0.01942518  0.08411349  0.00000000       0.004
   0.06313183  0.05887944  0.00000000       0.004
   0.02428147  0.09252483  0.00000000       0.004
  -0.06798813  0.06729079  0.00000000       0.004
  -0.09226960 -0.02523405  0.00000000       0.004
  -0.09226960  0.02523405  0.00000000       0.004
  -0.02428147  0.09252483  0.00000000       0.004
   0.06798813  0.06729079  0.00000000       0.004
   0.02913777  0.10093618  0.00000000       0.004
   0.03885036 -0.11775888  0.00000000       0.004
   0.00971259  0.16822697  0.00000000       0.004
   0.00971259 -0.16822697  0.00000000       0.004
  -0.02913777  0.10093618  0.00000000       0.004
  -0.03885036 -0.11775888  0.00000000       0.004
   0.03399406  0.10934753  0.00000000       0.004
   0.03399406 -0.10934753  0.00000000       0.004
   0.00000000  0.16822697  0.00000000       0.004
  -0.00000000  0.06729079  0.00000000       0.004
  -0.05827554  0.03364539  0.00000000       0.004
  -0.05827554 -0.03364539  0.00000000       0.004
   0.00485629  0.07570214  0.00000000       0.004
  -0.06313183  0.04205674  0.00000000       0.004
  -0.06798813 -0.03364539  0.00000000       0.004
  -0.06798813  0.03364539  0.00000000       0.004
  -0.00485629  0.07570214  0.00000000       0.004
   0.06313183  0.04205674  0.00000000       0.004
   0.00971259  0.08411349  0.00000000       0.004
  -0.06798813  0.05046809  0.00000000       0.004
  -0.07770072 -0.03364539  0.00000000       0.004
  -0.07770072  0.03364539  0.00000000       0.004
  -0.00971259  0.08411349  0.00000000       0.004
   0.06798813  0.05046809  0.00000000       0.004
   0.01456888  0.09252483  0.00000000       0.004
  -0.07284442  0.05887944  0.00000000       0.004
  -0.08741330 -0.03364539  0.00000000       0.004
  -0.08741330  0.03364539  0.00000000       0.004
  -0.01456888  0.09252483  0.00000000       0.004
   0.07284442  0.05887944  0.00000000       0.004
   0.01942518  0.10093618  0.00000000       0.004
   0.03399406 -0.12617023  0.00000000       0.004
   0.01456888  0.15981562  0.00000000       0.004
   0.01456888 -0.15981562  0.00000000       0.004
  -0.01942518  0.10093618  0.00000000       0.004
  -0.03399406 -0.12617023  0.00000000       0.004
   0.02428147  0.10934753  0.00000000       0.004
   0.02913777 -0.11775888  0.00000000       0.004
   0.00485629  0.15981562  0.00000000       0.004
   0.00485629 -0.15981562  0.00000000       0.004
  -0.02428147  0.10934753  0.00000000       0.004
  -0.02913777 -0.11775888  0.00000000       0.004
   0.00000000  0.08411349  0.00000000       0.004
  -0.07284442  0.04205674  0.00000000       0.004
  -0.07284442 -0.04205674  0.00000000       0.004
   0.00485629  0.09252483  0.00000000       0.004
  -0.07770072  0.05046809  0.00000000       0.004
  -0.08255701 -0.04205674  0.00000000       0.004
  -0.08255701  0.04205674  0.00000000       0.004
  -0.00485629  0.09252483  0.00000000       0.004
   0.07770072  0.05046809  0.00000000       0.004
   0.00971259  0.10093618  0.00000000       0.004
   0.02913777 -0.13458158  0.00000000       0.004
   0.01942518  0.15140427  0.00000000       0.004
   0.01942518 -0.15140427  0.00000000       0.004
  -0.00971259  0.10093618  0.00000000       0.004
  -0.02913777 -0.13458158  0.00000000       0.004
   0.01456888  0.10934753  0.00000000       0.004
   0.02428147 -0.12617023  0.00000000       0.004
   0.00971259  0.15140427  0.00000000       0.004
   0.00971259 -0.15140427  0.00000000       0.004
  -0.01456888  0.10934753  0.00000000       0.004
  -0.02428147 -0.12617023  0.00000000       0.004
   0.01942518  0.11775888  0.00000000       0.004
   0.01942518 -0.11775888  0.00000000       0.004
   0.00000000  0.15140427  0.00000000       0.004
   0.00000000  0.10093618  0.00000000       0.004
   0.02428147 -0.14299293  0.00000000       0.004
   0.02428147  0.14299293  0.00000000       0.004
   0.00485629  0.10934753  0.00000000       0.004
   0.01942518 -0.13458158  0.00000000       0.004
   0.01456888  0.14299293  0.00000000       0.004
   0.01456888 -0.14299293  0.00000000       0.004
  -0.00485629  0.10934753  0.00000000       0.004
  -0.01942518 -0.13458158  0.00000000       0.004
   0.00971259  0.11775888  0.00000000       0.004
   0.01456888 -0.12617023  0.00000000       0.004
   0.00485629  0.14299293  0.00000000       0.004
   0.00485629 -0.14299293  0.00000000       0.004
  -0.00971259  0.11775888  0.00000000       0.004
  -0.01456888 -0.12617023  0.00000000       0.004
  -0.00000000  0.11775888  0.00000000       0.004
   0.00971259 -0.13458158  0.00000000       0.004
   0.00971259  0.13458158  0.00000000       0.004
   0.00485629  0.12617023  0.00000000       0.004
   0.00485629 -0.12617023  0.00000000       0.004
   0.00000000  0.13458158  0.00000000       0.004
 
 k-points in reciprocal lattice and weights: k-points 23                             
   0.00000000  0.00000000  0.00000000       0.002
   0.04347826  0.00000000  0.00000000       0.004
   0.00000000  0.04347826  0.00000000       0.004
  -0.04347826  0.04347826  0.00000000       0.004
   0.08695652 -0.00000000  0.00000000       0.004
   0.00000000  0.08695652  0.00000000       0.004
  -0.08695652  0.08695652  0.00000000       0.004
   0.13043478  0.00000000  0.00000000       0.004
   0.00000000  0.13043478  0.00000000       0.004
  -0.13043478  0.13043478  0.00000000       0.004
   0.17391304 -0.00000000  0.00000000       0.004
  -0.00000000  0.17391304  0.00000000       0.004
  -0.17391304  0.17391304  0.00000000       0.004
   0.21739130 -0.00000000  0.00000000       0.004
   0.00000000  0.21739130  0.00000000       0.004
  -0.21739130  0.21739130  0.00000000       0.004
   0.26086957  0.00000000  0.00000000       0.004
   0.00000000  0.26086957  0.00000000       0.004
  -0.26086957  0.26086957  0.00000000       0.004
   0.30434783  0.00000000  0.00000000       0.004
   0.00000000  0.30434783  0.00000000       0.004
  -0.30434783  0.30434783  0.00000000       0.004
   0.34782609  0.00000000  0.00000000       0.004
   0.00000000  0.34782609  0.00000000       0.004
  -0.34782609  0.34782609  0.00000000       0.004
   0.39130435  0.00000000  0.00000000       0.004
  -0.00000000  0.39130435  0.00000000       0.004
  -0.39130435  0.39130435  0.00000000       0.004
   0.43478261  0.00000000  0.00000000       0.004
   0.00000000  0.43478261  0.00000000       0.004
  -0.43478261  0.43478261  0.00000000       0.004
   0.47826087 -0.00000000  0.00000000       0.004
  -0.00000000  0.47826087  0.00000000       0.004
  -0.47826087  0.47826087  0.00000000       0.004
   0.04347826  0.04347826  0.00000000       0.004
  -0.04347826  0.08695652  0.00000000       0.004
  -0.08695652  0.04347826  0.00000000       0.004
   0.08695652  0.04347826  0.00000000       0.004
  -0.04347826  0.13043478  0.00000000       0.004
  -0.13043478  0.08695652  0.00000000       0.004
  -0.08695652  0.13043478  0.00000000       0.004
   0.04347826  0.08695652  0.00000000       0.004
   0.13043478 -0.04347826  0.00000000       0.004
   0.13043478  0.04347826  0.00000000       0.004
  -0.04347826  0.17391304  0.00000000       0.004
  -0.17391304  0.13043478  0.00000000       0.004
  -0.13043478  0.17391304  0.00000000       0.004
   0.04347826  0.13043478  0.00000000       0.004
   0.17391304 -0.04347826  0.00000000       0.004
   0.17391304  0.04347826  0.00000000       0.004
  -0.04347826  0.21739130  0.00000000       0.004
  -0.21739130  0.17391304  0.00000000       0.004
  -0.17391304  0.21739130  0.00000000       0.004
   0.04347826  0.17391304  0.00000000       0.004
   0.21739130 -0.04347826  0.00000000       0.004
   0.21739130  0.04347826  0.00000000       0.004
  -0.04347826  0.26086957  0.00000000       0.004
  -0.26086957  0.21739130  0.00000000       0.004
  -0.21739130  0.26086957  0.00000000       0.004
   0.04347826  0.21739130  0.00000000       0.004
   0.26086957 -0.04347826  0.00000000       0.004
   0.26086957  0.04347826  0.00000000       0.004
  -0.04347826  0.30434783  0.00000000       0.004
  -0.30434783  0.26086957  0.00000000       0.004
  -0.26086957  0.30434783  0.00000000       0.004
   0.04347826  0.26086957  0.00000000       0.004
   0.30434783 -0.04347826  0.00000000       0.004
   0.30434783  0.04347826  0.00000000       0.004
  -0.04347826  0.34782609  0.00000000       0.004
  -0.34782609  0.30434783  0.00000000       0.004
  -0.30434783  0.34782609  0.00000000       0.004
   0.04347826  0.30434783  0.00000000       0.004
   0.34782609 -0.04347826  0.00000000       0.004
   0.34782609  0.04347826  0.00000000       0.004
  -0.04347826  0.39130435  0.00000000       0.004
  -0.39130435  0.34782609  0.00000000       0.004
  -0.34782609  0.39130435  0.00000000       0.004
   0.04347826  0.34782609  0.00000000       0.004
   0.39130435 -0.04347826  0.00000000       0.004
   0.39130435  0.04347826  0.00000000       0.004
  -0.04347826  0.43478261  0.00000000       0.004
  -0.43478261  0.39130435  0.00000000       0.004
  -0.39130435  0.43478261  0.00000000       0.004
   0.04347826  0.39130435  0.00000000       0.004
   0.43478261 -0.04347826  0.00000000       0.004
   0.43478261  0.04347826  0.00000000       0.004
  -0.04347826  0.47826087  0.00000000       0.004
  -0.47826087  0.43478261  0.00000000       0.004
  -0.43478261  0.47826087  0.00000000       0.004
   0.04347826  0.43478261  0.00000000       0.004
   0.47826087 -0.04347826  0.00000000       0.004
   0.47826087  0.04347826  0.00000000       0.004
  -0.04347826 -0.47826087  0.00000000       0.004
   0.47826087  0.47826087  0.00000000       0.004
   0.08695652  0.08695652  0.00000000       0.004
  -0.08695652  0.17391304  0.00000000       0.004
  -0.17391304  0.08695652  0.00000000       0.004
   0.13043478  0.08695652  0.00000000       0.004
  -0.08695652  0.21739130  0.00000000       0.004
  -0.21739130  0.13043478  0.00000000       0.004
  -0.13043478  0.21739130  0.00000000       0.004
   0.08695652  0.13043478  0.00000000       0.004
   0.21739130 -0.08695652  0.00000000       0.004
   0.17391304  0.08695652  0.00000000       0.004
  -0.08695652  0.26086957  0.00000000       0.004
  -0.26086957  0.17391304  0.00000000       0.004
  -0.17391304  0.26086957  0.00000000       0.004
   0.08695652  0.17391304  0.00000000       0.004
   0.26086957 -0.08695652  0.00000000       0.004
   0.21739130  0.08695652  0.00000000       0.004
  -0.08695652  0.30434783  0.00000000       0.004
  -0.30434783  0.21739130  0.00000000       0.004
  -0.21739130  0.30434783  0.00000000       0.004
   0.08695652  0.21739130  0.00000000       0.004
   0.30434783 -0.08695652  0.00000000       0.004
   0.26086957  0.08695652  0.00000000       0.004
  -0.08695652  0.34782609  0.00000000       0.004
  -0.34782609  0.26086957  0.00000000       0.004
  -0.26086957  0.34782609  0.00000000       0.004
   0.08695652  0.26086957  0.00000000       0.004
   0.34782609 -0.08695652  0.00000000       0.004
   0.30434783  0.08695652  0.00000000       0.004
  -0.08695652  0.39130435  0.00000000       0.004
  -0.39130435  0.30434783  0.00000000       0.004
  -0.30434783  0.39130435  0.00000000       0.004
   0.08695652  0.30434783  0.00000000       0.004
   0.39130435 -0.08695652  0.00000000       0.004
   0.34782609  0.08695652  0.00000000       0.004
  -0.08695652  0.43478261  0.00000000       0.004
  -0.43478261  0.34782609  0.00000000       0.004
  -0.34782609  0.43478261  0.00000000       0.004
   0.08695652  0.34782609  0.00000000       0.004
   0.43478261 -0.08695652  0.00000000       0.004
   0.39130435  0.08695652  0.00000000       0.004
  -0.08695652  0.47826087  0.00000000       0.004
  -0.47826087  0.39130435  0.00000000       0.004
  -0.39130435  0.47826087  0.00000000       0.004
   0.08695652  0.39130435  0.00000000       0.004
   0.47826087 -0.08695652  0.00000000       0.004
   0.43478261  0.08695652  0.00000000       0.004
  -0.08695652 -0.47826087  0.00000000       0.004
   0.47826087  0.43478261  0.00000000       0.004
  -0.43478261 -0.47826087  0.00000000       0.004
   0.08695652  0.43478261  0.00000000       0.004
  -0.47826087 -0.08695652  0.00000000       0.004
   0.13043478  0.13043478  0.00000000       0.004
  -0.13043478  0.26086957  0.00000000       0.004
  -0.26086957  0.13043478  0.00000000       0.004
   0.17391304  0.13043478  0.00000000       0.004
  -0.13043478  0.30434783  0.00000000       0.004
  -0.30434783  0.17391304  0.00000000       0.004
  -0.17391304  0.30434783  0.00000000       0.004
   0.13043478  0.17391304  0.00000000       0.004
   0.30434783 -0.13043478  0.00000000       0.004
   0.21739130  0.13043478  0.00000000       0.004
  -0.13043478  0.34782609  0.00000000       0.004
  -0.34782609  0.21739130  0.00000000       0.004
  -0.21739130  0.34782609  0.00000000       0.004
   0.13043478  0.21739130  0.00000000       0.004
   0.34782609 -0.13043478  0.00000000       0.004
   0.26086957  0.13043478  0.00000000       0.004
  -0.13043478  0.39130435  0.00000000       0.004
  -0.39130435  0.26086957  0.00000000       0.004
  -0.26086957  0.39130435  0.00000000       0.004
   0.13043478  0.26086957  0.00000000       0.004
   0.39130435 -0.13043478  0.00000000       0.004
   0.30434783  0.13043478  0.00000000       0.004
  -0.13043478  0.43478261  0.00000000       0.004
  -0.43478261  0.30434783  0.00000000       0.004
  -0.30434783  0.43478261  0.00000000       0.004
   0.13043478  0.30434783  0.00000000       0.004
   0.43478261 -0.13043478  0.00000000       0.004
   0.34782609  0.13043478  0.00000000       0.004
  -0.13043478  0.47826087  0.00000000       0.004
  -0.47826087  0.34782609  0.00000000       0.004
  -0.34782609  0.47826087  0.00000000       0.004
   0.13043478  0.34782609  0.00000000       0.004
   0.47826087 -0.13043478  0.00000000       0.004
   0.39130435  0.13043478  0.00000000       0.004
  -0.13043478 -0.47826087  0.00000000       0.004
   0.47826087  0.39130435  0.00000000       0.004
  -0.39130435 -0.47826087  0.00000000       0.004
   0.13043478  0.39130435  0.00000000       0.004
  -0.47826087 -0.13043478  0.00000000       0.004
   0.43478261  0.13043478  0.00000000       0.004
  -0.13043478 -0.43478261  0.00000000       0.004
   0.43478261  0.43478261  0.00000000       0.004
   0.17391304  0.17391304  0.00000000       0.004
  -0.17391304  0.34782609  0.00000000       0.004
  -0.34782609  0.17391304  0.00000000       0.004
   0.21739130  0.17391304  0.00000000       0.004
  -0.17391304  0.39130435  0.00000000       0.004
  -0.39130435  0.21739130  0.00000000       0.004
  -0.21739130  0.39130435  0.00000000       0.004
   0.17391304  0.21739130  0.00000000       0.004
   0.39130435 -0.17391304  0.00000000       0.004
   0.26086957  0.17391304  0.00000000       0.004
  -0.17391304  0.43478261  0.00000000       0.004
  -0.43478261  0.26086957  0.00000000       0.004
  -0.26086957  0.43478261  0.00000000       0.004
   0.17391304  0.26086957  0.00000000       0.004
   0.43478261 -0.17391304  0.00000000       0.004
   0.30434783  0.17391304  0.00000000       0.004
  -0.17391304  0.47826087  0.00000000       0.004
  -0.47826087  0.30434783  0.00000000       0.004
  -0.30434783  0.47826087  0.00000000       0.004
   0.17391304  0.30434783  0.00000000       0.004
   0.47826087 -0.17391304  0.00000000       0.004
   0.34782609  0.17391304  0.00000000       0.004
  -0.17391304 -0.47826087  0.00000000       0.004
   0.47826087  0.34782609  0.00000000       0.004
  -0.34782609 -0.47826087  0.00000000       0.004
   0.17391304  0.34782609  0.00000000       0.004
  -0.47826087 -0.17391304  0.00000000       0.004
   0.39130435  0.17391304  0.00000000       0.004
  -0.17391304 -0.43478261  0.00000000       0.004
   0.43478261  0.39130435  0.00000000       0.004
  -0.39130435 -0.43478261  0.00000000       0.004
   0.17391304  0.39130435  0.00000000       0.004
  -0.43478261 -0.17391304  0.00000000       0.004
   0.21739130  0.21739130  0.00000000       0.004
  -0.21739130  0.43478261  0.00000000       0.004
  -0.43478261  0.21739130  0.00000000       0.004
   0.26086957  0.21739130  0.00000000       0.004
  -0.21739130  0.47826087  0.00000000       0.004
  -0.47826087  0.26086957  0.00000000       0.004
  -0.26086957  0.47826087  0.00000000       0.004
   0.21739130  0.26086957  0.00000000       0.004
   0.47826087 -0.21739130  0.00000000       0.004
   0.30434783  0.21739130  0.00000000       0.004
  -0.21739130 -0.47826087  0.00000000       0.004
   0.47826087  0.30434783  0.00000000       0.004
  -0.30434783 -0.47826087  0.00000000       0.004
   0.21739130  0.30434783  0.00000000       0.004
  -0.47826087 -0.21739130  0.00000000       0.004
   0.34782609  0.21739130  0.00000000       0.004
  -0.21739130 -0.43478261  0.00000000       0.004
   0.43478261  0.34782609  0.00000000       0.004
  -0.34782609 -0.43478261  0.00000000       0.004
   0.21739130  0.34782609  0.00000000       0.004
  -0.43478261 -0.21739130  0.00000000       0.004
   0.39130435  0.21739130  0.00000000       0.004
  -0.21739130 -0.39130435  0.00000000       0.004
   0.39130435  0.39130435  0.00000000       0.004
   0.26086957  0.26086957  0.00000000       0.004
  -0.26086957 -0.47826087  0.00000000       0.004
   0.47826087  0.26086957  0.00000000       0.004
   0.30434783  0.26086957  0.00000000       0.004
  -0.26086957 -0.43478261  0.00000000       0.004
   0.43478261  0.30434783  0.00000000       0.004
  -0.30434783 -0.43478261  0.00000000       0.004
   0.26086957  0.30434783  0.00000000       0.004
  -0.43478261 -0.26086957  0.00000000       0.004
   0.34782609  0.26086957  0.00000000       0.004
  -0.26086957 -0.39130435  0.00000000       0.004
   0.39130435  0.34782609  0.00000000       0.004
  -0.34782609 -0.39130435  0.00000000       0.004
   0.26086957  0.34782609  0.00000000       0.004
  -0.39130435 -0.26086957  0.00000000       0.004
   0.30434783  0.30434783  0.00000000       0.004
  -0.30434783 -0.39130435  0.00000000       0.004
   0.39130435  0.30434783  0.00000000       0.004
   0.34782609  0.30434783  0.00000000       0.004
  -0.30434783 -0.34782609  0.00000000       0.004
   0.34782609  0.34782609  0.00000000       0.004
 
 position of ions in fractional coordinates (direct lattice) 
   0.33835568  0.66919338  0.25000000
   0.67168550  0.33578412  0.25000000
   0.16393418  0.32096121  0.25000000
   0.32344383  0.16194918  0.25000000
   0.16445142  0.84350783  0.25000000
   0.84555675  0.16147694  0.25000000
   0.68650730  0.84304996  0.25000000
   0.84606136  0.68407339  0.25000000
 
 position of ions in cartesian coordinates  (Angst):
  -1.48099001  2.60401054  3.75000000
   1.50365748  2.60380523  3.75000000
  -0.70292916  1.25321212  3.75000000
   0.72292837  1.25449822  3.75000000
  -3.03978584  2.60507066  3.75000000
   3.06227299  2.60267856  3.75000000
  -0.70076085  3.95314074  3.75000000
   0.72513672  3.95463325  3.75000000
 


--------------------------------------------------------------------------------------------------------


 k-point   1 :   0.0000 0.0000 0.0000  plane waves:    7497
 k-point   2 :   0.0435 0.0000 0.0000  plane waves:    7499
 k-point   3 :   0.0000 0.0435 0.0000  plane waves:    7499
 k-point   4 :  -0.0435 0.0435 0.0000  plane waves:    7499
 k-point   5 :   0.0870-0.0000 0.0000  plane waves:    7505
 k-point   6 :   0.0000 0.0870 0.0000  plane waves:    7505
 k-point   7 :  -0.0870 0.0870 0.0000  plane waves:    7505
 k-point   8 :   0.1304 0.0000 0.0000  plane waves:    7517
 k-point   9 :   0.0000 0.1304 0.0000  plane waves:    7517
 k-point  10 :  -0.1304 0.1304 0.0000  plane waves:    7517
 k-point  11 :   0.1739-0.0000 0.0000  plane waves:    7511
 k-point  12 :  -0.0000 0.1739 0.0000  plane waves:    7511
 k-point  13 :  -0.1739 0.1739 0.0000  plane waves:    7511
 k-point  14 :   0.2174-0.0000 0.0000  plane waves:    7511
 k-point  15 :   0.0000 0.2174 0.0000  plane waves:    7511
 k-point  16 :  -0.2174 0.2174 0.0000  plane waves:    7511
 k-point  17 :   0.2609 0.0000 0.0000  plane waves:    7510
 k-point  18 :   0.0000 0.2609 0.0000  plane waves:    7510
 k-point  19 :  -0.2609 0.2609 0.0000  plane waves:    7510
 k-point  20 :   0.3043 0.0000 0.0000  plane waves:    7520
 k-point  21 :   0.0000 0.3043 0.0000  plane waves:    7520
 k-point  22 :  -0.3043 0.3043 0.0000  plane waves:    7520
 k-point  23 :   0.3478 0.0000 0.0000  plane waves:    7526
 k-point  24 :   0.0000 0.3478 0.0000  plane waves:    7526
 k-point  25 :  -0.3478 0.3478 0.0000  plane waves:    7526
 k-point  26 :   0.3913 0.0000 0.0000  plane waves:    7518
 k-point  27 :  -0.0000 0.3913 0.0000  plane waves:    7518
 k-point  28 :  -0.3913 0.3913 0.0000  plane waves:    7518
 k-point  29 :   0.4348 0.0000 0.0000  plane waves:    7528
 k-point  30 :   0.0000 0.4348 0.0000  plane waves:    7528
 k-point  31 :  -0.4348 0.4348 0.0000  plane waves:    7528
 k-point  32 :   0.4783-0.0000 0.0000  plane waves:    7526
 k-point  33 :  -0.0000 0.4783 0.0000  plane waves:    7526
 k-point  34 :  -0.4783 0.4783 0.0000  plane waves:    7526
 k-point  35 :   0.0435 0.0435 0.0000  plane waves:    7497
 k-point  36 :  -0.0435 0.0870 0.0000  plane waves:    7497
 k-point  37 :  -0.0870 0.0435 0.0000  plane waves:    7497
 k-point  38 :   0.0870 0.0435 0.0000  plane waves:    7505
 k-point  39 :  -0.0435 0.1304 0.0000  plane waves:    7505
 k-point  40 :  -0.1304 0.0870 0.0000  plane waves:    7505
 k-point  41 :  -0.0870 0.1304 0.0000  plane waves:    7505
 k-point  42 :   0.0435 0.0870 0.0000  plane waves:    7505
 k-point  43 :   0.1304-0.0435 0.0000  plane waves:    7505
 k-point  44 :   0.1304 0.0435 0.0000  plane waves:    7497
 k-point  45 :  -0.0435 0.1739 0.0000  plane waves:    7497
 k-point  46 :  -0.1739 0.1304 0.0000  plane waves:    7497
 k-point  47 :  -0.1304 0.1739 0.0000  plane waves:    7497
 k-point  48 :   0.0435 0.1304 0.0000  plane waves:    7497
 k-point  49 :   0.1739-0.0435 0.0000  plane waves:    7497
 k-point  50 :   0.1739 0.0435 0.0000  plane waves:    7495
 k-point  51 :  -0.0435 0.2174 0.0000  plane waves:    7495
 k-point  52 :  -0.2174 0.1739 0.0000  plane waves:    7495
 k-point  53 :  -0.1739 0.2174 0.0000  plane waves:    7495
 k-point  54 :   0.0435 0.1739 0.0000  plane waves:    7495
 k-point  55 :   0.2174-0.0435 0.0000  plane waves:    7495
 k-point  56 :   0.2174 0.0435 0.0000  plane waves:    7512
 k-point  57 :  -0.0435 0.2609 0.0000  plane waves:    7512
 k-point  58 :  -0.2609 0.2174 0.0000  plane waves:    7512
 k-point  59 :  -0.2174 0.2609 0.0000  plane waves:    7512
 k-point  60 :   0.0435 0.2174 0.0000  plane waves:    7512
 k-point  61 :   0.2609-0.0435 0.0000  plane waves:    7512
 k-point  62 :   0.2609 0.0435 0.0000  plane waves:    7508
 k-point  63 :  -0.0435 0.3043 0.0000  plane waves:    7508
 k-point  64 :  -0.3043 0.2609 0.0000  plane waves:    7508
 k-point  65 :  -0.2609 0.3043 0.0000  plane waves:    7508
 k-point  66 :   0.0435 0.2609 0.0000  plane waves:    7508
 k-point  67 :   0.3043-0.0435 0.0000  plane waves:    7508
 k-point  68 :   0.3043 0.0435 0.0000  plane waves:    7515
 k-point  69 :  -0.0435 0.3478 0.0000  plane waves:    7515
 k-point  70 :  -0.3478 0.3043 0.0000  plane waves:    7515
 k-point  71 :  -0.3043 0.3478 0.0000  plane waves:    7515
 k-point  72 :   0.0435 0.3043 0.0000  plane waves:    7515
 k-point  73 :   0.3478-0.0435 0.0000  plane waves:    7515
 k-point  74 :   0.3478 0.0435 0.0000  plane waves:    7520
[...]
     14      -5.8769      2.00000
     15      -5.8689      2.00000
     16      -1.8355      0.00000
     17      -0.9083      0.00000
     18       2.9004      0.00000
     19       3.2179      0.00000
     20       3.4499      0.00000
     21       3.8342      0.00000
     22       3.8506      0.00000
     23       4.1373      0.00000
     24       4.3408      0.00000

 k-point   255 :      -0.2609   -0.3913    0.0000
  band No.  band energies     occupation 
      1     -19.2324      2.00000
      2     -17.4082      2.00000
      3     -17.1008      2.00000
      4     -13.1760      2.00000
      5     -12.5852      2.00000
      6     -10.7841      2.00000
      7      -8.8164      2.00000
      8      -8.3421      2.00000
      9      -7.8145      2.00000
     10      -7.4274      2.00000
     11      -7.2254      2.00000
     12      -6.4178      2.00000
     13      -6.3314      2.00000
     14      -5.8769      2.00000
     15      -5.8689      2.00000
     16      -1.8355      0.00000
     17      -0.9083      0.00000
     18       2.9004      0.00000
     19       3.2179      0.00000
     20       3.4499      0.00000
     21       3.8342      0.00000
     22       3.8506      0.00000
     23       4.1373      0.00000
     24       4.3408      0.00000

 k-point   256 :       0.3913    0.3478    0.0000
  band No.  band energies     occupation 
      1     -19.2324      2.00000
      2     -17.4084      2.00000
      3     -17.1007      2.00000
      4     -13.1759      2.00000
      5     -12.5852      2.00000
      6     -10.7841      2.00000
      7      -8.8165      2.00000
      8      -8.3420      2.00000
      9      -7.8146      2.00000
     10      -7.4274      2.00000
     11      -7.2255      2.00000
     12      -6.4177      2.00000
     13      -6.3315      2.00000
     14      -5.8769      2.00000
     15      -5.8689      2.00000
     16      -1.8355      0.00000
     17      -0.9083      0.00000
     18       2.9004      0.00000
     19       3.2179      0.00000
     20       3.4499      0.00000
     21       3.8342      0.00000
     22       3.8506      0.00000
     23       4.1374      0.00000
     24       4.3408      0.00000

 k-point   257 :      -0.3478   -0.3913    0.0000
  band No.  band energies     occupation 
      1     -19.2324      2.00000
      2     -17.4084      2.00000
      3     -17.1007      2.00000
      4     -13.1759      2.00000
      5     -12.5853      2.00000
      6     -10.7841      2.00000
      7      -8.8164      2.00000
      8      -8.3420      2.00000
      9      -7.8146      2.00000
     10      -7.4274      2.00000
     11      -7.2255      2.00000
     12      -6.4177      2.00000
     13      -6.3315      2.00000
     14      -5.8769      2.00000
     15      -5.8689      2.00000
     16      -1.8355      0.00000
     17      -0.9083      0.00000
     18       2.9004      0.00000
     19       3.2179      0.00000
     20       3.4499      0.00000
     21       3.8342      0.00000
     22       3.8506      0.00000
     23       4.1374      0.00000
     24       4.3408      0.00000

 k-point   258 :       0.2609    0.3478    0.0000
  band No.  band energies     occupation 
      1     -19.2324      2.00000
      2     -17.4082      2.00000
      3     -17.1008      2.00000
      4     -13.1760      2.00000
      5     -12.5852      2.00000
      6     -10.7841      2.00000
      7      -8.8163      2.00000
      8      -8.3421      2.00000
      9      -7.8145      2.00000
     10      -7.4274      2.00000
     11      -7.2254      2.00000
     12      -6.4178      2.00000
     13      -6.3314      2.00000
     14      -5.8769      2.00000
     15      -5.8690      2.00000
     16      -1.8355      0.00000
     17      -0.9083      0.00000
     18       2.9004      0.00000
     19       3.2179      0.00000
     20       3.4499      0.00000
     21       3.8342      0.00000
     22       3.8506      0.00000
     23       4.1373      0.00000
     24       4.3408      0.00000

 k-point   259 :      -0.3913   -0.2609    0.0000
  band No.  band energies     occupation 
      1     -19.2324      2.00000
      2     -17.4083      2.00000
      3     -17.1008      2.00000
      4     -13.1760      2.00000
      5     -12.5852      2.00000
      6     -10.7841      2.00000
      7      -8.8164      2.00000
      8      -8.3421      2.00000
      9      -7.8145      2.00000
     10      -7.4274      2.00000
     11      -7.2255      2.00000
     12      -6.4178      2.00000
     13      -6.3314      2.00000
     14      -5.8769      2.00000
     15      -5.8689      2.00000
     16      -1.8355      0.00000
     17      -0.9083      0.00000
     18       2.9004      0.00000
     19       3.2179      0.00000
     20       3.4499      0.00000
     21       3.8342      0.00000
     22       3.8506      0.00000
     23       4.1373      0.00000
     24       4.3408      0.00000

 k-point   260 :       0.3043    0.3043    0.0000
  band No.  band energies     occupation 
      1     -19.2275      2.00000
      2     -17.3654      2.00000
      3     -17.1654      2.00000
      4     -13.0440      2.00000
      5     -12.6983      2.00000
      6     -10.8207      2.00000
      7      -8.7503      2.00000
      8      -8.2192      2.00000
      9      -7.9414      2.00000
     10      -7.4168      2.00000
     11      -7.2141      2.00000
     12      -6.3730      2.00000
     13      -6.2570      2.00000
     14      -5.9828      2.00000
     15      -5.9793      2.00000
     16      -1.6945      0.00000
     17      -1.0516      0.00000
     18       2.8869      0.00000
     19       3.5107      0.00000
     20       3.5314      0.00000
     21       3.5556      0.00000
     22       4.0274      0.00000
     23       4.1010      0.00000
     24       4.3269      0.00000

 k-point   261 :      -0.3043   -0.3913    0.0000
  band No.  band energies     occupation 
      1     -19.2275      2.00000
      2     -17.3656      2.00000
      3     -17.1652      2.00000
      4     -13.0440      2.00000
      5     -12.6984      2.00000
      6     -10.8207      2.00000
      7      -8.7504      2.00000
      8      -8.2190      2.00000
      9      -7.9415      2.00000
     10      -7.4168      2.00000
     11      -7.2141      2.00000
     12      -6.3730      2.00000
     13      -6.2571      2.00000
     14      -5.9828      2.00000
     15      -5.9792      2.00000
     16      -1.6945      0.00000
     17      -1.0515      0.00000
     18       2.8869      0.00000
     19       3.5107      0.00000
     20       3.5314      0.00000
     21       3.5556      0.00000
     22       4.0275      0.00000
     23       4.1009      0.00000
     24       4.3269      0.00000

 k-point   262 :       0.3913    0.3043    0.0000
  band No.  band energies     occupation 
      1     -19.2275      2.00000
      2     -17.3656      2.00000
      3     -17.1652      2.00000
      4     -13.0440      2.00000
      5     -12.6983      2.00000
      6     -10.8207      2.00000
      7      -8.7504      2.00000
      8      -8.2190      2.00000
      9      -7.9415      2.00000
     10      -7.4168      2.00000
     11      -7.2141      2.00000
     12      -6.3730      2.00000
     13      -6.2571      2.00000
     14      -5.9828      2.00000
     15      -5.9792      2.00000
     16      -1.6945      0.00000
     17      -1.0515      0.00000
     18       2.8869      0.00000
     19       3.5107      0.00000
     20       3.5314      0.00000
     21       3.5556      0.00000
     22       4.0275      0.00000
     23       4.1009      0.00000
     24       4.3269      0.00000

 k-point   263 :       0.3478    0.3043    0.0000
  band No.  band energies     occupation 
      1     -19.2176      2.00000
      2     -17.3377      2.00000
      3     -17.2220      2.00000
      4     -12.9612      2.00000
      5     -12.7399      2.00000
      6     -10.8771      2.00000
      7      -8.5200      2.00000
      8      -8.3110      2.00000
      9      -7.9736      2.00000
     10      -7.3850      2.00000
     11      -7.2389      2.00000
     12      -6.3260      2.00000
     13      -6.2342      2.00000
     14      -6.1090      2.00000
     15      -6.0600      2.00000
     16      -1.5459      0.00000
     17      -1.1976      0.00000
     18       3.1819      0.00000
     19       3.1990      0.00000
     20       3.5079      0.00000
     21       3.7633      0.00000
     22       3.9508      0.00000
     23       4.1901      0.00000
     24       4.3108      0.00000

 k-point   264 :      -0.3043   -0.3478    0.0000
  band No.  band energies     occupation 
      1     -19.2176      2.00000
      2     -17.3377      2.00000
      3     -17.2220      2.00000
      4     -12.9612      2.00000
      5     -12.7399      2.00000
      6     -10.8771      2.00000
      7      -8.5200      2.00000
      8      -8.3110      2.00000
      9      -7.9736      2.00000
     10      -7.3850      2.00000
     11      -7.2389      2.00000
     12      -6.3260      2.00000
     13      -6.2342      2.00000
     14      -6.1090      2.00000
     15      -6.0600      2.00000
     16      -1.5459      0.00000
     17      -1.1976      0.00000
     18       3.1819      0.00000
     19       3.1990      0.00000
     20       3.5079      0.00000
     21       3.7633      0.00000
     22       3.9508      0.00000
     23       4.1901      0.00000
     24       4.3108      0.00000

 k-point   265 :       0.3478    0.3478    0.0000
  band No.  band energies     occupation 
      1     -19.2176      2.00000
      2     -17.3379      2.00000
      3     -17.2219      2.00000
      4     -12.9612      2.00000
      5     -12.7399      2.00000
      6     -10.8771      2.00000
      7      -8.5201      2.00000
      8      -8.3108      2.00000
      9      -7.9736      2.00000
     10      -7.3850      2.00000
     11      -7.2389      2.00000
     12      -6.3260      2.00000
     13      -6.2343      2.00000
     14      -6.1090      2.00000
     15      -6.0599      2.00000
     16      -1.5459      0.00000
     17      -1.1976      0.00000
     18       3.1818      0.00000
     19       3.1990      0.00000
     20       3.5079      0.00000
     21       3.7633      0.00000
     22       3.9508      0.00000
     23       4.1901      0.00000
     24       4.3108      0.00000


--------------------------------------------------------------------------------------------------------


 soft charge-density along one line, spin component           1
         0         1         2         3         4         5         6         7         8         9
 total charge-density along one line
 
 pseudopotential strength for first ion, spin component:           1
  6.732  10.272   0.000  -0.000  -0.000   0.000  -0.000  -0.000
 10.272  15.670   0.000  -0.000  -0.000   0.000  -0.000  -0.000
  0.000   0.000  -2.315   0.000   0.000  -3.974   0.000   0.000
 -0.000  -0.000   0.000  -2.321  -0.000   0.000  -3.981  -0.000
 -0.000  -0.000   0.000  -0.000  -2.315   0.000  -0.000  -3.974
  0.000   0.000  -3.974   0.000   0.000  -6.623   0.000   0.000
 -0.000  -0.000   0.000  -3.981  -0.000   0.000  -6.632  -0.000
 -0.000  -0.000   0.000  -0.000  -3.974   0.000  -0.000  -6.623
 total augmentation occupancy for first ion, spin component:           1
  3.719  -0.953   0.000   0.000  -0.000  -0.000   0.000   0.000
 -0.953   0.264  -0.000   0.000   0.000   0.000   0.000  -0.000
  0.000  -0.000   4.142   0.000   0.000  -1.105   0.000  -0.000
  0.000   0.000   0.000   0.892   0.000   0.000  -0.223   0.000
 -0.000   0.000   0.000   0.000   4.142  -0.000   0.000  -1.105
 -0.000   0.000  -1.105   0.000  -0.000   0.306   0.000   0.000
  0.000   0.000   0.000  -0.223   0.000   0.000   0.056   0.000
  0.000  -0.000  -0.000   0.000  -1.105   0.000   0.000   0.306


------------------------ aborting loop because EDIFF is reached ----------------------------------------


    CHARGE:  cpu time      0.4582: real time      0.4598
    FORLOC:  cpu time      0.0020: real time      0.0020
    FORNL :  cpu time      0.9741: real time      0.9771
    STRESS:  cpu time      8.5220: real time      8.5620
    FORCOR:  cpu time      0.0183: real time      0.0190
    FORHAR:  cpu time      0.0050: real time      0.0050
    MIXING:  cpu time      0.0008: real time      0.0008
    OFIELD:  cpu time      0.0000: real time      0.0000

 ---------------------------------------------------------------------------------------------

         DFTD3 V3.0 Rev 1        
 Edisp (eV)   -0.67804

 E6    (eV) :    -0.4579
 E8    (eV) :    -0.2201
 % E8        : 32.46
    FORVDW:  cpu time      0.0139: real time      0.0141

  FORCE on cell =-STRESS in cart. coord.  units (eV):
  Direction    XX          YY          ZZ          XY          YZ          ZX
  --------------------------------------------------------------------------------------
  Alpha Z    14.61462    14.61462    14.61462
  Ewald    3501.19324  3501.18775 -4398.90803     0.00070     0.00000     0.00000
  Hartree  3440.13490  3440.13235 -3381.40969     0.00021    -0.00000     0.00000
  E(xc)    -107.49122  -107.49124  -111.32332    -0.00000    -0.00000    -0.00000
  Local   -7258.18993 -7258.18280  7443.59024    -0.00091    -0.00000     0.00000
  n-local   -21.69622   -21.69642   -10.37215     0.00002     0.00000     0.00000
  augment    -1.80629    -1.80622    -1.79654    -0.00001    -0.00000     0.00000
  Kinetic   433.61336   433.61483   445.42220    -0.00021    -0.00000     0.00000
  Fock        0.00000     0.00000     0.00000     0.00000     0.00000     0.00000
  vdW        -0.54285    -0.54284    -0.00593    -0.00000     0.00000     0.00000
  -------------------------------------------------------------------------------------
  Total      -0.17039    -0.16998    -0.18858    -0.00020     0.00000     0.00000
  in kB      -0.78653    -0.78463    -0.87050    -0.00092     0.00000     0.00000
  external pressure =       -0.81 kB  Pullay stress =        0.00 kB


 VOLUME and BASIS-vectors are now :
 -----------------------------------------------------------------------------
  energy-cutoff  :      450.00
  volume of cell :      347.08
      direct lattice vectors                 reciprocal lattice vectors
     4.476485000  2.584500000  0.000000000     0.111694778  0.193461018  0.000000000
    -4.476485000  2.584500000  0.000000000    -0.111694778  0.193461018  0.000000000
     0.000000000  0.000000000 15.000000000     0.000000000  0.000000000  0.066666667

  length of vectors
     5.168999730  5.168999730 15.000000000     0.223389545  0.223389545  0.066666667


 FORCES acting on ions
    electron-ion (+dipol)            ewald-force                    non-local-force                 convergence-correction
 -----------------------------------------------------------------------------------------------
   -.173E-02 0.428E-03 0.178E-06   0.178E-02 -.315E-03 0.491E-18   -.115E-03 -.400E-04 -.202E-26   -.162E-04 -.126E-03 0.512E-12
   0.492E-02 -.629E-03 0.211E-07   -.453E-02 0.613E-03 0.741E-19   -.300E-03 0.774E-04 0.646E-25   -.677E-03 0.475E-04 0.350E-12
   0.256E+02 -.443E+02 -.228E-06   -.276E+02 0.478E+02 0.109E-17   0.201E+01 -.348E+01 -.517E-25   0.778E-03 0.514E-03 0.888E-12
   -.256E+02 -.443E+02 -.399E-06   0.276E+02 0.478E+02 0.137E-18   -.201E+01 -.348E+01 0.517E-25   -.327E-03 0.438E-03 0.512E-12
   -.511E+02 0.248E-04 0.425E-07   0.551E+02 -.608E-04 -.169E-18   -.402E+01 0.218E-03 -.194E-25   0.203E-03 0.513E-04 0.374E-12
   0.511E+02 -.385E-04 -.163E-06   -.551E+02 -.136E-03 -.538E-18   0.402E+01 0.222E-03 -.155E-24   0.495E-03 0.107E-03 0.139E-11
   0.256E+02 0.443E+02 0.258E-06   -.276E+02 -.478E+02 -.704E-18   0.201E+01 0.348E+01 -.646E-26   0.711E-03 -.334E-03 0.753E-12
   -.256E+02 0.443E+02 0.520E-09   0.276E+02 -.478E+02 -.228E-18   -.201E+01 0.348E+01 -.103E-24   0.307E-04 -.559E-03 -.244E-12
 -----------------------------------------------------------------------------------------------
   -.111E-02 -.217E-03 -.289E-06   -.711E-14 0.284E-13 0.153E-18   0.314E-03 0.604E-03 -.222E-24   0.120E-02 0.139E-03 0.453E-11
 
 
 POSITION                                       TOTAL-FORCE (eV/Angst)
 -----------------------------------------------------------------------------------
     -1.48096      2.60388      3.75000        -0.000141     -0.000118     -0.000000
      1.50336      2.60388      3.75000        -0.000642      0.000044      0.000000
     -0.69947      1.25024      3.75000         0.000429      0.000543     -0.000000
      0.72183      1.25025      3.75000        -0.000145      0.000052      0.000000
     -3.04399      2.60389      3.75000        -0.000357      0.000168      0.000000
      3.06637      2.60388      3.75000         0.000355      0.000089      0.000000
     -0.69946      3.95752      3.75000         0.000262     -0.000355     -0.000000
      0.72184      3.95752      3.75000         0.000238     -0.000423      0.000000
 -----------------------------------------------------------------------------------
    total drift:                                0.000404      0.000525     -0.000000


--------------------------------------------------------------------------------------------------------



  FREE ENERGIE OF THE ION-ELECTRON SYSTEM (eV)
  ---------------------------------------------------
  free  energy   TOTEN  =       -67.90771562 eV

  energy  without entropy=      -67.90771557  energy(sigma->0) =      -67.90771559
 
 d Force = 0.2541623E-06[-0.133E-06, 0.641E-06]  d Energy = 0.3122914E-06-0.581E-07
 d Force =-0.7444808E-03[-0.746E-03,-0.743E-03]  d Ewald  =-0.7444808E-03-0.368E-10


--------------------------------------------------------------------------------------------------------


    POTLOK:  cpu time      0.0204: real time      0.0205


--------------------------------------------------------------------------------------------------------


 stress matrix after NEB project (eV)
     -0.17039     -0.00020      0.00000
     -0.00020     -0.16998      0.00000
      0.00000      0.00000     -0.18858
  FORCES: max atom, RMS     0.000693    0.000457
  FORCE total and by dimension    0.001293    0.000642
  Stress total and by dimension    0.305755    0.188580
 Conjugate gradient step on ions:
 trial-energy change:   -0.000000  1 .order   -0.000000   -0.000001    0.000000
  (g-gl).g = 0.141E-05      g.g   = 0.132E-05  gl.gl    = 0.559E-04
 g(Force)  = 0.132E-05   g(Stress)= 0.000E+00 ortho     = 0.243E-06
 gamma     =   0.02519
 trial     =   0.48301
 opt step  =   0.40016  (harmonic =   0.40016) maximal distance =0.00007640
 next E    =   -67.907716   (d E  =  -0.00000)


--------------------------------------------------------------------------------------------------------


  
 reached required accuracy - stopping structural energy minimisation
     LOOP+:  cpu time     26.2079: real time     26.3750
    4ORBIT:  cpu time      0.0000: real time      0.0000

 total amount of memory used by VASP MPI-rank0   331108. kBytes
=======================================================================

   base      :      30000. kBytes
   nonl-proj :     258220. kBytes
   fftplans  :       2154. kBytes
   grid      :       8249. kBytes
   one-center:         24. kBytes
   wavefun   :      32461. kBytes
 
  
  
 General timing and accounting informations for this job:
 ========================================================
  
                  Total CPU time used (sec):      583.248
                            User time (sec):      580.027
                          System time (sec):        3.221
                         Elapsed time (sec):      595.299
  
                   Maximum memory used (kb):      849924.
                   Average memory used (kb):          N/A
  
                          Minor page faults:      1420030
                          Major page faults:         3789
                 Voluntary context switches:         5691
