Lattice                                 
           1
     4.476485    2.584500    0.000000
    -4.476485    2.584500    0.000000
     0.000000    0.000000   15.000000
   B    C 
     2     6
Direct configuration=     1
   0.33835568  0.66919338  0.25000000
   0.67168550  0.33578412  0.25000000
   0.16393418  0.32096121  0.25000000
   0.32344383  0.16194918  0.25000000
   0.16445142  0.84350783  0.25000000
   0.84555675  0.16147694  0.25000000
   0.68650730  0.84304996  0.25000000
   0.84606136  0.68407339  0.25000000
Direct configuration=     2
   0.33826096  0.66913789  0.25000000
   0.67167031  0.33589161  0.25000000
   0.16281400  0.31804957  0.25000000
   0.32052414  0.16045111  0.25000000
   0.16295923  0.84489275  0.25000000
   0.84701510  0.16013919  0.25000000
   0.68957102  0.84455667  0.25000000
   0.84718125  0.68687722  0.25000000
Direct configuration=     3
   0.33832470  0.66917523  0.25000000
   0.67168053  0.33581927  0.25000000
   0.16356786  0.32000904  0.25000000
   0.32248903  0.16145928  0.25000000
   0.16396344  0.84396073  0.25000000
   0.84603366  0.16103947  0.25000000
   0.68750920  0.84354268  0.25000000
   0.84642758  0.68499030  0.25000000
Direct configuration=     4
   0.33835320  0.66917133  0.25000000
   0.67163665  0.33583228  0.25000000
   0.16358181  0.31999620  0.25000000
   0.32253712  0.16135842  0.25000000
   0.16380819  0.84385606  0.25000000
   0.84619417  0.16114525  0.25000000
   0.68746266  0.84363727  0.25000000
   0.84642220  0.68499920  0.25000000
Direct configuration=     5
   0.33834025  0.66917310  0.25000000
   0.67165658  0.33582637  0.25000000
   0.16357547  0.32000203  0.25000000
   0.32251527  0.16140423  0.25000000
   0.16387871  0.84390360  0.25000000
   0.84612126  0.16109720  0.25000000
   0.68748380  0.84359430  0.25000000
   0.84642465  0.68499516  0.25000000
Direct configuration=     6
   0.33833470  0.66916864  0.25000000
   0.67165637  0.33583402  0.25000000
   0.16365967  0.32000134  0.25000000
   0.32250870  0.16133267  0.25000000
   0.16382076  0.84383189  0.25000000
   0.84618078  0.16116884  0.25000000
   0.68749120  0.84366353  0.25000000
   0.84634380  0.68499506  0.25000000
Direct configuration=     7
   0.33832855  0.66916371  0.25000000
   0.67165614  0.33584248  0.25000000
   0.16375283  0.32000058  0.25000000
   0.32250144  0.16125349  0.25000000
   0.16375665  0.84375255  0.25000000
   0.84624665  0.16124811  0.25000000
   0.68749939  0.84374012  0.25000000
   0.84625436  0.68499496  0.25000000
Direct configuration=     8
   0.33833450  0.66916508  0.25000000
   0.67166610  0.33583184  0.25000000
   0.16374591  0.31999927  0.25000000
   0.32249977  0.16124938  0.25000000
   0.16375291  0.84374832  0.25000000
   0.84624551  0.16125144  0.25000000
   0.68749975  0.84375106  0.25000000
   0.84625154  0.68499960  0.25000000
