   8   8   0   4
  0.3803843E+02  0.4840000E-09  0.4840000E-09  0.1500000E-08  0.5000000E-15
  1.000000000000000E-004
  CAR 
 Graphene                                
     13.93654301    -23.72569258  301     -2.04282959      1.00000000
    -23.726  0.0000E+00  0.0000E+00
    -23.600  0.0000E+00  0.0000E+00
    -23.475  0.0000E+00  0.0000E+00
    -23.349  0.0000E+00  0.0000E+00
    -23.224  0.0000E+00  0.0000E+00
    -23.098  0.0000E+00  0.0000E+00
    -22.972  0.0000E+00  0.0000E+00
    -22.847  0.0000E+00  0.0000E+00
    -22.721  0.0000E+00  0.0000E+00
    -22.596  0.1228E-18  0.1542E-19
    -22.470  0.6514E-13  0.8177E-14
    -22.345  0.2010E-08  0.2523E-09
    -22.219  0.3551E-05  0.4461E-06
    -22.094  0.4299E-03  0.5441E-04
    -21.968  0.4918E-02  0.6719E-03
    -21.843  0.1092E-01  0.2042E-02
    -21.717  0.1189E-01  0.3535E-02
    -21.591  0.1163E-01  0.4995E-02
    -21.466  0.1251E-01  0.6566E-02
    -21.340  0.1160E-01  0.8022E-02
    -21.215  0.1105E-01  0.9409E-02
    -21.089  0.1478E-01  0.1126E-01
    -20.964  0.8415E-02  0.1232E-01
    -20.838  0.1354E-01  0.1402E-01
    -20.713  0.1449E-01  0.1584E-01
    -20.587  0.8249E-02  0.1687E-01
    -20.462  0.1178E-01  0.1835E-01
    -20.336  0.1669E-01  0.2045E-01
    -20.211  0.1040E-01  0.2175E-01
    -20.085  0.7974E-02  0.2275E-01
    -19.959  0.1414E-01  0.2453E-01
    -19.834  0.1730E-01  0.2670E-01
    -19.708  0.8625E-02  0.2778E-01
    -19.583  0.9234E-02  0.2894E-01
    -19.457  0.1210E-01  0.3046E-01
    -19.332  0.1800E-01  0.3272E-01
    -19.206  0.1312E-01  0.3437E-01
    -19.081  0.6609E-02  0.3520E-01
    -18.955  0.9557E-02  0.3640E-01
    -18.830  0.1766E-01  0.3862E-01
    -18.704  0.1515E-01  0.4052E-01
    -18.579  0.1195E-01  0.4202E-01
    -18.453  0.9604E-02  0.4322E-01
    -18.327  0.5410E-02  0.4390E-01
    -18.202  0.2022E-01  0.4644E-01
    -18.076  0.1683E-01  0.4855E-01
    -17.951  0.1104E-01  0.4994E-01
    -17.825  0.9697E-02  0.5116E-01
    -17.700  0.1001E-01  0.5241E-01
    -17.574  0.9901E-02  0.5366E-01
    -17.449  0.2196E-01  0.5641E-01
    -17.323  0.1602E-01  0.5843E-01
    -17.198  0.9556E-02  0.5962E-01
    -17.072  0.8699E-02  0.6072E-01
    -16.946  0.1138E-01  0.6214E-01
    -16.821  0.1567E-01  0.6411E-01
    -16.695  0.2088E-01  0.6673E-01
    -16.570  0.1881E-01  0.6910E-01
    -16.444  0.1406E-01  0.7086E-01
    -16.319  0.9756E-02  0.7209E-01
    -16.193  0.3094E-02  0.7247E-01
    -16.068  0.1793E-01  0.7472E-01
    -15.942  0.1778E-01  0.7696E-01
    -15.817  0.2112E-02  0.7722E-01
    -15.691  0.9188E-03  0.7734E-01
    -15.566  0.6469E-02  0.7815E-01
    -15.440  0.1457E-01  0.7998E-01
    -15.314  0.1829E-01  0.8228E-01
    -15.189  0.1257E-01  0.8385E-01
    -15.063  0.1068E-01  0.8519E-01
    -14.938  0.8737E-02  0.8629E-01
    -14.812  0.1654E-01  0.8837E-01
    -14.687  0.1711E-01  0.9052E-01
    -14.561  0.1299E-01  0.9215E-01
    -14.436  0.1832E-01  0.9445E-01
    -14.310  0.1549E-01  0.9639E-01
    -14.185  0.1417E-01  0.9817E-01
    -14.059  0.9092E-02  0.9931E-01
    -13.934  0.1722E-01  0.1015E+00
    -13.808  0.1736E-01  0.1037E+00
    -13.682  0.7441E-02  0.1046E+00
    -13.557  0.8969E-02  0.1057E+00
    -13.431  0.1300E-01  0.1073E+00
    -13.306  0.1741E-01  0.1095E+00
    -13.180  0.8731E-02  0.1106E+00
    -13.055  0.6411E-02  0.1114E+00
    -12.929  0.1441E-01  0.1132E+00
    -12.804  0.1386E-01  0.1150E+00
    -12.678  0.1855E-01  0.1173E+00
    -12.553  0.1475E-01  0.1192E+00
    -12.427  0.6057E-02  0.1199E+00
    -12.301  0.1493E-01  0.1218E+00
    -12.176  0.1557E-01  0.1237E+00
    -12.050  0.1692E-01  0.1259E+00
    -11.925  0.1287E-01  0.1275E+00
    -11.799  0.1397E-01  0.1292E+00
    -11.674  0.2314E-01  0.1321E+00
    -11.548  0.9791E-02  0.1334E+00
    -11.423  0.2369E-02  0.1337E+00
    -11.297  0.1492E-01  0.1355E+00
    -11.172  0.3243E-01  0.1396E+00
    -11.046  0.1681E-01  0.1417E+00
    -10.921  0.7877E-02  0.1427E+00
    -10.795  0.8157E-02  0.1437E+00
    -10.669  0.1864E-01  0.1461E+00
    -10.544  0.2072E-01  0.1487E+00
    -10.418  0.1793E-01  0.1509E+00
    -10.293  0.1323E-01  0.1526E+00
    -10.167  0.1478E-01  0.1545E+00
    -10.042  0.2665E-01  0.1578E+00
     -9.916  0.2253E-01  0.1606E+00
     -9.791  0.1974E-01  0.1631E+00
     -9.665  0.3378E-01  0.1673E+00
     -9.540  0.3585E-01  0.1718E+00
     -9.414  0.2603E-01  0.1751E+00
     -9.289  0.1942E-01  0.1776E+00
     -9.163  0.3461E-01  0.1819E+00
     -9.037  0.4234E-01  0.1872E+00
     -8.912  0.3454E-01  0.1915E+00
     -8.786  0.2590E-01  0.1948E+00
     -8.661  0.3793E-01  0.1996E+00
     -8.535  0.4516E-01  0.2052E+00
     -8.410  0.5180E-01  0.2117E+00
     -8.284  0.2853E-01  0.2153E+00
     -8.159  0.3206E-01  0.2193E+00
     -8.033  0.2783E-01  0.2228E+00
     -7.908  0.3271E-01  0.2269E+00
     -7.782  0.2827E-01  0.2305E+00
     -7.656  0.1927E-01  0.2329E+00
     -7.531  0.4106E-01  0.2381E+00
     -7.405  0.2696E-01  0.2414E+00
     -7.280  0.1429E-01  0.2432E+00
     -7.154  0.2461E-01  0.2463E+00
     -7.029  0.2799E-01  0.2498E+00
     -6.903  0.2992E-01  0.2536E+00
     -6.778  0.1975E-01  0.2561E+00
     -6.652  0.2359E-01  0.2590E+00
     -6.527  0.2310E-01  0.2619E+00
     -6.401  0.1920E-01  0.2644E+00
     -6.276  0.1982E-01  0.2668E+00
     -6.150  0.3070E-01  0.2707E+00
     -6.024  0.2970E-01  0.2744E+00
     -5.899  0.1006E-01  0.2757E+00
     -5.773  0.1155E-01  0.2771E+00
     -5.648  0.3193E-01  0.2811E+00
     -5.522  0.2717E-01  0.2846E+00
     -5.397  0.2180E-01  0.2873E+00
     -5.271  0.1983E-01  0.2898E+00
     -5.146  0.1616E-01  0.2918E+00
     -5.020  0.1441E-01  0.2936E+00
     -4.895  0.2009E-01  0.2961E+00
     -4.769  0.2446E-01  0.2992E+00
     -4.643  0.1974E-01  0.3017E+00
     -4.518  0.1740E-01  0.3039E+00
     -4.392  0.8793E-02  0.3050E+00
     -4.267  0.1218E-01  0.3065E+00
     -4.141  0.3119E-01  0.3104E+00
     -4.016  0.1403E-01  0.3122E+00
     -3.890  0.3636E-02  0.3126E+00
     -3.765  0.3390E-02  0.3131E+00
     -3.639  0.5679E-02  0.3138E+00
     -3.514  0.1068E-01  0.3151E+00
     -3.388  0.1264E-01  0.3167E+00
     -3.263  0.4109E-02  0.3172E+00
     -3.137  0.2524E-02  0.3175E+00
     -3.011  0.3650E-02  0.3180E+00
     -2.886  0.8604E-03  0.3181E+00
     -2.760  0.5669E-02  0.3188E+00
     -2.635  0.6581E-02  0.3196E+00
     -2.509  0.6315E-03  0.3197E+00
     -2.384  0.3844E-05  0.3197E+00
     -2.258  0.5128E-05  0.3197E+00
     -2.133  0.4459E-03  0.3198E+00
     -2.007  0.2616E-02  0.3201E+00
     -1.882  0.1308E-02  0.3203E+00
     -1.756  0.4989E-04  0.3203E+00
     -1.631  0.6647E-06  0.3203E+00
     -1.505  0.2043E-03  0.3203E+00
     -1.379  0.4451E-02  0.3209E+00
     -1.254  0.7549E-02  0.3218E+00
     -1.128  0.2092E-02  0.3221E+00
     -1.003  0.4136E-02  0.3226E+00
     -0.877  0.1529E-02  0.3228E+00
     -0.752  0.4765E-02  0.3234E+00
     -0.626  0.2096E-01  0.3260E+00
     -0.501  0.1265E-01  0.3276E+00
     -0.375  0.1095E-01  0.3290E+00
     -0.250  0.2314E-01  0.3319E+00
     -0.124  0.1873E-01  0.3342E+00
      0.002  0.2340E-01  0.3372E+00
      0.127  0.1862E-01  0.3395E+00
      0.253  0.8956E-02  0.3406E+00
      0.378  0.1422E-01  0.3424E+00
      0.504  0.7544E-02  0.3434E+00
      0.629  0.8618E-02  0.3444E+00
      0.755  0.1083E-01  0.3458E+00
      0.880  0.2218E-01  0.3486E+00
      1.006  0.1043E-01  0.3499E+00
      1.131  0.8095E-02  0.3509E+00
      1.257  0.1878E-01  0.3533E+00
      1.382  0.1933E-01  0.3557E+00
      1.508  0.1624E-01  0.3577E+00
      1.634  0.1585E-01  0.3597E+00
      1.759  0.1837E-01  0.3620E+00
      1.885  0.2866E-01  0.3656E+00
      2.010  0.1787E-01  0.3679E+00
      2.136  0.1739E-01  0.3701E+00
      2.261  0.2541E-01  0.3732E+00
      2.387  0.2524E-01  0.3764E+00
      2.512  0.2618E-01  0.3797E+00
      2.638  0.3685E-01  0.3843E+00
      2.763  0.4080E-01  0.3895E+00
      2.889  0.2655E-01  0.3928E+00
      3.014  0.2808E-01  0.3963E+00
      3.140  0.3538E-01  0.4008E+00
      3.266  0.3695E-01  0.4054E+00
      3.391  0.2721E-01  0.4088E+00
      3.517  0.2940E-01  0.4125E+00
      3.642  0.3897E-01  0.4174E+00
      3.768  0.4086E-01  0.4225E+00
      3.893  0.2816E-01  0.4261E+00
      4.019  0.2301E-01  0.4289E+00
      4.144  0.3826E-01  0.4337E+00
      4.270  0.3768E-01  0.4385E+00
      4.395  0.3366E-01  0.4427E+00
      4.521  0.2941E-01  0.4464E+00
      4.647  0.3944E-01  0.4513E+00
      4.772  0.4826E-01  0.4574E+00
      4.898  0.4365E-01  0.4629E+00
      5.023  0.3911E-01  0.4678E+00
      5.149  0.3224E-01  0.4718E+00
      5.274  0.3236E-01  0.4759E+00
      5.400  0.5870E-01  0.4833E+00
      5.525  0.6306E-01  0.4912E+00
      5.651  0.6598E-01  0.4995E+00
      5.776  0.3714E-01  0.5041E+00
      5.902  0.5230E-01  0.5107E+00
      6.027  0.5444E-01  0.5175E+00
      6.153  0.6317E-01  0.5255E+00
      6.279  0.7437E-01  0.5348E+00
      6.404  0.8145E-01  0.5450E+00
      6.530  0.7740E-01  0.5547E+00
      6.655  0.8528E-01  0.5655E+00
      6.781  0.9393E-01  0.5772E+00
      6.906  0.9370E-01  0.5890E+00
      7.032  0.6990E-01  0.5978E+00
      7.157  0.7240E-01  0.6069E+00
      7.283  0.9444E-01  0.6187E+00
      7.408  0.7485E-01  0.6281E+00
      7.534  0.7455E-01  0.6375E+00
      7.660  0.5375E-01  0.6442E+00
      7.785  0.6186E-01  0.6520E+00
      7.911  0.8619E-01  0.6628E+00
      8.036  0.6553E-01  0.6710E+00
      8.162  0.5000E-01  0.6773E+00
      8.287  0.6552E-01  0.6855E+00
      8.413  0.6302E-01  0.6935E+00
      8.538  0.7213E-01  0.7025E+00
      8.664  0.9465E-01  0.7144E+00
      8.789  0.9675E-01  0.7265E+00
      8.915  0.8287E-01  0.7369E+00
      9.040  0.8963E-01  0.7482E+00
      9.166  0.6977E-01  0.7570E+00
      9.292  0.4698E-01  0.7629E+00
      9.417  0.7776E-01  0.7726E+00
      9.543  0.7970E-01  0.7826E+00
      9.668  0.8168E-01  0.7929E+00
      9.794  0.1008E+00  0.8055E+00
      9.919  0.8527E-01  0.8162E+00
     10.045  0.7208E-01  0.8253E+00
     10.170  0.7631E-01  0.8349E+00
     10.296  0.5857E-01  0.8422E+00
     10.421  0.8375E-01  0.8527E+00
     10.547  0.7599E-01  0.8623E+00
     10.672  0.6667E-01  0.8706E+00
     10.798  0.7561E-01  0.8801E+00
     10.924  0.9595E-01  0.8922E+00
     11.049  0.9250E-01  0.9038E+00
     11.175  0.1017E+00  0.9166E+00
     11.300  0.6885E-01  0.9252E+00
     11.426  0.5941E-01  0.9327E+00
     11.551  0.6453E-01  0.9408E+00
     11.677  0.5343E-01  0.9475E+00
     11.802  0.3200E-01  0.9515E+00
     11.928  0.2944E-01  0.9552E+00
     12.053  0.1533E-01  0.9571E+00
     12.179  0.1222E-01  0.9586E+00
     12.305  0.9057E-02  0.9598E+00
     12.430  0.1699E-02  0.9600E+00
     12.556  0.2434E-04  0.9600E+00
     12.681  0.1898E-07  0.9600E+00
     12.807  0.7134E-12  0.9600E+00
     12.932  0.1474E-17  0.9600E+00
     13.058  0.0000E+00  0.9600E+00
     13.183  0.0000E+00  0.9600E+00
     13.309  0.0000E+00  0.9600E+00
     13.434  0.0000E+00  0.9600E+00
     13.560  0.0000E+00  0.9600E+00
     13.685  0.0000E+00  0.9600E+00
     13.811  0.0000E+00  0.9600E+00
     13.937  0.0000E+00  0.9600E+00
