 vasp.6.3.2 27Jun22 (build Dec 22 2022 13:13:19) complex                        
  
 executed on             LinuxIFC date 2023.08.22  23:19:50
 running   48 mpi-ranks, with    1 threads/rank
 distrk:  each k-point on   48 cores,    1 groups
 distr:  one band on NCORE=   1 cores,   48 groups


--------------------------------------------------------------------------------------------------------


 INCAR:
   SYSTEM = Lattice
   ISTART = 0
   ICHARG = 2
   PREC = Accurate
   ENCUT = 450
   LCHARG = .FALSE.
   LWAVE = .FALSE.
   ALGO = Normal
   NELM = 64
   EDIFF = 1E-6
   EDIFFG = -1E-3
   SIGMA = 0.1
   ISMEAR = 0
   ISPIN = 2
   NSW = 128
   IBRION = 2
   POTIM = .5
   ISIF = 2
   GGA = PE
   IVDW = 12

 POTCAR:    PAW_PBE B 06Sep2000                   
 POTCAR:    PAW_PBE C 08Apr2002                   
 -----------------------------------------------------------------------------
|                                                                             |
|           W    W    AA    RRRRR   N    N  II  N    N   GGGG   !!!           |
|           W    W   A  A   R    R  NN   N  II  NN   N  G    G  !!!           |
|           W    W  A    A  R    R  N N  N  II  N N  N  G       !!!           |
|           W WW W  AAAAAA  RRRRR   N  N N  II  N  N N  G  GGG   !            |
|           WW  WW  A    A  R   R   N   NN  II  N   NN  G    G                |
|           W    W  A    A  R    R  N    N  II  N    N   GGGG   !!!           |
|                                                                             |
|     You use a magnetic or noncollinear calculation, but did not specify     |
|     the initial magnetic moment with the MAGMOM tag. Note that a            |
|     default of 1 will be used for all atoms. This ferromagnetic setup       |
|     may break the symmetry of the crystal, in particular it may rule        |
|     out finding an antiferromagnetic solution. Thence, we recommend         |
|     setting the initial magnetic moment manually or verifying carefully     |
|     that this magnetic setup is desired.                                    |
|                                                                             |
 -----------------------------------------------------------------------------

 POTCAR:    PAW_PBE B 06Sep2000                   
   SHA256 =  a32ced30f5ae56fd4d10b4325ff17eb3e4e38ee0f4288bc219fb012fddfa6e97 B/POTCAR              
   COPYR  = (c) Copyright 06Sep2000 Georg Kresse                                                    
   COPYR  = This file is part of the software VASP. Any use, copying, and all other rights are regul
   COPYR  = If you do not have a valid VASP license, you may not use, copy or distribute this file. 
   VRHFIN =B: s2p1                                                                                  
   LEXCH  = PE                                                                                      
   EATOM  =    71.1703 eV,    5.2309 Ry                                                             
                                                                                                    
   TITEL  = PAW_PBE B 06Sep2000                                                                     
   LULTRA =        F    use ultrasoft PP ?                                                          
   IUNSCR =        1    unscreen: 0-lin 1-nonlin 2-no                                               
   RPACOR =    1.200    partial core radius                                                         
   POMASS =   10.811; ZVAL   =    3.000    mass and valenz                                          
   RCORE  =    1.700    outmost cutoff radius                                                       
   RWIGS  =    1.710; RWIGS  =    0.905    wigner-seitz radius (au A)                               
   ENMAX  =  318.614; ENMIN  =  238.960 eV                                                          
   ICORE  =        2    local potential                                                             
   LCOR   =        T    correct aug charges                                                         
   LPAW   =        T    paw PP                                                                      
   EAUG   =  535.514                                                                                
   DEXC   =    0.000                                                                                
   RMAX   =    1.732    core radius for proj-oper                                                   
   RAUG   =    1.300    factor for augmentation sphere                                              
   RDEP   =    1.757    radius for radial grids                                                     
   RDEPT  =    1.436    core radius for aug-charge                                                  
                                                                                                    
   Atomic configuration                                                                             
    4 entries                                                                                       
     n  l   j            E        occ.                                                              
     1  0  0.50      -180.5896   2.0000                                                             
     2  0  0.50        -9.4431   2.0000                                                             
     2  1  0.50        -3.6068   1.0000                                                             
     3  2  1.50        -4.0817   0.0000                                                             
   Description                                                                                      
     l       E           TYP  RCUT    TYP  RCUT                                                     
     0     -9.4430752     23  1.500                                                                 
     0      0.8675899     23  1.500                                                                 
     1     -3.6067955     23  1.700                                                                 
     1      6.1086146     23  1.700                                                                 
     2     -4.0817478      7  1.700                                                                 
  local pseudopotential read in
  partial core-charges read in
  partial kinetic energy density read in
  atomic valenz-charges read in
  non local Contribution for L=           0  read in
    real space projection operators read in
  non local Contribution for L=           0  read in
    real space projection operators read in
  non local Contribution for L=           1  read in
    real space projection operators read in
  non local Contribution for L=           1  read in
    real space projection operators read in
    PAW grid and wavefunctions read in
 
   number of l-projection  operators is LMAX  =           4
   number of lm-projection operators is LMMAX =           8
 
 POTCAR:    PAW_PBE C 08Apr2002                   
   SHA256 =  253f7b50bb8d59471dbedb8285d89021f4a42ed1a2c5d38a03a736e69125dd95 C/POTCAR              
   COPYR  = (c) Copyright 08Apr2002 Georg Kresse                                                    
   COPYR  = This file is part of the software VASP. Any use, copying, and all other rights are regul
   COPYR  = If you do not have a valid VASP license, you may not use, copy or distribute this file. 
   VRHFIN =C: s2p2                                                                                  
   LEXCH  = PE                                                                                      
   EATOM  =   147.1560 eV,   10.8157 Ry                                                             
                                                                                                    
   TITEL  = PAW_PBE C 08Apr2002                                                                     
   LULTRA =        F    use ultrasoft PP ?                                                          
   IUNSCR =        1    unscreen: 0-lin 1-nonlin 2-no                                               
   RPACOR =    1.200    partial core radius                                                         
   POMASS =   12.011; ZVAL   =    4.000    mass and valenz                                          
   RCORE  =    1.500    outmost cutoff radius                                                       
   RWIGS  =    1.630; RWIGS  =    0.863    wigner-seitz radius (au A)                               
   ENMAX  =  400.000; ENMIN  =  300.000 eV                                                          
   ICORE  =        2    local potential                                                             
   LCOR   =        T    correct aug charges                                                         
   LPAW   =        T    paw PP                                                                      
   EAUG   =  644.873                                                                                
   DEXC   =    0.000                                                                                
   RMAX   =    1.529    core radius for proj-oper                                                   
   RAUG   =    1.300    factor for augmentation sphere                                              
   RDEP   =    1.501    radius for radial grids                                                     
   RDEPT  =    1.300    core radius for aug-charge                                                  
                                                                                                    
   Atomic configuration                                                                             
    4 entries                                                                                       
     n  l   j            E        occ.                                                              
     1  0  0.50      -273.3789   2.0000                                                             
     2  0  0.50       -13.7508   2.0000                                                             
     2  1  0.50        -5.2854   2.0000                                                             
     3  2  1.50        -5.4423   0.0000                                                             
   Description                                                                                      
     l       E           TYP  RCUT    TYP  RCUT                                                     
     0    -13.7508458     23  1.200                                                                 
     0     -8.2022199     23  1.200                                                                 
     1     -5.2854383     23  1.500                                                                 
     1     34.0145650     23  1.500                                                                 
     2     -5.4423304      7  1.500                                                                 
  local pseudopotential read in
  partial core-charges read in
  partial kinetic energy density read in
  atomic valenz-charges read in
  non local Contribution for L=           0  read in
    real space projection operators read in
  non local Contribution for L=           0  read in
    real space projection operators read in
  non local Contribution for L=           1  read in
    real space projection operators read in
  non local Contribution for L=           1  read in
    real space projection operators read in
    PAW grid and wavefunctions read in
 
   number of l-projection  operators is LMAX  =           4
   number of lm-projection operators is LMMAX =           8
 
  PAW_PBE B 06Sep2000                   :
 energy of atom  1       EATOM=  -71.1703
 kinetic energy error for atom=    0.0015 (will be added to EATOM!!)
  PAW_PBE C 08Apr2002                   :
 energy of atom  2       EATOM= -147.1560
 kinetic energy error for atom=    0.0116 (will be added to EATOM!!)
 
 
 POSCAR: Graphene-Borophene Hollow 1 with lattice
  positions in direct lattice
  No initial velocities read in
 exchange correlation table for  LEXCH =        8
   RHO(1)=    0.500       N(1)  =     2000
   RHO(2)=  100.500       N(2)  =     4000

 VTST: version 4.2, (08/11/21)

 CHAIN: initializing optimizer
 
 OPT: Using VASP Conjugate-Gradient optimizer
 CHAIN: Read ICHAIN            0
 
 POSCAR: Graphene-Borophene Hollow 1 with lattice
  positions in direct lattice
  No initial velocities read in
 


--------------------------------------------------------------------------------------------------------


 ion  position               nearest neighbor table
   1  0.669  0.000  0.100-   3 1.65   6 1.65   7 1.67   8 1.67   2 1.68
   2  0.331  0.000  0.100-   5 1.65   4 1.65   7 1.67   8 1.67   1 1.68
   3  0.000  0.331  0.100-   5 1.65   1 1.65   8 1.67   7 1.67   4 1.68
   4  0.000  0.669  0.100-   2 1.65   6 1.65   8 1.67   7 1.67   3 1.68
   5  0.331  0.331  0.100-   2 1.65   3 1.65   7 1.67   8 1.67   6 1.68
   6  0.669  0.669  0.100-   1 1.65   4 1.65   7 1.67   8 1.67   5 1.68
   7  0.667  0.333  0.099-   5 1.67   6 1.67   2 1.67   1 1.67   4 1.67   3 1.67
   8  0.333  0.667  0.101-   5 1.67   6 1.67   3 1.67   4 1.67   1 1.67   2 1.67
   9  0.278  0.222  0.470-  12 1.44  14 1.44  10 1.44
  10  0.444  0.056  0.470-  11 1.44  13 1.44   9 1.44
  11  0.278  0.722  0.470-  10 1.44  16 1.44  12 1.44
  12  0.444  0.556  0.470-   9 1.44  15 1.44  11 1.44
  13  0.778  0.222  0.470-  16 1.44  10 1.44  14 1.44
  14  0.944  0.056  0.470-  15 1.44   9 1.44  13 1.44
  15  0.778  0.722  0.470-  14 1.44  12 1.44  16 1.44
  16  0.944  0.556  0.470-  13 1.44  11 1.44  15 1.44
 
  LATTYP: Found a hexagonal cell.
 ALAT       =     4.9820000000
 C/A-ratio  =     3.0108390205
  
  Lattice vectors:
  
 A1 = (   4.3145385617,   2.4910000000,   0.0000000000)
 A2 = (  -4.3145385617,   2.4910000000,   0.0000000000)
 A3 = (   0.0000000000,   0.0000000000,  15.0000000000)


Analysis of symmetry for initial positions (statically):
=====================================================================
 Subroutine PRICEL returns:
 Original cell was already a primitive cell.
 

 Routine SETGRP: Setting up the symmetry group for a 
 hexagonal supercell.


 Subroutine GETGRP returns: Found  2 space group operations
 (whereof  2 operations were pure point group operations)
 out of a pool of 24 trial point group operations.


The static configuration has the point symmetry C_1h.


Analysis of symmetry for dynamics (positions and initial velocities):
=====================================================================
 Subroutine PRICEL returns:
 Original cell was already a primitive cell.
 

 Routine SETGRP: Setting up the symmetry group for a 
 hexagonal supercell.


 Subroutine GETGRP returns: Found  2 space group operations
 (whereof  2 operations were pure point group operations)
 out of a pool of 24 trial point group operations.


The dynamic configuration has the point symmetry C_1h.


Analysis of structural, dynamic, and magnetic symmetry:
=====================================================================
 Subroutine PRICEL returns:
 Original cell was already a primitive cell.
 

 Routine SETGRP: Setting up the symmetry group for a 
 hexagonal supercell.


 Subroutine GETGRP returns: Found  2 space group operations
 (whereof  2 operations were pure point group operations)
 out of a pool of 24 trial point group operations.


The overall configuration has the point symmetry C_1h.


 Subroutine INISYM returns: Found  2 space group operations
 (whereof  2 operations are pure point group operations),
 and found     1 'primitive' translations


----------------------------------------------------------------------------------------

                                     Primitive cell                                     

  volume of cell :     322.4255

  direct lattice vectors                    reciprocal lattice vectors
     4.314538562  2.491000000  0.000000000     0.115887248  0.200722601  0.000000000
    -4.314538562  2.491000000  0.000000000    -0.115887248  0.200722601  0.000000000
     0.000000000  0.000000000 15.000000000     0.000000000  0.000000000  0.066666667

  length of vectors
     4.982000000  4.982000000 15.000000000     0.231774496  0.231774496  0.066666667

  position of ions in fractional coordinates (direct lattice)
     0.668886888  1.000000000  0.100000000
     0.331112112  1.000000000  0.100000000
     1.000000000  0.331112112  0.100000000
     1.000000000  0.668886888  0.100000000
     0.331112112  0.331112112  0.100000000
     0.668886888  0.668886888  0.100000000
     0.666666000  0.333333000  0.099221887
     0.333333000  0.666666000  0.100778113
     0.277777111  0.222221889  0.469600000
     0.444444111  0.055554889  0.469600000
     0.277777111  0.722221889  0.469600000
     0.444444111  0.555554889  0.469600000
     0.777777111  0.222221889  0.469600000
     0.944444111  0.055554889  0.469600000
     0.777777111  0.722221889  0.469600000
     0.944444111  0.555554889  0.469600000

  ion indices of the primitive-cell ions
   primitive index   ion index
                 1           1
                 2           2
                 3           3
                 4           4
                 5           5
                 6           6
                 7           7
                 8           8
                 9           9
                10          10
                11          11
                12          12
                13          13
                14          14
                15          15
                16          16

----------------------------------------------------------------------------------------

 
 
 KPOINTS: k-points                                

Automatic generation of k-mesh.
 Grid dimensions read from file:
 generate k-points for:   12   12    1

 Generating k-lattice:

  Cartesian coordinates                     Fractional coordinates (reciprocal lattice)
     0.009657271  0.016726883  0.000000000     0.083333333 -0.000000000  0.000000000
    -0.009657271  0.016726883  0.000000000    -0.000000000  0.083333333  0.000000000
     0.000000000  0.000000000  0.066666667     0.000000000  0.000000000  1.000000000

  Length of vectors
     0.019314541  0.019314541  0.066666667

  Shift w.r.t. Gamma in fractional coordinates (k-lattice)
     0.000000000  0.000000000  0.000000000

 
 Subroutine IBZKPT returns following result:
 ===========================================
 
 Found     43 irreducible k-points:
 
 Following reciprocal coordinates:
            Coordinates               Weight
  0.000000  0.000000  0.000000      1.000000
  0.083333 -0.000000  0.000000      4.000000
 -0.083333  0.083333  0.000000      2.000000
  0.166667 -0.000000  0.000000      4.000000
 -0.166667  0.166667  0.000000      2.000000
  0.250000 -0.000000  0.000000      4.000000
 -0.250000  0.250000  0.000000      2.000000
  0.333333 -0.000000  0.000000      4.000000
 -0.333333  0.333333  0.000000      2.000000
  0.416667 -0.000000  0.000000      4.000000
 -0.416667  0.416667  0.000000      2.000000
  0.500000 -0.000000  0.000000      2.000000
  0.500000  0.500000  0.000000      1.000000
  0.083333  0.083333  0.000000      2.000000
 -0.083333  0.166667  0.000000      4.000000
  0.166667  0.083333  0.000000      4.000000
 -0.083333  0.250000  0.000000      4.000000
 -0.250000  0.166667  0.000000      4.000000
  0.250000  0.083333  0.000000      4.000000
 -0.083333  0.333333  0.000000      4.000000
 -0.333333  0.250000  0.000000      4.000000
  0.333333  0.083333  0.000000      4.000000
 -0.083333  0.416667  0.000000      4.000000
 -0.416667  0.333333  0.000000      4.000000
  0.416667  0.083333  0.000000      4.000000
 -0.083333  0.500000  0.000000      4.000000
  0.500000  0.416667  0.000000      4.000000
  0.166667  0.166667  0.000000      2.000000
 -0.166667  0.333333  0.000000      4.000000
  0.250000  0.166667  0.000000      4.000000
 -0.166667  0.416667  0.000000      4.000000
 -0.416667  0.250000  0.000000      4.000000
  0.333333  0.166667  0.000000      4.000000
 -0.166667  0.500000  0.000000      4.000000
  0.500000  0.333333  0.000000      4.000000
  0.416667  0.166667  0.000000      4.000000
  0.416667  0.416667  0.000000      2.000000
  0.250000  0.250000  0.000000      2.000000
 -0.250000  0.500000  0.000000      4.000000
  0.333333  0.250000  0.000000      4.000000
 -0.250000 -0.416667  0.000000      4.000000
  0.416667  0.333333  0.000000      4.000000
  0.333333  0.333333  0.000000      2.000000
 
 Following cartesian coordinates:
            Coordinates               Weight
  0.000000  0.000000  0.000000      1.000000
  0.009657  0.016727  0.000000      4.000000
 -0.019315 -0.000000  0.000000      2.000000
  0.019315  0.033454  0.000000      4.000000
 -0.038629  0.000000  0.000000      2.000000
  0.028972  0.050181  0.000000      4.000000
 -0.057944  0.000000  0.000000      2.000000
  0.038629  0.066908  0.000000      4.000000
 -0.077258 -0.000000  0.000000      2.000000
  0.048286  0.083634  0.000000      4.000000
 -0.096573  0.000000  0.000000      2.000000
  0.057944  0.100361  0.000000      2.000000
  0.000000  0.200723  0.000000      1.000000
  0.000000  0.033454  0.000000      2.000000
 -0.028972  0.016727  0.000000      4.000000
  0.009657  0.050181  0.000000      4.000000
 -0.038629  0.033454  0.000000      4.000000
 -0.048286 -0.016727  0.000000      4.000000
  0.019315  0.066908  0.000000      4.000000
 -0.048286  0.050181  0.000000      4.000000
 -0.067601 -0.016727  0.000000      4.000000
  0.028972  0.083634  0.000000      4.000000
 -0.057944  0.066908  0.000000      4.000000
 -0.086915 -0.016727  0.000000      4.000000
  0.038629  0.100361  0.000000      4.000000
 -0.067601  0.083634  0.000000      4.000000
  0.009657  0.183996  0.000000      4.000000
 -0.000000  0.066908  0.000000      2.000000
 -0.057944  0.033454  0.000000      4.000000
  0.009657  0.083634  0.000000      4.000000
 -0.067601  0.050181  0.000000      4.000000
 -0.077258 -0.033454  0.000000      4.000000
  0.019315  0.100361  0.000000      4.000000
 -0.077258  0.066908  0.000000      4.000000
  0.019315  0.167269  0.000000      4.000000
  0.028972  0.117088  0.000000      4.000000
  0.000000  0.167269  0.000000      2.000000
  0.000000  0.100361  0.000000      2.000000
 -0.086915  0.050181  0.000000      4.000000
  0.009657  0.117088  0.000000      4.000000
  0.019315 -0.133815  0.000000      4.000000
  0.009657  0.150542  0.000000      4.000000
 -0.000000  0.133815  0.000000      2.000000
 


--------------------------------------------------------------------------------------------------------




 Dimension of arrays:
   k-points           NKPTS =     43   k-points in BZ     NKDIM =     43   number of bands    NBANDS=     48
   number of dos      NEDOS =    301   number of ions     NIONS =     16
   non local maximal  LDIM  =      4   non local SUM 2l+1 LMDIM =      8
   total plane-waves  NPLWV = 139968
   max r-space proj   IRMAX =      1   max aug-charges    IRDMAX=   6968
   dimension x,y,z NGX =    36 NGY =   36 NGZ =  108
   dimension x,y,z NGXF=    72 NGYF=   72 NGZF=  216
   support grid    NGXF=    72 NGYF=   72 NGZF=  216
   ions per type =               8   8
   NGX,Y,Z   is equivalent  to a cutoff of  12.01, 12.01, 11.97 a.u.
   NGXF,Y,Z  is equivalent  to a cutoff of  24.03, 24.03, 23.94 a.u.

 SYSTEM =  Lattice                                 
 POSCAR =  Graphene-Borophene Hollow 1 with lattice

 Startparameter for this run:
   NWRITE =      2    write-flag & timer
   PREC   = accura    normal or accurate (medium, high low for compatibility)
   ISTART =      0    job   : 0-new  1-cont  2-samecut
   ICHARG =      2    charge: 1-file 2-atom 10-const
   ISPIN  =      2    spin polarized calculation?
   LNONCOLLINEAR =      F non collinear calculations
   LSORBIT =      F    spin-orbit coupling
   INIWAV =      1    electr: 0-lowe 1-rand  2-diag
   LASPH  =      F    aspherical Exc in radial PAW
 Electronic Relaxation 1
   ENCUT  =  450.0 eV  33.07 Ry    5.75 a.u.   8.62  8.62 25.95*2*pi/ulx,y,z
   ENINI  =  450.0     initial cutoff
   ENAUG  =  644.9 eV  augmentation charge cutoff
   NELM   =     64;   NELMIN=  2; NELMDL= -5     # of ELM steps 
   EDIFF  = 0.1E-05   stopping-criterion for ELM
   LREAL  =      F    real-space projection
   NLSPLINE    = F    spline interpolate recip. space projectors
   LCOMPAT=      F    compatible to vasp.4.4
   GGA_COMPAT  = T    GGA compatible to vasp.4.4-vasp.4.6
   LMAXPAW     = -100 max onsite density
   LMAXMIX     =    2 max onsite mixed and CHGCAR
   VOSKOWN=      0    Vosko Wilk Nusair interpolation
   ROPT   =    0.00000   0.00000
 Ionic relaxation
   EDIFFG = -.1E-02   stopping-criterion for IOM
   NSW    =    128    number of steps for IOM
   NBLOCK =      1;   KBLOCK =    128    inner block; outer block 
   IBRION =      2    ionic relax: 0-MD 1-quasi-New 2-CG
   NFREE  =      1    steps in history (QN), initial steepest desc. (CG)
   ISIF   =      2    stress and relaxation
   IWAVPR =     11    prediction:  0-non 1-charg 2-wave 3-comb
   ISYM   =      2    0-nonsym 1-usesym 2-fastsym
   LCORR  =      T    Harris-Foulkes like correction to forces

   POTIM  = 0.5000    time-step for ionic-motion
   TEIN   =    0.0    initial temperature
   TEBEG  =    0.0;   TEEND  =   0.0 temperature during run
   SMASS  =  -3.00    Nose mass-parameter (am)
   estimated Nose-frequenzy (Omega)   =  0.10E-29 period in steps = 0.13E+47 mass=  -0.567E-27a.u.
   SCALEE = 1.0000    scale energy and forces
   NPACO  =    256;   APACO  = 10.0  distance and # of slots for P.C.
   PSTRESS=    0.0 pullay stress

  Mass of Ions in am
   POMASS =  10.81 12.01
  Ionic Valenz
   ZVAL   =   3.00  4.00
  Atomic Wigner-Seitz radii
   RWIGS  =  -1.00 -1.00
  virtual crystal weights 
   VCA    =   1.00  1.00
   NELECT =      56.0000    total number of electrons
   NUPDOWN=      -1.0000    fix difference up-down

 DOS related values:
   EMIN   =  10.00;   EMAX   =-10.00  energy-range for DOS
   EFERMI =   0.00
   ISMEAR =     0;   SIGMA  =   0.10  broadening in eV -4-tet -1-fermi 0-gaus

 Electronic relaxation 2 (details)
   IALGO  =     38    algorithm
   LDIAG  =      T    sub-space diagonalisation (order eigenvalues)
   LSUBROT=      F    optimize rotation matrix (better conditioning)
   TURBO    =      0    0=normal 1=particle mesh
   IRESTART =      0    0=no restart 2=restart with 2 vectors
   NREBOOT  =      0    no. of reboots
   NMIN     =      0    reboot dimension
   EREF     =   0.00    reference energy to select bands
   IMIX   =      4    mixing-type and parameters
     AMIX     =   0.40;   BMIX     =  1.00
     AMIX_MAG =   1.60;   BMIX_MAG =  1.00
     AMIN     =   0.10
     WC   =   100.;   INIMIX=   1;  MIXPRE=   1;  MAXMIX= -45

 Intra band minimization:
   WEIMIN = 0.0010     energy-eigenvalue tresh-hold
   EBREAK =  0.52E-08  absolut break condition
   DEPER  =   0.30     relativ break condition  

   TIME   =   0.40     timestep for ELM

  volume/ion in A,a.u.               =      20.15       135.99
  Fermi-wavevector in a.u.,A,eV,Ry     =   0.913400  1.726076 11.351337  0.834300
  Thomas-Fermi vector in A             =   2.037907
 
 Write flags
   LWAVE        =      F    write WAVECAR
   LDOWNSAMPLE  =      F    k-point downsampling of WAVECAR
   LCHARG       =      F    write CHGCAR
   LVTOT        =      F    write LOCPOT, total local potential
   LVHAR        =      F    write LOCPOT, Hartree potential only
   LELF         =      F    write electronic localiz. function (ELF)
   LORBIT       =      0    0 simple, 1 ext, 2 COOP (PROOUT), +10 PAW based schemes


 Dipole corrections
   LMONO  =      F    monopole corrections only (constant potential shift)
   LDIPOL =      F    correct potential (dipole corrections)
   IDIPOL =      0    1-x, 2-y, 3-z, 4-all directions 
   EPSILON=  1.0000000 bulk dielectric constant

 Exchange correlation treatment:
   GGA     =    PE    GGA type
   LEXCH   =     8    internal setting for exchange type
   LIBXC   =     F    Libxc                    
   VOSKOWN =     0    Vosko Wilk Nusair interpolation
   LHFCALC =     F    Hartree Fock is set to
   LHFONE  =     F    Hartree Fock one center treatment
   AEXX    =    0.0000 exact exchange contribution

 Linear response parameters
   LEPSILON=     F    determine dielectric tensor
   LRPA    =     F    only Hartree local field effects (RPA)
   LNABLA  =     F    use nabla operator in PAW spheres
   LVEL    =     F    velocity operator in full k-point grid
   CSHIFT  =0.1000    complex shift for real part using Kramers Kronig
   OMEGAMAX=  -1.0    maximum frequency
   DEG_THRESHOLD= 0.2000000E-02 threshold for treating states as degnerate
   RTIME   =   -0.100 relaxation time in fs
  (WPLASMAI=    0.000 imaginary part of plasma frequency in eV, 0.658/RTIME)
   DFIELD  = 0.0000000 0.0000000 0.0000000 field for delta impulse in time
 
  Optional k-point grid parameters
   LKPOINTS_OPT  =     F    use optional k-point grid
   KPOINTS_OPT_MODE=     1    mode for optional k-point grid
 
 Orbital magnetization related:
   ORBITALMAG=     F  switch on orbital magnetization
   LCHIMAG   =     F  perturbation theory with respect to B field
   DQ        =  0.001000  dq finite difference perturbation B field
   LLRAUG    =     F  two centre corrections for induced B field



--------------------------------------------------------------------------------------------------------


 conjugate gradient relaxation of ions
 charge density and potential will be updated during run
 spin polarized calculation
 Variant of blocked Davidson
 Davidson routine will perform the subspace rotation
 perform sub-space diagonalisation
    after iterative eigenvector-optimisation
 modified Broyden-mixing scheme, WC =      100.0
 initial mixing is a Kerker type mixing with AMIX =  0.4000 and BMIX =      1.0000
 Hartree-type preconditioning will be used
 using additional bands           20
 reciprocal scheme for non local part
 use partial core corrections
 calculate Harris-corrections to forces 
   (improved forces if not selfconsistent)
 use gradient corrections 
 use of overlap-Matrix (Vanderbilt PP)
 Gauss-broadening in eV      SIGMA  =   0.10


--------------------------------------------------------------------------------------------------------


  energy-cutoff  :      450.00
  volume of cell :      322.43
      direct lattice vectors                 reciprocal lattice vectors
     4.314538562  2.491000000  0.000000000     0.115887248  0.200722601  0.000000000
    -4.314538562  2.491000000  0.000000000    -0.115887248  0.200722601  0.000000000
     0.000000000  0.000000000 15.000000000     0.000000000  0.000000000  0.066666667

  length of vectors
     4.982000000  4.982000000 15.000000000     0.231774496  0.231774496  0.066666667


 
 k-points in units of 2pi/SCALE and weight: k-points                                
   0.00000000  0.00000000  0.00000000       0.007
   0.00965727  0.01672688  0.00000000       0.028
  -0.01931454 -0.00000000  0.00000000       0.014
   0.01931454  0.03345377  0.00000000       0.028
  -0.03862908  0.00000000  0.00000000       0.014
   0.02897181  0.05018065  0.00000000       0.028
  -0.05794362  0.00000000  0.00000000       0.014
   0.03862908  0.06690753  0.00000000       0.028
  -0.07725817 -0.00000000  0.00000000       0.014
   0.04828635  0.08363442  0.00000000       0.028
  -0.09657271  0.00000000  0.00000000       0.014
   0.05794362  0.10036130  0.00000000       0.014
   0.00000000  0.20072260  0.00000000       0.007
   0.00000000  0.03345377  0.00000000       0.014
  -0.02897181  0.01672688  0.00000000       0.028
   0.00965727  0.05018065  0.00000000       0.028
  -0.03862908  0.03345377  0.00000000       0.028
  -0.04828635 -0.01672688  0.00000000       0.028
   0.01931454  0.06690753  0.00000000       0.028
  -0.04828635  0.05018065  0.00000000       0.028
  -0.06760089 -0.01672688  0.00000000       0.028
   0.02897181  0.08363442  0.00000000       0.028
  -0.05794362  0.06690753  0.00000000       0.028
  -0.08691544 -0.01672688  0.00000000       0.028
   0.03862908  0.10036130  0.00000000       0.028
  -0.06760089  0.08363442  0.00000000       0.028
   0.00965727  0.18399572  0.00000000       0.028
  -0.00000000  0.06690753  0.00000000       0.014
  -0.05794362  0.03345377  0.00000000       0.028
   0.00965727  0.08363442  0.00000000       0.028
  -0.06760089  0.05018065  0.00000000       0.028
  -0.07725817 -0.03345377  0.00000000       0.028
   0.01931454  0.10036130  0.00000000       0.028
  -0.07725817  0.06690753  0.00000000       0.028
   0.01931454  0.16726883  0.00000000       0.028
   0.02897181  0.11708818  0.00000000       0.028
   0.00000000  0.16726883  0.00000000       0.014
   0.00000000  0.10036130  0.00000000       0.014
  -0.08691544  0.05018065  0.00000000       0.028
   0.00965727  0.11708818  0.00000000       0.028
   0.01931454 -0.13381507  0.00000000       0.028
   0.00965727  0.15054195  0.00000000       0.028
  -0.00000000  0.13381507  0.00000000       0.014
 
 k-points in reciprocal lattice and weights: k-points                                
   0.00000000  0.00000000  0.00000000       0.007
   0.08333333 -0.00000000  0.00000000       0.028
  -0.08333333  0.08333333  0.00000000       0.014
   0.16666667 -0.00000000  0.00000000       0.028
  -0.16666667  0.16666667  0.00000000       0.014
   0.25000000 -0.00000000  0.00000000       0.028
  -0.25000000  0.25000000  0.00000000       0.014
   0.33333333 -0.00000000  0.00000000       0.028
  -0.33333333  0.33333333  0.00000000       0.014
   0.41666667 -0.00000000  0.00000000       0.028
  -0.41666667  0.41666667  0.00000000       0.014
   0.50000000 -0.00000000  0.00000000       0.014
   0.50000000  0.50000000  0.00000000       0.007
   0.08333333  0.08333333  0.00000000       0.014
  -0.08333333  0.16666667  0.00000000       0.028
   0.16666667  0.08333333  0.00000000       0.028
  -0.08333333  0.25000000  0.00000000       0.028
  -0.25000000  0.16666667  0.00000000       0.028
   0.25000000  0.08333333  0.00000000       0.028
  -0.08333333  0.33333333  0.00000000       0.028
  -0.33333333  0.25000000  0.00000000       0.028
   0.33333333  0.08333333  0.00000000       0.028
  -0.08333333  0.41666667  0.00000000       0.028
  -0.41666667  0.33333333  0.00000000       0.028
   0.41666667  0.08333333  0.00000000       0.028
  -0.08333333  0.50000000  0.00000000       0.028
   0.50000000  0.41666667  0.00000000       0.028
   0.16666667  0.16666667  0.00000000       0.014
  -0.16666667  0.33333333  0.00000000       0.028
   0.25000000  0.16666667  0.00000000       0.028
  -0.16666667  0.41666667  0.00000000       0.028
  -0.41666667  0.25000000  0.00000000       0.028
   0.33333333  0.16666667  0.00000000       0.028
  -0.16666667  0.50000000  0.00000000       0.028
   0.50000000  0.33333333  0.00000000       0.028
   0.41666667  0.16666667  0.00000000       0.028
   0.41666667  0.41666667  0.00000000       0.014
   0.25000000  0.25000000  0.00000000       0.014
  -0.25000000  0.50000000  0.00000000       0.028
   0.33333333  0.25000000  0.00000000       0.028
  -0.25000000 -0.41666667  0.00000000       0.028
   0.41666667  0.33333333  0.00000000       0.028
   0.33333333  0.33333333  0.00000000       0.014
 
 position of ions in fractional coordinates (direct lattice) 
   0.66888689  0.00000000  0.10000000
   0.33111211  0.00000000  0.10000000
   0.00000000  0.33111211  0.10000000
   0.00000000  0.66888689  0.10000000
   0.33111211  0.33111211  0.10000000
   0.66888689  0.66888689  0.10000000
   0.66666600  0.33333300  0.09922189
   0.33333300  0.66666600  0.10077811
   0.27777711  0.22222189  0.46960000
   0.44444411  0.05555489  0.46960000
   0.27777711  0.72222189  0.46960000
   0.44444411  0.55555489  0.46960000
   0.77777711  0.22222189  0.46960000
   0.94444411  0.05555489  0.46960000
   0.77777711  0.72222189  0.46960000
   0.94444411  0.55555489  0.46960000
 
 position of ions in cartesian coordinates  (Angst):
   2.88593827  1.66619724  1.50000000
   1.42859598  0.82480027  1.50000000
  -1.42859598  0.82480027  1.50000000
  -2.88593827  1.66619724  1.50000000
  -0.00000000  1.64960054  1.50000000
   0.00000000  3.33239448  1.50000000
   1.43817808  2.49099751  1.48832830
  -1.43817808  2.49099751  1.51167170
   0.23969515  1.24549751  7.04400000
   1.67787755  1.24549751  7.04400000
  -1.91757413  2.49099751  7.04400000
  -0.47939174  2.49099751  7.04400000
   2.39696443  2.49099751  7.04400000
   3.83514683  2.49099751  7.04400000
   0.23969515  3.73649751  7.04400000
   1.67787755  3.73649751  7.04400000
 


--------------------------------------------------------------------------------------------------------


 k-point   1 :   0.0000 0.0000 0.0000  plane waves:    7005
 k-point   2 :   0.0833-0.0000 0.0000  plane waves:    6997
 k-point   3 :  -0.0833 0.0833 0.0000  plane waves:    6997
 k-point   4 :   0.1667-0.0000 0.0000  plane waves:    7019
 k-point   5 :  -0.1667 0.1667 0.0000  plane waves:    7019
 k-point   6 :   0.2500-0.0000 0.0000  plane waves:    6999
 k-point   7 :  -0.2500 0.2500 0.0000  plane waves:    6999
 k-point   8 :   0.3333-0.0000 0.0000  plane waves:    6995
 k-point   9 :  -0.3333 0.3333 0.0000  plane waves:    6995
 k-point  10 :   0.4167-0.0000 0.0000  plane waves:    6983
 k-point  11 :  -0.4167 0.4167 0.0000  plane waves:    6983
 k-point  12 :   0.5000-0.0000 0.0000  plane waves:    6978
 k-point  13 :   0.5000 0.5000 0.0000  plane waves:    6978
 k-point  14 :   0.0833 0.0833 0.0000  plane waves:    7001
 k-point  15 :  -0.0833 0.1667 0.0000  plane waves:    7001
 k-point  16 :   0.1667 0.0833 0.0000  plane waves:    7009
 k-point  17 :  -0.0833 0.2500 0.0000  plane waves:    7009
 k-point  18 :  -0.2500 0.1667 0.0000  plane waves:    7009
 k-point  19 :   0.2500 0.0833 0.0000  plane waves:    7003
 k-point  20 :  -0.0833 0.3333 0.0000  plane waves:    7003
 k-point  21 :  -0.3333 0.2500 0.0000  plane waves:    7003
 k-point  22 :   0.3333 0.0833 0.0000  plane waves:    6985
 k-point  23 :  -0.0833 0.4167 0.0000  plane waves:    6985
 k-point  24 :  -0.4167 0.3333 0.0000  plane waves:    6985
 k-point  25 :   0.4167 0.0833 0.0000  plane waves:    6972
 k-point  26 :  -0.0833 0.5000 0.0000  plane waves:    6972
 k-point  27 :   0.5000 0.4167 0.0000  plane waves:    6972
 k-point  28 :   0.1667 0.1667 0.0000  plane waves:    7005
 k-point  29 :  -0.1667 0.3333 0.0000  plane waves:    7005
 k-point  30 :   0.2500 0.1667 0.0000  plane waves:    6990
 k-point  31 :  -0.1667 0.4167 0.0000  plane waves:    6990
 k-point  32 :  -0.4167 0.2500 0.0000  plane waves:    6990
 k-point  33 :   0.3333 0.1667 0.0000  plane waves:    6980
 k-point  34 :  -0.1667 0.5000 0.0000  plane waves:    6980
 k-point  35 :   0.5000 0.3333 0.0000  plane waves:    6980
 k-point  36 :   0.4167 0.1667 0.0000  plane waves:    6960
 k-point  37 :   0.4167 0.4167 0.0000  plane waves:    6960
 k-point  38 :   0.2500 0.2500 0.0000  plane waves:    6967
 k-point  39 :  -0.2500 0.5000 0.0000  plane waves:    6967
 k-point  40 :   0.3333 0.2500 0.0000  plane waves:    6963
 k-point  41 :  -0.2500-0.4167 0.0000  plane waves:    6963
 k-point  42 :   0.4167 0.3333 0.0000  plane waves:    6963
 k-point  43 :   0.3333 0.3333 0.0000  plane waves:    6948

 maximum and minimum number of plane-waves per node :      7019     6948

 maximum number of plane-waves:      7019
 maximum index in each direction: 
   IXMAX=    9   IYMAX=    9   IZMAX=   25
   IXMIN=   -9   IYMIN=   -9   IZMIN=  -25


 serial   3D FFT for wavefunctions
 parallel 3D FFT for charge:
    minimum data exchange during FFTs selected (reduces bandwidth)


 total amount of memory used by VASP MPI-rank0    95952. kBytes
=======================================================================

   base      :      30000. kBytes
   nonl-proj :      40642. kBytes
   fftplans  :       1560. kBytes
   grid      :      13745. kBytes
   one-center:         98. kBytes
   wavefun   :       9907. kBytes
 
     INWAV:  cpu time      0.0000: real time      0.0000
 Broyden mixing: mesh for mixing (old mesh)
   NGX = 17   NGY = 17   NGZ = 51
  (NGX  = 72   NGY  = 72   NGZ  =216)
  gives a total of  14739 points

 initial charge density was supplied:
 charge density of overlapping atoms calculated
 number of electron      56.0000000 magnetization      16.0000000
 keeping initial charge density in first step


--------------------------------------------------------------------------------------------------------


 Maximum index for augmentation-charges          386 (set IRDMAX)


--------------------------------------------------------------------------------------------------------


 First call to EWALD:  gamma=   0.258
 Maximum number of real-space cells 4x 4x 2
 Maximum number of reciprocal cells 2x 2x 5

    FEWALD:  cpu time      0.0016: real time      0.0016


--------------------------------------- Iteration      1(   1)  ---------------------------------------


    POTLOK:  cpu time      0.0399: real time      0.0412
    SETDIJ:  cpu time      0.0039: real time      0.0039
     EDDAV:  cpu time      3.2668: real time      3.2916
       DOS:  cpu time      0.0019: real time      0.0023
    --------------------------------------------
      LOOP:  cpu time      3.3124: real time      3.3390

 eigenvalue-minimisations  :  8256
 total energy-change (2. order) : 0.1860704E+03  (-0.2534327E+04)
 number of electron      56.0000000 magnetization      16.0000000
 augmentation part       56.0000000 magnetization      16.0000000

 Free energy of the ion-electron system (eV)
  ---------------------------------------------------
  alpha Z        PSCENC =        60.39793799
  Ewald energy   TEWEN  =      1864.68439628
  -Hartree energ DENC   =     -3279.19629854
  -exchange      EXHF   =         0.00000000
  -V(xc)+E(xc)   XCENC  =       163.41445449
  PAW double counting   =      1214.24570090    -1211.68112031
  entropy T*S    EENTRO =        -0.01888602
  eigenvalues    EBANDS =      -372.28130382
  atomic energy  EATOM  =      1746.50554237
  Solvation  Ediel_sol  =         0.00000000
  ---------------------------------------------------
  free energy    TOTEN  =       186.07042334 eV

  energy without entropy =      186.08930936  energy(sigma->0) =      186.07986635


--------------------------------------------------------------------------------------------------------




--------------------------------------- Iteration      1(   2)  ---------------------------------------


     EDDAV:  cpu time      5.2095: real time      5.2512
       DOS:  cpu time      0.0010: real time      0.0010
    --------------------------------------------
      LOOP:  cpu time      5.2105: real time      5.2522

 eigenvalue-minimisations  : 12768
 total energy-change (2. order) :-0.3042238E+03  (-0.3034243E+03)
 number of electron      56.0000000 magnetization      16.0000000
 augmentation part       56.0000000 magnetization      16.0000000

 Free energy of the ion-electron system (eV)
  ---------------------------------------------------
  alpha Z        PSCENC =        60.39793799
  Ewald energy   TEWEN  =      1864.68439628
  -Hartree energ DENC   =     -3279.19629854
  -exchange      EXHF   =         0.00000000
  -V(xc)+E(xc)   XCENC  =       163.41445449
  PAW double counting   =      1214.24570090    -1211.68112031
  entropy T*S    EENTRO =        -0.01220383
  eigenvalues    EBANDS =      -676.51179900
  atomic energy  EATOM  =      1746.50554237
  Solvation  Ediel_sol  =         0.00000000
  ---------------------------------------------------
  free energy    TOTEN  =      -118.15338964 eV

  energy without entropy =     -118.14118581  energy(sigma->0) =     -118.14728773


--------------------------------------------------------------------------------------------------------




--------------------------------------- Iteration      1(   3)  ---------------------------------------


     EDDAV:  cpu time      5.9661: real time      6.0127
       DOS:  cpu time      0.0009: real time      0.0009
    --------------------------------------------
      LOOP:  cpu time      5.9670: real time      6.0136

 eigenvalue-minimisations  : 13920
 total energy-change (2. order) :-0.9712888E+01  (-0.9685674E+01)
 number of electron      56.0000000 magnetization      16.0000000
 augmentation part       56.0000000 magnetization      16.0000000

 Free energy of the ion-electron system (eV)
  ---------------------------------------------------
  alpha Z        PSCENC =        60.39793799
  Ewald energy   TEWEN  =      1864.68439628
  -Hartree energ DENC   =     -3279.19629854
  -exchange      EXHF   =         0.00000000
  -V(xc)+E(xc)   XCENC  =       163.41445449
  PAW double counting   =      1214.24570090    -1211.68112031
  entropy T*S    EENTRO =        -0.01240513
  eigenvalues    EBANDS =      -686.22448539
  atomic energy  EATOM  =      1746.50554237
  Solvation  Ediel_sol  =         0.00000000
  ---------------------------------------------------
  free energy    TOTEN  =      -127.86627734 eV

  energy without entropy =     -127.85387221  energy(sigma->0) =     -127.86007478


--------------------------------------------------------------------------------------------------------




--------------------------------------- Iteration      1(   4)  ---------------------------------------


     EDDAV:  cpu time      5.5014: real time      5.5453
       DOS:  cpu time      0.0010: real time      0.0010
    --------------------------------------------
      LOOP:  cpu time      5.5024: real time      5.5463

 eigenvalue-minimisations  : 13056
 total energy-change (2. order) :-0.2956719E-01  (-0.2956471E-01)
 number of electron      56.0000000 magnetization      16.0000000
 augmentation part       56.0000000 magnetization      16.0000000

 Free energy of the ion-electron system (eV)
  ---------------------------------------------------
  alpha Z        PSCENC =        60.39793799
  Ewald energy   TEWEN  =      1864.68439628
  -Hartree energ DENC   =     -3279.19629854
  -exchange      EXHF   =         0.00000000
  -V(xc)+E(xc)   XCENC  =       163.41445449
  PAW double counting   =      1214.24570090    -1211.68112031
  entropy T*S    EENTRO =        -0.01240273
  eigenvalues    EBANDS =      -686.25405498
  atomic energy  EATOM  =      1746.50554237
  Solvation  Ediel_sol  =         0.00000000
  ---------------------------------------------------
  free energy    TOTEN  =      -127.89584453 eV

  energy without entropy =     -127.88344180  energy(sigma->0) =     -127.88964317


--------------------------------------------------------------------------------------------------------




--------------------------------------- Iteration      1(   5)  ---------------------------------------


     EDDAV:  cpu time      5.4479: real time      5.4872
       DOS:  cpu time      0.0009: real time      0.0009
    CHARGE:  cpu time      0.1800: real time      0.1954
    MIXING:  cpu time      0.0026: real time      0.0027
    --------------------------------------------
      LOOP:  cpu time      5.6314: real time      5.6862

 eigenvalue-minimisations  : 12912
 total energy-change (2. order) :-0.3623986E-04  (-0.3623991E-04)
 number of electron      55.9999988 magnetization      12.4620033
 augmentation part        0.8556309 magnetization      11.3184283

 Broyden mixing:
  rms(total) = 0.22702E+01    rms(broyden)= 0.22701E+01
  rms(prec ) = 0.24428E+01
  weight for this iteration     100.00

 Free energy of the ion-electron system (eV)
  ---------------------------------------------------
  alpha Z        PSCENC =        60.39793799
  Ewald energy   TEWEN  =      1864.68439628
  -Hartree energ DENC   =     -3279.19629854
  -exchange      EXHF   =         0.00000000
  -V(xc)+E(xc)   XCENC  =       163.41445449
  PAW double counting   =      1214.24570090    -1211.68112031
  entropy T*S    EENTRO =        -0.01240310
  eigenvalues    EBANDS =      -686.25409086
  atomic energy  EATOM  =      1746.50554237
  Solvation  Ediel_sol  =         0.00000000
  ---------------------------------------------------
  free energy    TOTEN  =      -127.89588077 eV

  energy without entropy =     -127.88347767  energy(sigma->0) =     -127.88967922


--------------------------------------------------------------------------------------------------------




--------------------------------------- Iteration      1(   6)  ---------------------------------------


    POTLOK:  cpu time      0.0359: real time      0.0381
    SETDIJ:  cpu time      0.0037: real time      0.0038
     EDDAV:  cpu time      4.2715: real time      4.3113
       DOS:  cpu time      0.0013: real time      0.0013
    CHARGE:  cpu time      0.1757: real time      0.1954
    MIXING:  cpu time      0.0013: real time      0.0013
    --------------------------------------------
      LOOP:  cpu time      4.4895: real time      4.5512

 eigenvalue-minimisations  : 10416
 total energy-change (2. order) : 0.3333220E+02  (-0.5731660E+01)
 number of electron      55.9999988 magnetization       8.6869466
 augmentation part        0.8303716 magnetization       7.2535692

 Broyden mixing:
  rms(total) = 0.12356E+01    rms(broyden)= 0.12356E+01
  rms(prec ) = 0.13681E+01
  weight for this iteration     100.00

 eigenvalues of (default mixing * dielectric matrix)
  average eigenvalue GAMMA=   1.1054
  1.1054

 Free energy of the ion-electron system (eV)
  ---------------------------------------------------
  alpha Z        PSCENC =        60.39793799
  Ewald energy   TEWEN  =      1864.68439628
  -Hartree energ DENC   =     -3345.36610430
  -exchange      EXHF   =         0.00000000
  -V(xc)+E(xc)   XCENC  =       186.57856569
  PAW double counting   =      2511.71156665    -2510.37551681
  entropy T*S    EENTRO =        -0.01095398
  eigenvalues    EBANDS =      -608.68911425
  atomic energy  EATOM  =      1746.50554237
  Solvation  Ediel_sol  =         0.00000000
  ---------------------------------------------------
  free energy    TOTEN  =       -94.56368037 eV

  energy without entropy =      -94.55272639  energy(sigma->0) =      -94.55820338


--------------------------------------------------------------------------------------------------------




--------------------------------------- Iteration      1(   7)  ---------------------------------------


    POTLOK:  cpu time      0.0327: real time      0.0329
    SETDIJ:  cpu time      0.0033: real time      0.0033
     EDDAV:  cpu time      5.2539: real time      5.2999
       DOS:  cpu time      0.0008: real time      0.0008
    CHARGE:  cpu time      0.1795: real time      0.1978
    MIXING:  cpu time      0.0008: real time      0.0012
    --------------------------------------------
      LOOP:  cpu time      5.4711: real time      5.5358

 eigenvalue-minimisations  : 12576
 total energy-change (2. order) :-0.1114739E+02  (-0.1406937E+01)
 number of electron      55.9999989 magnetization       5.3944641
 augmentation part        0.7735497 magnetization       4.4976542

 Broyden mixing:
  rms(total) = 0.67065E+00    rms(broyden)= 0.67061E+00
  rms(prec ) = 0.71026E+00
  weight for this iteration     100.00

 eigenvalues of (default mixing * dielectric matrix)
  average eigenvalue GAMMA=   1.3321
  0.8601  1.8040

 Free energy of the ion-electron system (eV)
  ---------------------------------------------------
  alpha Z        PSCENC =        60.39793799
  Ewald energy   TEWEN  =      1864.68439628
  -Hartree energ DENC   =     -3421.79770539
  -exchange      EXHF   =         0.00000000
  -V(xc)+E(xc)   XCENC  =       178.85084624
  PAW double counting   =      4197.24896790    -4196.62662504
  entropy T*S    EENTRO =        -0.00955190
  eigenvalues    EBANDS =      -534.96488343
  atomic energy  EATOM  =      1746.50554237
  Solvation  Ediel_sol  =         0.00000000
  ---------------------------------------------------
  free energy    TOTEN  =      -105.71107498 eV

  energy without entropy =     -105.70152308  energy(sigma->0) =     -105.70629903


--------------------------------------------------------------------------------------------------------




--------------------------------------- Iteration      1(   8)  ---------------------------------------


    POTLOK:  cpu time      0.0301: real time      0.0328
    SETDIJ:  cpu time      0.0033: real time      0.0033
     EDDAV:  cpu time      5.1511: real time      5.1926
       DOS:  cpu time      0.0009: real time      0.0009
    CHARGE:  cpu time      0.1744: real time      0.1855
    MIXING:  cpu time      0.0009: real time      0.0009
    --------------------------------------------
      LOOP:  cpu time      5.3607: real time      5.4159

 eigenvalue-minimisations  : 12288
 total energy-change (2. order) :-0.5787088E+01  (-0.5046212E+00)
 number of electron      55.9999989 magnetization       3.6898883
 augmentation part        0.7364738 magnetization       3.1454915

 Broyden mixing:
  rms(total) = 0.37487E+00    rms(broyden)= 0.37484E+00
  rms(prec ) = 0.38886E+00
  weight for this iteration     100.00

 eigenvalues of (default mixing * dielectric matrix)
  average eigenvalue GAMMA=   1.3566
  2.3167  1.0593  0.6937

 Free energy of the ion-electron system (eV)
  ---------------------------------------------------
  alpha Z        PSCENC =        60.39793799
  Ewald energy   TEWEN  =      1864.68439628
  -Hartree energ DENC   =     -3467.25298414
  -exchange      EXHF   =         0.00000000
  -V(xc)+E(xc)   XCENC  =       176.32645592
  PAW double counting   =      5527.59416168    -5527.23119001
  entropy T*S    EENTRO =        -0.00939207
  eigenvalues    EBANDS =      -492.51309068
  atomic energy  EATOM  =      1746.50554237
  Solvation  Ediel_sol  =         0.00000000
  ---------------------------------------------------
  free energy    TOTEN  =      -111.49816265 eV

  energy without entropy =     -111.48877058  energy(sigma->0) =     -111.49346662


--------------------------------------------------------------------------------------------------------




--------------------------------------- Iteration      1(   9)  ---------------------------------------


    POTLOK:  cpu time      0.0312: real time      0.0314
    SETDIJ:  cpu time      0.0032: real time      0.0035
     EDDAV:  cpu time      4.3043: real time      4.3387
       DOS:  cpu time      0.0010: real time      0.0010
    CHARGE:  cpu time      0.1752: real time      0.1821
    MIXING:  cpu time      0.0008: real time      0.0008
    --------------------------------------------
      LOOP:  cpu time      4.5158: real time      4.5575

 eigenvalue-minimisations  : 10512
 total energy-change (2. order) :-0.5286783E+01  (-0.2817508E+00)
 number of electron      55.9999989 magnetization       1.9910143
 augmentation part        0.7252837 magnetization       1.6622587

 Broyden mixing:
  rms(total) = 0.25272E+00    rms(broyden)= 0.25271E+00
  rms(prec ) = 0.26381E+00
  weight for this iteration     100.00

 eigenvalues of (default mixing * dielectric matrix)
  average eigenvalue GAMMA=   1.4147
  2.6558  1.5099  0.8735  0.6197

 Free energy of the ion-electron system (eV)
  ---------------------------------------------------
  alpha Z        PSCENC =        60.39793799
  Ewald energy   TEWEN  =      1864.68439628
  -Hartree energ DENC   =     -3476.65018214
  -exchange      EXHF   =         0.00000000
  -V(xc)+E(xc)   XCENC  =       173.23023390
  PAW double counting   =      5872.49860288    -5872.06903770
  entropy T*S    EENTRO =        -0.00255274
  eigenvalues    EBANDS =      -485.37988667
  atomic energy  EATOM  =      1746.50554237
  Solvation  Ediel_sol  =         0.00000000
  ---------------------------------------------------
  free energy    TOTEN  =      -116.78494584 eV

  energy without entropy =     -116.78239311  energy(sigma->0) =     -116.78366947


--------------------------------------------------------------------------------------------------------




--------------------------------------- Iteration      1(  10)  ---------------------------------------


    POTLOK:  cpu time      0.0318: real time      0.0320
    SETDIJ:  cpu time      0.0034: real time      0.0034
     EDDAV:  cpu time      5.2787: real time      5.3131
       DOS:  cpu time      0.0008: real time      0.0008
    CHARGE:  cpu time      0.1763: real time      0.1893
    MIXING:  cpu time      0.0009: real time      0.0009
    --------------------------------------------
      LOOP:  cpu time      5.4919: real time      5.5395

 eigenvalue-minimisations  : 12720
 total energy-change (2. order) :-0.4138317E+01  (-0.3189471E+00)
 number of electron      55.9999989 magnetization       1.0628627
 augmentation part        0.7215663 magnetization       0.8690197

 Broyden mixing:
  rms(total) = 0.13497E+00    rms(broyden)= 0.13495E+00
  rms(prec ) = 0.14386E+00
  weight for this iteration     100.00

 eigenvalues of (default mixing * dielectric matrix)
  average eigenvalue GAMMA=   1.5220
  3.0067  2.1364  1.0616  0.8065  0.5988

 Free energy of the ion-electron system (eV)
  ---------------------------------------------------
  alpha Z        PSCENC =        60.39793799
  Ewald energy   TEWEN  =      1864.68439628
  -Hartree energ DENC   =     -3478.71384120
  -exchange      EXHF   =         0.00000000
  -V(xc)+E(xc)   XCENC  =       170.63454522
  PAW double counting   =      5982.16816786    -5981.58391849
  entropy T*S    EENTRO =        -0.00485130
  eigenvalues    EBANDS =      -485.01124137
  atomic energy  EATOM  =      1746.50554237
  Solvation  Ediel_sol  =         0.00000000
  ---------------------------------------------------
  free energy    TOTEN  =      -120.92326264 eV

  energy without entropy =     -120.91841135  energy(sigma->0) =     -120.92083700


--------------------------------------------------------------------------------------------------------




--------------------------------------- Iteration      1(  11)  ---------------------------------------


    POTLOK:  cpu time      0.0300: real time      0.0307
    SETDIJ:  cpu time      0.0033: real time      0.0033
     EDDAV:  cpu time      4.8839: real time      4.9150
       DOS:  cpu time      0.0008: real time      0.0008
    CHARGE:  cpu time      0.1705: real time      0.1757
    MIXING:  cpu time      0.0010: real time      0.0010
    --------------------------------------------
      LOOP:  cpu time      5.0895: real time      5.1265

 eigenvalue-minimisations  : 11856
 total energy-change (2. order) :-0.1854625E+01  (-0.1438963E+00)
 number of electron      55.9999989 magnetization       0.4337301
 augmentation part        0.7204743 magnetization       0.3360682

 Broyden mixing:
  rms(total) = 0.81942E-01    rms(broyden)= 0.81927E-01
  rms(prec ) = 0.91354E-01
  weight for this iteration     100.00

 eigenvalues of (default mixing * dielectric matrix)
  average eigenvalue GAMMA=   1.5733
  3.4220  2.3343  1.3212  0.9988  0.7630  0.6006

 Free energy of the ion-electron system (eV)
  ---------------------------------------------------
  alpha Z        PSCENC =        60.39793799
  Ewald energy   TEWEN  =      1864.68439628
  -Hartree energ DENC   =     -3477.98567039
  -exchange      EXHF   =         0.00000000
  -V(xc)+E(xc)   XCENC  =       169.44816679
  PAW double counting   =      5925.82652396    -5925.17633217
  entropy T*S    EENTRO =        -0.00321012
  eigenvalues    EBANDS =      -486.47524267
  atomic energy  EATOM  =      1746.50554237
  Solvation  Ediel_sol  =         0.00000000
  ---------------------------------------------------
  free energy    TOTEN  =      -122.77788795 eV

  energy without entropy =     -122.77467783  energy(sigma->0) =     -122.77628289


--------------------------------------------------------------------------------------------------------




--------------------------------------- Iteration      1(  12)  ---------------------------------------


    POTLOK:  cpu time      0.0340: real time      0.0390
    SETDIJ:  cpu time      0.0032: real time      0.0032
     EDDAV:  cpu time      5.5554: real time      5.5988
       DOS:  cpu time      0.0008: real time      0.0008
    CHARGE:  cpu time      0.1741: real time      0.1809
    MIXING:  cpu time      0.0009: real time      0.0009
    --------------------------------------------
      LOOP:  cpu time      5.7685: real time      5.8236

 eigenvalue-minimisations  : 13296
 total energy-change (2. order) :-0.9838468E+00  (-0.7914979E-01)
 number of electron      55.9999989 magnetization       0.1388617
 augmentation part        0.7193484 magnetization       0.0835739

 Broyden mixing:
  rms(total) = 0.40064E-01    rms(broyden)= 0.40055E-01
  rms(prec ) = 0.49672E-01
  weight for this iteration     100.00

 eigenvalues of (default mixing * dielectric matrix)
  average eigenvalue GAMMA=   1.6844
  4.1599  2.3491  2.0377  1.0941  0.8270  0.7156  0.6073

 Free energy of the ion-electron system (eV)
  ---------------------------------------------------
  alpha Z        PSCENC =        60.39793799
  Ewald energy   TEWEN  =      1864.68439628
  -Hartree energ DENC   =     -3476.43195476
  -exchange      EXHF   =         0.00000000
  -V(xc)+E(xc)   XCENC  =       168.71063772
  PAW double counting   =      5825.89954476    -5825.24805610
  entropy T*S    EENTRO =        -0.00468993
  eigenvalues    EBANDS =      -488.27509307
  atomic energy  EATOM  =      1746.50554237
  Solvation  Ediel_sol  =         0.00000000
  ---------------------------------------------------
  free energy    TOTEN  =      -123.76173475 eV

  energy without entropy =     -123.75704481  energy(sigma->0) =     -123.75938978


--------------------------------------------------------------------------------------------------------




--------------------------------------- Iteration      1(  13)  ---------------------------------------


    POTLOK:  cpu time      0.0311: real time      0.0328
    SETDIJ:  cpu time      0.0031: real time      0.0034
     EDDAV:  cpu time      5.1583: real time      5.1906
       DOS:  cpu time      0.0008: real time      0.0008
    CHARGE:  cpu time      0.1704: real time      0.1805
    MIXING:  cpu time      0.0011: real time      0.0011
    --------------------------------------------
      LOOP:  cpu time      5.3648: real time      5.4091

 eigenvalue-minimisations  : 12336
 total energy-change (2. order) :-0.3038487E+00  (-0.1875918E-01)
 number of electron      55.9999989 magnetization       0.0598963
 augmentation part        0.7187784 magnetization       0.0364173

 Broyden mixing:
  rms(total) = 0.19429E-01    rms(broyden)= 0.19421E-01
  rms(prec ) = 0.28212E-01
  weight for this iteration     100.00

 eigenvalues of (default mixing * dielectric matrix)
  average eigenvalue GAMMA=   1.6767
  4.4444  2.3025  2.3025  1.2290  1.0260  0.8121  0.6144  0.6830

 Free energy of the ion-electron system (eV)
  ---------------------------------------------------
  alpha Z        PSCENC =        60.39793799
  Ewald energy   TEWEN  =      1864.68439628
  -Hartree energ DENC   =     -3475.44325478
  -exchange      EXHF   =         0.00000000
  -V(xc)+E(xc)   XCENC  =       168.41881090
  PAW double counting   =      5785.59405699    -5784.95573350
  entropy T*S    EENTRO =        -0.00605403
  eigenvalues    EBANDS =      -489.26128562
  atomic energy  EATOM  =      1746.50554237
  Solvation  Ediel_sol  =         0.00000000
  ---------------------------------------------------
  free energy    TOTEN  =      -124.06558340 eV

  energy without entropy =     -124.05952937  energy(sigma->0) =     -124.06255638


--------------------------------------------------------------------------------------------------------




--------------------------------------- Iteration      1(  14)  ---------------------------------------


    POTLOK:  cpu time      0.0395: real time      0.0400
    SETDIJ:  cpu time      0.0033: real time      0.0033
     EDDAV:  cpu time      4.2149: real time      4.2454
       DOS:  cpu time      0.0010: real time      0.0010
    CHARGE:  cpu time      0.1767: real time      0.1842
    MIXING:  cpu time      0.0010: real time      0.0010
    --------------------------------------------
      LOOP:  cpu time      4.4363: real time      4.4748

 eigenvalue-minimisations  : 10320
 total energy-change (2. order) :-0.5453513E-01  (-0.2975968E-02)
 number of electron      55.9999989 magnetization       0.0119284
 augmentation part        0.7188270 magnetization       0.0016059

 Broyden mixing:
  rms(total) = 0.10830E-01    rms(broyden)= 0.10829E-01
  rms(prec ) = 0.18755E-01
  weight for this iteration     100.00

 eigenvalues of (default mixing * dielectric matrix)
  average eigenvalue GAMMA=   1.6859
  4.5613  2.4941  2.4941  1.5836  1.1078  0.8581  0.7927  0.6197  0.6617

 Free energy of the ion-electron system (eV)
  ---------------------------------------------------
  alpha Z        PSCENC =        60.39793799
  Ewald energy   TEWEN  =      1864.68439628
  -Hartree energ DENC   =     -3474.70224213
  -exchange      EXHF   =         0.00000000
  -V(xc)+E(xc)   XCENC  =       168.33865630
  PAW double counting   =      5790.52478646    -5789.89098705
  entropy T*S    EENTRO =        -0.00609456
  eigenvalues    EBANDS =      -489.97211418
  atomic energy  EATOM  =      1746.50554237
  Solvation  Ediel_sol  =         0.00000000
  ---------------------------------------------------
  free energy    TOTEN  =      -124.12011853 eV

  energy without entropy =     -124.11402397  energy(sigma->0) =     -124.11707125


--------------------------------------------------------------------------------------------------------




--------------------------------------- Iteration      1(  15)  ---------------------------------------


    POTLOK:  cpu time      0.0306: real time      0.0312
    SETDIJ:  cpu time      0.0033: real time      0.0033
     EDDAV:  cpu time      3.9837: real time      4.0093
       DOS:  cpu time      0.0008: real time      0.0008
    CHARGE:  cpu time      0.1728: real time      0.1825
    MIXING:  cpu time      0.0010: real time      0.0010
    --------------------------------------------
      LOOP:  cpu time      4.1922: real time      4.2281

 eigenvalue-minimisations  :  9888
 total energy-change (2. order) :-0.2335097E-01  (-0.1439459E-02)
 number of electron      55.9999989 magnetization      -0.0047561
 augmentation part        0.7190574 magnetization      -0.0070450

 Broyden mixing:
  rms(total) = 0.57831E-02    rms(broyden)= 0.57825E-02
  rms(prec ) = 0.96697E-02
  weight for this iteration     100.00

 eigenvalues of (default mixing * dielectric matrix)
  average eigenvalue GAMMA=   1.6777
  4.6405  2.6969  2.6969  1.8159  1.1311  0.9974  0.8250  0.7191  0.6268  0.6268

 Free energy of the ion-electron system (eV)
  ---------------------------------------------------
  alpha Z        PSCENC =        60.39793799
  Ewald energy   TEWEN  =      1864.68439628
  -Hartree energ DENC   =     -3473.79774190
  -exchange      EXHF   =         0.00000000
  -V(xc)+E(xc)   XCENC  =       168.26502534
  PAW double counting   =      5786.81886004    -5786.18891783
  entropy T*S    EENTRO =        -0.00607891
  eigenvalues    EBANDS =      -490.82249288
  atomic energy  EATOM  =      1746.50554237
  Solvation  Ediel_sol  =         0.00000000
  ---------------------------------------------------
  free energy    TOTEN  =      -124.14346950 eV

  energy without entropy =     -124.13739059  energy(sigma->0) =     -124.14043005


--------------------------------------------------------------------------------------------------------




--------------------------------------- Iteration      1(  16)  ---------------------------------------


    POTLOK:  cpu time      0.0304: real time      0.0308
    SETDIJ:  cpu time      0.0031: real time      0.0033
     EDDAV:  cpu time      3.9820: real time      4.0049
       DOS:  cpu time      0.0008: real time      0.0008
    CHARGE:  cpu time      0.1717: real time      0.1819
    MIXING:  cpu time      0.0012: real time      0.0013
    --------------------------------------------
      LOOP:  cpu time      4.1893: real time      4.2230

 eigenvalue-minimisations  :  9840
 total energy-change (2. order) :-0.1492561E-02  (-0.2197085E-03)
 number of electron      55.9999989 magnetization      -0.0013732
 augmentation part        0.7193154 magnetization      -0.0019638

 Broyden mixing:
  rms(total) = 0.37164E-02    rms(broyden)= 0.37161E-02
  rms(prec ) = 0.53467E-02
  weight for this iteration     100.00

 eigenvalues of (default mixing * dielectric matrix)
  average eigenvalue GAMMA=   1.7110
  4.6254  2.9574  2.9574  2.0545  1.4217  1.1094  0.9496  0.8171  0.6880  0.6202
  0.6202

 Free energy of the ion-electron system (eV)
  ---------------------------------------------------
  alpha Z        PSCENC =        60.39793799
  Ewald energy   TEWEN  =      1864.68439628
  -Hartree energ DENC   =     -3473.53274915
  -exchange      EXHF   =         0.00000000
  -V(xc)+E(xc)   XCENC  =       168.23701336
  PAW double counting   =      5786.08168108    -5785.45114429
  entropy T*S    EENTRO =        -0.00605684
  eigenvalues    EBANDS =      -491.06158285
  atomic energy  EATOM  =      1746.50554237
  Solvation  Ediel_sol  =         0.00000000
  ---------------------------------------------------
  free energy    TOTEN  =      -124.14496206 eV

  energy without entropy =     -124.13890522  energy(sigma->0) =     -124.14193364


--------------------------------------------------------------------------------------------------------




--------------------------------------- Iteration      1(  17)  ---------------------------------------


    POTLOK:  cpu time      0.0321: real time      0.0323
    SETDIJ:  cpu time      0.0032: real time      0.0032
     EDDAV:  cpu time      3.6928: real time      3.7211
       DOS:  cpu time      0.0008: real time      0.0008
    CHARGE:  cpu time      0.1704: real time      0.1778
    MIXING:  cpu time      0.0011: real time      0.0011
    --------------------------------------------
      LOOP:  cpu time      3.9005: real time      3.9363

 eigenvalue-minimisations  :  9216
 total energy-change (2. order) :-0.5316680E-03  (-0.7630142E-04)
 number of electron      55.9999989 magnetization      -0.0033370
 augmentation part        0.7193551 magnetization      -0.0037768

 Broyden mixing:
  rms(total) = 0.15082E-02    rms(broyden)= 0.15081E-02
  rms(prec ) = 0.27153E-02
  weight for this iteration     100.00

 eigenvalues of (default mixing * dielectric matrix)
  average eigenvalue GAMMA=   1.7215
  4.6906  3.7510  2.5245  2.3426  1.6233  1.1165  0.9422  0.9422  0.8075  0.6779
  0.6200  0.6200

 Free energy of the ion-electron system (eV)
  ---------------------------------------------------
  alpha Z        PSCENC =        60.39793799
  Ewald energy   TEWEN  =      1864.68439628
  -Hartree energ DENC   =     -3473.75280458
  -exchange      EXHF   =         0.00000000
  -V(xc)+E(xc)   XCENC  =       168.23784382
  PAW double counting   =      5789.51870286    -5788.88735863
  entropy T*S    EENTRO =        -0.00604755
  eigenvalues    EBANDS =      -490.84370629
  atomic energy  EATOM  =      1746.50554237
  Solvation  Ediel_sol  =         0.00000000
  ---------------------------------------------------
  free energy    TOTEN  =      -124.14549373 eV

  energy without entropy =     -124.13944618  energy(sigma->0) =     -124.14246995


--------------------------------------------------------------------------------------------------------




--------------------------------------- Iteration      1(  18)  ---------------------------------------


    POTLOK:  cpu time      0.0301: real time      0.0303
    SETDIJ:  cpu time      0.0033: real time      0.0033
     EDDAV:  cpu time      3.5404: real time      3.5751
       DOS:  cpu time      0.0008: real time      0.0008
    CHARGE:  cpu time      0.1703: real time      0.1760
    MIXING:  cpu time      0.0011: real time      0.0011
    --------------------------------------------
      LOOP:  cpu time      3.7460: real time      3.7867

 eigenvalue-minimisations  :  8832
 total energy-change (2. order) :-0.2486020E-04  (-0.1614015E-04)
 number of electron      55.9999989 magnetization      -0.0041025
 augmentation part        0.7193608 magnetization      -0.0039734

 Broyden mixing:
  rms(total) = 0.84737E-03    rms(broyden)= 0.84734E-03
  rms(prec ) = 0.15965E-02
  weight for this iteration     100.00

 eigenvalues of (default mixing * dielectric matrix)
  average eigenvalue GAMMA=   1.7441
  4.8929  3.9272  2.6012  2.6012  1.8169  1.2559  1.1269  0.9948  0.8195  0.7370
  0.6567  0.6127  0.6302

 Free energy of the ion-electron system (eV)
  ---------------------------------------------------
  alpha Z        PSCENC =        60.39793799
  Ewald energy   TEWEN  =      1864.68439628
  -Hartree energ DENC   =     -3473.89619571
  -exchange      EXHF   =         0.00000000
  -V(xc)+E(xc)   XCENC  =       168.23589949
  PAW double counting   =      5789.50638179    -5788.87557238
  entropy T*S    EENTRO =        -0.00605901
  eigenvalues    EBANDS =      -490.69784941
  atomic energy  EATOM  =      1746.50554237
  Solvation  Ediel_sol  =         0.00000000
  ---------------------------------------------------
  free energy    TOTEN  =      -124.14551859 eV

  energy without entropy =     -124.13945958  energy(sigma->0) =     -124.14248909


--------------------------------------------------------------------------------------------------------




--------------------------------------- Iteration      1(  19)  ---------------------------------------


    POTLOK:  cpu time      0.0294: real time      0.0315
    SETDIJ:  cpu time      0.0033: real time      0.0033
     EDDAV:  cpu time      3.2634: real time      3.2818
       DOS:  cpu time      0.0008: real time      0.0008
    CHARGE:  cpu time      0.1698: real time      0.1809
    MIXING:  cpu time      0.0011: real time      0.0011
    --------------------------------------------
      LOOP:  cpu time      3.4678: real time      3.4993

 eigenvalue-minimisations  :  8256
 total energy-change (2. order) :-0.4668927E-04  (-0.4224402E-05)
 number of electron      55.9999989 magnetization      -0.0028367
 augmentation part        0.7193497 magnetization      -0.0024757

 Broyden mixing:
  rms(total) = 0.50933E-03    rms(broyden)= 0.50931E-03
  rms(prec ) = 0.10751E-02
  weight for this iteration     100.00

 eigenvalues of (default mixing * dielectric matrix)
  average eigenvalue GAMMA=   1.7116
  4.9149  3.8359  2.7485  2.7485  1.8753  1.3682  1.1666  0.9471  0.9471  0.8102
  0.7041  0.6576  0.6115  0.6269

 Free energy of the ion-electron system (eV)
  ---------------------------------------------------
  alpha Z        PSCENC =        60.39793799
  Ewald energy   TEWEN  =      1864.68439628
  -Hartree energ DENC   =     -3474.06077341
  -exchange      EXHF   =         0.00000000
  -V(xc)+E(xc)   XCENC  =       168.23814098
  PAW double counting   =      5789.14905049    -5788.51825943
  entropy T*S    EENTRO =        -0.00606367
  eigenvalues    EBANDS =      -490.53553688
  atomic energy  EATOM  =      1746.50554237
  Solvation  Ediel_sol  =         0.00000000
  ---------------------------------------------------
  free energy    TOTEN  =      -124.14556528 eV

  energy without entropy =     -124.13950161  energy(sigma->0) =     -124.14253345


--------------------------------------------------------------------------------------------------------




--------------------------------------- Iteration      1(  20)  ---------------------------------------


    POTLOK:  cpu time      0.0297: real time      0.0299
    SETDIJ:  cpu time      0.0032: real time      0.0032
     EDDAV:  cpu time      3.5402: real time      3.5672
       DOS:  cpu time      0.0008: real time      0.0008
    CHARGE:  cpu time      0.1707: real time      0.1776
    MIXING:  cpu time      0.0013: real time      0.0013
    --------------------------------------------
      LOOP:  cpu time      3.7459: real time      3.7800

 eigenvalue-minimisations  :  8832
 total energy-change (2. order) :-0.2401729E-04  (-0.2349553E-05)
 number of electron      55.9999989 magnetization      -0.0013406
 augmentation part        0.7193233 magnetization      -0.0011452

 Broyden mixing:
  rms(total) = 0.36103E-03    rms(broyden)= 0.36101E-03
  rms(prec ) = 0.71912E-03
  weight for this iteration     100.00

 eigenvalues of (default mixing * dielectric matrix)
  average eigenvalue GAMMA=   1.7038
  4.9474  3.7226  3.1036  2.7029  1.8837  1.7112  1.2249  1.0365  1.0365  0.8100
  0.8100  0.6857  0.6109  0.6412  0.6298

 Free energy of the ion-electron system (eV)
  ---------------------------------------------------
  alpha Z        PSCENC =        60.39793799
  Ewald energy   TEWEN  =      1864.68439628
  -Hartree energ DENC   =     -3474.23052027
  -exchange      EXHF   =         0.00000000
  -V(xc)+E(xc)   XCENC  =       168.24206256
  PAW double counting   =      5789.18586331    -5788.55496069
  entropy T*S    EENTRO =        -0.00606079
  eigenvalues    EBANDS =      -490.36985004
  atomic energy  EATOM  =      1746.50554237
  Solvation  Ediel_sol  =         0.00000000
  ---------------------------------------------------
  free energy    TOTEN  =      -124.14558930 eV

  energy without entropy =     -124.13952850  energy(sigma->0) =     -124.14255890


--------------------------------------------------------------------------------------------------------




--------------------------------------- Iteration      1(  21)  ---------------------------------------


    POTLOK:  cpu time      0.0301: real time      0.0303
    SETDIJ:  cpu time      0.0033: real time      0.0033
     EDDAV:  cpu time      3.3985: real time      3.4197
       DOS:  cpu time      0.0008: real time      0.0008
    CHARGE:  cpu time      0.1686: real time      0.1793
    MIXING:  cpu time      0.0014: real time      0.0014
    --------------------------------------------
      LOOP:  cpu time      3.6026: real time      3.6348

 eigenvalue-minimisations  :  8544
 total energy-change (2. order) :-0.5168071E-04  (-0.1992210E-05)
 number of electron      55.9999989 magnetization      -0.0004878
 augmentation part        0.7193052 magnetization      -0.0003611

 Broyden mixing:
  rms(total) = 0.23254E-03    rms(broyden)= 0.23252E-03
  rms(prec ) = 0.37417E-03
  weight for this iteration     100.00

 eigenvalues of (default mixing * dielectric matrix)
  average eigenvalue GAMMA=   1.7412
  5.0444  3.6750  3.1897  3.1897  2.0836  2.0836  1.3170  1.1862  0.9891  0.9891
  0.8094  0.7533  0.6776  0.6112  0.6301  0.6301

 Free energy of the ion-electron system (eV)
  ---------------------------------------------------
  alpha Z        PSCENC =        60.39793799
  Ewald energy   TEWEN  =      1864.68439628
  -Hartree energ DENC   =     -3474.36493576
  -exchange      EXHF   =         0.00000000
  -V(xc)+E(xc)   XCENC  =       168.24350381
  PAW double counting   =      5788.99813292    -5788.36729514
  entropy T*S    EENTRO =        -0.00605916
  eigenvalues    EBANDS =      -490.23686428
  atomic energy  EATOM  =      1746.50554237
  Solvation  Ediel_sol  =         0.00000000
  ---------------------------------------------------
  free energy    TOTEN  =      -124.14564098 eV

  energy without entropy =     -124.13958181  energy(sigma->0) =     -124.14261140


--------------------------------------------------------------------------------------------------------




--------------------------------------- Iteration      1(  22)  ---------------------------------------


[...]
      5     -14.6014      1.00000
      6     -13.3820      1.00000
      7     -12.7460      1.00000
      8     -12.3827      1.00000
      9     -10.4193      1.00000
     10      -9.6723      1.00000
     11      -9.0429      1.00000
     12      -8.8242      1.00000
     13      -8.2576      1.00000
     14      -7.7800      1.00000
     15      -7.5899      1.00000
     16      -7.3896      1.00000
     17      -7.2255      1.00000
     18      -6.4631      1.00000
     19      -5.9965      1.00000
     20      -5.8927      1.00000
     21      -5.4588      1.00000
     22      -5.2799      1.00000
     23      -4.9259      1.00000
     24      -4.5542      1.00000
     25      -4.3464      1.00000
     26      -4.0776      1.00000
     27      -2.7692      1.00000
     28      -1.0054      1.00000
     29       0.3693      0.00000
     30       1.9932      0.00000
     31       3.2815      0.00000
     32       3.4388      0.00000
     33       3.8711      0.00000
     34       4.3834      0.00000
     35       4.5262      0.00000
     36       4.8234      0.00000
     37       4.9663      0.00000
     38       5.1461      0.00000
     39       5.6077      0.00000
     40       5.7700      0.00000
     41       5.7916      0.00000
     42       5.8573      0.00000
     43       6.2841      0.00000
     44       6.4769      0.00000
     45       6.7317      0.00000
     46       6.8875      0.00000
     47       6.9805      0.00000
     48       7.0844      0.00000

 k-point    41 :      -0.2500   -0.4167    0.0000
  band No.  band energies     occupation 
      1     -18.1083      1.00000
      2     -17.6345      1.00000
      3     -17.1610      1.00000
      4     -15.0783      1.00000
      5     -14.6017      1.00000
      6     -13.3632      1.00000
      7     -12.7458      1.00000
      8     -12.4246      1.00000
      9     -10.3947      1.00000
     10      -9.6723      1.00000
     11      -9.0428      1.00000
     12      -8.8005      1.00000
     13      -8.3028      1.00000
     14      -7.7801      1.00000
     15      -7.5902      1.00000
     16      -7.3313      1.00000
     17      -7.2402      1.00000
     18      -6.4137      1.00000
     19      -6.0023      1.00000
     20      -5.9691      1.00000
     21      -5.4519      1.00000
     22      -5.2797      1.00000
     23      -4.9285      1.00000
     24      -4.5546      1.00000
     25      -4.3463      1.00000
     26      -4.0775      1.00000
     27      -2.7690      1.00000
     28      -0.9718      1.00000
     29       0.3286      0.00000
     30       1.9934      0.00000
     31       3.2812      0.00000
     32       3.4392      0.00000
     33       3.8709      0.00000
     34       4.3832      0.00000
     35       4.5262      0.00000
     36       4.8234      0.00000
     37       4.9745      0.00000
     38       5.1460      0.00000
     39       5.6071      0.00000
     40       5.7377      0.00000
     41       5.7916      0.00000
     42       5.8566      0.00000
     43       6.2850      0.00000
     44       6.4785      0.00000
     45       6.7644      0.00000
     46       6.8878      0.00000
     47       6.9807      0.00000
     48       7.0849      0.00000

 k-point    42 :       0.4167    0.3333    0.0000
  band No.  band energies     occupation 
      1     -18.1080      1.00000
      2     -17.6327      1.00000
      3     -17.1629      1.00000
      4     -15.0780      1.00000
      5     -14.6021      1.00000
      6     -13.3494      1.00000
      7     -12.7457      1.00000
      8     -12.4551      1.00000
      9     -10.3768      1.00000
     10      -9.6716      1.00000
     11      -9.0434      1.00000
     12      -8.8841      1.00000
     13      -8.2174      1.00000
     14      -7.7802      1.00000
     15      -7.5903      1.00000
     16      -7.2923      1.00000
     17      -7.1549      1.00000
     18      -6.5165      1.00000
     19      -6.0040      1.00000
     20      -5.9982      1.00000
     21      -5.4624      1.00000
     22      -5.2795      1.00000
     23      -4.9155      1.00000
     24      -4.5550      1.00000
     25      -4.3470      1.00000
     26      -4.0767      1.00000
     27      -2.7689      1.00000
     28      -0.9407      1.00000
     29       0.2911      0.00000
     30       1.9937      0.00000
     31       3.2808      0.00000
     32       3.4394      0.00000
     33       3.8707      0.00000
     34       4.3831      0.00000
     35       4.5262      0.00000
     36       4.8236      0.00000
     37       4.9235      0.00000
     38       5.1455      0.00000
     39       5.6068      0.00000
     40       5.7830      0.00000
     41       5.7912      0.00000
     42       5.8574      0.00000
     43       6.2855      0.00000
     44       6.4794      0.00000
     45       6.7735      0.00000
     46       6.8886      0.00000
     47       6.9812      0.00000
     48       7.0856      0.00000

 k-point    43 :       0.3333    0.3333    0.0000
  band No.  band energies     occupation 
      1     -17.7034      1.00000
      2     -17.7007      1.00000
      3     -17.6135      1.00000
      4     -14.8421      1.00000
      5     -14.8409      1.00000
      6     -12.8447      1.00000
      7     -12.8232      1.00000
      8     -12.7805      1.00000
      9     -10.6378      1.00000
     10      -9.2408      1.00000
     11      -9.2374      1.00000
     12      -8.1143      1.00000
     13      -8.0084      1.00000
     14      -7.9674      1.00000
     15      -7.8613      1.00000
     16      -7.7095      1.00000
     17      -6.7229      1.00000
     18      -6.6394      1.00000
     19      -6.5266      1.00000
     20      -5.5312      1.00000
     21      -5.5215      1.00000
     22      -5.4501      1.00000
     23      -4.9051      1.00000
     24      -4.9022      1.00000
     25      -4.1794      1.00000
     26      -4.1770      1.00000
     27      -2.9392      1.00000
     28      -0.3556      0.86180
     29      -0.2726      0.46583
     30       2.8142      0.00000
     31       2.8178      0.00000
     32       3.5782      0.00000
     33       3.5803      0.00000
     34       4.2372      0.00000
     35       4.3972      0.00000
     36       4.9950      0.00000
     37       4.9958      0.00000
     38       5.3200      0.00000
     39       5.8238      0.00000
     40       5.9044      0.00000
     41       5.9227      0.00000
     42       6.1555      0.00000
     43       6.1676      0.00000
     44       6.3521      0.00000
     45       6.3725      0.00000
     46       6.3814      0.00000
     47       6.4989      0.00000
     48       7.5094      0.00000


--------------------------------------------------------------------------------------------------------


 soft charge-density along one line, spin component           1
         0         1         2         3         4         5         6         7         8         9
 total charge-density along one line
 
 soft charge-density along one line, spin component           2
         0         1         2         3         4         5         6         7         8         9
 total charge-density along one line
 
 pseudopotential strength for first ion, spin component:           1
  6.667  10.168  -0.005   0.000  -0.008  -0.007   0.000  -0.012
 10.168  15.502  -0.007   0.000  -0.012  -0.011   0.000  -0.018
 -0.005  -0.007  -2.283   0.000   0.003  -3.911   0.000   0.005
  0.000   0.000   0.000  -2.277  -0.000   0.000  -3.896  -0.000
 -0.008  -0.012   0.003  -0.000  -2.280   0.005  -0.000  -3.905
 -0.007  -0.011  -3.911   0.000   0.005  -6.502   0.001   0.011
  0.000   0.000   0.000  -3.896  -0.000   0.001  -6.471  -0.000
 -0.012  -0.018   0.005  -0.000  -3.905   0.011  -0.000  -6.490
 pseudopotential strength for first ion, spin component:           2
  6.667  10.168  -0.005   0.000  -0.008  -0.007   0.000  -0.012
 10.168  15.502  -0.007   0.000  -0.012  -0.011   0.000  -0.018
 -0.005  -0.007  -2.283   0.000   0.003  -3.911   0.000   0.005
  0.000   0.000   0.000  -2.277  -0.000   0.000  -3.896  -0.000
 -0.008  -0.012   0.003  -0.000  -2.280   0.005  -0.000  -3.905
 -0.007  -0.011  -3.911   0.000   0.005  -6.502   0.001   0.011
  0.000   0.000   0.000  -3.896  -0.000   0.001  -6.471  -0.000
 -0.012  -0.018   0.005  -0.000  -3.905   0.011  -0.000  -6.490
 total augmentation occupancy for first ion, spin component:           1
  3.793  -1.049  -0.191   0.009  -0.333   0.091  -0.004   0.158
 -1.049   0.308   0.109  -0.004   0.189  -0.040   0.001  -0.070
 -0.191   0.109   4.325  -0.016  -0.282  -1.228   0.008   0.126
  0.009  -0.004  -0.016   1.828   0.003   0.008  -0.390  -0.002
 -0.333   0.189  -0.282   0.003   4.000   0.126  -0.002  -1.083
  0.091  -0.040  -1.228   0.008   0.126   0.359  -0.003  -0.048
 -0.004   0.001   0.008  -0.390  -0.002  -0.003   0.087   0.001
  0.158  -0.070   0.126  -0.002  -1.083  -0.048   0.001   0.304
 total augmentation occupancy for first ion, spin component:           2
  0.000   0.000   0.000  -0.000   0.000  -0.000   0.000   0.000
  0.000  -0.000  -0.000   0.000  -0.000   0.000  -0.000   0.000
  0.000  -0.000   0.000  -0.000  -0.000  -0.000   0.000   0.000
 -0.000   0.000  -0.000  -0.000  -0.000   0.000   0.000   0.000
  0.000  -0.000  -0.000  -0.000   0.000   0.000   0.000  -0.000
 -0.000   0.000  -0.000   0.000   0.000   0.000  -0.000  -0.000
  0.000  -0.000   0.000   0.000   0.000  -0.000  -0.000  -0.000
  0.000   0.000   0.000   0.000  -0.000  -0.000  -0.000   0.000


------------------------ aborting loop because EDIFF is reached ----------------------------------------


    CHARGE:  cpu time      0.1699: real time      0.1809
    FORLOC:  cpu time      0.0015: real time      0.0015
    FORNL :  cpu time      0.4678: real time      0.4694
    STRESS:  cpu time      2.0973: real time      2.1037
    FORCOR:  cpu time      0.0251: real time      0.0252
    FORHAR:  cpu time      0.0037: real time      0.0037
    MIXING:  cpu time      0.0006: real time      0.0006
    OFIELD:  cpu time      0.0000: real time      0.0000

 ---------------------------------------------------------------------------------------------

         DFTD3 V3.0 Rev 1        
 Edisp (eV)   -1.50957

 E6    (eV) :    -1.0255
 E8    (eV) :    -0.4840
 % E8        : 32.06
    FORVDW:  cpu time      0.0418: real time      0.0420

  FORCE on cell =-STRESS in cart. coord.  units (eV):
  Direction    XX          YY          ZZ          XY          YZ          ZX
  --------------------------------------------------------------------------------------
  Alpha Z    60.39794    60.39794    60.39794
  Ewald    3794.59290  3805.61397 -5469.04565     0.00000     0.00001    -0.00606
  Hartree  3680.53003  3682.07200 -3621.70763     0.00000    -0.00000    -0.00135
  E(xc)    -195.63430  -195.59826  -202.54753    -0.00000    -0.00000    -0.00001
  Local   -8024.15828 -8034.67066  8417.92104    -0.00000    -0.00000     0.00676
  n-local   -38.21215   -38.12311   -39.98358    -0.24767     0.00387    -0.00005
  augment    -2.77269    -2.78821    -2.50516     0.00000     0.00000    -0.00002
  Kinetic   726.06054   724.29070   857.14504    -1.12420    -0.01510     0.00195
  Fock        0.00000     0.00000     0.00000     0.00000     0.00000     0.00000
  vdW        -1.11297    -1.11611    -0.49355     0.00000     0.00000     0.00001
  -------------------------------------------------------------------------------------
  Total      -0.30899     0.07826    -0.81908     0.00000     0.00000     0.00123
  in kB      -1.53539     0.38887    -4.07010     0.00000     0.00000     0.00613
  external pressure =       -1.74 kB  Pullay stress =        0.00 kB


 VOLUME and BASIS-vectors are now :
 -----------------------------------------------------------------------------
  energy-cutoff  :      450.00
  volume of cell :      322.43
      direct lattice vectors                 reciprocal lattice vectors
     4.314538562  2.491000000  0.000000000     0.115887248  0.200722601  0.000000000
    -4.314538562  2.491000000  0.000000000    -0.115887248  0.200722601  0.000000000
     0.000000000  0.000000000 15.000000000     0.000000000  0.000000000  0.066666667

  length of vectors
     4.982000000  4.982000000 15.000000000     0.231774496  0.231774496  0.066666667


 FORCES acting on ions
    electron-ion (+dipol)            ewald-force                    non-local-force                 convergence-correction
 -----------------------------------------------------------------------------------------------
   -.254E+02 -.146E+02 0.122E+03   0.283E+02 0.163E+02 -.122E+03   -.294E+01 -.170E+01 0.623E-01   0.241E-05 0.356E-04 0.392E-02
   0.254E+02 0.147E+02 0.122E+03   -.283E+02 -.164E+02 -.122E+03   0.294E+01 0.169E+01 0.608E-01   -.306E-04 0.144E-04 0.392E-02
   -.254E+02 0.146E+02 0.122E+03   0.283E+02 -.163E+02 -.122E+03   -.294E+01 0.170E+01 0.623E-01   0.241E-05 -.356E-04 0.392E-02
   0.254E+02 -.147E+02 0.122E+03   -.283E+02 0.164E+02 -.122E+03   0.294E+01 -.169E+01 0.608E-01   -.306E-04 -.144E-04 0.392E-02
   0.284E-01 0.293E+02 0.122E+03   -.331E-01 -.327E+02 -.122E+03   0.376E-03 0.339E+01 0.600E-01   0.289E-04 -.209E-04 0.392E-02
   0.284E-01 -.293E+02 0.122E+03   -.331E-01 0.327E+02 -.122E+03   0.376E-03 -.339E+01 0.600E-01   0.289E-04 0.209E-04 0.392E-02
   -.284E-01 0.767E-04 0.124E+03   0.306E-01 0.315E-03 -.124E+03   0.267E-02 0.433E-17 0.687E-01   0.130E-05 -.240E-09 0.394E-02
   0.133E-01 0.768E-04 0.114E+03   -.150E-01 0.315E-03 -.113E+03   0.150E-02 0.489E-17 -.328E+00   -.199E-05 -.293E-09 0.398E-02
   -.862E+00 0.204E+01 -.122E+03   0.991E+00 -.231E+01 0.122E+03   -.862E-02 -.222E+00 -.162E-01   -.116E-04 -.367E-04 -.575E-02
   0.154E+01 0.133E+01 -.121E+03   -.187E+01 -.139E+01 0.121E+03   -.253E+00 0.647E-01 0.401E-02   -.149E-04 -.705E-05 -.579E-02
   0.382E+00 0.469E-03 -.120E+03   -.287E+00 0.928E-07 0.120E+03   0.847E-01 0.103E-17 0.241E-01   -.138E-04 -.169E-09 -.581E-02
   0.869E+00 0.476E-03 -.121E+03   -.953E+00 0.493E-06 0.121E+03   0.837E-01 0.325E-18 -.579E-02   0.160E-04 -.263E-08 -.579E-02
   -.222E+01 0.461E-03 -.121E+03   0.266E+01 -.859E-07 0.122E+03   0.362E+00 0.409E-18 -.125E-01   0.246E-04 0.105E-09 -.578E-02
   -.392E+00 0.467E-03 -.122E+03   0.338E+00 -.490E-06 0.122E+03   -.754E-02 -.497E-18 -.313E-01   0.268E-04 0.251E-08 -.571E-02
   -.862E+00 -.204E+01 -.122E+03   0.991E+00 0.231E+01 0.122E+03   -.862E-02 0.222E+00 -.162E-01   -.116E-04 0.367E-04 -.575E-02
   0.154E+01 -.133E+01 -.121E+03   -.187E+01 0.139E+01 0.121E+03   -.253E+00 -.647E-01 0.401E-02   -.149E-04 0.705E-05 -.579E-02
 -----------------------------------------------------------------------------------------------
   0.768E-03 0.465E-02 -.420E-01   0.866E-14 0.200E-13 0.711E-13   -.774E-03 0.139E-16 0.572E-01   0.130E-05 -.597E-09 -.147E-01
 
 
 POSITION                                       TOTAL-FORCE (eV/Angst)
 -----------------------------------------------------------------------------------
      2.88975      1.66835      1.64377        -0.006092     -0.008518      0.017705
      1.42496      0.82277      1.64406         0.008162     -0.004012      0.017246
     -1.42479      0.82265      1.64377        -0.006092      0.008518      0.017705
     -2.88958      1.66823      1.64406         0.008162      0.004012      0.017246
      0.00002      1.64554      1.64420        -0.004369      0.000794      0.016831
      0.00002      3.33646      1.64420        -0.004369     -0.000794      0.016831
      1.43811      2.49100      1.63163         0.004927     -0.000000     -0.009429
     -1.43823      2.49100      1.68415        -0.000289     -0.000000     -0.006429
      0.23896      1.25218      6.89783         0.118833     -0.498357     -0.023475
      1.68475      1.24540      6.89520        -0.582508      0.005967      0.001824
     -1.91906      2.49100      6.89326         0.179327     -0.000000      0.022063
     -0.48036      2.49100      6.89612         0.000864     -0.000000     -0.008418
      2.38700      2.49100      6.89708         0.806583     -0.000000     -0.015955
      3.83502      2.49100      6.89963        -0.059467     -0.000000     -0.042095
      0.23896      3.72981      6.89783         0.118833      0.498357     -0.023475
      1.68475      3.73660      6.89520        -0.582508     -0.005967      0.001824
 -----------------------------------------------------------------------------------
    total drift:                               -0.000005      0.004647      0.000503


--------------------------------------------------------------------------------------------------------



  FREE ENERGIE OF THE ION-ELECTRON SYSTEM (eV)
  ---------------------------------------------------
  free  energy   TOTEN  =      -125.64751178 eV

  energy  without entropy=     -125.64168275  energy(sigma->0) =     -125.64459726
 
 d Force = 0.4750162E-03[ 0.474E-03, 0.476E-03]  d Energy = 0.4788512E-03-0.384E-05
 d Force =-0.6438664E+01[-0.645E+01,-0.643E+01]  d Ewald  =-0.6438664E+01 0.343E-06


--------------------------------------------------------------------------------------------------------


    POTLOK:  cpu time      0.0323: real time      0.0329


--------------------------------------------------------------------------------------------------------


 stress matrix after NEB project (eV)
     -0.30899      0.00000      0.00123
      0.00000      0.07826      0.00000
      0.00123      0.00000     -0.81908
  FORCES: max atom, RMS     0.806740    0.344238
  FORCE total and by dimension    1.376951    0.806583
  Stress total and by dimension    0.878911    0.819076


--------------------------------------------------------------------------------------------------------


    WAVPRE:  cpu time      0.0045: real time      0.0071
    FEWALD:  cpu time      0.0003: real time      0.0003
    ORTHCH:  cpu time      0.2141: real time      0.2147
     LOOP+:  cpu time     24.3653: real time     24.5660


--------------------------------------- Iteration     24(   1)  ---------------------------------------


    POTLOK:  cpu time      0.0319: real time      0.0327
    SETDIJ:  cpu time      0.0033: real time      0.0033
     EDDAV:  cpu time      3.2544: real time      3.2750
       DOS:  cpu time      0.0008: real time      0.0008
    CHARGE:  cpu time      0.1736: real time      0.1844
    MIXING:  cpu time      0.0006: real time      0.0006
    --------------------------------------------
      LOOP:  cpu time      3.4646: real time      3.4967

 eigenvalue-minimisations  :  8256
 total energy-change (2. order) :-0.4097341E-03  (-0.1454388E+00)
 number of electron      55.9999993 magnetization       0.0000002
 augmentation part        0.7182659 magnetization      -0.0000013

 Broyden mixing:
  rms(total) = 0.21380E-01    rms(broyden)= 0.21349E-01
  rms(prec ) = 0.25985E-01
  weight for this iteration     100.00

 Free energy of the ion-electron system (eV)
  ---------------------------------------------------
  alpha Z        PSCENC =        60.39793799
  Ewald energy   TEWEN  =      2144.09929597
  -Hartree energ DENC   =     -3753.89008720
  -exchange      EXHF   =         0.00000000
  -V(xc)+E(xc)   XCENC  =       168.21873789
  PAW double counting   =      5779.99827389    -5779.36453478
  entropy T*S    EENTRO =        -0.00582758
  eigenvalues    EBANDS =      -490.09769243
  atomic energy  EATOM  =      1746.50554237
  Solvation  Ediel_sol  =         0.00000000
  ---------------------------------------------------
  free energy    TOTEN  =      -124.13835389 eV

  energy without entropy =     -124.13252631  energy(sigma->0) =     -124.13544010


--------------------------------------------------------------------------------------------------------




--------------------------------------- Iteration     24(   2)  ---------------------------------------


    POTLOK:  cpu time      0.0294: real time      0.0301
    SETDIJ:  cpu time      0.0033: real time      0.0033
