Lattice                                 
           1
     4.314539    2.491000    0.000000
    -4.314539    2.491000    0.000000
     0.000000    0.000000   15.000000
   B    C 
     8     8
Direct configuration=     1
   0.66888689  0.00000000  0.10000000
   0.33111211  0.00000000  0.10000000
   0.00000000  0.33111211  0.10000000
   0.00000000  0.66888689  0.10000000
   0.33111211  0.33111211  0.10000000
   0.66888689  0.66888689  0.10000000
   0.66666600  0.33333300  0.09922189
   0.33333300  0.66666600  0.10077811
   0.27777711  0.22222189  0.46960000
   0.44444411  0.05555489  0.46960000
   0.27777711  0.72222189  0.46960000
   0.44444411  0.55555489  0.46960000
   0.77777711  0.22222189  0.46960000
   0.94444411  0.05555489  0.46960000
   0.77777711  0.72222189  0.46960000
   0.94444411  0.55555489  0.46960000
Direct configuration=     2
   0.67050594 -0.00000011  0.10002616
   0.32949316 -0.00000012  0.10002621
   0.00000011  0.32949306  0.10002616
   0.00000012  0.67050584  0.10002621
   0.32949284  0.32949282  0.10002624
   0.67050618  0.67050616  0.10002624
   0.66666614  0.33333286  0.09924511
   0.33333259  0.66666641  0.10081333
   0.27777227  0.22221747  0.46957335
   0.44444187  0.05555714  0.46957273
   0.27777719  0.72222181  0.46957224
   0.44444491  0.55555409  0.46957296
   0.77778052  0.22221848  0.46957317
   0.94444465  0.05555435  0.46957381
   0.77778153  0.72222673  0.46957335
   0.94444186  0.55555713  0.46957273
Direct configuration=     3
   0.66972484 -0.00000005  0.10001354
   0.33027421 -0.00000006  0.10001357
   0.00000005  0.33027416  0.10001354
   0.00000006  0.66972479  0.10001357
   0.33027404  0.33027404  0.10001358
   0.66972496  0.66972496  0.10001358
   0.66666607  0.33333293  0.09923391
   0.33333279  0.66666621  0.10079634
   0.27777461  0.22221960  0.46958621
   0.44444295  0.05555606  0.46958589
   0.27777715  0.72222185  0.46958563
   0.44444453  0.55555447  0.46958600
   0.77777888  0.22222012  0.46958611
   0.94444439  0.05555461  0.46958645
   0.77777940  0.72222439  0.46958621
   0.94444294  0.55555605  0.46958589
Direct configuration=     4
   0.66972793 -0.00000005  0.10001359
   0.33027112 -0.00000006  0.10001362
   0.00000005  0.33027107  0.10001359
   0.00000006  0.66972788  0.10001362
   0.33027095  0.33027095  0.10001363
   0.66972805  0.66972805  0.10001363
   0.66666607  0.33333293  0.09923395
   0.33333279  0.66666621  0.10079641
   0.27777460  0.22221959  0.46958616
   0.44444295  0.05555606  0.46958584
   0.27777715  0.72222185  0.46958558
   0.44444453  0.55555447  0.46958595
   0.77777888  0.22222012  0.46958606
   0.94444439  0.05555461  0.46958640
   0.77777941  0.72222440  0.46958616
   0.94444294  0.55555605  0.46958584
Direct configuration=     5
   0.66972652 -0.00000005  0.10001356
   0.33027253 -0.00000006  0.10001359
   0.00000005  0.33027248  0.10001356
   0.00000006  0.66972647  0.10001359
   0.33027236  0.33027236  0.10001361
   0.66972664  0.66972664  0.10001361
   0.66666607  0.33333293  0.09923393
   0.33333279  0.66666621  0.10079638
   0.27777460  0.22221960  0.46958618
   0.44444295  0.05555606  0.46958586
   0.27777715  0.72222185  0.46958560
   0.44444453  0.55555447  0.46958597
   0.77777888  0.22222012  0.46958608
   0.94444439  0.05555461  0.46958642
   0.77777940  0.72222440  0.46958618
   0.94444294  0.55555605  0.46958586
Direct configuration=     6
   0.66972568 -0.00000005  0.10001355
   0.33027337 -0.00000006  0.10001358
   0.00000005  0.33027332  0.10001355
   0.00000006  0.66972563  0.10001358
   0.33027320  0.33027320  0.10001359
   0.66972580  0.66972580  0.10001359
   0.66666607  0.33333293  0.09923392
   0.33333279  0.66666621  0.10079636
   0.27777461  0.22221960  0.46958619
   0.44444295  0.05555606  0.46958587
   0.27777715  0.72222185  0.46958562
   0.44444453  0.55555447  0.46958599
   0.77777888  0.22222012  0.46958610
   0.94444439  0.05555461  0.46958643
   0.77777940  0.72222439  0.46958619
   0.94444294  0.55555605  0.46958587
Direct configuration=     7
   0.66972526 -0.00000005  0.10001354
   0.33027379 -0.00000006  0.10001357
   0.00000005  0.33027374  0.10001354
   0.00000006  0.66972521  0.10001357
   0.33027362  0.33027362  0.10001359
   0.66972538  0.66972538  0.10001359
   0.66666607  0.33333293  0.09923391
   0.33333279  0.66666621  0.10079635
   0.27777461  0.22221960  0.46958620
   0.44444295  0.05555606  0.46958588
   0.27777715  0.72222185  0.46958562
   0.44444453  0.55555447  0.46958600
   0.77777888  0.22222012  0.46958611
   0.94444439  0.05555461  0.46958644
   0.77777940  0.72222439  0.46958620
   0.94444294  0.55555605  0.46958588
Direct configuration=     8
   0.66972535 -0.00000008  0.10003747
   0.33027381 -0.00000003  0.10003755
   0.00000008  0.33027365  0.10003747
   0.00000003  0.66972519  0.10003755
   0.33027369  0.33027367  0.10003759
   0.66972533  0.66972531  0.10003759
   0.66666605  0.33333295  0.09925777
   0.33333277  0.66666623  0.10082506
   0.27777786  0.22222331  0.46956187
   0.44444497  0.05555393  0.46956111
   0.27777670  0.72222230  0.46956053
   0.44444425  0.55555475  0.46956138
   0.77777587  0.22222313  0.46956165
   0.94444436  0.05555464  0.46956241
   0.77777569  0.72222114  0.46956187
   0.94444507  0.55555403  0.46956111
Direct configuration=     9
   0.66972563 -0.00000014  0.10010926
   0.33027388  0.00000008  0.10010948
   0.00000014  0.33027337  0.10010926
  -0.00000008  0.66972512  0.10010948
   0.33027388  0.33027382  0.10010959
   0.66972518  0.66972512  0.10010959
   0.66666599  0.33333301  0.09932934
   0.33333273  0.66666627  0.10091117
   0.27778760  0.22223443  0.46948889
   0.44445104  0.05554756  0.46948681
   0.27777533  0.72222367  0.46948526
   0.44444340  0.55555560  0.46948754
   0.77776687  0.22223213  0.46948829
   0.94444428  0.05555472  0.46949033
   0.77776457  0.72221140  0.46948889
   0.94445144  0.55554796  0.46948681
Direct configuration=    10
   0.66972617 -0.00000027  0.10025284
   0.33027400  0.00000029  0.10025334
   0.00000027  0.33027283  0.10025284
  -0.00000029  0.66972500  0.10025334
   0.33027426  0.33027413  0.10025360
   0.66972487  0.66972474  0.10025360
   0.66666588  0.33333312  0.09947248
   0.33333263  0.66666637  0.10108340
   0.27780710  0.22225667  0.46934291
   0.44446318  0.05553481  0.46933821
   0.27777259  0.72222641  0.46933471
   0.44444172  0.55555728  0.46933985
   0.77774887  0.22225013  0.46934157
   0.94444411  0.05555489  0.46934616
   0.77774233  0.72219190  0.46934291
   0.94446419  0.55553582  0.46933821
Direct configuration=    11
   0.66972727 -0.00000052  0.10053999
   0.33027425  0.00000072  0.10054106
   0.00000052  0.33027173  0.10053999
  -0.00000072  0.66972475  0.10054106
   0.33027503  0.33027474  0.10054162
   0.66972426  0.66972397  0.10054162
   0.66666565  0.33333335  0.09975877
   0.33333244  0.66666656  0.10142787
   0.27784610  0.22230114  0.46905097
   0.44448746  0.05550931  0.46904101
   0.27776711  0.72223189  0.46903362
   0.44443834  0.55556066  0.46904448
   0.77771285  0.22228615  0.46904812
   0.94444377  0.05555523  0.46905784
   0.77769786  0.72215290  0.46905097
   0.94448969  0.55551154  0.46904101
Direct configuration=    12
   0.66972946 -0.00000102  0.10111429
   0.33027474  0.00000158  0.10111651
   0.00000102  0.33026954  0.10111429
  -0.00000158  0.66972426  0.10111651
   0.33027656  0.33027597  0.10111766
   0.66972303  0.66972244  0.10111766
   0.66666519  0.33333381  0.10033134
   0.33333207  0.66666693  0.10211679
   0.27792408  0.22239010  0.46846708
   0.44453603  0.05545831  0.46844660
   0.27775617  0.72224283  0.46843143
   0.44443160  0.55556740  0.46845374
   0.77764083  0.22235817  0.46846123
   0.94444310  0.05555590  0.46848118
   0.77760890  0.72207492  0.46846708
   0.94454069  0.55546297  0.46844660
Direct configuration=    13
   0.66973384 -0.00000204  0.10226289
   0.33027573  0.00000330  0.10226740
   0.00000204  0.33026516  0.10226289
  -0.00000330  0.66972327  0.10226740
   0.33027963  0.33027842  0.10226973
   0.66972058  0.66971937  0.10226973
   0.66666426  0.33333474  0.10147649
   0.33333132  0.66666768  0.10349465
   0.27808006  0.22256801  0.46729931
   0.44463315  0.05535631  0.46725779
   0.27773427  0.72226473  0.46722704
   0.44441810  0.55558090  0.46727227
   0.77749678  0.22250222  0.46728745
   0.94444176  0.05555724  0.46732787
   0.77743099  0.72191894  0.46729931
   0.94464269  0.55536585  0.46725779
Direct configuration=    14
   0.66974260 -0.00000406  0.10456010
   0.33027770  0.00000674  0.10456918
   0.00000406  0.33025640  0.10456010
  -0.00000674  0.66972130  0.10456918
   0.33028576  0.33028332  0.10457388
   0.66971568  0.66971324  0.10457388
   0.66666241  0.33333659  0.10376678
   0.33332981  0.66666919  0.10625035
   0.27839201  0.22292383  0.46496376
   0.44482739  0.05515231  0.46488016
   0.27769047  0.72230853  0.46481828
   0.44439111  0.55560789  0.46490931
   0.77720869  0.22279031  0.46493990
   0.94443907  0.05555993  0.46502124
   0.77707517  0.72160699  0.46496376
   0.94484669  0.55517161  0.46488016
Direct configuration=    15
   0.66976011 -0.00000811  0.10915451
   0.33028165  0.00001361  0.10917274
   0.00000811  0.33023889  0.10915451
  -0.00001361  0.66971735  0.10917274
   0.33029803  0.33029313  0.10918218
   0.66970587  0.66970097  0.10918218
   0.66665872  0.33334028  0.10834736
   0.33332680  0.66667220  0.11176176
   0.27901592  0.22363548  0.46029265
   0.44521588  0.05474431  0.46012490
   0.27760288  0.72239612  0.46000076
   0.44433714  0.55566186  0.46018339
   0.77663250  0.22336650  0.46024478
   0.94443369  0.05556531  0.46040798
   0.77636352  0.72098308  0.46029265
   0.94525469  0.55478312  0.46012490
Direct configuration=    16
   0.66976011 -0.00000811  0.10915564
   0.33028165  0.00001361  0.10917387
   0.00000811  0.33023889  0.10915564
  -0.00001361  0.66971735  0.10917387
   0.33029803  0.33029313  0.10918331
   0.66970587  0.66970097  0.10918331
   0.66665871  0.33334029  0.10834848
   0.33332680  0.66667220  0.11176311
   0.27901596  0.22363551  0.46029151
   0.44521589  0.05474429  0.46012373
   0.27760288  0.72239612  0.45999958
   0.44433713  0.55566187  0.46018223
   0.77663248  0.22336652  0.46024363
   0.94443368  0.05556532  0.46040685
   0.77636349  0.72098304  0.46029151
   0.94525471  0.55478311  0.46012373
Direct configuration=    17
   0.66976012 -0.00000811  0.10915902
   0.33028165  0.00001360  0.10917725
   0.00000811  0.33023888  0.10915902
  -0.00001360  0.66971735  0.10917725
   0.33029804  0.33029314  0.10918670
   0.66970586  0.66970096  0.10918670
   0.66665871  0.33334029  0.10835185
   0.33332679  0.66667221  0.11176715
   0.27901611  0.22363561  0.46028807
   0.44521593  0.05474425  0.46012024
   0.27760289  0.72239611  0.45999605
   0.44433709  0.55566191  0.46017876
   0.77663240  0.22336660  0.46024018
   0.94443364  0.05556536  0.46040345
   0.77636339  0.72098289  0.46028807
   0.94525475  0.55478307  0.46012024
Direct configuration=    18
   0.66976013 -0.00000813  0.10916577
   0.33028166  0.00001360  0.10918402
   0.00000813  0.33023887  0.10916577
  -0.00001360  0.66971734  0.10918402
   0.33029805  0.33029316  0.10919347
   0.66970584  0.66970095  0.10919347
   0.66665871  0.33334029  0.10835857
   0.33332679  0.66667221  0.11177525
   0.27901639  0.22363581  0.46028120
   0.44521601  0.05474416  0.46011326
   0.27760292  0.72239608  0.45998899
   0.44433700  0.55566200  0.46017181
   0.77663225  0.22336675  0.46023327
   0.94443358  0.05556542  0.46039666
   0.77636319  0.72098261  0.46028120
   0.94525484  0.55478299  0.46011326
Direct configuration=    19
   0.66976014 -0.00000815  0.10917929
   0.33028168  0.00001360  0.10919756
   0.00000815  0.33023886  0.10917929
  -0.00001360  0.66971732  0.10919756
   0.33029808  0.33029320  0.10920703
   0.66970580  0.66970092  0.10920703
   0.66665871  0.33334029  0.10837202
   0.33332678  0.66667222  0.11179143
   0.27901695  0.22363621  0.46026745
   0.44521616  0.05474398  0.46009929
   0.27760298  0.72239602  0.45997485
   0.44433684  0.55566216  0.46015792
   0.77663194  0.22336706  0.46021946
   0.94443346  0.05556554  0.46038306
   0.77636279  0.72098205  0.46026745
   0.94525502  0.55478284  0.46009929
Direct configuration=    20
   0.66976018 -0.00000821  0.10920632
   0.33028170  0.00001359  0.10922465
   0.00000821  0.33023882  0.10920632
  -0.00001359  0.66971730  0.10922465
   0.33029815  0.33029328  0.10923414
   0.66970572  0.66970085  0.10923414
   0.66665871  0.33334029  0.10839891
   0.33332676  0.66667224  0.11182380
   0.27901807  0.22363701  0.46023996
   0.44521647  0.05474363  0.46007135
   0.27760309  0.72239591  0.45994659
   0.44433652  0.55566248  0.46013014
   0.77663134  0.22336766  0.46019185
   0.94443321  0.05556579  0.46035588
   0.77636199  0.72098093  0.46023996
   0.94525537  0.55478253  0.46007135
Direct configuration=    21
   0.66976024 -0.00000831  0.10926037
   0.33028176  0.00001357  0.10927881
   0.00000831  0.33023876  0.10926037
  -0.00001357  0.66971724  0.10927881
   0.33029827  0.33029343  0.10928835
   0.66970557  0.66970073  0.10928835
   0.66665870  0.33334030  0.10845270
   0.33332672  0.66667228  0.11188854
   0.27902031  0.22363861  0.46018498
   0.44521709  0.05474293  0.46001548
   0.27760331  0.72239569  0.45989006
   0.44433587  0.55566313  0.46007457
   0.77663013  0.22336887  0.46013661
   0.94443272  0.05556628  0.46030151
   0.77636039  0.72097869  0.46018498
   0.94525607  0.55478191  0.46001548
Direct configuration=    22
   0.66976037 -0.00000852  0.10936849
   0.33028187  0.00001353  0.10938713
   0.00000852  0.33023863  0.10936849
  -0.00001353  0.66971713  0.10938713
   0.33029852  0.33029374  0.10939679
   0.66970526  0.66970048  0.10939679
   0.66665868  0.33334032  0.10856028
   0.33332665  0.66667235  0.11201802
   0.27902479  0.22364181  0.46007502
   0.44521832  0.05474152  0.45990374
   0.27760376  0.72239524  0.45977701
   0.44433457  0.55566443  0.45996344
   0.77662770  0.22337130  0.46002615
   0.94443174  0.05556726  0.46019276
   0.77635719  0.72097421  0.46007502
   0.94525748  0.55478068  0.45990374
Direct configuration=    23
   0.66976064 -0.00000894  0.10958471
   0.33028209  0.00001344  0.10960378
   0.00000894  0.33023836  0.10958471
  -0.00001344  0.66971691  0.10960378
   0.33029902  0.33029435  0.10961365
   0.66970465  0.66969998  0.10961365
   0.66665863  0.33334037  0.10877545
   0.33332650  0.66667250  0.11227698
   0.27903376  0.22364821  0.45985510
   0.44522079  0.05473870  0.45968025
   0.27760465  0.72239435  0.45955091
   0.44433197  0.55566703  0.45974117
   0.77662285  0.22337615  0.45980521
   0.94442977  0.05556923  0.45997528
   0.77635079  0.72096524  0.45985510
   0.94526030  0.55477821  0.45968025
Direct configuration=    24
   0.66976116 -0.00000978  0.11001717
   0.33028253  0.00001328  0.11003708
   0.00000978  0.33023784  0.11001717
  -0.00001328  0.66971647  0.11003708
   0.33030001  0.33029558  0.11004739
   0.66970342  0.66969899  0.11004739
   0.66665855  0.33334045  0.10920577
   0.33332620  0.66667280  0.11279490
   0.27905170  0.22366102  0.45941526
   0.44522572  0.05473307  0.45923327
   0.27760644  0.72239256  0.45909870
   0.44432677  0.55567223  0.45929664
   0.77661314  0.22338586  0.45936334
   0.94442584  0.05557316  0.45954030
   0.77633798  0.72094730  0.45941526
   0.94526593  0.55477328  0.45923327
Direct configuration=    25
   0.66976221 -0.00001146  0.11088208
   0.33028341  0.00001296  0.11090369
   0.00001146  0.33023679  0.11088208
  -0.00001296  0.66971559  0.11090369
   0.33030200  0.33029804  0.11091485
   0.66970096  0.66969700  0.11091485
   0.66665839  0.33334061  0.11006642
   0.33332559  0.66667341  0.11383074
   0.27908757  0.22368662  0.45853558
   0.44523558  0.05472180  0.45833932
   0.27761002  0.72238898  0.45819428
   0.44431637  0.55568263  0.45840757
   0.77659373  0.22340527  0.45847961
   0.94441797  0.05558103  0.45867035
   0.77631238  0.72091143  0.45853558
   0.94527720  0.55476342  0.45833932
Direct configuration=    26
   0.66976432 -0.00001482  0.11261190
   0.33028518  0.00001231  0.11263689
   0.00001482  0.33023468  0.11261190
  -0.00001231  0.66971382  0.11263689
   0.33030598  0.33030295  0.11264979
   0.66969605  0.66969302  0.11264979
   0.66665807  0.33334093  0.11178771
   0.33332439  0.66667461  0.11590243
   0.27915931  0.22373784  0.45677621
   0.44525530  0.05469927  0.45655141
   0.27761717  0.72238183  0.45638544
   0.44429557  0.55570343  0.45662943
   0.77655491  0.22344409  0.45671213
   0.94440224  0.05559676  0.45693046
   0.77626116  0.72083969  0.45677621
   0.94529973  0.55474370  0.45655141
Direct configuration=    27
   0.66976853 -0.00002154  0.11607154
   0.33028870  0.00001101  0.11610330
   0.00002154  0.33023047  0.11607154
  -0.00001101  0.66971030  0.11610330
   0.33031395  0.33031278  0.11611965
   0.66968622  0.66968505  0.11611965
   0.66665742  0.33334158  0.11523029
   0.33332198  0.66667702  0.12004579
   0.27930280  0.22384026  0.45325749
   0.44529474  0.05465421  0.45297559
   0.27763148  0.72236752  0.45276776
   0.44425397  0.55574503  0.45307317
   0.77647727  0.22352173  0.45317719
   0.94437077  0.05562823  0.45345067
   0.77615874  0.72069620  0.45325749
   0.94534479  0.55470426  0.45297559
Direct configuration=    28
   0.66977695 -0.00003499  0.12299082
   0.33029576  0.00000841  0.12303611
   0.00003499  0.33022205  0.12299082
  -0.00000841  0.66970324  0.12303611
   0.33032988  0.33033244  0.12305939
   0.66966656  0.66966912  0.12305939
   0.66665613  0.33334287  0.12211546
   0.33331716  0.66668184  0.12833252
   0.27958977  0.22404512  0.44622003
   0.44537362  0.05456408  0.44582396
   0.27766009  0.72233891  0.44553241
   0.44417078  0.55582822  0.44596063
   0.77632200  0.22367700  0.44610729
   0.94430783  0.05569117  0.44649109
   0.77595388  0.72040923  0.44622003
   0.94543492  0.55462538  0.44582396
Direct configuration=    29
   0.66979379 -0.00006187  0.13682937
   0.33030987  0.00000320  0.13690173
   0.00006187  0.33020521  0.13682937
  -0.00000320  0.66968913  0.13690173
   0.33036173  0.33037176  0.13693886
   0.66962724  0.66963727  0.13693886
   0.66665355  0.33334545  0.13588580
   0.33330752  0.66669148  0.14490599
   0.28016372  0.22445483  0.43214512
   0.44553139  0.05438383  0.43152068
   0.27771731  0.72228169  0.43106170
   0.44400438  0.55599462  0.43173556
   0.77601144  0.22398756  0.43196751
   0.94418195  0.05581705  0.43257192
   0.77554417  0.71983528  0.43214512
   0.94561517  0.55446761  0.43152068
Direct configuration=    30
   0.66982747 -0.00011564  0.16450648
   0.33033808 -0.00000720  0.16463298
   0.00011564  0.33017153  0.16450648
   0.00000720  0.66966092  0.16463298
   0.33042544  0.33045039  0.16469780
   0.66954861  0.66957356  0.16469780
   0.66664838  0.33335062  0.16342648
   0.33328824  0.66671076  0.17805291
   0.28131161  0.22527424  0.40399529
   0.44584692  0.05402333  0.40291414
   0.27783175  0.72216725  0.40212028
   0.44367160  0.55632740  0.40328541
   0.77539033  0.22460867  0.40368794
   0.94393020  0.05606880  0.40473360
   0.77472476  0.71868739  0.40399529
   0.94597567  0.55415208  0.40291414
Direct configuration=    31
   0.66982010 -0.00010387  0.15845031
   0.33033191 -0.00000492  0.15856497
   0.00010387  0.33017890  0.15845031
   0.00000492  0.66966709  0.15856497
   0.33041150  0.33043319  0.15862372
   0.66956581  0.66958750  0.15862372
   0.66664951  0.33334949  0.15740016
   0.33329246  0.66670654  0.17079986
   0.28106043  0.22509494  0.41015490
   0.44577788  0.05410222  0.40917369
   0.27780671  0.72219229  0.40845310
   0.44374442  0.55625458  0.40951073
   0.77552624  0.22447276  0.40987594
   0.94398529  0.05601371  0.41082504
   0.77490406  0.71893857  0.41015490
   0.94589678  0.55422112  0.40917369
Direct configuration=    32
   0.66982526 -0.00011211  0.16269161
   0.33033623 -0.00000652  0.16281456
   0.00011211  0.33017374  0.16269161
   0.00000652  0.66966277  0.16281456
   0.33042126  0.33044524  0.16287756
   0.66955376  0.66957774  0.16287756
   0.66664872  0.33335028  0.16162055
   0.33328950  0.66670950  0.17587936
   0.28123634  0.22522051  0.40584116
   0.44582623  0.05404697  0.40478996
   0.27782425  0.72217475  0.40401806
   0.44369342  0.55630558  0.40515097
   0.77543106  0.22456794  0.40554232
   0.94394671  0.05605229  0.40655904
   0.77477849  0.71876266  0.40584116
   0.94595203  0.55417277  0.40478996
Direct configuration=    33
   0.66975322 -0.00018233  0.16731877
   0.33035275 -0.00006661  0.16745006
   0.00018233  0.33024578  0.16731877
   0.00006661  0.66964625  0.16745006
   0.33043378  0.33050923  0.16751713
   0.66948977  0.66956522  0.16751713
   0.66664721  0.33335179  0.16619823
   0.33328369  0.66671531  0.18138567
   0.28089209  0.22484833  0.40113128
   0.44561901  0.05426686  0.40002869
   0.27785624  0.72214276  0.39921576
   0.44373731  0.55626169  0.40040804
   0.77573231  0.22426669  0.40081870
   0.94395276  0.05604624  0.40188173
   0.77515067  0.71910691  0.40113128
   0.94573214  0.55437999  0.40002869
Direct configuration=    34
   0.66976445 -0.00017138  0.16659752
   0.33035018 -0.00005725  0.16672751
   0.00017138  0.33023455  0.16659752
   0.00005725  0.66964882  0.16672751
   0.33043183  0.33049926  0.16679394
   0.66949974  0.66956717  0.16679394
   0.66664744  0.33335156  0.16548469
   0.33328459  0.66671441  0.18052738
   0.28094575  0.22490634  0.40186543
   0.44565131  0.05423259  0.40077085
   0.27785126  0.72214774  0.39996431
   0.44373047  0.55626853  0.40114733
   0.77568535  0.22431365  0.40155499
   0.94395181  0.05604719  0.40261080
   0.77509266  0.71905325  0.40186543
   0.94576641  0.55434769  0.40077085
Direct configuration=    35
   0.66968991 -0.00022988  0.16620894
   0.33036485 -0.00010889  0.16633726
   0.00022988  0.33030909  0.16620894
   0.00010889  0.66963415  0.16633726
   0.33043442  0.33054454  0.16640263
   0.66945446  0.66956458  0.16640263
   0.66664414  0.33335486  0.16507242
   0.33328113  0.66671787  0.18002858
   0.28049843  0.22450009  0.40225723
   0.44545148  0.05445560  0.40119310
   0.27785176  0.72214724  0.40040440
   0.44382323  0.55617577  0.40156076
   0.77600648  0.22399252  0.40195616
   0.94400051  0.05599849  0.40297934
   0.77549891  0.71950057  0.40225723
   0.94554340  0.55454752  0.40119310
Direct configuration=    36
   0.66946629 -0.00040537  0.16504322
   0.33040885 -0.00026381  0.16516653
   0.00040537  0.33053271  0.16504322
   0.00026381  0.66959015  0.16516653
   0.33044220  0.33068040  0.16522871
   0.66931860  0.66955680  0.16522871
   0.66663426  0.33336474  0.16383562
   0.33327076  0.66672824  0.17853218
   0.27915647  0.22328132  0.40343265
   0.44485199  0.05512462  0.40245984
   0.27785327  0.72214573  0.40172469
   0.44410153  0.55589747  0.40280103
   0.77696986  0.22302914  0.40315966
   0.94414658  0.05585242  0.40408495
   0.77671768  0.72084253  0.40343265
   0.94487438  0.55514701  0.40245984
Direct configuration=    37
   0.66901903 -0.00075635  0.16271177
   0.33049687 -0.00057364  0.16282507
   0.00075635  0.33097997  0.16271177
   0.00057364  0.66950213  0.16282507
   0.33045775  0.33095212  0.16288085
   0.66904688  0.66954125  0.16288085
   0.66661448  0.33338452  0.16136200
   0.33325001  0.66674899  0.17553938
   0.27647253  0.22084378  0.40578348
   0.44365302  0.05646267  0.40499331
   0.27785630  0.72214270  0.40436526
   0.44465812  0.55534088  0.40528157
   0.77889663  0.22110237  0.40556667
   0.94443873  0.05556027  0.40629616
   0.77915522  0.72352647  0.40578348
   0.94353633  0.55634598  0.40499331
Direct configuration=    38
   0.66927007 -0.00055935  0.16402035
   0.33044747 -0.00039974  0.16413927
   0.00055935  0.33072893  0.16402035
   0.00039974  0.66955153  0.16413927
   0.33044902  0.33079961  0.16419865
   0.66919939  0.66954998  0.16419865
   0.66662558  0.33337342  0.16275038
   0.33326166  0.66673734  0.17721917
   0.27797896  0.22221191  0.40446401
   0.44432597  0.05571166  0.40357133
   0.27785460  0.72214440  0.40288317
   0.44434572  0.55565328  0.40388930
   0.77781518  0.22218382  0.40421567
   0.94427475  0.05572425  0.40505506
   0.77778709  0.72202004  0.40446401
   0.94428734  0.55567303  0.40357133
Direct configuration=    39
   0.66921721 -0.00057886  0.16401791
   0.33047505 -0.00042304  0.16413541
   0.00057886  0.33078179  0.16401791
   0.00042304  0.66952395  0.16413541
   0.33046439  0.33082669  0.16419327
   0.66917231  0.66953461  0.16419327
   0.66662353  0.33337547  0.16269333
   0.33326187  0.66673713  0.17715033
   0.27787077  0.22221953  0.40446091
   0.44436419  0.05567868  0.40361305
   0.27780432  0.72219468  0.40295493
   0.44439939  0.55559961  0.40391770
   0.77779170  0.22220730  0.40422444
   0.94433546  0.05566354  0.40501816
   0.77777947  0.72212823  0.40446091
   0.94432032  0.55563481  0.40361305
Direct configuration=    40
   0.66905864 -0.00063737  0.16401057
   0.33055780 -0.00049296  0.16412383
   0.00063737  0.33094036  0.16401057
   0.00049296  0.66944120  0.16412383
   0.33051050  0.33090792  0.16417715
   0.66909108  0.66948850  0.16417715
   0.66661739  0.33338161  0.16252219
   0.33326250  0.66673650  0.17694381
   0.27754620  0.22224240  0.40445160
   0.44447886  0.05557975  0.40373821
   0.27765348  0.72234552  0.40317022
   0.44456041  0.55543859  0.40400289
   0.77772125  0.22227775  0.40425073
   0.94451760  0.05548140  0.40490745
   0.77775660  0.72245280  0.40445160
   0.94441925  0.55552014  0.40373821
Direct configuration=    41
   0.66898137 -0.00066588  0.16400699
   0.33059812 -0.00052703  0.16411818
   0.00066588  0.33101763  0.16400699
   0.00052703  0.66940088  0.16411818
   0.33053297  0.33094750  0.16416930
   0.66905150  0.66946603  0.16416930
   0.66661440  0.33338460  0.16243881
   0.33326281  0.66673619  0.17684319
   0.27738806  0.22225354  0.40444707
   0.44453472  0.05553155  0.40379919
   0.27757998  0.72241902  0.40327511
   0.44463886  0.55536014  0.40404440
   0.77768693  0.22231207  0.40426354
   0.94460634  0.05539266  0.40485351
   0.77774546  0.72261094  0.40444707
   0.94446745  0.55546428  0.40379919
Direct configuration=    42
   0.66893784 -0.00066926  0.16401890
   0.33063283 -0.00053686  0.16412758
   0.00066926  0.33106116  0.16401890
   0.00053686  0.66936617  0.16412758
   0.33055133  0.33096173  0.16417571
   0.66903727  0.66944767  0.16417571
   0.66661010  0.33338890  0.16234773
   0.33326647  0.66673253  0.17673662
   0.27741370  0.22224624  0.40442764
   0.44452205  0.05554343  0.40385604
   0.27759605  0.72240295  0.40338350
   0.44461591  0.55538309  0.40407812
   0.77769603  0.22230297  0.40426487
   0.94458787  0.05541113  0.40477742
   0.77775276  0.72258530  0.40442764
   0.94445557  0.55547695  0.40385604
Direct configuration=    43
   0.66880724 -0.00067939  0.16405462
   0.33073697 -0.00056634  0.16415577
   0.00067939  0.33119176  0.16405462
   0.00056634  0.66926203  0.16415577
   0.33060639  0.33100442  0.16419495
   0.66899458  0.66939261  0.16419495
   0.66659720  0.33340180  0.16207451
   0.33327745  0.66672155  0.17641691
   0.27749060  0.22222434  0.40436935
   0.44448404  0.05557909  0.40402661
   0.27764426  0.72235474  0.40370865
   0.44454705  0.55545195  0.40417928
   0.77772332  0.22227568  0.40426889
   0.94453247  0.05546653  0.40454917
   0.77777466  0.72250840  0.40436935
   0.94441991  0.55551496  0.40402661
Direct configuration=    44
   0.66854603 -0.00069966  0.16412606
   0.33094525 -0.00062532  0.16421215
   0.00069966  0.33145297  0.16412606
   0.00062532  0.66905375  0.16421215
   0.33071651  0.33108981  0.16423344
   0.66890919  0.66928249  0.16423344
   0.66657139  0.33342761  0.16152806
   0.33329942  0.66669958  0.17577748
   0.27764441  0.22218053  0.40425278
   0.44440802  0.05565039  0.40436775
   0.27774068  0.72225832  0.40435895
   0.44440935  0.55558965  0.40438161
   0.77777792  0.22222108  0.40427691
   0.94442167  0.05557733  0.40409266
   0.77781847  0.72235459  0.40425278
   0.94434861  0.55559098  0.40436775
Direct configuration=    45
   0.66846968 -0.00070558  0.16414694
   0.33100613 -0.00064256  0.16422862
   0.00070558  0.33152932  0.16414694
   0.00064256  0.66899287  0.16422862
   0.33074870  0.33111477  0.16424469
   0.66888423  0.66925030  0.16424469
   0.66656385  0.33343515  0.16136833
   0.33330584  0.66669316  0.17559058
   0.27768937  0.22216773  0.40421871
   0.44438580  0.05567123  0.40446746
   0.27776886  0.72223014  0.40454903
   0.44436910  0.55562990  0.40444075
   0.77779387  0.22220513  0.40427926
   0.94438928  0.05560972  0.40395923
   0.77783127  0.72230963  0.40421871
   0.94432777  0.55561320  0.40446746
Direct configuration=    46
   0.66878437 -0.00054109  0.16419675
   0.33089025 -0.00048300  0.16427380
   0.00054109  0.33121463  0.16419675
   0.00048300  0.66910875  0.16427380
   0.33066263  0.33090114  0.16428076
   0.66909786  0.66933637  0.16428076
   0.66655842  0.33344058  0.16116678
   0.33333193  0.66666707  0.17537996
   0.27777634  0.22228060  0.40419955
   0.44441535  0.05563866  0.40452258
   0.27773142  0.72226758  0.40466170
   0.44441017  0.55558883  0.40447405
   0.77773128  0.22226772  0.40428298
   0.94438905  0.05560995  0.40388767
   0.77771840  0.72222266  0.40419955
   0.94436034  0.55558365  0.40452258
Direct configuration=    47
   0.66930206 -0.00027048  0.16427870
   0.33069963 -0.00022051  0.16434811
   0.00027048  0.33069694  0.16427870
   0.00022051  0.66929937  0.16434811
   0.33052102  0.33054970  0.16434009
   0.66944930  0.66947798  0.16434009
   0.66654947  0.33344953  0.16083521
   0.33337485  0.66662415  0.17503347
   0.27791941  0.22246628  0.40416802
   0.44446395  0.05558509  0.40461326
   0.27766984  0.72232916  0.40484706
   0.44447773  0.55552127  0.40452883
   0.77762830  0.22237070  0.40428911