Lattice                                 
           1
     4.314539    2.491000    0.000000
    -4.314539    2.491000    0.000000
     0.000000    0.000000   15.000000
   B    C 
     8     8
Direct configuration=     1
   0.66888689  0.00000000  0.10000000
   0.33111211  0.00000000  0.10000000
   0.00000000  0.33111211  0.10000000
   0.00000000  0.66888689  0.10000000
   0.33111211  0.33111211  0.10000000
   0.66888689  0.66888689  0.10000000
   0.66666600  0.33333300  0.09922189
   0.33333300  0.66666600  0.10077811
   0.27777711  0.22222189  0.46960000
   0.44444411  0.05555489  0.46960000
   0.27777711  0.72222189  0.46960000
   0.44444411  0.55555489  0.46960000
   0.77777711  0.22222189  0.46960000
   0.94444411  0.05555489  0.46960000
   0.77777711  0.72222189  0.46960000
   0.94444411  0.55555489  0.46960000
Direct configuration=     2
   0.67050594 -0.00000011  0.10002616
   0.32949316 -0.00000012  0.10002621
   0.00000011  0.32949306  0.10002616
   0.00000012  0.67050584  0.10002621
   0.32949284  0.32949282  0.10002624
   0.67050618  0.67050616  0.10002624
   0.66666614  0.33333286  0.09924511
   0.33333259  0.66666641  0.10081333
   0.27777227  0.22221747  0.46957335
   0.44444187  0.05555714  0.46957273
   0.27777719  0.72222181  0.46957224
   0.44444491  0.55555409  0.46957296
   0.77778052  0.22221848  0.46957317
   0.94444465  0.05555435  0.46957381
   0.77778153  0.72222673  0.46957335
   0.94444186  0.55555713  0.46957273
Direct configuration=     3
   0.66972484 -0.00000005  0.10001354
   0.33027421 -0.00000006  0.10001357
   0.00000005  0.33027416  0.10001354
   0.00000006  0.66972479  0.10001357
   0.33027404  0.33027404  0.10001358
   0.66972496  0.66972496  0.10001358
   0.66666607  0.33333293  0.09923391
   0.33333279  0.66666621  0.10079634
   0.27777461  0.22221960  0.46958621
   0.44444295  0.05555606  0.46958589
   0.27777715  0.72222185  0.46958563
   0.44444453  0.55555447  0.46958600
   0.77777888  0.22222012  0.46958611
   0.94444439  0.05555461  0.46958645
   0.77777940  0.72222439  0.46958621
   0.94444294  0.55555605  0.46958589
Direct configuration=     4
   0.66972793 -0.00000005  0.10001359
   0.33027112 -0.00000006  0.10001362
   0.00000005  0.33027107  0.10001359
   0.00000006  0.66972788  0.10001362
   0.33027095  0.33027095  0.10001363
   0.66972805  0.66972805  0.10001363
   0.66666607  0.33333293  0.09923395
   0.33333279  0.66666621  0.10079641
   0.27777460  0.22221959  0.46958616
   0.44444295  0.05555606  0.46958584
   0.27777715  0.72222185  0.46958558
   0.44444453  0.55555447  0.46958595
   0.77777888  0.22222012  0.46958606
   0.94444439  0.05555461  0.46958640
   0.77777941  0.72222440  0.46958616
   0.94444294  0.55555605  0.46958584
Direct configuration=     5
   0.66972652 -0.00000005  0.10001356
   0.33027253 -0.00000006  0.10001359
   0.00000005  0.33027248  0.10001356
   0.00000006  0.66972647  0.10001359
   0.33027236  0.33027236  0.10001361
   0.66972664  0.66972664  0.10001361
   0.66666607  0.33333293  0.09923393
   0.33333279  0.66666621  0.10079638
   0.27777460  0.22221960  0.46958618
   0.44444295  0.05555606  0.46958586
   0.27777715  0.72222185  0.46958560
   0.44444453  0.55555447  0.46958597
   0.77777888  0.22222012  0.46958608
   0.94444439  0.05555461  0.46958642
   0.77777940  0.72222440  0.46958618
   0.94444294  0.55555605  0.46958586
Direct configuration=     6
   0.66972568 -0.00000005  0.10001355
   0.33027337 -0.00000006  0.10001358
   0.00000005  0.33027332  0.10001355
   0.00000006  0.66972563  0.10001358
   0.33027320  0.33027320  0.10001359
   0.66972580  0.66972580  0.10001359
   0.66666607  0.33333293  0.09923392
   0.33333279  0.66666621  0.10079636
   0.27777461  0.22221960  0.46958619
   0.44444295  0.05555606  0.46958587
   0.27777715  0.72222185  0.46958562
   0.44444453  0.55555447  0.46958599
   0.77777888  0.22222012  0.46958610
   0.94444439  0.05555461  0.46958643
   0.77777940  0.72222439  0.46958619
   0.94444294  0.55555605  0.46958587
Direct configuration=     7
   0.66972526 -0.00000005  0.10001354
   0.33027379 -0.00000006  0.10001357
   0.00000005  0.33027374  0.10001354
   0.00000006  0.66972521  0.10001357
   0.33027362  0.33027362  0.10001359
   0.66972538  0.66972538  0.10001359
   0.66666607  0.33333293  0.09923391
   0.33333279  0.66666621  0.10079635
   0.27777461  0.22221960  0.46958620
   0.44444295  0.05555606  0.46958588
   0.27777715  0.72222185  0.46958562
   0.44444453  0.55555447  0.46958600
   0.77777888  0.22222012  0.46958611
   0.94444439  0.05555461  0.46958644
   0.77777940  0.72222439  0.46958620
   0.94444294  0.55555605  0.46958588
Direct configuration=     8
   0.66972535 -0.00000008  0.10003747
   0.33027381 -0.00000003  0.10003755
   0.00000008  0.33027365  0.10003747
   0.00000003  0.66972519  0.10003755
   0.33027369  0.33027367  0.10003759
   0.66972533  0.66972531  0.10003759
   0.66666605  0.33333295  0.09925777
   0.33333277  0.66666623  0.10082506
   0.27777786  0.22222331  0.46956187
   0.44444497  0.05555393  0.46956111
   0.27777670  0.72222230  0.46956053
   0.44444425  0.55555475  0.46956138
   0.77777587  0.22222313  0.46956165
   0.94444436  0.05555464  0.46956241
   0.77777569  0.72222114  0.46956187
   0.94444507  0.55555403  0.46956111
Direct configuration=     9
   0.66972563 -0.00000014  0.10010926
   0.33027388  0.00000008  0.10010948
   0.00000014  0.33027337  0.10010926
  -0.00000008  0.66972512  0.10010948
   0.33027388  0.33027382  0.10010959
   0.66972518  0.66972512  0.10010959
   0.66666599  0.33333301  0.09932934
   0.33333273  0.66666627  0.10091117
   0.27778760  0.22223443  0.46948889
   0.44445104  0.05554756  0.46948681
   0.27777533  0.72222367  0.46948526
   0.44444340  0.55555560  0.46948754
   0.77776687  0.22223213  0.46948829
   0.94444428  0.05555472  0.46949033
   0.77776457  0.72221140  0.46948889
   0.94445144  0.55554796  0.46948681
Direct configuration=    10
   0.66972617 -0.00000027  0.10025284
   0.33027400  0.00000029  0.10025334
   0.00000027  0.33027283  0.10025284
  -0.00000029  0.66972500  0.10025334
   0.33027426  0.33027413  0.10025360
   0.66972487  0.66972474  0.10025360
   0.66666588  0.33333312  0.09947248
   0.33333263  0.66666637  0.10108340
   0.27780710  0.22225667  0.46934291
   0.44446318  0.05553481  0.46933821
   0.27777259  0.72222641  0.46933471
   0.44444172  0.55555728  0.46933985
   0.77774887  0.22225013  0.46934157
   0.94444411  0.05555489  0.46934616
   0.77774233  0.72219190  0.46934291
   0.94446419  0.55553582  0.46933821
Direct configuration=    11
   0.66972727 -0.00000052  0.10053999
   0.33027425  0.00000072  0.10054106
   0.00000052  0.33027173  0.10053999
  -0.00000072  0.66972475  0.10054106
   0.33027503  0.33027474  0.10054162
   0.66972426  0.66972397  0.10054162
   0.66666565  0.33333335  0.09975877
   0.33333244  0.66666656  0.10142787
   0.27784610  0.22230114  0.46905097
   0.44448746  0.05550931  0.46904101
   0.27776711  0.72223189  0.46903362
   0.44443834  0.55556066  0.46904448
   0.77771285  0.22228615  0.46904812
   0.94444377  0.05555523  0.46905784
   0.77769786  0.72215290  0.46905097
   0.94448969  0.55551154  0.46904101
Direct configuration=    12
   0.66972946 -0.00000102  0.10111429
   0.33027474  0.00000158  0.10111651
   0.00000102  0.33026954  0.10111429
  -0.00000158  0.66972426  0.10111651
   0.33027656  0.33027597  0.10111766
   0.66972303  0.66972244  0.10111766
   0.66666519  0.33333381  0.10033134
   0.33333207  0.66666693  0.10211679
   0.27792408  0.22239010  0.46846708
   0.44453603  0.05545831  0.46844660
   0.27775617  0.72224283  0.46843143
   0.44443160  0.55556740  0.46845374
   0.77764083  0.22235817  0.46846123
   0.94444310  0.05555590  0.46848118
   0.77760890  0.72207492  0.46846708
   0.94454069  0.55546297  0.46844660
Direct configuration=    13
   0.66973384 -0.00000204  0.10226289
   0.33027573  0.00000330  0.10226740
   0.00000204  0.33026516  0.10226289
  -0.00000330  0.66972327  0.10226740
   0.33027963  0.33027842  0.10226973
   0.66972058  0.66971937  0.10226973
   0.66666426  0.33333474  0.10147649
   0.33333132  0.66666768  0.10349465
   0.27808006  0.22256801  0.46729931
   0.44463315  0.05535631  0.46725779
   0.27773427  0.72226473  0.46722704
   0.44441810  0.55558090  0.46727227
   0.77749678  0.22250222  0.46728745
   0.94444176  0.05555724  0.46732787
   0.77743099  0.72191894  0.46729931
   0.94464269  0.55536585  0.46725779
Direct configuration=    14
   0.66974260 -0.00000406  0.10456010
   0.33027770  0.00000674  0.10456918
   0.00000406  0.33025640  0.10456010
  -0.00000674  0.66972130  0.10456918
   0.33028576  0.33028332  0.10457388
   0.66971568  0.66971324  0.10457388
   0.66666241  0.33333659  0.10376678
   0.33332981  0.66666919  0.10625035
   0.27839201  0.22292383  0.46496376
   0.44482739  0.05515231  0.46488016
   0.27769047  0.72230853  0.46481828
   0.44439111  0.55560789  0.46490931
   0.77720869  0.22279031  0.46493990
   0.94443907  0.05555993  0.46502124
   0.77707517  0.72160699  0.46496376
   0.94484669  0.55517161  0.46488016
Direct configuration=    15
   0.66976011 -0.00000811  0.10915451
   0.33028165  0.00001361  0.10917274
   0.00000811  0.33023889  0.10915451
  -0.00001361  0.66971735  0.10917274
   0.33029803  0.33029313  0.10918218
   0.66970587  0.66970097  0.10918218
   0.66665872  0.33334028  0.10834736
   0.33332680  0.66667220  0.11176176
   0.27901592  0.22363548  0.46029265
   0.44521588  0.05474431  0.46012490
   0.27760288  0.72239612  0.46000076
   0.44433714  0.55566186  0.46018339
   0.77663250  0.22336650  0.46024478
   0.94443369  0.05556531  0.46040798
   0.77636352  0.72098308  0.46029265
   0.94525469  0.55478312  0.46012490
Direct configuration=    16
   0.66976011 -0.00000811  0.10915564
   0.33028165  0.00001361  0.10917387
   0.00000811  0.33023889  0.10915564
  -0.00001361  0.66971735  0.10917387
   0.33029803  0.33029313  0.10918331
   0.66970587  0.66970097  0.10918331
   0.66665871  0.33334029  0.10834848
   0.33332680  0.66667220  0.11176311
   0.27901596  0.22363551  0.46029151
   0.44521589  0.05474429  0.46012373
   0.27760288  0.72239612  0.45999958
   0.44433713  0.55566187  0.46018223
   0.77663248  0.22336652  0.46024363
   0.94443368  0.05556532  0.46040685
   0.77636349  0.72098304  0.46029151
   0.94525471  0.55478311  0.46012373
Direct configuration=    17
   0.66976012 -0.00000811  0.10915902
   0.33028165  0.00001360  0.10917725
   0.00000811  0.33023888  0.10915902
  -0.00001360  0.66971735  0.10917725
   0.33029804  0.33029314  0.10918670
   0.66970586  0.66970096  0.10918670
   0.66665871  0.33334029  0.10835185
   0.33332679  0.66667221  0.11176715
   0.27901611  0.22363561  0.46028807
   0.44521593  0.05474425  0.46012024
   0.27760289  0.72239611  0.45999605
   0.44433709  0.55566191  0.46017876
   0.77663240  0.22336660  0.46024018
   0.94443364  0.05556536  0.46040345
   0.77636339  0.72098289  0.46028807
   0.94525475  0.55478307  0.46012024
Direct configuration=    18
   0.66976013 -0.00000813  0.10916577
   0.33028166  0.00001360  0.10918402
   0.00000813  0.33023887  0.10916577
  -0.00001360  0.66971734  0.10918402
   0.33029805  0.33029316  0.10919347
   0.66970584  0.66970095  0.10919347
   0.66665871  0.33334029  0.10835857
   0.33332679  0.66667221  0.11177525
   0.27901639  0.22363581  0.46028120
   0.44521601  0.05474416  0.46011326
   0.27760292  0.72239608  0.45998899
   0.44433700  0.55566200  0.46017181
   0.77663225  0.22336675  0.46023327
   0.94443358  0.05556542  0.46039666
   0.77636319  0.72098261  0.46028120
   0.94525484  0.55478299  0.46011326
Direct configuration=    19
   0.66976014 -0.00000815  0.10917929
   0.33028168  0.00001360  0.10919756
   0.00000815  0.33023886  0.10917929
  -0.00001360  0.66971732  0.10919756
   0.33029808  0.33029320  0.10920703
   0.66970580  0.66970092  0.10920703
   0.66665871  0.33334029  0.10837202
   0.33332678  0.66667222  0.11179143
   0.27901695  0.22363621  0.46026745
   0.44521616  0.05474398  0.46009929
   0.27760298  0.72239602  0.45997485
   0.44433684  0.55566216  0.46015792
   0.77663194  0.22336706  0.46021946
   0.94443346  0.05556554  0.46038306
   0.77636279  0.72098205  0.46026745
   0.94525502  0.55478284  0.46009929
Direct configuration=    20
   0.66976018 -0.00000821  0.10920632
   0.33028170  0.00001359  0.10922465
   0.00000821  0.33023882  0.10920632
  -0.00001359  0.66971730  0.10922465
   0.33029815  0.33029328  0.10923414
   0.66970572  0.66970085  0.10923414
   0.66665871  0.33334029  0.10839891
   0.33332676  0.66667224  0.11182380
   0.27901807  0.22363701  0.46023996
   0.44521647  0.05474363  0.46007135
   0.27760309  0.72239591  0.45994659
   0.44433652  0.55566248  0.46013014
   0.77663134  0.22336766  0.46019185
   0.94443321  0.05556579  0.46035588
   0.77636199  0.72098093  0.46023996
   0.94525537  0.55478253  0.46007135
Direct configuration=    21
   0.66976024 -0.00000831  0.10926037
   0.33028176  0.00001357  0.10927881
   0.00000831  0.33023876  0.10926037
  -0.00001357  0.66971724  0.10927881
   0.33029827  0.33029343  0.10928835
   0.66970557  0.66970073  0.10928835
   0.66665870  0.33334030  0.10845270
   0.33332672  0.66667228  0.11188854
   0.27902031  0.22363861  0.46018498
   0.44521709  0.05474293  0.46001548
   0.27760331  0.72239569  0.45989006
   0.44433587  0.55566313  0.46007457
   0.77663013  0.22336887  0.46013661
   0.94443272  0.05556628  0.46030151
   0.77636039  0.72097869  0.46018498
   0.94525607  0.55478191  0.46001548
Direct configuration=    22
   0.66976037 -0.00000852  0.10936849
   0.33028187  0.00001353  0.10938713
   0.00000852  0.33023863  0.10936849
  -0.00001353  0.66971713  0.10938713
   0.33029852  0.33029374  0.10939679
   0.66970526  0.66970048  0.10939679
   0.66665868  0.33334032  0.10856028
   0.33332665  0.66667235  0.11201802
   0.27902479  0.22364181  0.46007502
   0.44521832  0.05474152  0.45990374
   0.27760376  0.72239524  0.45977701
   0.44433457  0.55566443  0.45996344
   0.77662770  0.22337130  0.46002615
   0.94443174  0.05556726  0.46019276
   0.77635719  0.72097421  0.46007502
   0.94525748  0.55478068  0.45990374
Direct configuration=    23
   0.66976064 -0.00000894  0.10958471
   0.33028209  0.00001344  0.10960378
   0.00000894  0.33023836  0.10958471
  -0.00001344  0.66971691  0.10960378
   0.33029902  0.33029435  0.10961365
   0.66970465  0.66969998  0.10961365
   0.66665863  0.33334037  0.10877545
   0.33332650  0.66667250  0.11227698
   0.27903376  0.22364821  0.45985510
   0.44522079  0.05473870  0.45968025
   0.27760465  0.72239435  0.45955091
   0.44433197  0.55566703  0.45974117
   0.77662285  0.22337615  0.45980521
   0.94442977  0.05556923  0.45997528
   0.77635079  0.72096524  0.45985510
   0.94526030  0.55477821  0.45968025
Direct configuration=    24
   0.66976116 -0.00000978  0.11001717
   0.33028253  0.00001328  0.11003708
   0.00000978  0.33023784  0.11001717
  -0.00001328  0.66971647  0.11003708
   0.33030001  0.33029558  0.11004739
   0.66970342  0.66969899  0.11004739
   0.66665855  0.33334045  0.10920577
   0.33332620  0.66667280  0.11279490
   0.27905170  0.22366102  0.45941526
   0.44522572  0.05473307  0.45923327
   0.27760644  0.72239256  0.45909870
   0.44432677  0.55567223  0.45929664
   0.77661314  0.22338586  0.45936334
   0.94442584  0.05557316  0.45954030
   0.77633798  0.72094730  0.45941526
   0.94526593  0.55477328  0.45923327
Direct configuration=    25
   0.66976221 -0.00001146  0.11088208
   0.33028341  0.00001296  0.11090369
   0.00001146  0.33023679  0.11088208
  -0.00001296  0.66971559  0.11090369
   0.33030200  0.33029804  0.11091485
   0.66970096  0.66969700  0.11091485
   0.66665839  0.33334061  0.11006642
   0.33332559  0.66667341  0.11383074
   0.27908757  0.22368662  0.45853558
   0.44523558  0.05472180  0.45833932
   0.27761002  0.72238898  0.45819428
   0.44431637  0.55568263  0.45840757
   0.77659373  0.22340527  0.45847961
   0.94441797  0.05558103  0.45867035
   0.77631238  0.72091143  0.45853558
   0.94527720  0.55476342  0.45833932
Direct configuration=    26
   0.66976432 -0.00001482  0.11261190
   0.33028518  0.00001231  0.11263689
   0.00001482  0.33023468  0.11261190
  -0.00001231  0.66971382  0.11263689
   0.33030598  0.33030295  0.11264979
   0.66969605  0.66969302  0.11264979
   0.66665807  0.33334093  0.11178771
   0.33332439  0.66667461  0.11590243
   0.27915931  0.22373784  0.45677621
   0.44525530  0.05469927  0.45655141
   0.27761717  0.72238183  0.45638544
   0.44429557  0.55570343  0.45662943
   0.77655491  0.22344409  0.45671213
   0.94440224  0.05559676  0.45693046
   0.77626116  0.72083969  0.45677621
   0.94529973  0.55474370  0.45655141
Direct configuration=    27
   0.66976853 -0.00002154  0.11607154
   0.33028870  0.00001101  0.11610330
   0.00002154  0.33023047  0.11607154
  -0.00001101  0.66971030  0.11610330
   0.33031395  0.33031278  0.11611965
   0.66968622  0.66968505  0.11611965
   0.66665742  0.33334158  0.11523029
   0.33332198  0.66667702  0.12004579
   0.27930280  0.22384026  0.45325749
   0.44529474  0.05465421  0.45297559
   0.27763148  0.72236752  0.45276776
   0.44425397  0.55574503  0.45307317
   0.77647727  0.22352173  0.45317719
   0.94437077  0.05562823  0.45345067
   0.77615874  0.72069620  0.45325749
   0.94534479  0.55470426  0.45297559
Direct configuration=    28
   0.66977695 -0.00003499  0.12299082
   0.33029576  0.00000841  0.12303611
   0.00003499  0.33022205  0.12299082
  -0.00000841  0.66970324  0.12303611
   0.33032988  0.33033244  0.12305939
   0.66966656  0.66966912  0.12305939
   0.66665613  0.33334287  0.12211546
   0.33331716  0.66668184  0.12833252
   0.27958977  0.22404512  0.44622003
   0.44537362  0.05456408  0.44582396
   0.27766009  0.72233891  0.44553241
   0.44417078  0.55582822  0.44596063
   0.77632200  0.22367700  0.44610729
   0.94430783  0.05569117  0.44649109
   0.77595388  0.72040923  0.44622003
   0.94543492  0.55462538  0.44582396
Direct configuration=    29
   0.66979379 -0.00006187  0.13682937
   0.33030987  0.00000320  0.13690173
   0.00006187  0.33020521  0.13682937
  -0.00000320  0.66968913  0.13690173
   0.33036173  0.33037176  0.13693886
   0.66962724  0.66963727  0.13693886
   0.66665355  0.33334545  0.13588580
   0.33330752  0.66669148  0.14490599
   0.28016372  0.22445483  0.43214512
   0.44553139  0.05438383  0.43152068
   0.27771731  0.72228169  0.43106170
   0.44400438  0.55599462  0.43173556
   0.77601144  0.22398756  0.43196751
   0.94418195  0.05581705  0.43257192
   0.77554417  0.71983528  0.43214512
   0.94561517  0.55446761  0.43152068
Direct configuration=    30
   0.66982747 -0.00011564  0.16450648
   0.33033808 -0.00000720  0.16463298
   0.00011564  0.33017153  0.16450648
   0.00000720  0.66966092  0.16463298
   0.33042544  0.33045039  0.16469780
   0.66954861  0.66957356  0.16469780
   0.66664838  0.33335062  0.16342648
   0.33328824  0.66671076  0.17805291
   0.28131161  0.22527424  0.40399529
   0.44584692  0.05402333  0.40291414
   0.27783175  0.72216725  0.40212028
   0.44367160  0.55632740  0.40328541
   0.77539033  0.22460867  0.40368794
   0.94393020  0.05606880  0.40473360
   0.77472476  0.71868739  0.40399529
   0.94597567  0.55415208  0.40291414
Direct configuration=    31
   0.66982010 -0.00010387  0.15845031
   0.33033191 -0.00000492  0.15856497
   0.00010387  0.33017890  0.15845031
   0.00000492  0.66966709  0.15856497
   0.33041150  0.33043319  0.15862372
   0.66956581  0.66958750  0.15862372
   0.66664951  0.33334949  0.15740016
   0.33329246  0.66670654  0.17079986
   0.28106043  0.22509494  0.41015490
   0.44577788  0.05410222  0.40917369
   0.27780671  0.72219229  0.40845310
   0.44374442  0.55625458  0.40951073
   0.77552624  0.22447276  0.40987594
   0.94398529  0.05601371  0.41082504
   0.77490406  0.71893857  0.41015490
   0.94589678  0.55422112  0.40917369
