Lattice                                 
           1
     4.361304    2.518000    0.000000
    -4.361304    2.518000    0.000000
     0.000000    0.000000   15.000000
   B    C 
     2    14
Direct configuration=     1
   0.33833034  0.66916432  0.10000000
   0.67165522  0.33584146  0.10000000
   0.16373946  0.31999962  0.10000000
   0.32250218  0.16126397  0.10000000
   0.16376430  0.84376384  0.10000000
   0.84623863  0.16123684  0.10000000
   0.68749850  0.84373000  0.10000000
   0.84626736  0.68499594  0.10000000
   0.33333267  0.16666633  0.32553333
   0.49999967  0.99999933  0.32553333
   0.33333267  0.66666633  0.32553333
   0.49999967  0.49999933  0.32553333
   0.83333267  0.16666633  0.32553333
   0.99999967  0.99999933  0.32553333
   0.83333267  0.66666633  0.32553333
   0.99999967  0.49999933  0.32553333
Direct configuration=     2
   0.33834437  0.66917097  0.10017112
   0.67169331  0.33582082  0.09997917
   0.16719592  0.32691784  0.09994408
   0.32914870  0.16458341  0.10001602
   0.16722653  0.84029632  0.09994408
   0.84288787  0.16456981  0.10001556
   0.68057859  0.84028959  0.09994380
   0.84291291  0.67834329  0.10001554
   0.33337721  0.16668751  0.32554292
   0.50012645  0.00027045  0.32558540
   0.33332895  0.66666343  0.32532667
   0.50012645  0.49985718  0.32558539
   0.83331964  0.16669153  0.32553942
   0.00000494  0.00000306  0.32553130
   0.83331968  0.66662599  0.32553945
   0.99973379  0.49986748  0.32558677
Direct configuration=     3
   0.33833410  0.66916610  0.10004579
   0.67166541  0.33583594  0.09999442
   0.16466446  0.32185104  0.09998504
   0.32428089  0.16215230  0.10000429
   0.16469084  0.84283588  0.09998504
   0.84534192  0.16212879  0.10000416
   0.68564664  0.84280930  0.09998496
   0.84536966  0.68321560  0.10000416
   0.33334459  0.16667200  0.32553590
   0.50003360  0.00007189  0.32554727
   0.33333167  0.66666556  0.32547803
   0.50003360  0.49996129  0.32554726
   0.83332918  0.16667308  0.32553496
   0.00000108  0.00000033  0.32553279
   0.83332919  0.66665554  0.32553497
   0.99992851  0.49996405  0.32554763
Direct configuration=     4
   0.33833410  0.66916610  0.10004577
   0.67166541  0.33583594  0.09999443
   0.16466394  0.32185000  0.09998504
   0.32427989  0.16215180  0.10000428
   0.16469033  0.84283640  0.09998504
   0.84534242  0.16212829  0.10000416
   0.68564767  0.84280981  0.09998497
   0.84537016  0.68321659  0.10000416
   0.33334458  0.16667200  0.32553590
   0.50003358  0.00007185  0.32554726
   0.33333167  0.66666556  0.32547806
   0.50003358  0.49996131  0.32554726
   0.83332918  0.16667307  0.32553496
   0.00000108  0.00000033  0.32553279
   0.83332919  0.66665554  0.32553497
   0.99992855  0.49996407  0.32554762
Direct configuration=     5
   0.33833839  0.66916636  0.10015515
   0.67166874  0.33583239  0.09997788
   0.16466194  0.32185275  0.09995835
   0.32426966  0.16214095  0.10000698
   0.16468028  0.84282718  0.09995835
   0.84535765  0.16212617  0.10000662
   0.68563740  0.84281470  0.09995795
   0.84537397  0.68323143  0.10000662
   0.33335678  0.16667825  0.32554843
   0.50004449  0.00009281  0.32557397
   0.33333091  0.66666530  0.32534851
   0.50004449  0.49995102  0.32557396
   0.83332366  0.16667999  0.32554521
   0.00000327  0.00000131  0.32552831
   0.83332365  0.66664336  0.32554522
   0.99991004  0.49995469  0.32557516
Direct configuration=     6
   0.33833965  0.66916644  0.10018726
   0.67166972  0.33583135  0.09997302
   0.16466136  0.32185355  0.09995051
   0.32426665  0.16213777  0.10000777
   0.16467733  0.84282447  0.09995051
   0.84536212  0.16212554  0.10000735
   0.68563439  0.84281613  0.09995002
   0.84537509  0.68323578  0.10000735
   0.33336036  0.16668009  0.32555210
   0.50004769  0.00009896  0.32558181
   0.33333069  0.66666523  0.32531049
   0.50004770  0.49994800  0.32558180
   0.83332204  0.16668202  0.32554822
   0.00000391  0.00000159  0.32552700
   0.83332202  0.66663979  0.32554822
   0.99990461  0.49995194  0.32558324
Direct configuration=     7
   0.33831635  0.66916342  0.10024885
   0.67167183  0.33583866  0.09997751
   0.16468976  0.32183283  0.09996474
   0.32427328  0.16214534  0.09998184
   0.16468598  0.84284389  0.09996475
   0.84533117  0.16213414  0.09998106
   0.68567843  0.84282441  0.09996386
   0.84533164  0.68320429  0.09998106
   0.33333725  0.16666805  0.32557723
   0.50002436  0.00005150  0.32556247
   0.33333606  0.66666746  0.32526829
   0.50002434  0.49997310  0.32556248
   0.83333755  0.16666843  0.32557240
   0.00000062  0.00000043  0.32552396
   0.83333758  0.66666803  0.32557238
   0.99994913  0.49997467  0.32556378
Direct configuration=     8
   0.33832142  0.66916408  0.10023544
   0.67167137  0.33583707  0.09997653
   0.16468357  0.32183735  0.09996164
   0.32427184  0.16214369  0.09998748
   0.16468409  0.84283966  0.09996165
   0.84533791  0.16213227  0.09998679
   0.68566884  0.84282261  0.09996085
   0.84534110  0.68321115  0.09998679
   0.33334229  0.16667068  0.32557176
   0.50002944  0.00006184  0.32556668
   0.33333489  0.66666697  0.32527748
   0.50002942  0.49996764  0.32556669
   0.83333417  0.16667139  0.32556713
   0.00000134  0.00000068  0.32552462
   0.83333419  0.66666188  0.32556712
   0.99993943  0.49996972  0.32556802
Direct configuration=     9
   0.33834888  0.66916915  0.10029063
   0.67164602  0.33582937  0.09997964
   0.16462617  0.32184381  0.09997997
   0.32430054  0.16213150  0.09996424
   0.16463012  0.84280748  0.09998002
   0.84540252  0.16214687  0.09996305
   0.68560804  0.84282190  0.09997871
   0.84540689  0.68323207  0.09996305
   0.33335234  0.16667628  0.32558872
   0.50004483  0.00008760  0.32554118
   0.33333237  0.66666637  0.32525343
   0.50004488  0.49995618  0.32554117
   0.83332751  0.16667774  0.32558356
   0.00000641  0.00000268  0.32553370
   0.83332753  0.66665004  0.32558356
   0.99992026  0.49995964  0.32554205
Direct configuration=    10
   0.33833128  0.66916590  0.10025526
   0.67166227  0.33583430  0.09997765
   0.16466296  0.32183967  0.09996822
   0.32428215  0.16213932  0.09997914
   0.16466471  0.84282810  0.09996824
   0.84536112  0.16213751  0.09997826
   0.68564701  0.84282235  0.09996726
   0.84536473  0.68321866  0.09997827
   0.33334590  0.16667269  0.32557785
   0.50003497  0.00007109  0.32555752
   0.33333398  0.66666676  0.32526884
   0.50003498  0.49996352  0.32555752
   0.83333178  0.16667367  0.32557303
   0.00000316  0.00000140  0.32552788
   0.83333180  0.66665763  0.32557303
   0.99993255  0.49996610  0.32555869
Direct configuration=    11
   0.33833193  0.66916602  0.10025657
   0.67166167  0.33583412  0.09997772
   0.16466160  0.32183982  0.09996866
   0.32428283  0.16213903  0.09997859
   0.16466343  0.84282734  0.09996868
   0.84536265  0.16213786  0.09997770
   0.68564557  0.84282234  0.09996768
   0.84536629  0.68321916  0.09997770
   0.33334614  0.16667282  0.32557825
   0.50003533  0.00007170  0.32555692
   0.33333392  0.66666674  0.32526827
   0.50003534  0.49996325  0.32555692
   0.83333162  0.16667382  0.32557342
   0.00000328  0.00000145  0.32552810
   0.83333164  0.66665735  0.32557342
   0.99993209  0.49996586  0.32555808
Direct configuration=    12
   0.33833044  0.66916501  0.10028047
   0.67167346  0.33583059  0.09997510
   0.16468063  0.32185626  0.09997641
   0.32425328  0.16212986  0.09997461
   0.16468245  0.84282073  0.09997643
   0.84535509  0.16212440  0.09997334
   0.68563817  0.84281890  0.09997508
   0.84535415  0.68323566  0.09997335
   0.33336305  0.16668153  0.32557619
   0.50005230  0.00010435  0.32554527
   0.33333266  0.66666631  0.32526401
   0.50005229  0.49994718  0.32554526
   0.83332375  0.16668355  0.32557141
   0.00000663  0.00000294  0.32554230
   0.83332373  0.66664017  0.32557141
   0.99990325  0.49995123  0.32554601
Direct configuration=    13
   0.33833114  0.66916548  0.10026927
   0.67166794  0.33583225  0.09997633
   0.16467171  0.32184855  0.09997278
   0.32426712  0.16213415  0.09997647
   0.16467354  0.84282383  0.09997280
   0.84535863  0.16213071  0.09997538
   0.68564163  0.84282051  0.09997162
   0.84535984  0.68322793  0.09997539
   0.33335513  0.16667745  0.32557716
   0.50004435  0.00008905  0.32555073
   0.33333325  0.66666651  0.32526601
   0.50004435  0.49995471  0.32555072
   0.83332744  0.16667899  0.32557235
   0.00000506  0.00000224  0.32553565
   0.83332743  0.66664822  0.32557235
   0.99991677  0.49995809  0.32555166
Direct configuration=    14
   0.33832946  0.66916405  0.10028050
   0.67166750  0.33583265  0.09997268
   0.16467089  0.32184402  0.09997552
   0.32426940  0.16213530  0.09998004
   0.16467045  0.84282537  0.09997551
   0.84535519  0.16213301  0.09997863
   0.68564681  0.84282266  0.09997412
   0.84535442  0.68322250  0.09997868
   0.33335435  0.16667687  0.32557021
   0.50004085  0.00008211  0.32554591
   0.33333549  0.66666743  0.32526525
   0.50004085  0.49995863  0.32554591
   0.83333083  0.16667820  0.32556555
   0.00000460  0.00000225  0.32554604
   0.83333081  0.66665198  0.32556555
   0.99992343  0.49996166  0.32554657
Direct configuration=    15
   0.33832859  0.66916330  0.10028635
   0.67166727  0.33583286  0.09997078
   0.16467046  0.32184166  0.09997694
   0.32427058  0.16213589  0.09998190
   0.16466885  0.84282617  0.09997691
   0.84535340  0.16213421  0.09998033
   0.68564950  0.84282378  0.09997542
   0.84535160  0.68321967  0.09998038
   0.33335394  0.16667656  0.32556660
   0.50003903  0.00007850  0.32554340
   0.33333666  0.66666790  0.32526486
   0.50003903  0.49996067  0.32554340
   0.83333259  0.16667779  0.32556202
   0.00000436  0.00000225  0.32555145
   0.83333256  0.66665393  0.32556202
   0.99992690  0.49996352  0.32554391
Direct configuration=    16
   0.33833111  0.66916503  0.10029484
   0.67165919  0.33583103  0.09996971
   0.16466201  0.32184369  0.09998262
   0.32427279  0.16213234  0.09998741
   0.16466181  0.84282006  0.09998258
   0.84536369  0.16213485  0.09998538
   0.68563557  0.84282071  0.09998071
   0.84536365  0.68322445  0.09998545
   0.33335252  0.16667645  0.32556024
   0.50004570  0.00008507  0.32553711
   0.33333485  0.66666765  0.32526219
   0.50004570  0.49995962  0.32553711
   0.83333069  0.16667767  0.32555571
   0.00000893  0.00000395  0.32555239
   0.83333070  0.66665342  0.32555572
   0.99992639  0.49996269  0.32553750
Direct configuration=    17
   0.33833060  0.66916468  0.10029311
   0.67166083  0.33583140  0.09996993
   0.16466372  0.32184328  0.09998147
   0.32427235  0.16213306  0.09998629
   0.16466324  0.84282130  0.09998143
   0.84536160  0.16213472  0.09998436
   0.68563839  0.84282133  0.09997964
   0.84536121  0.68322348  0.09998442
   0.33335281  0.16667647  0.32556153
   0.50004435  0.00008373  0.32553839
   0.33333522  0.66666770  0.32526274
   0.50004434  0.49995984  0.32553839
   0.83333108  0.16667769  0.32555699
   0.00000800  0.00000360  0.32555220
   0.83333108  0.66665352  0.32555700
   0.99992649  0.49996285  0.32553880
Direct configuration=    18
   0.33832902  0.66916461  0.10029657
   0.67166018  0.33583091  0.09997041
   0.16466564  0.32184461  0.09998498
   0.32426894  0.16213157  0.09998932
   0.16466506  0.84282060  0.09998494
   0.84536016  0.16213293  0.09998714
   0.68563685  0.84282009  0.09998293
   0.84535989  0.68322471  0.09998720
   0.33335395  0.16667713  0.32555868
   0.50004666  0.00008670  0.32553502
   0.33333556  0.66666797  0.32526068
   0.50004665  0.49995906  0.32553502
   0.83333110  0.16667839  0.32555415
   0.00000929  0.00000418  0.32555006
   0.83333111  0.66665304  0.32555415
   0.99992525  0.49996217  0.32553542
Direct configuration=    19
   0.33832427  0.66916441  0.10030692
   0.67165820  0.33582945  0.09997185
   0.16467139  0.32184859  0.09999554
   0.32425874  0.16212712  0.09999841
   0.16467053  0.84281848  0.09999549
   0.84535582  0.16212757  0.09999548
   0.68563221  0.84281636  0.09999279
   0.84535595  0.68322841  0.09999553
   0.33335735  0.16667909  0.32555013
   0.50005361  0.00009559  0.32552493
   0.33333659  0.66666876  0.32525450
   0.50005358  0.49995674  0.32552493
   0.83333118  0.16668047  0.32554562
   0.00001315  0.00000591  0.32554364
   0.83333121  0.66665159  0.32554563
   0.99992154  0.49996012  0.32552528
Direct configuration=    20
   0.33831478  0.66916401  0.10032764
   0.67165426  0.33582651  0.09997474
   0.16468289  0.32185657  0.10001665
   0.32423832  0.16211822  0.10001659
   0.16468146  0.84281424  0.10001659
   0.84534715  0.16211685  0.10001217
   0.68562294  0.84280891  0.10001253
   0.84534807  0.68323580  0.10001219
   0.33336416  0.16668301  0.32553302
   0.50006751  0.00011338  0.32550474
   0.33333864  0.66667035  0.32524214
   0.50006744  0.49995209  0.32550475
   0.83333133  0.16668463  0.32552856
   0.00002087  0.00000938  0.32553080
   0.83333141  0.66664870  0.32552857
   0.99991411  0.49995601  0.32550499
Direct configuration=    21
   0.33832112  0.66916428  0.10031381
   0.67165690  0.33582847  0.09997281
   0.16467521  0.32185124  0.10000255
   0.32425196  0.16212417  0.10000445
   0.16467416  0.84281707  0.10000250
   0.84535294  0.16212401  0.10000102
   0.68562914  0.84281389  0.09999935
   0.84535334  0.68323086  0.10000106
   0.33335961  0.16668039  0.32554444
   0.50005823  0.00010150  0.32551822
   0.33333727  0.66666929  0.32525039
   0.50005819  0.49995520  0.32551823
   0.83333123  0.16668185  0.32553995
   0.00001571  0.00000706  0.32553938
   0.83333128  0.66665063  0.32553996
   0.99991907  0.49995876  0.32551854
Direct configuration=    22
   0.33831894  0.66916418  0.10031857
   0.67165599  0.33582780  0.09997348
   0.16467785  0.32185308  0.10000740
   0.32424727  0.16212212  0.10000863
   0.16467667  0.84281610  0.10000735
   0.84535095  0.16212155  0.10000486
   0.68562700  0.84281217  0.10000389
   0.84535153  0.68323256  0.10000489
   0.33336118  0.16668129  0.32554051
   0.50006142  0.00010558  0.32551358
   0.33333774  0.66666966  0.32524755
   0.50006137  0.49995413  0.32551359
   0.83333126  0.16668281  0.32553603
   0.00001749  0.00000786  0.32553643
   0.83333132  0.66664997  0.32553604
   0.99991736  0.49995781  0.32551387
Direct configuration=    23
   0.33831853  0.66916388  0.10032031
   0.67165563  0.33582761  0.09997408
   0.16467727  0.32185266  0.10000933
   0.32424702  0.16212198  0.10001028
   0.16467602  0.84281595  0.10000927
   0.84535048  0.16212147  0.10000637
   0.68562683  0.84281209  0.10000568
   0.84535101  0.68323217  0.10000640
   0.33336189  0.16668161  0.32553899
   0.50006154  0.00010558  0.32551185
   0.33333839  0.66666994  0.32524618
   0.50006149  0.49995436  0.32551186
   0.83333188  0.16668313  0.32553451
   0.00001768  0.00000801  0.32553489
   0.83333195  0.66665019  0.32553452
   0.99991771  0.49995804  0.32551214
Direct configuration=    24
   0.33831731  0.66916295  0.10032555
   0.67165457  0.33582705  0.09997590
   0.16467551  0.32185143  0.10001510
   0.32424629  0.16212154  0.10001521
   0.16467407  0.84281550  0.10001505
   0.84534907  0.16212121  0.10001090
   0.68562631  0.84281185  0.10001108
   0.84534948  0.68323101  0.10001092
   0.33336405  0.16668258  0.32553443
   0.50006191  0.00010556  0.32550666
   0.33334033  0.66667080  0.32524206
   0.50006187  0.49995506  0.32550667
   0.83333375  0.16668411  0.32552994
   0.00001825  0.00000845  0.32553029
   0.83333381  0.66665085  0.32552995
   0.99991874  0.49995871  0.32550695
Direct configuration=    25
   0.33831488  0.66916110  0.10033603
   0.67165245  0.33582593  0.09997954
   0.16467199  0.32184896  0.10002666
   0.32424484  0.16212067  0.10002509
   0.16467018  0.84281460  0.10002660
   0.84534624  0.16212071  0.10001997
   0.68562526  0.84281136  0.10002186
   0.84534640  0.68322868  0.10001997
   0.33336836  0.16668451  0.32552530
   0.50006265  0.00010552  0.32549628
   0.33334422  0.66667251  0.32523383
   0.50006261  0.49995647  0.32549629
   0.83333749  0.16668606  0.32552079
   0.00001940  0.00000933  0.32552108
   0.83333753  0.66665217  0.32552081
   0.99992082  0.49996006  0.32549656
Direct configuration=    26
   0.33831000  0.66915741  0.10035699
   0.67164820  0.33582369  0.09998681
   0.16466496  0.32184402  0.10004977
   0.32424192  0.16211892  0.10004484
   0.16466240  0.84281281  0.10004969
   0.84534059  0.16211971  0.10003810
   0.68562318  0.84281039  0.10004343
   0.84534025  0.68322401  0.10003807
   0.33337698  0.16668839  0.32550703
   0.50006413  0.00010545  0.32547553
   0.33335199  0.66667593  0.32521736
   0.50006410  0.49995927  0.32547553
   0.83334498  0.16668996  0.32550251
   0.00002170  0.00001110  0.32550267
   0.83334498  0.66665482  0.32550254
   0.99992496  0.49996276  0.32547579
Direct configuration=    27
   0.33831196  0.66915677  0.10035685
   0.67164755  0.33582377  0.09999001
   0.16465840  0.32183998  0.10004965
   0.32424791  0.16212141  0.10004521
   0.16465630  0.84281309  0.10004958
   0.84534243  0.16212290  0.10003844
   0.68562405  0.84281214  0.10004327
   0.84534159  0.68322025  0.10003841
   0.33337435  0.16668718  0.32550654
   0.50006201  0.00009977  0.32547626
   0.33335180  0.66667593  0.32521502
   0.50006199  0.49996264  0.32547626
   0.83334575  0.16668861  0.32550199
   0.00002205  0.00001120  0.32550061
   0.83334575  0.66665714  0.32550201
   0.99993144  0.49996591  0.32547656
Direct configuration=    28
   0.33831657  0.66915526  0.10035652
   0.67164602  0.33582395  0.09999754
   0.16464296  0.32183046  0.10004937
   0.32426203  0.16212727  0.10004607
   0.16464192  0.84281375  0.10004930
   0.84534676  0.16213040  0.10003925
   0.68562612  0.84281625  0.10004288
   0.84534475  0.68321137  0.10003921
   0.33336816  0.16668433  0.32550537
   0.50005701  0.00008637  0.32547798
   0.33335135  0.66667593  0.32520951
   0.50005700  0.49997059  0.32547798
   0.83334758  0.16668542  0.32550076
   0.00002288  0.00001141  0.32549576
   0.83334754  0.66666259  0.32550078
   0.99994669  0.49997332  0.32547838
Direct configuration=    29
   0.33831483  0.66915442  0.10035597
   0.67164817  0.33582417  0.10000418
   0.16464529  0.32182964  0.10004896
   0.32426011  0.16212810  0.10004695
   0.16464412  0.84281541  0.10004889
   0.84534233  0.16212956  0.10004009
   0.68562983  0.84281671  0.10004239
   0.84533985  0.68320931  0.10004007
   0.33336706  0.16668379  0.32550456
   0.50005609  0.00008389  0.32547909
   0.33335180  0.66667615  0.32520540
   0.50005608  0.49997217  0.32547910
   0.83334857  0.16668483  0.32549991
   0.00002304  0.00001151  0.32549160
   0.83334853  0.66666420  0.32549993
   0.99994963  0.49997480  0.32547957
Direct configuration=    30
   0.33831141  0.66915280  0.10035489
   0.67165237  0.33582461  0.10001718
   0.16464985  0.32182803  0.10004815
   0.32425637  0.16212973  0.10004866
   0.16464844  0.84281867  0.10004810
   0.84533364  0.16212792  0.10004175
   0.68563710  0.84281759  0.10004142
   0.84533026  0.68320528  0.10004173
   0.33336490  0.16668274  0.32550298
   0.50005430  0.00007904  0.32548128
   0.33335268  0.66667659  0.32519735
   0.50005429  0.49997527  0.32548128
   0.83335051  0.16668367  0.32549826
   0.00002334  0.00001170  0.32548347
   0.83335047  0.66666735  0.32549826
   0.99995538  0.49997769  0.32548190
Direct configuration=    31
   0.33831114  0.66915407  0.10035425
   0.67164941  0.33582337  0.10002517
   0.16465168  0.32183290  0.10004779
   0.32425193  0.16212630  0.10005032
   0.16465084  0.84281617  0.10004776
   0.84533618  0.16212426  0.10004336
   0.68562987  0.84281412  0.10004096
   0.84533467  0.68321146  0.10004336
   0.33336962  0.16668495  0.32550214
   0.50005825  0.00008809  0.32548107
   0.33335370  0.66667698  0.32519418
   0.50005825  0.49997048  0.32548107
   0.83334997  0.16668616  0.32549739
   0.00002352  0.00001193  0.32547871
   0.83334997  0.66666409  0.32549739
   0.99994633  0.49997333  0.32548176
Direct configuration=    32
   0.33831090  0.66915520  0.10035369
   0.67164677  0.33582227  0.10003229
   0.16465331  0.32183724  0.10004747
   0.32424798  0.16212325  0.10005180
   0.16465298  0.84281394  0.10004746
   0.84533844  0.16212100  0.10004480
   0.68562344  0.84281103  0.10004054
   0.84533860  0.68321697  0.10004481
   0.33337381  0.16668693  0.32550138
   0.50006176  0.00009616  0.32548088
   0.33335460  0.66667733  0.32519135
   0.50006177  0.49996621  0.32548088
   0.83334949  0.16668838  0.32549661
   0.00002368  0.00001214  0.32547447
   0.83334952  0.66666120  0.32549661
   0.99993828  0.49996945  0.32548163
Direct configuration=    33
   0.33831090  0.66915518  0.10035368
   0.67164541  0.33582218  0.10003566
   0.16465034  0.32183554  0.10004786
   0.32424985  0.16212353  0.10005332
   0.16465033  0.84281372  0.10004786
   0.84533981  0.16212237  0.10004628
   0.68562273  0.84281113  0.10004086
   0.84534012  0.68321573  0.10004629
   0.33337418  0.16668724  0.32550061
   0.50006254  0.00009613  0.32547901
   0.33335429  0.66667730  0.32519176
   0.50006255  0.49996679  0.32547902
   0.83334897  0.16668871  0.32549586
   0.00002465  0.00001251  0.32547300
   0.83334898  0.66666059  0.32549585
   0.99993967  0.49997003  0.32547975
Direct configuration=    34
   0.33831090  0.66915513  0.10035366
   0.67164265  0.33582201  0.10004251
   0.16464430  0.32183209  0.10004864
   0.32425367  0.16212411  0.10005643
   0.16464494  0.84281329  0.10004867
   0.84534260  0.16212514  0.10004928
   0.68562130  0.84281133  0.10004151
   0.84534321  0.68321323  0.10004930
   0.33337492  0.16668787  0.32549904
   0.50006412  0.00009606  0.32547523
   0.33335367  0.66667725  0.32519260
   0.50006413  0.49996797  0.32547523
   0.83334790  0.16668937  0.32549432
   0.00002662  0.00001327  0.32547002
   0.83334790  0.66665935  0.32549431
   0.99994251  0.49997121  0.32547594
Direct configuration=    35
   0.33831010  0.66915479  0.10035377
   0.67164303  0.33582204  0.10004427
   0.16464499  0.32183181  0.10004908
   0.32425295  0.16212420  0.10005740
   0.16464550  0.84281371  0.10004911
   0.84534114  0.16212484  0.10005022
   0.68562233  0.84281140  0.10004190
   0.84534162  0.68321254  0.10005024
   0.33337492  0.16668787  0.32549833
   0.50006399  0.00009549  0.32547409
   0.33335398  0.66667740  0.32519273
   0.50006400  0.49996844  0.32547409
   0.83334834  0.16668934  0.32549362
   0.00002676  0.00001336  0.32546940
   0.83334834  0.66665981  0.32549362
   0.99994335  0.49997165  0.32547480
Direct configuration=    36
   0.33830769  0.66915377  0.10035411
   0.67164418  0.33582214  0.10004956
   0.16464704  0.32183096  0.10005040
   0.32425081  0.16212447  0.10006032
   0.16464716  0.84281497  0.10005046
   0.84533675  0.16212394  0.10005302
   0.68562540  0.84281163  0.10004308
   0.84533683  0.68321046  0.10005306
   0.33337493  0.16668786  0.32549620
   0.50006360  0.00009378  0.32547069
   0.33335493  0.66667784  0.32519312
   0.50006360  0.49996986  0.32547069
   0.83334967  0.16668925  0.32549153
   0.00002719  0.00001362  0.32546753
   0.83334966  0.66666117  0.32549153
   0.99994588  0.49997296  0.32547137
Direct configuration=    37
   0.33830288  0.66915172  0.10035480
   0.67164647  0.33582234  0.10006014
   0.16465116  0.32182927  0.10005305
   0.32424653  0.16212500  0.10006616
   0.16465049  0.84281750  0.10005314
   0.84532797  0.16212213  0.10005863
   0.68563156  0.84281208  0.10004544
   0.84532725  0.68320632  0.10005870
   0.33337496  0.16668783  0.32549194
   0.50006281  0.00009035  0.32546390
   0.33335682  0.66667873  0.32519390
   0.50006280  0.49997269  0.32546389
   0.83335234  0.16668907  0.32548735
   0.00002804  0.00001416  0.32546379
   0.83335230  0.66666390  0.32548734
   0.99995094  0.49997557  0.32546451
Direct configuration=    38
   0.33830520  0.66915271  0.10035447
   0.67164536  0.33582224  0.10005503
   0.16464917  0.32183009  0.10005177
   0.32424860  0.16212474  0.10006334
   0.16464888  0.84281628  0.10005184
   0.84533221  0.16212300  0.10005592
   0.68562858  0.84281186  0.10004430
   0.84533188  0.68320832  0.10005597
   0.33337495  0.16668784  0.32549400
   0.50006319  0.00009201  0.32546718
   0.33335591  0.66667830  0.32519352
   0.50006319  0.49997132  0.32546718
   0.83335105  0.16668916  0.32548937
   0.00002763  0.00001390  0.32546560
   0.83335102  0.66666258  0.32548937
   0.99994849  0.49997431  0.32546782
Direct configuration=    39
   0.33830532  0.66915240  0.10035518
   0.67164470  0.33582155  0.10005813
   0.16464854  0.32183097  0.10005341
   0.32424738  0.16212412  0.10006547
   0.16464838  0.84281526  0.10005349
   0.84533188  0.16212177  0.10005795
   0.68562661  0.84281113  0.10004583
   0.84533185  0.68320933  0.10005801
   0.33337545  0.16668798  0.32549168
   0.50006329  0.00009232  0.32546515
   0.33335727  0.66667887  0.32519267
   0.50006328  0.49997138  0.32546515
   0.83335273  0.16668926  0.32548706
   0.00002765  0.00001404  0.32546467
   0.83335271  0.66666394  0.32548706
   0.99994828  0.49997434  0.32546577
Direct configuration=    40
   0.33830569  0.66915150  0.10035731
   0.67164271  0.33581948  0.10006744
   0.16464665  0.32183362  0.10005831
   0.32424373  0.16212226  0.10007188
   0.16464689  0.84281222  0.10005844
   0.84533090  0.16211808  0.10006404
   0.68562069  0.84280893  0.10005042
   0.84533176  0.68321235  0.10006412
   0.33337695  0.16668838  0.32548470
   0.50006357  0.00009325  0.32545906
   0.33336135  0.66668059  0.32519010
   0.50006357  0.49997155  0.32545906
   0.83335775  0.16668956  0.32548014
   0.00002772  0.00001446  0.32546188
   0.83335776  0.66666800  0.32548014
   0.99994765  0.49997444  0.32545963
Direct configuration=    41
   0.33830641  0.66914968  0.10036158
   0.67163873  0.33581534  0.10008605
   0.16464286  0.32183892  0.10006812
   0.32423643  0.16211854  0.10008470
   0.16464389  0.84280612  0.10006834
   0.84532893  0.16211069  0.10007622
   0.68560885  0.84280452  0.10005961
   0.84533158  0.68321838  0.10007634
   0.33337996  0.16668919  0.32547074
   0.50006413  0.00009512  0.32544689
   0.33336952  0.66668401  0.32518497
   0.50006413  0.49997188  0.32544688
   0.83336781  0.16669018  0.32546629
   0.00002786  0.00001531  0.32545631
   0.83336786  0.66667613  0.32546630
   0.99994639  0.49997464  0.32544734
Direct configuration=    42
   0.33830604  0.66915062  0.10035938
   0.67164079  0.33581748  0.10007643
   0.16464482  0.32183618  0.10006305
   0.32424020  0.16212046  0.10007807
   0.16464544  0.84280927  0.10006322
   0.84532995  0.16211451  0.10006992
   0.68561497  0.84280680  0.10005486
   0.84533167  0.68321526  0.10007002
   0.33337840  0.16668877  0.32547796
   0.50006384  0.00009416  0.32545318
   0.33336530  0.66668224  0.32518762
   0.50006384  0.49997171  0.32545317
   0.83336261  0.16668986  0.32547345
   0.00002779  0.00001487  0.32545919
   0.83336264  0.66667193  0.32547345
   0.99994704  0.49997454  0.32545369
Direct configuration=    43
   0.33830495  0.66915051  0.10036156
   0.67163895  0.33581721  0.10007952
   0.16464200  0.32183376  0.10006624
   0.32423996  0.16212009  0.10008117
   0.16464328  0.84280898  0.10006643
   0.84533023  0.16211542  0.10007285
   0.68561341  0.84280611  0.10005790
   0.84533159  0.68321360  0.10007295
   0.33337960  0.16668975  0.32547429
   0.50006741  0.00009646  0.32545078
   0.33336448  0.66668221  0.32518423
   0.50006741  0.49997229  0.32545077
   0.83336102  0.16669093  0.32546978
   0.00003091  0.00001611  0.32545713
   0.83336105  0.66667003  0.32546979
   0.99994908  0.49997522  0.32545128
Direct configuration=    44
   0.33830168  0.66915020  0.10036811
   0.67163344  0.33581640  0.10008880
   0.16463354  0.32182650  0.10007579
   0.32423924  0.16211897  0.10009047
   0.16463678  0.84280810  0.10007603
   0.84533107  0.16211814  0.10008162
   0.68560875  0.84280405  0.10006701
   0.84533133  0.68320861  0.10008175
   0.33338321  0.16669269  0.32546330
   0.50007811  0.00010339  0.32544357
   0.33336204  0.66668211  0.32517408
   0.50007813  0.49997402  0.32544356
   0.83335626  0.16669414  0.32545879
   0.00004028  0.00001980  0.32545095
   0.83335627  0.66666432  0.32545879
   0.99995522  0.49997725  0.32544406
Direct configuration=    45
   0.33829513  0.66914956  0.10038120
   0.67162240  0.33581478  0.10010736
   0.16461662  0.32181197  0.10009490
   0.32423779  0.16211674  0.10010907
   0.16462380  0.84280634  0.10009524
   0.84533276  0.16212359  0.10009916
   0.68559942  0.84279992  0.10008523
   0.84533081  0.68319862  0.10009935
   0.33339041  0.16669857  0.32544132
   0.50009953  0.00011723  0.32542915
   0.33335715  0.66668190  0.32515376
   0.50009955  0.49997749  0.32542915
   0.83334673  0.16670055  0.32543679
   0.00005903  0.00002718  0.32543858
   0.83334671  0.66665290  0.32543681
   0.99996748  0.49998132  0.32542960
Direct configuration=    46
   0.33830020  0.66915005  0.10037105
   0.67163095  0.33581603  0.10009298
   0.16462973  0.32182323  0.10008009
   0.32423891  0.16211847  0.10009465
   0.16463386  0.84280771  0.10008036
   0.84533145  0.16211937  0.10008556
   0.68560665  0.84280312  0.10007111
   0.84533121  0.68320636  0.10008571
   0.33338483  0.16669402  0.32545835
   0.50008294  0.00010650  0.32544032
   0.33336094  0.66668206  0.32516950
   0.50008295  0.49997480  0.32544032
   0.83335411  0.16669558  0.32545383
   0.00004451  0.00002146  0.32544816
   0.83335411  0.66666175  0.32545384
   0.99995798  0.49997817  0.32544080
Direct configuration=    47
   0.33829820  0.66914986  0.10037507
   0.67162757  0.33581554  0.10009867
   0.16462455  0.32181878  0.10008595
   0.32423847  0.16211778  0.10010035
   0.16462988  0.84280717  0.10008624
   0.84533197  0.16212104  0.10009094
   0.68560379  0.84280185  0.10007669
   0.84533105  0.68320330  0.10009111
   0.33338704  0.16669582  0.32545162
   0.50008950  0.00011075  0.32543590
   0.33335944  0.66668200  0.32516328
   0.50008952  0.49997587  0.32543590
   0.83335119  0.16669754  0.32544710