<?xml version="1.0" encoding="ISO-8859-1"?>
<modeling>
 <generator>
  <i name="program" type="string">vasp </i>
  <i name="version" type="string">6.3.2  </i>
  <i name="subversion" type="string">27Jun22 (build Dec 22 2022 13:13:19) complex                          parallel </i>
  <i name="platform" type="string">LinuxIFC </i>
  <i name="date" type="string">2023 08 22 </i>
  <i name="time" type="string">23:24:17 </i>
 </generator>
 <incar>
  <i type="string" name="SYSTEM">Lattice</i>
  <i type="int" name="ISTART">     0</i>
  <i type="string" name="PREC">Accurate</i>
  <i type="string" name="ALGO">Normal</i>
  <i type="int" name="ISPIN">     2</i>
  <i type="int" name="ICHARG">     2</i>
  <i type="int" name="NELM">    64</i>
  <i type="int" name="IBRION">     2</i>
  <i name="EDIFF">      0.00000100</i>
  <i name="EDIFFG">     -0.00100000</i>
  <i type="int" name="NSW">   128</i>
  <i type="int" name="ISIF">     2</i>
  <i name="ENCUT">    450.00000000</i>
  <i name="POTIM">      0.50000000</i>
  <i type="int" name="ISMEAR">     0</i>
  <i name="SIGMA">      0.10000000</i>
  <i type="logical" name="LWAVE"> F  </i>
  <i type="logical" name="LCHARG"> F  </i>
  <i type="string" name="GGA">PE</i>
  <i type="int" name="IVDW">    12</i>
 </incar>
 <primitive_cell>
  <structure name="primitive_cell" >
   <crystal>
    <varray name="basis" >
     <v>       4.19329501       2.42100000       0.00000000 </v>
     <v>      -4.19329501       2.42100000       0.00000000 </v>
     <v>       0.00000000       0.00000000      15.00000000 </v>
    </varray>
    <i name="volume">    304.55901622 </i>
    <varray name="rec_basis" >
     <v>       0.11923797       0.20652623       0.00000000 </v>
     <v>      -0.11923797       0.20652623       0.00000000 </v>
     <v>       0.00000000       0.00000000       0.06666667 </v>
    </varray>
   </crystal>
   <varray name="positions" >
    <v>       0.00415361       0.00267210       0.12034134 </v>
    <v>       0.35695335       0.00285503       0.09748893 </v>
    <v>       0.00423858       0.35550699       0.09749256 </v>
    <v>       0.65142295       0.65006557       0.09747688 </v>
    <v>       0.32808646       0.32671938       0.10030508 </v>
    <v>       0.68027775       0.00278085       0.10027562 </v>
    <v>       0.00416530       0.67883808       0.10026559 </v>
    <v>       0.99999933       0.49999967       0.33373333 </v>
    <v>       0.16666633       0.33333267       0.33373333 </v>
    <v>       0.99999933       0.99999967       0.33373333 </v>
    <v>       0.16666633       0.83333267       0.33373333 </v>
    <v>       0.49999933       0.49999967       0.33373333 </v>
    <v>       0.66666633       0.33333267       0.33373333 </v>
    <v>       0.49999933       0.99999967       0.33373333 </v>
    <v>       0.66666633       0.83333267       0.33373333 </v>
   </varray>
  </structure>
  <varray name="primitive_index" >
   <v type="int" >        1 </v>
   <v type="int" >        2 </v>
   <v type="int" >        3 </v>
   <v type="int" >        4 </v>
   <v type="int" >        5 </v>
   <v type="int" >        6 </v>
   <v type="int" >        7 </v>
   <v type="int" >        8 </v>
   <v type="int" >        9 </v>
   <v type="int" >       10 </v>
   <v type="int" >       11 </v>
   <v type="int" >       12 </v>
   <v type="int" >       13 </v>
   <v type="int" >       14 </v>
   <v type="int" >       15 </v>
  </varray>
 </primitive_cell>
 <kpoints>
  <generation param="Gamma">
   <v type="int" name="divisions">      12       12        1 </v>
   <v name="usershift">      0.00000000       0.00000000       0.00000000 </v>
   <v name="genvec1">      0.08333333       0.00000000       0.00000000 </v>
   <v name="genvec2">      0.00000000       0.08333333       0.00000000 </v>
   <v name="genvec3">      0.00000000       0.00000000       1.00000000 </v>
   <v name="shift">      0.00000000       0.00000000       0.00000000 </v>
  </generation>
  <varray name="kpointlist" >
   <v>       0.00000000       0.00000000       0.00000000 </v>
   <v>       0.08333333      -0.00000000       0.00000000 </v>
   <v>       0.00000000       0.08333333       0.00000000 </v>
   <v>      -0.08333333       0.08333333       0.00000000 </v>
   <v>       0.16666667       0.00000000       0.00000000 </v>
   <v>       0.00000000       0.16666667       0.00000000 </v>
   <v>      -0.16666667       0.16666667       0.00000000 </v>
   <v>       0.25000000       0.00000000       0.00000000 </v>
   <v>       0.00000000       0.25000000       0.00000000 </v>
   <v>      -0.25000000       0.25000000       0.00000000 </v>
   <v>       0.33333333      -0.00000000       0.00000000 </v>
   <v>      -0.00000000       0.33333333       0.00000000 </v>
   <v>      -0.33333333       0.33333333       0.00000000 </v>
   <v>       0.41666667      -0.00000000       0.00000000 </v>
   <v>      -0.00000000       0.41666667       0.00000000 </v>
   <v>      -0.41666667       0.41666667       0.00000000 </v>
   <v>       0.50000000       0.00000000       0.00000000 </v>
   <v>       0.00000000       0.50000000       0.00000000 </v>
   <v>       0.50000000       0.50000000       0.00000000 </v>
   <v>       0.08333333       0.08333333       0.00000000 </v>
   <v>      -0.08333333       0.16666667       0.00000000 </v>
   <v>      -0.16666667       0.08333333       0.00000000 </v>
   <v>       0.16666667       0.08333333       0.00000000 </v>
   <v>      -0.08333333       0.25000000       0.00000000 </v>
   <v>      -0.25000000       0.16666667       0.00000000 </v>
   <v>      -0.16666667       0.25000000       0.00000000 </v>
   <v>       0.08333333       0.16666667       0.00000000 </v>
   <v>       0.25000000      -0.08333333       0.00000000 </v>
   <v>       0.25000000       0.08333333       0.00000000 </v>
   <v>      -0.08333333       0.33333333       0.00000000 </v>
   <v>      -0.33333333       0.25000000       0.00000000 </v>
   <v>      -0.25000000       0.33333333       0.00000000 </v>
   <v>       0.08333333       0.25000000       0.00000000 </v>
   <v>       0.33333333      -0.08333333       0.00000000 </v>
   <v>       0.33333333       0.08333333       0.00000000 </v>
   <v>      -0.08333333       0.41666667       0.00000000 </v>
   <v>      -0.41666667       0.33333333       0.00000000 </v>
   <v>      -0.33333333       0.41666667       0.00000000 </v>
   <v>       0.08333333       0.33333333       0.00000000 </v>
   <v>       0.41666667      -0.08333333       0.00000000 </v>
   <v>       0.41666667       0.08333333       0.00000000 </v>
   <v>      -0.08333333       0.50000000       0.00000000 </v>
   <v>       0.50000000       0.41666667       0.00000000 </v>
   <v>      -0.41666667       0.50000000       0.00000000 </v>
   <v>       0.08333333       0.41666667       0.00000000 </v>
   <v>       0.50000000      -0.08333333       0.00000000 </v>
   <v>       0.16666667       0.16666667       0.00000000 </v>
   <v>      -0.16666667       0.33333333       0.00000000 </v>
   <v>      -0.33333333       0.16666667       0.00000000 </v>
   <v>       0.25000000       0.16666667       0.00000000 </v>
   <v>      -0.16666667       0.41666667       0.00000000 </v>
   <v>      -0.41666667       0.25000000       0.00000000 </v>
   <v>      -0.25000000       0.41666667       0.00000000 </v>
   <v>       0.16666667       0.25000000       0.00000000 </v>
   <v>       0.41666667      -0.16666667       0.00000000 </v>
   <v>       0.33333333       0.16666667       0.00000000 </v>
   <v>      -0.16666667       0.50000000       0.00000000 </v>
   <v>       0.50000000       0.33333333       0.00000000 </v>
   <v>      -0.33333333       0.50000000       0.00000000 </v>
   <v>       0.16666667       0.33333333       0.00000000 </v>
   <v>       0.50000000      -0.16666667       0.00000000 </v>
   <v>       0.41666667       0.16666667       0.00000000 </v>
   <v>      -0.16666667      -0.41666667       0.00000000 </v>
   <v>       0.41666667       0.41666667       0.00000000 </v>
   <v>       0.25000000       0.25000000       0.00000000 </v>
   <v>      -0.25000000       0.50000000       0.00000000 </v>
   <v>       0.50000000       0.25000000       0.00000000 </v>
   <v>       0.33333333       0.25000000       0.00000000 </v>
   <v>      -0.25000000      -0.41666667       0.00000000 </v>
   <v>       0.41666667       0.33333333       0.00000000 </v>
   <v>      -0.33333333      -0.41666667       0.00000000 </v>
   <v>       0.25000000       0.33333333       0.00000000 </v>
   <v>      -0.41666667      -0.25000000       0.00000000 </v>
   <v>       0.33333333       0.33333333       0.00000000 </v>
  </varray>
  <varray name="weights" >
   <v>       0.00694444 </v>
   <v>       0.01388889 </v>
   <v>       0.01388889 </v>
   <v>       0.01388889 </v>
   <v>       0.01388889 </v>
   <v>       0.01388889 </v>
   <v>       0.01388889 </v>
   <v>       0.01388889 </v>
   <v>       0.01388889 </v>
   <v>       0.01388889 </v>
   <v>       0.01388889 </v>
   <v>       0.01388889 </v>
   <v>       0.01388889 </v>
   <v>       0.01388889 </v>
   <v>       0.01388889 </v>
   <v>       0.01388889 </v>
   <v>       0.00694444 </v>
   <v>       0.00694444 </v>
   <v>       0.00694444 </v>
   <v>       0.01388889 </v>
   <v>       0.01388889 </v>
   <v>       0.01388889 </v>
   <v>       0.01388889 </v>
   <v>       0.01388889 </v>
   <v>       0.01388889 </v>
   <v>       0.01388889 </v>
   <v>       0.01388889 </v>
   <v>       0.01388889 </v>
   <v>       0.01388889 </v>
   <v>       0.01388889 </v>
   <v>       0.01388889 </v>
   <v>       0.01388889 </v>
   <v>       0.01388889 </v>
   <v>       0.01388889 </v>
   <v>       0.01388889 </v>
   <v>       0.01388889 </v>
   <v>       0.01388889 </v>
   <v>       0.01388889 </v>
   <v>       0.01388889 </v>
   <v>       0.01388889 </v>
   <v>       0.01388889 </v>
   <v>       0.01388889 </v>
   <v>       0.01388889 </v>
   <v>       0.01388889 </v>
   <v>       0.01388889 </v>
   <v>       0.01388889 </v>
   <v>       0.01388889 </v>
   <v>       0.01388889 </v>
   <v>       0.01388889 </v>
   <v>       0.01388889 </v>
   <v>       0.01388889 </v>
   <v>       0.01388889 </v>
   <v>       0.01388889 </v>
   <v>       0.01388889 </v>
   <v>       0.01388889 </v>
   <v>       0.01388889 </v>
   <v>       0.01388889 </v>
   <v>       0.01388889 </v>
   <v>       0.01388889 </v>
   <v>       0.01388889 </v>
   <v>       0.01388889 </v>
   <v>       0.01388889 </v>
   <v>       0.01388889 </v>
   <v>       0.01388889 </v>
   <v>       0.01388889 </v>
   <v>       0.01388889 </v>
   <v>       0.01388889 </v>
   <v>       0.01388889 </v>
   <v>       0.01388889 </v>
   <v>       0.01388889 </v>
   <v>       0.01388889 </v>
   <v>       0.01388889 </v>
   <v>       0.01388889 </v>
   <v>       0.01388889 </v>
  </varray>
 </kpoints>
 <parameters>
  <separator name="general" >
   <i type="string" name="SYSTEM">Lattice</i>
   <i type="logical" name="LCOMPAT"> F  </i>
  </separator>
  <separator name="electronic" >
   <i type="string" name="PREC">accura</i>
   <i name="ENMAX">    450.00000000</i>
   <i name="ENAUG">    644.87300000</i>
   <i name="EDIFF">      0.00000100</i>
   <i type="int" name="IALGO">    38</i>
   <i type="int" name="IWAVPR">    11</i>
   <i type="int" name="NBANDS">    48</i>
   <i type="int" name="NBANDSLOW">    -1</i>
   <i type="int" name="NBANDSHIGH">    -1</i>
   <i name="NELECT">     56.00000000</i>
   <i type="int" name="TURBO">     0</i>
   <i type="int" name="IRESTART">     0</i>
   <i type="int" name="NREBOOT">     0</i>
   <i type="int" name="NMIN">     0</i>
   <i name="EREF">      0.00000000</i>
   <separator name="electronic smearing" >
    <i type="int" name="ISMEAR">     0</i>
    <i name="SIGMA">      0.10000000</i>
    <i name="KSPACING">      0.50000000</i>
    <i type="logical" name="KGAMMA"> T  </i>
    <i type="logical" name="KBLOWUP"> T  </i>
   </separator>
   <separator name="electronic projectors" >
    <i type="logical" name="LREAL"> F  </i>
    <v name="ROPT">      0.00000000      0.00000000</v>
    <i type="int" name="LMAXPAW">  -100</i>
    <i type="int" name="LMAXMIX">     2</i>
    <i type="logical" name="NLSPLINE"> F  </i>
   </separator>
   <separator name="electronic startup" >
    <i type="int" name="ISTART">     0</i>
    <i type="int" name="ICHARG">     2</i>
    <i type="int" name="INIWAV">     1</i>
   </separator>
   <separator name="electronic spin" >
    <i type="int" name="ISPIN">     2</i>
    <i type="logical" name="LNONCOLLINEAR"> F  </i>
    <v name="MAGMOM">      1.00000000      1.00000000      1.00000000      1.00000000      1.00000000      1.00000000      1.00000000      1.00000000      1.00000000      1.00000000      1.00000000      1.00000000      1.00000000      1.00000000      1.00000000</v>
    <i name="NUPDOWN">     -1.00000000</i>
    <i type="logical" name="LSORBIT"> F  </i>
    <v name="SAXIS">      0.00000000      0.00000000      1.00000000</v>
    <i type="logical" name="LSPIRAL"> F  </i>
    <v name="QSPIRAL">      0.00000000      0.00000000      0.00000000</v>
    <i type="logical" name="LZEROZ"> F  </i>
   </separator>
   <separator name="electronic exchange-correlation" >
    <i type="logical" name="LASPH"> F  </i>
    <i type="logical" name="LMETAGGA"> F  </i>
   </separator>
   <separator name="electronic convergence" >
    <i type="int" name="NELM">    64</i>
    <i type="int" name="NELMDL">    -5</i>
    <i type="int" name="NELMIN">     2</i>
    <i name="ENINI">    450.00000000</i>
    <separator name="electronic convergence detail" >
     <i type="logical" name="LDIAG"> T  </i>
     <i type="logical" name="LSUBROT"> F  </i>
     <i name="WEIMIN">      0.00100000</i>
     <i name="EBREAK">      0.00000001</i>
     <i name="DEPER">      0.30000000</i>
     <i type="int" name="NRMM">     4</i>
     <i name="TIME">      0.40000000</i>
    </separator>
   </separator>
   <separator name="electronic mixer" >
    <i name="AMIX">      0.40000000</i>
    <i name="BMIX">      1.00000000</i>
    <i name="AMIN">      0.10000000</i>
    <i name="AMIX_MAG">      1.60000000</i>
    <i name="BMIX_MAG">      1.00000000</i>
    <separator name="electronic mixer details" >
     <i type="int" name="IMIX">     4</i>
     <i type="logical" name="MIXFIRST"> F  </i>
     <i type="int" name="MAXMIX">   -45</i>
     <i name="WC">    100.00000000</i>
     <i type="int" name="INIMIX">     1</i>
     <i type="int" name="MIXPRE">     1</i>
     <i type="int" name="MREMOVE">     5</i>
    </separator>
   </separator>
   <separator name="electronic dipolcorrection" >
    <i type="logical" name="LDIPOL"> F  </i>
    <i type="logical" name="LMONO"> F  </i>
    <i type="int" name="IDIPOL">     0</i>
    <i name="EPSILON">      1.00000000</i>
    <v name="DIPOL">   -100.00000000   -100.00000000   -100.00000000</v>
    <i name="EFIELD">      0.00000000</i>
   </separator>
  </separator>
  <separator name="grids" >
   <i type="int" name="NGX">    36</i>
   <i type="int" name="NGY">    36</i>
   <i type="int" name="NGZ">   108</i>
   <i type="int" name="NGXF">    72</i>
   <i type="int" name="NGYF">    72</i>
   <i type="int" name="NGZF">   216</i>
   <i type="logical" name="ADDGRID"> F  </i>
  </separator>
  <separator name="ionic" >
   <i type="int" name="NSW">   128</i>
   <i type="int" name="IBRION">     2</i>
   <i type="int" name="MDALGO">     0</i>
   <i type="int" name="ISIF">     2</i>
   <i name="PSTRESS">      0.00000000</i>
   <i name="EDIFFG">     -0.00100000</i>
   <i type="int" name="NFREE">     1</i>
   <i name="POTIM">      0.50000000</i>
   <i name="SMASS">     -3.00000000</i>
   <i name="SCALEE">      1.00000000</i>
  </separator>
  <separator name="ionic md" >
   <i name="TEBEG">      0.00010000</i>
   <i name="TEEND">      0.00010000</i>
   <i type="int" name="NBLOCK">     1</i>
   <i type="int" name="KBLOCK">   128</i>
   <i type="int" name="NPACO">   256</i>
   <i name="APACO">     10.00000000</i>
  </separator>
  <separator name="symmetry" >
   <i type="int" name="ISYM">     2</i>
   <i name="SYMPREC">      0.00001000</i>
  </separator>
  <separator name="dos" >
   <i type="int" name="LORBIT">     0</i>
   <v name="RWIGS">     -1.00000000     -1.00000000</v>
   <i type="int" name="NEDOS">   301</i>
   <i name="EMIN">     10.00000000</i>
   <i name="EMAX">    -10.00000000</i>
   <i name="EFERMI">      0.00000000</i>
  </separator>
  <separator name="writing" >
   <i type="int" name="NWRITE">     2</i>
   <i type="logical" name="LWAVE"> F  </i>
   <i type="logical" name="LDOWNSAMPLE"> F  </i>
   <i type="logical" name="LCHARG"> F  </i>
   <i type="logical" name="LPARD"> F  </i>
   <i type="logical" name="LVTOT"> F  </i>
   <i type="logical" name="LVHAR"> F  </i>
   <i type="logical" name="LELF"> F  </i>
   <i type="logical" name="LOPTICS"> F  </i>
   <v name="STM">      0.00000000      0.00000000      0.00000000      0.00000000      0.00000000      0.00000000      0.00000000</v>
  </separator>
  <separator name="performance" >
   <i type="int" name="NPAR">    48</i>
   <i type="int" name="NSIM">     4</i>
   <i type="int" name="NBLK">    -1</i>
   <i type="logical" name="LPLANE"> T  </i>
   <i type="logical" name="LSCALAPACK"> T  </i>
   <i type="logical" name="LSCAAWARE"> F  </i>
   <i type="logical" name="LSCALU"> F  </i>
   <i type="logical" name="LASYNC"> F  </i>
   <i type="logical" name="LORBITALREAL"> F  </i>
  </separator>
  <separator name="miscellaneous" >
   <i type="int" name="IDIOT">     3</i>
   <i type="int" name="PHON_NSTRUCT">    -1</i>
   <i type="logical" name="LMUSIC"> F  </i>
   <v name="POMASS">     10.81100000     12.01100000</v>
   <v name="DARWINR">      0.00000000      0.00000000</v>
   <v name="DARWINV">      1.00000000      1.00000000</v>
   <i type="logical" name="LCORR"> T  </i>
  </separator>
  <i type="logical" name="GGA_COMPAT"> T  </i>
  <i type="logical" name="LBERRY"> F  </i>
  <i type="int" name="ICORELEVEL">     0</i>
  <i type="logical" name="LDAU"> F  </i>
  <i type="int" name="I_CONSTRAINED_M">     0</i>
  <separator name="electronic exchange-correlation" >
   <i type="string" name="GGA">PE</i>
   <i type="int" name="VOSKOWN">     0</i>
   <i type="logical" name="LHFCALC"> F  </i>
   <i type="string" name="PRECFOCK"></i>
   <i type="logical" name="LSYMGRAD"> F  </i>
   <i type="logical" name="LHFONE"> F  </i>
   <i type="logical" name="LRHFCALC"> F  </i>
   <i type="logical" name="LTHOMAS"> F  </i>
   <i type="logical" name="LMODELHF"> F  </i>
   <i type="logical" name="LFOCKACE"> F  </i>
   <i name="ENCUT4O">     -1.00000000</i>
   <i type="int" name="EXXOEP">     0</i>
   <i type="int" name="FOURORBIT">     0</i>
   <i name="AEXX">      0.00000000</i>
   <i name="HFALPHA">      0.00000000</i>
   <i name="MCALPHA">      0.00000000</i>
   <i name="ALDAX">      1.00000000</i>
   <i name="AGGAX">      1.00000000</i>
   <i name="ALDAC">      1.00000000</i>
   <i name="AGGAC">      1.00000000</i>
   <i type="int" name="NKREDX">     1</i>
   <i type="int" name="NKREDY">     1</i>
   <i type="int" name="NKREDZ">     1</i>
   <i type="logical" name="SHIFTRED"> F  </i>
   <i type="logical" name="ODDONLY"> F  </i>
   <i type="logical" name="EVENONLY"> F  </i>
   <i type="int" name="LMAXFOCK">     0</i>
   <i type="int" name="NMAXFOCKAE">     0</i>
   <i type="logical" name="LFOCKAEDFT"> F  </i>
   <i name="HFSCREEN">      0.00000000</i>
   <i name="HFSCREENC">      0.00000000</i>
   <i type="int" name="NBANDSGWLOW">     0</i>
  </separator>
  <separator name="vdW DFT" >
   <i type="logical" name="LUSE_VDW"> F  </i>
   <i name="Zab_VDW">     -0.84910000</i>
   <i name="PARAM1">      0.12340000</i>
   <i name="PARAM2">      1.00000000</i>
   <i name="PARAM3">      0.00000000</i>
  </separator>
  <separator name="model GW" >
   <i type="int" name="MODEL_GW">     0</i>
   <i name="MODEL_EPS0">     12.18236065</i>
   <i name="MODEL_ALPHA">      1.00000000</i>
  </separator>
  <separator name="linear response parameters" >
   <i type="logical" name="LEPSILON"> F  </i>
   <i type="logical" name="LRPA"> F  </i>
   <i type="logical" name="LNABLA"> F  </i>
   <i type="logical" name="LVEL"> F  </i>
   <i name="CSHIFT">      0.10000000</i>
   <i name="OMEGAMAX">     -1.00000000</i>
   <i name="DEG_THRESHOLD">      0.00200000</i>
   <i name="RTIME">     -0.10000000</i>
   <i name="WPLASMAI">      0.00000000</i>
   <v name="DFIELD">      0.00000000      0.00000000      0.00000000</v>
   <v name="WPLASMA">      0.00000000      0.00000000      0.00000000      0.00000000      0.00000000      0.00000000      0.00000000      0.00000000      0.00000000</v>
  </separator>
  <separator name="orbital magnetization" >
   <i type="logical" name="NUCIND"> F  </i>
   <v name="MAGPOS">      0.00000000      0.00000000      0.00000000</v>
   <i type="logical" name="LNICSALL"> T  </i>
   <i type="logical" name="ORBITALMAG"> F  </i>
   <i type="logical" name="LMAGBLOCH"> F  </i>
   <i type="logical" name="LCHIMAG"> F  </i>
   <i type="logical" name="LGAUGE"> T  </i>
   <i type="int" name="MAGATOM">     0</i>
   <v name="MAGDIPOL">      0.00000000      0.00000000      0.00000000</v>
   <v name="AVECCONST">      0.00000000      0.00000000      0.00000000</v>
  </separator>
  <separator name="response functions" >
   <i type="logical" name="LFINITE_TEMPERATURE"> F  </i>
   <i type="logical" name="LADDER"> F  </i>
   <i type="logical" name="LRPAFORCE"> F  </i>
   <i type="logical" name="LFXC"> F  </i>
   <i type="logical" name="LHARTREE"> T  </i>
   <i type="int" name="IBSE">     0</i>
   <v type="int" name="KPOINT">    -1     0     0     0</v>
   <i type="logical" name="LTCTC"> F  </i>
   <i type="logical" name="LTCTE"> F  </i>
   <i type="logical" name="LTETE"> F  </i>
   <i type="logical" name="LTRIPLET"> F  </i>
   <i type="logical" name="LFXCEPS"> F  </i>
   <i type="logical" name="LFXHEG"> F  </i>
   <i type="int" name="NATURALO">     2</i>
   <i type="logical" name="LHOLEGF"> F  </i>
   <i type="logical" name="L2ORDER"> F  </i>
   <i type="logical" name="LDMP1"> F  </i>
   <i type="logical" name="LMP2LT"> F  </i>
   <i type="logical" name="LSMP2LT"> F  </i>
   <i type="logical" name="LGWLF"> F  </i>
   <i name="ENCUTGW">     -2.00000000</i>
   <i name="ENCUTGWSOFT">     -2.00000000</i>
   <i name="ENCUTLF">     -1.00000000</i>
   <i type="logical" name="LESF_SPLINES"> F  </i>
   <i type="int" name="LMAXMP2">    -1</i>
   <i name="SCISSOR">      0.00000000</i>
   <i type="int" name="NOMEGA">     0</i>
   <i type="int" name="NOMEGAR">     0</i>
   <i type="int" name="NBANDSGW">    -1</i>
   <i type="int" name="NBANDSO">    -1</i>
   <i type="int" name="NBANDSV">    -1</i>
   <i type="int" name="NELMGW">     1</i>
   <i type="int" name="NELMHF">     1</i>
   <i type="int" name="DIM">     3</i>
   <i type="int" name="IESPILON">     4</i>
   <i type="int" name="ANTIRES">     0</i>
   <i name="OMEGAMAX">    -30.00000000</i>
   <i name="OMEGAMIN">    -30.00000000</i>
   <i name="OMEGATL">   -200.00000000</i>
   <i type="int" name="OMEGAGRID">     0</i>
   <i name="CSHIFT">     -0.10000000</i>
   <i type="logical" name="LSELFENERGY"> F  </i>
   <i type="logical" name="LSPECTRAL"> F  </i>
   <i type="logical" name="LSPECTRALGW"> F  </i>
   <i type="logical" name="LSINGLES"> F  </i>
   <i type="logical" name="LFERMIGW"> F  </i>
   <i type="logical" name="ODDONLYGW"> F  </i>
   <i type="logical" name="EVENONLYGW"> F  </i>
   <i type="int" name="NKREDLFX">     1</i>
   <i type="int" name="NKREDLFY">     1</i>
   <i type="int" name="NKREDLFZ">     1</i>
   <i type="int" name="MAXMEM">  2800</i>
   <i type="int" name="TELESCOPE">     0</i>
   <i type="int" name="NTAUPAR">    -1</i>
   <i type="int" name="NOMEGAPAR">    -1</i>
   <i name="DAMP_NEWTON">      0.80000001</i>
   <i name="LAMBDA">      1.00000000</i>
  </separator>
  <separator name="External order field" >
   <i name="OFIELD_KAPPA">      0.00000000</i>
   <v name="OFIELD_K">      0.00000000      0.00000000      0.00000000</v>
   <i name="OFIELD_Q6_NEAR">      0.00000000</i>
   <i name="OFIELD_Q6_FAR">      0.00000000</i>
   <i name="OFIELD_A">      0.00000000</i>
  </separator>
  <separator name="optional k-points parameters" >
   <i type="int" name="KPOINTS_OPT_MODE">     1</i>
   <i type="logical" name="LKPOINTS_OPT"> F  </i>
  </separator>
  <separator name="solvation model" >
   <i type="logical" name="LSOL"> F  </i>
  </separator>
 </parameters>
 <atominfo>
  <atoms>      15 </atoms>
  <types>       2 </types>
  <array name="atoms" >
   <dimension dim="1">ion</dimension>
   <field type="string">element</field>
   <field type="int">atomtype</field>
   <set>
    <rc><c>B </c><c>   1</c></rc>
    <rc><c>B </c><c>   1</c></rc>
    <rc><c>B </c><c>   1</c></rc>
    <rc><c>B </c><c>   1</c></rc>
    <rc><c>C </c><c>   2</c></rc>
    <rc><c>C </c><c>   2</c></rc>
    <rc><c>C </c><c>   2</c></rc>
    <rc><c>C </c><c>   2</c></rc>
    <rc><c>C </c><c>   2</c></rc>
    <rc><c>C </c><c>   2</c></rc>
    <rc><c>C </c><c>   2</c></rc>
    <rc><c>C </c><c>   2</c></rc>
    <rc><c>C </c><c>   2</c></rc>
    <rc><c>C </c><c>   2</c></rc>
    <rc><c>C </c><c>   2</c></rc>
   </set>
  </array>
  <array name="atomtypes" >
   <dimension dim="1">type</dimension>
   <field type="int">atomspertype</field>
   <field type="string">element</field>
   <field>mass</field>
   <field>valence</field>
   <field type="string">pseudopotential</field>
   <set>
    <rc><c>   4</c><c>B </c><c>     10.81100000</c><c>      3.00000000</c><c>  PAW_PBE B 06Sep2000                   </c></rc>
    <rc><c>  11</c><c>C </c><c>     12.01100000</c><c>      4.00000000</c><c>  PAW_PBE C 08Apr2002                   </c></rc>
   </set>
  </array>
 </atominfo>
 <structure name="initialpos" >
  <crystal>
   <varray name="basis" >
    <v>       4.19329501       2.42100000       0.00000000 </v>
    <v>      -4.19329501       2.42100000       0.00000000 </v>
    <v>       0.00000000       0.00000000      15.00000000 </v>
   </varray>
   <i name="volume">    304.55901622 </i>
   <varray name="rec_basis" >
    <v>       0.11923797       0.20652623       0.00000000 </v>
    <v>      -0.11923797       0.20652623       0.00000000 </v>
    <v>       0.00000000       0.00000000       0.06666667 </v>
   </varray>
  </crystal>
  <varray name="positions" >
   <v>       0.00415361       0.00267210       0.12034134 </v>
   <v>       0.35695335       0.00285503       0.09748893 </v>
   <v>       0.00423858       0.35550699       0.09749256 </v>
   <v>       0.65142295       0.65006557       0.09747688 </v>
   <v>       0.32808646       0.32671938       0.10030508 </v>
   <v>       0.68027775       0.00278085       0.10027562 </v>
   <v>       0.00416530       0.67883808       0.10026559 </v>
   <v>       0.99999933       0.49999967       0.33373333 </v>
   <v>       0.16666633       0.33333267       0.33373333 </v>
   <v>       0.99999933       0.99999967       0.33373333 </v>
   <v>       0.16666633       0.83333267       0.33373333 </v>
   <v>       0.49999933       0.49999967       0.33373333 </v>
   <v>       0.66666633       0.33333267       0.33373333 </v>
   <v>       0.49999933       0.99999967       0.33373333 </v>
   <v>       0.66666633       0.83333267       0.33373333 </v>
  </varray>
 </structure>
 <calculation>
  <scstep>
   <time name="dav">    5.48    5.54</time>
   <time name="total">    5.53    5.59</time>
   <energy>
    <i name="alphaZ">     58.40344200 </i>
    <i name="ewald">   4793.17621665 </i>
    <i name="hartreedc">  -6348.72519814 </i>
    <i name="XCdc">    175.21400693 </i>
    <i name="pawpsdc">   1365.87943566 </i>
    <i name="pawaedc">  -1368.52100941 </i>
    <i name="eentropy">     -0.01624922 </i>
    <i name="bandstr">   -374.35797228 </i>
    <i name="atom">   1903.26342058 </i>
    <i name="e_fr_energy">    204.31609277 </i>
    <i name="e_wo_entrp">    204.33234199 </i>
    <i name="e_0_energy">    204.32421738 </i>
   </energy>
  </scstep>
  <scstep>
   <time name="dav">    7.95    8.03</time>
   <time name="total">    7.95    8.03</time>
   <energy>
    <i name="e_fr_energy">   -116.43872624 </i>
    <i name="e_wo_entrp">   -116.43575601 </i>
    <i name="e_0_energy">   -116.43724112 </i>
   </energy>
  </scstep>
  <scstep>
   <time name="dav">   11.10   11.18</time>
   <time name="total">   11.10   11.18</time>
   <energy>
    <i name="e_fr_energy">   -129.40614190 </i>
    <i name="e_wo_entrp">   -129.40303516 </i>
    <i name="e_0_energy">   -129.40458853 </i>
   </energy>
  </scstep>
  <scstep>
   <time name="dav">    8.05    8.12</time>
   <time name="total">    8.05    8.12</time>
   <energy>
    <i name="e_fr_energy">   -129.42920870 </i>
    <i name="e_wo_entrp">   -129.42602706 </i>
    <i name="e_0_energy">   -129.42761788 </i>
   </energy>
  </scstep>
  <scstep>
   <time name="dav">   10.67   10.74</time>
   <time name="total">   10.93   11.02</time>
   <energy>
    <i name="e_fr_energy">   -129.42927019 </i>
    <i name="e_wo_entrp">   -129.42608845 </i>
    <i name="e_0_energy">   -129.42767932 </i>
   </energy>
  </scstep>
  <scstep>
   <time name="dav">   10.62   10.70</time>
   <time name="total">   10.92   11.00</time>
   <energy>
    <i name="e_fr_energy">    -92.15191836 </i>
    <i name="e_wo_entrp">    -92.14593128 </i>
    <i name="e_0_energy">    -92.14892482 </i>
   </energy>
  </scstep>
  <scstep>
   <time name="dav">    9.09    9.15</time>
   <time name="total">    9.39    9.47</time>
   <energy>
    <i name="e_fr_energy">   -100.60245907 </i>
    <i name="e_wo_entrp">   -100.59686438 </i>
    <i name="e_0_energy">   -100.59966173 </i>
   </energy>
  </scstep>
  <scstep>
   <time name="dav">   10.13   10.19</time>
   <time name="total">   10.42   10.49</time>
   <energy>
    <i name="e_fr_energy">   -110.47377348 </i>
    <i name="e_wo_entrp">   -110.47375915 </i>
    <i name="e_0_energy">   -110.47376632 </i>
   </energy>
  </scstep>
  <scstep>
   <time name="dav">    7.70    7.76</time>
   <time name="total">    7.99    8.06</time>
   <energy>
    <i name="e_fr_energy">   -117.34493521 </i>
    <i name="e_wo_entrp">   -117.34493045 </i>
    <i name="e_0_energy">   -117.34493283 </i>
   </energy>
  </scstep>
  <scstep>
   <time name="dav">    9.74    9.81</time>
   <time name="total">   10.04   10.11</time>
   <energy>
    <i name="e_fr_energy">   -123.65028628 </i>
    <i name="e_wo_entrp">   -123.64961064 </i>
    <i name="e_0_energy">   -123.64994846 </i>
   </energy>
  </scstep>
  <scstep>
   <time name="dav">   10.79   10.85</time>
   <time name="total">   11.08   11.16</time>
   <energy>
    <i name="e_fr_energy">   -125.27815805 </i>
    <i name="e_wo_entrp">   -125.27698405 </i>
    <i name="e_0_energy">   -125.27757105 </i>
   </energy>
  </scstep>
  <scstep>
   <time name="dav">    7.21    7.26</time>
   <time name="total">    7.50    7.56</time>
   <energy>
    <i name="e_fr_energy">   -125.43132987 </i>
    <i name="e_wo_entrp">   -125.42985082 </i>
    <i name="e_0_energy">   -125.43059035 </i>
   </energy>
  </scstep>
  <scstep>
   <time name="dav">    7.40    7.45</time>
   <time name="total">    7.68    7.75</time>
   <energy>
    <i name="e_fr_energy">   -125.46576104 </i>
    <i name="e_wo_entrp">   -125.46422709 </i>
    <i name="e_0_energy">   -125.46499407 </i>
   </energy>
  </scstep>
  <scstep>
   <time name="dav">    8.23    8.28</time>
   <time name="total">    8.52    8.59</time>
   <energy>
    <i name="e_fr_energy">   -125.48883332 </i>
    <i name="e_wo_entrp">   -125.48729469 </i>
    <i name="e_0_energy">   -125.48806401 </i>
   </energy>
  </scstep>
  <scstep>
   <time name="dav">    7.35    7.39</time>
   <time name="total">    7.64    7.69</time>
   <energy>
    <i name="e_fr_energy">   -125.49553686 </i>
    <i name="e_wo_entrp">   -125.49399770 </i>
    <i name="e_0_energy">   -125.49476728 </i>
   </energy>
  </scstep>
  <scstep>
   <time name="dav">    6.33    6.38</time>
   <time name="total">    6.62    6.68</time>
   <energy>
    <i name="e_fr_energy">   -125.49753745 </i>
    <i name="e_wo_entrp">   -125.49599834 </i>
    <i name="e_0_energy">   -125.49676789 </i>
   </energy>
  </scstep>
  <scstep>
   <time name="dav">    7.12    7.16</time>
   <time name="total">    7.41    7.46</time>
   <energy>
    <i name="e_fr_energy">   -125.49879344 </i>
    <i name="e_wo_entrp">   -125.49725434 </i>
    <i name="e_0_energy">   -125.49802389 </i>
   </energy>
  </scstep>
  <scstep>
   <time name="dav">    6.80    6.84</time>
   <time name="total">    7.09    7.14</time>
   <energy>
    <i name="e_fr_energy">   -125.49956361 </i>
    <i name="e_wo_entrp">   -125.49802452 </i>
    <i name="e_0_energy">   -125.49879407 </i>
   </energy>
  </scstep>
  <scstep>
   <time name="dav">    8.15    8.21</time>
   <time name="total">    8.44    8.51</time>
   <energy>
    <i name="e_fr_energy">   -125.49998474 </i>
    <i name="e_wo_entrp">   -125.49844567 </i>
    <i name="e_0_energy">   -125.49921520 </i>
   </energy>
  </scstep>
  <scstep>
   <time name="dav">    8.98    9.04</time>
   <time name="total">    9.27    9.34</time>
   <energy>
    <i name="e_fr_energy">   -125.50002082 </i>
    <i name="e_wo_entrp">   -125.49848175 </i>
    <i name="e_0_energy">   -125.49925128 </i>
   </energy>
  </scstep>
  <scstep>
   <time name="dav">    8.27    8.31</time>
   <time name="total">    8.56    8.62</time>
   <energy>
    <i name="e_fr_energy">   -125.50004616 </i>
    <i name="e_wo_entrp">   -125.49850706 </i>
    <i name="e_0_energy">   -125.49927661 </i>
   </energy>
  </scstep>
  <scstep>
   <time name="dav">    8.97    9.04</time>
   <time name="total">    9.26    9.34</time>
   <energy>
    <i name="e_fr_energy">   -125.50006945 </i>
    <i name="e_wo_entrp">   -125.49853035 </i>
    <i name="e_0_energy">   -125.49929990 </i>
   </energy>
  </scstep>
  <scstep>
   <time name="dav">    8.82    8.87</time>
   <time name="total">    9.11    9.18</time>
   <energy>
    <i name="e_fr_energy">   -125.50008075 </i>
    <i name="e_wo_entrp">   -125.49854164 </i>
    <i name="e_0_energy">   -125.49931120 </i>
   </energy>
  </scstep>
  <scstep>
   <time name="dav">    9.27    9.33</time>
   <time name="total">    9.56    9.63</time>
   <energy>
    <i name="e_fr_energy">   -125.50008312 </i>
    <i name="e_wo_entrp">   -125.49854402 </i>
    <i name="e_0_energy">   -125.49931357 </i>
   </energy>
  </scstep>
  <scstep>
   <time name="dav">    8.47    8.52</time>
   <time name="total">    8.76    8.82</time>
   <energy>
    <i name="e_fr_energy">   -125.50008415 </i>
    <i name="e_wo_entrp">   -125.49854504 </i>
    <i name="e_0_energy">   -125.49931459 </i>
   </energy>
  </scstep>
  <scstep>
   <time name="dav">    9.13    9.18</time>
   <time name="total">    9.16    9.22</time>
   <energy>
    <i name="alphaZ">     58.40344200 </i>
    <i name="ewald">   4793.17621665 </i>
    <i name="hartreedc">  -6550.90187661 </i>
    <i name="XCdc">    180.59422373 </i>
    <i name="pawpsdc">   5759.20016186 </i>
    <i name="pawaedc">  -5763.62000788 </i>
    <i name="eentropy">     -0.00153911 </i>
    <i name="bandstr">   -505.61412586 </i>
    <i name="atom">   1903.26342058 </i>
    <i name="e_fr_energy">   -125.50008465 </i>
    <i name="e_wo_entrp">   -125.49854554 </i>
    <i name="e_0_energy">   -125.49931509 </i>
   </energy>
  </scstep>
  <structure>
   <crystal>
    <varray name="basis" >
     <v>       4.19329501       2.42100000       0.00000000 </v>
     <v>      -4.19329501       2.42100000       0.00000000 </v>
     <v>       0.00000000       0.00000000      15.00000000 </v>
    </varray>
    <i name="volume">    304.55901622 </i>
    <varray name="rec_basis" >
     <v>       0.11923797       0.20652623       0.00000000 </v>
     <v>      -0.11923797       0.20652623       0.00000000 </v>
     <v>       0.00000000       0.00000000       0.06666667 </v>
    </varray>
   </crystal>
   <varray name="positions" >
    <v>       0.00415361       0.00267210       0.12034134 </v>
    <v>       0.35695335       0.00285503       0.09748893 </v>
    <v>       0.00423858       0.35550699       0.09749256 </v>
    <v>       0.65142295       0.65006557       0.09747688 </v>
    <v>       0.32808646       0.32671938       0.10030508 </v>
    <v>       0.68027775       0.00278085       0.10027562 </v>
    <v>       0.00416530       0.67883808       0.10026559 </v>
    <v>       0.99999933       0.49999967       0.33373333 </v>
    <v>       0.16666633       0.33333267       0.33373333 </v>
    <v>       0.99999933       0.99999967       0.33373333 </v>
    <v>       0.16666633       0.83333267       0.33373333 </v>
    <v>       0.49999933       0.49999967       0.33373333 </v>
    <v>       0.66666633       0.33333267       0.33373333 </v>
    <v>       0.49999933       0.99999967       0.33373333 </v>
    <v>       0.66666633       0.83333267       0.33373333 </v>
   </varray>
  </structure>
  <varray name="forces" >
   <v>      -0.00469100       0.00543180      -0.33789985 </v>
   <v>      -0.10937421      -0.04535571       0.10451945 </v>
   <v>       0.08908950      -0.07952232       0.10404559 </v>
   <v>       0.02264986       0.11719597       0.10559443 </v>
   <v>       0.02992332      -0.34847306      -0.00294187 </v>
   <v>       0.28512745       0.19722694      -0.00048729 </v>
   <v>      -0.31303890       0.15270148       0.00035433 </v>
   <v>       0.01313966       0.00522604       0.00273617 </v>
   <v>      -0.03523655       0.04110881       0.02115031 </v>
   <v>       0.00051095      -0.00031045      -0.03135315 </v>
   <v>       0.05268958       0.00951703       0.02204564 </v>
   <v>      -0.01077210       0.01020446       0.00363008 </v>
   <v>      -0.00045972       0.00025615      -0.01503696 </v>
   <v>      -0.00173132      -0.01390210       0.00259106 </v>
   <v>      -0.01782652      -0.05130505       0.02105205 </v>
  </varray>
  <varray name="stress" >
   <v>      -2.48768913       0.01664002      -0.00210484 </v>
   <v>       0.01664001      -2.46518573       0.02468457 </v>
   <v>      -0.00210485       0.02468456      -2.24486588 </v>
  </varray>
  <energy>
   <i name="e_fr_energy">   -127.10429782 </i>
   <i name="e_wo_entrp">   -127.10275871 </i>
   <i name="e_0_energy">   -127.10352826 </i>
  </energy>
  <time name="totalsc">  232.69  234.47</time>
 </calculation>
 <calculation>
  <scstep>
   <time name="dav">    5.47    5.51</time>
   <time name="total">    5.77    5.82</time>
   <energy>
    <i name="alphaZ">     58.40344200 </i>
    <i name="ewald">   4796.58910645 </i>
    <i name="hartreedc">  -6552.97204004 </i>
    <i name="XCdc">    180.67082171 </i>
    <i name="pawpsdc">   5759.20674213 </i>
    <i name="pawaedc">  -5763.62659100 </i>
    <i name="eentropy">     -0.00154344 </i>
    <i name="bandstr">   -507.04102767 </i>
    <i name="atom">   1903.26342058 </i>
    <i name="e_fr_energy">   -125.50766928 </i>
    <i name="e_wo_entrp">   -125.50612584 </i>
    <i name="e_0_energy">   -125.50689756 </i>
   </energy>
  </scstep>
  <scstep>
   <time name="dav">   10.69   10.76</time>
   <time name="total">   10.98   11.06</time>
   <energy>
    <i name="e_fr_energy">   -125.49936403 </i>
    <i name="e_wo_entrp">   -125.49782044 </i>
    <i name="e_0_energy">   -125.49859223 </i>
   </energy>
  </scstep>
  <scstep>
   <time name="dav">    8.98    9.04</time>
   <time name="total">    9.27    9.34</time>
   <energy>
    <i name="e_fr_energy">   -125.49839081 </i>
    <i name="e_wo_entrp">   -125.49684711 </i>
    <i name="e_0_energy">   -125.49761896 </i>
   </energy>
  </scstep>
  <scstep>
   <time name="dav">   10.57   10.64</time>
   <time name="total">   10.86   10.94</time>
   <energy>
    <i name="e_fr_energy">   -125.49834624 </i>
    <i name="e_wo_entrp">   -125.49680276 </i>
    <i name="e_0_energy">   -125.49757450 </i>
   </energy>
  </scstep>
  <scstep>
   <time name="dav">    9.99   10.05</time>
   <time name="total">   10.28   10.35</time>
   <energy>
    <i name="e_fr_energy">   -125.49834885 </i>
    <i name="e_wo_entrp">   -125.49680544 </i>
    <i name="e_0_energy">   -125.49757714 </i>
   </energy>
  </scstep>
  <scstep>
   <time name="dav">    9.04    9.09</time>
   <time name="total">    9.07    9.13</time>
   <energy>
    <i name="alphaZ">     58.40344200 </i>
    <i name="ewald">   4796.58910645 </i>
    <i name="hartreedc">  -6553.69478313 </i>
    <i name="XCdc">    180.68709931 </i>
    <i name="pawpsdc">   5784.75006375 </i>
    <i name="pawaedc">  -5789.17815962 </i>
    <i name="eentropy">     -0.00154343 </i>
    <i name="bandstr">   -506.31699489 </i>
    <i name="atom">   1903.26342058 </i>
    <i name="e_fr_energy">   -125.49834898 </i>
    <i name="e_wo_entrp">   -125.49680555 </i>
    <i name="e_0_energy">   -125.49757727 </i>
   </energy>
  </scstep>
  <structure>
   <crystal>
    <varray name="basis" >
     <v>       4.19329501       2.42100000       0.00000000 </v>
     <v>      -4.19329501       2.42100000       0.00000000 </v>
     <v>       0.00000000       0.00000000      15.00000000 </v>
    </varray>
    <i name="volume">    304.55901622 </i>
    <varray name="rec_basis" >
     <v>       0.11923797       0.20652623       0.00000000 </v>
     <v>      -0.11923797       0.20652623       0.00000000 </v>
     <v>       0.00000000       0.00000000       0.06666667 </v>
    </varray>
   </crystal>
   <varray name="positions" >
    <v>       0.00418074       0.00275320       0.11925459 </v>
    <v>       0.35587230       0.00303229       0.09782509 </v>
    <v>       0.00395874       0.35420221       0.09782719 </v>
    <v>       0.65272091       0.65110295       0.09781649 </v>
    <v>       0.32478663       0.32307528       0.10029562 </v>
    <v>       0.68388295       0.00310574       0.10027405 </v>
    <v>       0.00388601       0.68216021       0.10026673 </v>
    <v>       0.00012699       0.49997615       0.33374213 </v>
    <v>       0.16687322       0.33394494       0.33380136 </v>
    <v>       0.99999918       0.99999363       0.33363250 </v>
    <v>       0.16706424       0.83312440       0.33380424 </v>
    <v>       0.50003904       0.50016330       0.33374501 </v>
    <v>       0.66666624       0.33333786       0.33368497 </v>
    <v>       0.49985086       0.99987111       0.33374167 </v>
    <v>       0.66605262       0.83292404       0.33380104 </v>
   </varray>
  </structure>
  <varray name="forces" >
   <v>      -0.00104679      -0.00069062      -0.12684260 </v>
   <v>       0.23947475       0.13599153       0.05563556 </v>
   <v>      -0.24131979       0.13852114       0.05524673 </v>
   <v>       0.00121623      -0.27350357       0.05638171 </v>
   <v>      -0.00425423       0.56669394      -0.02352790 </v>
   <v>      -0.48490227      -0.28799598      -0.02164620 </v>
   <v>       0.49053068      -0.27985449      -0.02138277 </v>
   <v>      -0.05596405      -0.02325776       0.01026063 </v>
   <v>       0.12575531      -0.13987648      -0.00101375 </v>
   <v>      -0.00191408       0.00131341       0.00721937 </v>
   <v>      -0.18207487      -0.03577803      -0.00083080 </v>
   <v>       0.04693197      -0.04148758       0.01042879 </v>
   <v>       0.00201050      -0.00038567      -0.00900215 </v>
   <v>       0.00643588       0.05984846       0.01017747 </v>
   <v>       0.05912075       0.18046168      -0.00110409 </v>
  </varray>
  <varray name="stress" >
   <v>       0.08751617       0.00151946       0.00380738 </v>
   <v>       0.00151946       0.08861457       0.01599160 </v>
   <v>       0.00380737       0.01599162      -1.88400944 </v>
  </varray>
  <energy>
   <i name="e_fr_energy">   -127.10201479 </i>
   <i name="e_wo_entrp">   -127.10047137 </i>
   <i name="e_0_energy">   -127.10124308 </i>
  </energy>
  <time name="totalsc">   60.91   61.34</time>
 </calculation>
 <calculation>
  <scstep>
   <time name="dav">    5.47    5.51</time>
   <time name="total">    5.76    5.81</time>
   <energy>
    <i name="alphaZ">     58.40344200 </i>
    <i name="ewald">   4794.71269009 </i>
    <i name="hartreedc">  -6552.54674465 </i>
    <i name="XCdc">    180.64447332 </i>
    <i name="pawpsdc">   5784.70448789 </i>
    <i name="pawaedc">  -5789.13255651 </i>
    <i name="eentropy">     -0.00154124 </i>
    <i name="bandstr">   -505.55702953 </i>
    <i name="atom">   1903.26342058 </i>
    <i name="e_fr_energy">   -125.50935805 </i>
    <i name="e_wo_entrp">   -125.50781681 </i>
    <i name="e_0_energy">   -125.50858743 </i>
   </energy>
  </scstep>
  <scstep>
   <time name="dav">   10.95   11.02</time>
   <time name="total">   11.24   11.32</time>
   <energy>
    <i name="e_fr_energy">   -125.50689907 </i>
    <i name="e_wo_entrp">   -125.50535797 </i>
    <i name="e_0_energy">   -125.50612852 </i>
   </energy>
  </scstep>
  <scstep>
   <time name="dav">    9.78    9.84</time>
   <time name="total">   10.07   10.15</time>
   <energy>
    <i name="e_fr_energy">   -125.50662510 </i>
    <i name="e_wo_entrp">   -125.50508410 </i>
    <i name="e_0_energy">   -125.50585460 </i>
   </energy>
  </scstep>
  <scstep>
   <time name="dav">    9.13    9.18</time>
   <time name="total">    9.42    9.48</time>
   <energy>
    <i name="e_fr_energy">   -125.50661280 </i>
    <i name="e_wo_entrp">   -125.50507163 </i>
    <i name="e_0_energy">   -125.50584222 </i>
   </energy>
  </scstep>
  <scstep>
   <time name="dav">    9.54    9.59</time>
   <time name="total">    9.57    9.63</time>
   <energy>
    <i name="alphaZ">     58.40344200 </i>
    <i name="ewald">   4794.71269009 </i>
    <i name="hartreedc">  -6552.18240424 </i>
    <i name="XCdc">    180.63590521 </i>
    <i name="pawpsdc">   5770.31274166 </i>
    <i name="pawaedc">  -5774.73608867 </i>
    <i name="eentropy">     -0.00154118 </i>
    <i name="bandstr">   -505.91477905 </i>
    <i name="atom">   1903.26342058 </i>
    <i name="e_fr_energy">   -125.50661360 </i>
    <i name="e_wo_entrp">   -125.50507242 </i>
    <i name="e_0_energy">   -125.50584301 </i>
   </energy>
  </scstep>
  <structure>
   <crystal>
    <varray name="basis" >
     <v>       4.19329501       2.42100000       0.00000000 </v>
     <v>      -4.19329501       2.42100000       0.00000000 </v>
     <v>       0.00000000       0.00000000      15.00000000 </v>
    </varray>
    <i name="volume">    304.55901622 </i>
    <varray name="rec_basis" >
     <v>       0.11923797       0.20652623       0.00000000 </v>
     <v>      -0.11923797       0.20652623       0.00000000 </v>
     <v>       0.00000000       0.00000000       0.06666667 </v>
    </varray>
   </crystal>
   <varray name="positions" >
    <v>       0.00416614       0.00270957       0.11983927 </v>
    <v>       0.35645391       0.00293692       0.09764423 </v>
    <v>       0.00410930       0.35490419       0.09764716 </v>
    <v>       0.65202260       0.65054483       0.09763378 </v>
    <v>       0.32656197       0.32503583       0.10030071 </v>
    <v>       0.68194332       0.00293095       0.10027490 </v>
    <v>       0.00403627       0.68037287       0.10026611 </v>
    <v>       0.00005831       0.49998880       0.33373740 </v>
    <v>       0.16676191       0.33361553       0.33376476 </v>
    <v>       0.99999926       0.99999688       0.33368675 </v>
    <v>       0.16685016       0.83323645       0.33376609 </v>
    <v>       0.50001768       0.50007527       0.33373873 </v>
    <v>       0.66666629       0.33333507       0.33371099 </v>
    <v>       0.49993074       0.99994028       0.33373718 </v>
    <v>       0.66638280       0.83314388       0.33376461 </v>
   </varray>
  </structure>
  <varray name="forces" >
   <v>      -0.00312594       0.00281588      -0.23959818 </v>
   <v>       0.05444541       0.04056179       0.08191802 </v>
   <v>      -0.06683658       0.02232314       0.08148593 </v>
   <v>       0.01333986      -0.06678646       0.08285139 </v>
   <v>       0.01481805       0.07270562      -0.01267214 </v>
   <v>      -0.06964564      -0.02551059      -0.01051836 </v>
   <v>       0.05670233      -0.04691467      -0.00997213 </v>
   <v>      -0.01843316      -0.00780703       0.00622501 </v>
   <v>       0.03884060      -0.04252979       0.01096231 </v>
   <v>      -0.00061372       0.00043882      -0.01362451 </v>
   <v>      -0.05563667      -0.01115218       0.01152794 </v>
   <v>       0.01559814      -0.01342067       0.00678357 </v>
   <v>       0.00067781      -0.00003934      -0.01234343 </v>
   <v>       0.00197698       0.01980331       0.00610808 </v>
   <v>       0.01789253       0.05551215       0.01086651 </v>
  </varray>
  <varray name="stress" >
   <v>      -1.42199908       0.00961740       0.00049410 </v>
   <v>       0.00961741      -1.41206994       0.02110840 </v>
   <v>       0.00049410       0.02110839      -2.06283246 </v>
  </varray>
  <energy>
   <i name="e_fr_energy">   -127.11057315 </i>
   <i name="e_wo_entrp">   -127.10903197 </i>
   <i name="e_0_energy">   -127.10980256 </i>
  </energy>
  <time name="totalsc">   50.75   51.10</time>
 </calculation>
 <calculation>
  <scstep>
   <time name="dav">    5.47    5.50</time>
   <time name="total">    5.76    5.81</time>
   <energy>
    <i name="alphaZ">     58.40344200 </i>
    <i name="ewald">   4794.89226177 </i>
    <i name="hartreedc">  -6552.13144917 </i>
    <i name="XCdc">    180.65204162 </i>
    <i name="pawpsdc">   5770.32012665 </i>
    <i name="pawaedc">  -5774.74348232 </i>
    <i name="eentropy">     -0.00154385 </i>
    <i name="bandstr">   -506.16561054 </i>
    <i name="atom">   1903.26342058 </i>
    <i name="e_fr_energy">   -125.51079325 </i>
    <i name="e_wo_entrp">   -125.50924941 </i>
    <i name="e_0_energy">   -125.51002133 </i>
   </energy>
  </scstep>
  <scstep>
   <time name="dav">   11.80   11.86</time>
   <time name="total">   12.09   12.17</time>
   <energy>
    <i name="e_fr_energy">   -125.51080276 </i>
    <i name="e_wo_entrp">   -125.50925948 </i>
    <i name="e_0_energy">   -125.51003112 </i>
   </energy>
  </scstep>
  <scstep>
   <time name="dav">    9.09    9.15</time>
   <time name="total">    9.38    9.45</time>
   <energy>
    <i name="e_fr_energy">   -125.51078966 </i>
    <i name="e_wo_entrp">   -125.50924668 </i>
    <i name="e_0_energy">   -125.51001817 </i>
   </energy>
  </scstep>
  <scstep>
   <time name="dav">   10.65   10.71</time>
   <time name="total">   10.95   11.02</time>
   <energy>
    <i name="e_fr_energy">   -125.51079005 </i>
    <i name="e_wo_entrp">   -125.50924700 </i>
    <i name="e_0_energy">   -125.51001852 </i>
   </energy>
  </scstep>
  <scstep>
   <time name="dav">    9.17    9.22</time>
   <time name="total">    9.20    9.26</time>
   <energy>
    <i name="alphaZ">     58.40344200 </i>
    <i name="ewald">   4794.89226177 </i>
    <i name="hartreedc">  -6552.13369000 </i>
    <i name="XCdc">    180.65212649 </i>
    <i name="pawpsdc">   5774.98384984 </i>
    <i name="pawaedc">  -5779.40885375 </i>
    <i name="eentropy">     -0.00154306 </i>
    <i name="bandstr">   -506.16180461 </i>
    <i name="atom">   1903.26342058 </i>
    <i name="e_fr_energy">   -125.51079074 </i>
    <i name="e_wo_entrp">   -125.50924768 </i>
    <i name="e_0_energy">   -125.51001921 </i>
   </energy>
  </scstep>
  <structure>
   <crystal>
    <varray name="basis" >
     <v>       4.19329501       2.42100000       0.00000000 </v>
     <v>      -4.19329501       2.42100000       0.00000000 </v>
     <v>       0.00000000       0.00000000      15.00000000 </v>
    </varray>
    <i name="volume">    304.55901622 </i>
    <varray name="rec_basis" >
     <v>       0.11923797       0.20652623       0.00000000 </v>
     <v>      -0.11923797       0.20652623       0.00000000 </v>
     <v>       0.00000000       0.00000000       0.06666667 </v>
    </varray>
   </crystal>
   <varray name="positions" >
    <v>       0.00418029       0.00276606       0.11894516 </v>
    <v>       0.35688869       0.00305175       0.09794320 </v>
    <v>       0.00391152       0.35519792       0.09794460 </v>
    <v>       0.65174382       0.65007959       0.09793608 </v>
    <v>       0.32665765       0.32491399       0.10026254 </v>
    <v>       0.68204382       0.00312336       0.10024441 </v>
    <v>       0.00385716       0.68029573       0.10023771 </v>
    <v>      -0.00008148       0.50000955       0.33375694 </v>
    <v>       0.16662245       0.33315431       0.33380914 </v>
    <v>       0.99999998       0.00000279       0.33362849 </v>
    <v>       0.16654099       0.83338333       0.33381264 </v>
    <v>       0.49998596       0.49990695       0.33376041 </v>
    <v>       0.66666940       0.33333223       0.33366638 </v>
    <v>       0.50008876       0.00008179       0.33375630 </v>
    <v>       0.66685165       0.83346799       0.33380866 </v>
   </varray>
  </structure>
  <varray name="forces" >
   <v>      -0.00029469      -0.00006862      -0.22097485 </v>
   <v>       0.04378921       0.02246024       0.04647437 </v>
   <v>      -0.04251245       0.02680270       0.04625803 </v>
   <v>      -0.00096688      -0.04856054       0.04691110 </v>
   <v>      -0.00627339       0.09070928       0.01695487 </v>
   <v>      -0.07390138      -0.05152234       0.01841883 </v>
   <v>       0.07984550      -0.04059634       0.01864937 </v>
   <v>       0.05017541       0.02286679       0.00692812 </v>
   <v>      -0.08815821       0.08501051       0.00006604 </v>
   <v>       0.00208257      -0.00009658       0.00851591 </v>
   <v>       0.11580791       0.03053220       0.00009935 </v>
   <v>      -0.04258774       0.03559123       0.00694222 </v>
   <v>      -0.00180949       0.00010181      -0.00211534 </v>
   <v>      -0.00396018      -0.05321375       0.00685626 </v>
   <v>      -0.03123619      -0.12001660       0.00001573 </v>
  </varray>
  <varray name="stress" >
   <v>      -1.05650277       0.01296077       0.00488270 </v>
   <v>       0.01296079      -1.03120251       0.01502035 </v>
   <v>       0.00488270       0.01502035      -2.00579564 </v>
  </varray>
  <energy>
   <i name="e_fr_energy">   -127.11464844 </i>
   <i name="e_wo_entrp">   -127.11310538 </i>
   <i name="e_0_energy">   -127.11387691 </i>
  </energy>
  <time name="totalsc">   52.06   52.42</time>
 </calculation>
 <calculation>
  <scstep>
   <time name="dav">    5.46    5.50</time>
   <time name="total">    5.76    5.80</time>
   <energy>
    <i name="alphaZ">     58.40344200 </i>
    <i name="ewald">   4795.05421212 </i>
    <i name="hartreedc">  -6552.00214351 </i>
    <i name="XCdc">    180.67186810 </i>
    <i name="pawpsdc">   5775.12387499 </i>
    <i name="pawaedc">  -5779.54888936 </i>
    <i name="eentropy">     -0.00154621 </i>
    <i name="bandstr">   -506.47717634 </i>
    <i name="atom">   1903.26342058 </i>
    <i name="e_fr_energy">   -125.51293762 </i>
    <i name="e_wo_entrp">   -125.51139142 </i>
    <i name="e_0_energy">   -125.51216452 </i>
   </energy>
  </scstep>
  <scstep>
   <time name="dav">   10.65   10.71</time>
   <time name="total">   10.94   11.01</time>
   <energy>
    <i name="e_fr_energy">   -125.51296669 </i>
    <i name="e_wo_entrp">   -125.51142121 </i>
    <i name="e_0_energy">   -125.51219395 </i>
   </energy>
  </scstep>
  <scstep>
   <time name="dav">    8.74    8.79</time>
   <time name="total">    9.03    9.09</time>
   <energy>
    <i name="e_fr_energy">   -125.51294540 </i>
    <i name="e_wo_entrp">   -125.51140032 </i>
    <i name="e_0_energy">   -125.51217286 </i>
   </energy>
  </scstep>
  <scstep>
