<?xml version="1.0" encoding="ISO-8859-1"?>
<modeling>
 <generator>
  <i name="program" type="string">vasp </i>
  <i name="version" type="string">6.3.2  </i>
  <i name="subversion" type="string">27Jun22 (build Dec 22 2022 13:13:19) complex                          parallel </i>
  <i name="platform" type="string">LinuxIFC </i>
  <i name="date" type="string">2023 08 22 </i>
  <i name="time" type="string">23:24:17 </i>
 </generator>
 <incar>
  <i type="string" name="SYSTEM">Lattice</i>
  <i type="int" name="ISTART">     0</i>
  <i type="string" name="PREC">Accurate</i>
  <i type="string" name="ALGO">Normal</i>
  <i type="int" name="ISPIN">     2</i>
  <i type="int" name="ICHARG">     2</i>
  <i type="int" name="NELM">    64</i>
  <i type="int" name="IBRION">     2</i>
  <i name="EDIFF">      0.00000100</i>
  <i name="EDIFFG">     -0.00100000</i>
  <i type="int" name="NSW">   128</i>
  <i type="int" name="ISIF">     2</i>
  <i name="ENCUT">    450.00000000</i>
  <i name="POTIM">      0.50000000</i>
  <i type="int" name="ISMEAR">     0</i>
  <i name="SIGMA">      0.10000000</i>
  <i type="logical" name="LWAVE"> F  </i>
  <i type="logical" name="LCHARG"> F  </i>
  <i type="string" name="GGA">PE</i>
  <i type="int" name="IVDW">    12</i>
 </incar>
 <primitive_cell>
  <structure name="primitive_cell" >
   <crystal>
    <varray name="basis" >
     <v>       4.19329501       2.42100000       0.00000000 </v>
     <v>      -4.19329501       2.42100000       0.00000000 </v>
     <v>       0.00000000       0.00000000      15.00000000 </v>
    </varray>
    <i name="volume">    304.55901622 </i>
    <varray name="rec_basis" >
     <v>       0.11923797       0.20652623       0.00000000 </v>
     <v>      -0.11923797       0.20652623       0.00000000 </v>
     <v>       0.00000000       0.00000000       0.06666667 </v>
    </varray>
   </crystal>
   <varray name="positions" >
    <v>       0.00415361       0.00267210       0.12034134 </v>
    <v>       0.35695335       0.00285503       0.09748893 </v>
    <v>       0.00423858       0.35550699       0.09749256 </v>
    <v>       0.65142295       0.65006557       0.09747688 </v>
    <v>       0.32808646       0.32671938       0.10030508 </v>
    <v>       0.68027775       0.00278085       0.10027562 </v>
    <v>       0.00416530       0.67883808       0.10026559 </v>
    <v>       0.99999933       0.49999967       0.33373333 </v>
    <v>       0.16666633       0.33333267       0.33373333 </v>
    <v>       0.99999933       0.99999967       0.33373333 </v>
    <v>       0.16666633       0.83333267       0.33373333 </v>
    <v>       0.49999933       0.49999967       0.33373333 </v>
    <v>       0.66666633       0.33333267       0.33373333 </v>
    <v>       0.49999933       0.99999967       0.33373333 </v>
    <v>       0.66666633       0.83333267       0.33373333 </v>
   </varray>
  </structure>
  <varray name="primitive_index" >
   <v type="int" >        1 </v>
   <v type="int" >        2 </v>
   <v type="int" >        3 </v>
   <v type="int" >        4 </v>
   <v type="int" >        5 </v>
   <v type="int" >        6 </v>
   <v type="int" >        7 </v>
   <v type="int" >        8 </v>
   <v type="int" >        9 </v>
   <v type="int" >       10 </v>
   <v type="int" >       11 </v>
   <v type="int" >       12 </v>
   <v type="int" >       13 </v>
   <v type="int" >       14 </v>
   <v type="int" >       15 </v>
  </varray>
 </primitive_cell>
 <kpoints>
  <generation param="Gamma">
   <v type="int" name="divisions">      12       12        1 </v>
   <v name="usershift">      0.00000000       0.00000000       0.00000000 </v>
   <v name="genvec1">      0.08333333       0.00000000       0.00000000 </v>
   <v name="genvec2">      0.00000000       0.08333333       0.00000000 </v>
   <v name="genvec3">      0.00000000       0.00000000       1.00000000 </v>
   <v name="shift">      0.00000000       0.00000000       0.00000000 </v>
  </generation>
  <varray name="kpointlist" >
   <v>       0.00000000       0.00000000       0.00000000 </v>
   <v>       0.08333333      -0.00000000       0.00000000 </v>
   <v>       0.00000000       0.08333333       0.00000000 </v>
   <v>      -0.08333333       0.08333333       0.00000000 </v>
   <v>       0.16666667       0.00000000       0.00000000 </v>
   <v>       0.00000000       0.16666667       0.00000000 </v>
   <v>      -0.16666667       0.16666667       0.00000000 </v>
   <v>       0.25000000       0.00000000       0.00000000 </v>
   <v>       0.00000000       0.25000000       0.00000000 </v>
   <v>      -0.25000000       0.25000000       0.00000000 </v>
   <v>       0.33333333      -0.00000000       0.00000000 </v>
   <v>      -0.00000000       0.33333333       0.00000000 </v>
   <v>      -0.33333333       0.33333333       0.00000000 </v>
   <v>       0.41666667      -0.00000000       0.00000000 </v>
   <v>      -0.00000000       0.41666667       0.00000000 </v>
   <v>      -0.41666667       0.41666667       0.00000000 </v>
   <v>       0.50000000       0.00000000       0.00000000 </v>
   <v>       0.00000000       0.50000000       0.00000000 </v>
   <v>       0.50000000       0.50000000       0.00000000 </v>
   <v>       0.08333333       0.08333333       0.00000000 </v>
   <v>      -0.08333333       0.16666667       0.00000000 </v>
   <v>      -0.16666667       0.08333333       0.00000000 </v>
   <v>       0.16666667       0.08333333       0.00000000 </v>
   <v>      -0.08333333       0.25000000       0.00000000 </v>
   <v>      -0.25000000       0.16666667       0.00000000 </v>
   <v>      -0.16666667       0.25000000       0.00000000 </v>
   <v>       0.08333333       0.16666667       0.00000000 </v>
   <v>       0.25000000      -0.08333333       0.00000000 </v>
   <v>       0.25000000       0.08333333       0.00000000 </v>
   <v>      -0.08333333       0.33333333       0.00000000 </v>
   <v>      -0.33333333       0.25000000       0.00000000 </v>
   <v>      -0.25000000       0.33333333       0.00000000 </v>
   <v>       0.08333333       0.25000000       0.00000000 </v>
   <v>       0.33333333      -0.08333333       0.00000000 </v>
   <v>       0.33333333       0.08333333       0.00000000 </v>
   <v>      -0.08333333       0.41666667       0.00000000 </v>
   <v>      -0.41666667       0.33333333       0.00000000 </v>
   <v>      -0.33333333       0.41666667       0.00000000 </v>
   <v>       0.08333333       0.33333333       0.00000000 </v>
   <v>       0.41666667      -0.08333333       0.00000000 </v>
   <v>       0.41666667       0.08333333       0.00000000 </v>
   <v>      -0.08333333       0.50000000       0.00000000 </v>
   <v>       0.50000000       0.41666667       0.00000000 </v>
   <v>      -0.41666667       0.50000000       0.00000000 </v>
   <v>       0.08333333       0.41666667       0.00000000 </v>
   <v>       0.50000000      -0.08333333       0.00000000 </v>
   <v>       0.16666667       0.16666667       0.00000000 </v>
   <v>      -0.16666667       0.33333333       0.00000000 </v>
   <v>      -0.33333333       0.16666667       0.00000000 </v>
   <v>       0.25000000       0.16666667       0.00000000 </v>
   <v>      -0.16666667       0.41666667       0.00000000 </v>
   <v>      -0.41666667       0.25000000       0.00000000 </v>
   <v>      -0.25000000       0.41666667       0.00000000 </v>
   <v>       0.16666667       0.25000000       0.00000000 </v>
   <v>       0.41666667      -0.16666667       0.00000000 </v>
   <v>       0.33333333       0.16666667       0.00000000 </v>
   <v>      -0.16666667       0.50000000       0.00000000 </v>
   <v>       0.50000000       0.33333333       0.00000000 </v>
   <v>      -0.33333333       0.50000000       0.00000000 </v>
   <v>       0.16666667       0.33333333       0.00000000 </v>
   <v>       0.50000000      -0.16666667       0.00000000 </v>
   <v>       0.41666667       0.16666667       0.00000000 </v>
   <v>      -0.16666667      -0.41666667       0.00000000 </v>
   <v>       0.41666667       0.41666667       0.00000000 </v>
   <v>       0.25000000       0.25000000       0.00000000 </v>
   <v>      -0.25000000       0.50000000       0.00000000 </v>
   <v>       0.50000000       0.25000000       0.00000000 </v>
   <v>       0.33333333       0.25000000       0.00000000 </v>
   <v>      -0.25000000      -0.41666667       0.00000000 </v>
   <v>       0.41666667       0.33333333       0.00000000 </v>
   <v>      -0.33333333      -0.41666667       0.00000000 </v>
   <v>       0.25000000       0.33333333       0.00000000 </v>
   <v>      -0.41666667      -0.25000000       0.00000000 </v>
   <v>       0.33333333       0.33333333       0.00000000 </v>
  </varray>
  <varray name="weights" >
   <v>       0.00694444 </v>
   <v>       0.01388889 </v>
   <v>       0.01388889 </v>
   <v>       0.01388889 </v>
   <v>       0.01388889 </v>
   <v>       0.01388889 </v>
   <v>       0.01388889 </v>
   <v>       0.01388889 </v>
   <v>       0.01388889 </v>
   <v>       0.01388889 </v>
   <v>       0.01388889 </v>
   <v>       0.01388889 </v>
   <v>       0.01388889 </v>
   <v>       0.01388889 </v>
   <v>       0.01388889 </v>
   <v>       0.01388889 </v>
   <v>       0.00694444 </v>
   <v>       0.00694444 </v>
   <v>       0.00694444 </v>
   <v>       0.01388889 </v>
   <v>       0.01388889 </v>
   <v>       0.01388889 </v>
   <v>       0.01388889 </v>
   <v>       0.01388889 </v>
   <v>       0.01388889 </v>
   <v>       0.01388889 </v>
   <v>       0.01388889 </v>
   <v>       0.01388889 </v>
   <v>       0.01388889 </v>
   <v>       0.01388889 </v>
   <v>       0.01388889 </v>
   <v>       0.01388889 </v>
   <v>       0.01388889 </v>
   <v>       0.01388889 </v>
   <v>       0.01388889 </v>
   <v>       0.01388889 </v>
   <v>       0.01388889 </v>
   <v>       0.01388889 </v>
   <v>       0.01388889 </v>
   <v>       0.01388889 </v>
   <v>       0.01388889 </v>
   <v>       0.01388889 </v>
   <v>       0.01388889 </v>
   <v>       0.01388889 </v>
   <v>       0.01388889 </v>
   <v>       0.01388889 </v>
   <v>       0.01388889 </v>
   <v>       0.01388889 </v>
   <v>       0.01388889 </v>
   <v>       0.01388889 </v>
   <v>       0.01388889 </v>
   <v>       0.01388889 </v>
   <v>       0.01388889 </v>
   <v>       0.01388889 </v>
   <v>       0.01388889 </v>
   <v>       0.01388889 </v>
   <v>       0.01388889 </v>
   <v>       0.01388889 </v>
   <v>       0.01388889 </v>
   <v>       0.01388889 </v>
   <v>       0.01388889 </v>
   <v>       0.01388889 </v>
   <v>       0.01388889 </v>
   <v>       0.01388889 </v>
   <v>       0.01388889 </v>
   <v>       0.01388889 </v>
   <v>       0.01388889 </v>
   <v>       0.01388889 </v>
   <v>       0.01388889 </v>
   <v>       0.01388889 </v>
   <v>       0.01388889 </v>
   <v>       0.01388889 </v>
   <v>       0.01388889 </v>
   <v>       0.01388889 </v>
  </varray>
 </kpoints>
 <parameters>
  <separator name="general" >
   <i type="string" name="SYSTEM">Lattice</i>
   <i type="logical" name="LCOMPAT"> F  </i>
  </separator>
  <separator name="electronic" >
   <i type="string" name="PREC">accura</i>
   <i name="ENMAX">    450.00000000</i>
   <i name="ENAUG">    644.87300000</i>
   <i name="EDIFF">      0.00000100</i>
   <i type="int" name="IALGO">    38</i>
   <i type="int" name="IWAVPR">    11</i>
   <i type="int" name="NBANDS">    48</i>
   <i type="int" name="NBANDSLOW">    -1</i>
   <i type="int" name="NBANDSHIGH">    -1</i>
   <i name="NELECT">     56.00000000</i>
   <i type="int" name="TURBO">     0</i>
   <i type="int" name="IRESTART">     0</i>
   <i type="int" name="NREBOOT">     0</i>
   <i type="int" name="NMIN">     0</i>
   <i name="EREF">      0.00000000</i>
   <separator name="electronic smearing" >
    <i type="int" name="ISMEAR">     0</i>
    <i name="SIGMA">      0.10000000</i>
    <i name="KSPACING">      0.50000000</i>
    <i type="logical" name="KGAMMA"> T  </i>
    <i type="logical" name="KBLOWUP"> T  </i>
   </separator>
   <separator name="electronic projectors" >
    <i type="logical" name="LREAL"> F  </i>
    <v name="ROPT">      0.00000000      0.00000000</v>
    <i type="int" name="LMAXPAW">  -100</i>
    <i type="int" name="LMAXMIX">     2</i>
    <i type="logical" name="NLSPLINE"> F  </i>
   </separator>
   <separator name="electronic startup" >
    <i type="int" name="ISTART">     0</i>
    <i type="int" name="ICHARG">     2</i>
    <i type="int" name="INIWAV">     1</i>
   </separator>
   <separator name="electronic spin" >
    <i type="int" name="ISPIN">     2</i>
    <i type="logical" name="LNONCOLLINEAR"> F  </i>
    <v name="MAGMOM">      1.00000000      1.00000000      1.00000000      1.00000000      1.00000000      1.00000000      1.00000000      1.00000000      1.00000000      1.00000000      1.00000000      1.00000000      1.00000000      1.00000000      1.00000000</v>
    <i name="NUPDOWN">     -1.00000000</i>
    <i type="logical" name="LSORBIT"> F  </i>
    <v name="SAXIS">      0.00000000      0.00000000      1.00000000</v>
    <i type="logical" name="LSPIRAL"> F  </i>
    <v name="QSPIRAL">      0.00000000      0.00000000      0.00000000</v>
    <i type="logical" name="LZEROZ"> F  </i>
   </separator>
   <separator name="electronic exchange-correlation" >
    <i type="logical" name="LASPH"> F  </i>
    <i type="logical" name="LMETAGGA"> F  </i>
   </separator>
   <separator name="electronic convergence" >
    <i type="int" name="NELM">    64</i>
    <i type="int" name="NELMDL">    -5</i>
    <i type="int" name="NELMIN">     2</i>
    <i name="ENINI">    450.00000000</i>
    <separator name="electronic convergence detail" >
     <i type="logical" name="LDIAG"> T  </i>
     <i type="logical" name="LSUBROT"> F  </i>
     <i name="WEIMIN">      0.00100000</i>
     <i name="EBREAK">      0.00000001</i>
     <i name="DEPER">      0.30000000</i>
     <i type="int" name="NRMM">     4</i>
     <i name="TIME">      0.40000000</i>
    </separator>
   </separator>
   <separator name="electronic mixer" >
    <i name="AMIX">      0.40000000</i>
    <i name="BMIX">      1.00000000</i>
    <i name="AMIN">      0.10000000</i>
    <i name="AMIX_MAG">      1.60000000</i>
    <i name="BMIX_MAG">      1.00000000</i>
    <separator name="electronic mixer details" >
     <i type="int" name="IMIX">     4</i>
     <i type="logical" name="MIXFIRST"> F  </i>
     <i type="int" name="MAXMIX">   -45</i>
     <i name="WC">    100.00000000</i>
     <i type="int" name="INIMIX">     1</i>
     <i type="int" name="MIXPRE">     1</i>
     <i type="int" name="MREMOVE">     5</i>
    </separator>
   </separator>
   <separator name="electronic dipolcorrection" >
    <i type="logical" name="LDIPOL"> F  </i>
    <i type="logical" name="LMONO"> F  </i>
    <i type="int" name="IDIPOL">     0</i>
    <i name="EPSILON">      1.00000000</i>
    <v name="DIPOL">   -100.00000000   -100.00000000   -100.00000000</v>
    <i name="EFIELD">      0.00000000</i>
   </separator>
  </separator>
  <separator name="grids" >
   <i type="int" name="NGX">    36</i>
   <i type="int" name="NGY">    36</i>
   <i type="int" name="NGZ">   108</i>
   <i type="int" name="NGXF">    72</i>
   <i type="int" name="NGYF">    72</i>
   <i type="int" name="NGZF">   216</i>
   <i type="logical" name="ADDGRID"> F  </i>
  </separator>
  <separator name="ionic" >
   <i type="int" name="NSW">   128</i>
   <i type="int" name="IBRION">     2</i>
   <i type="int" name="MDALGO">     0</i>
   <i type="int" name="ISIF">     2</i>
   <i name="PSTRESS">      0.00000000</i>
   <i name="EDIFFG">     -0.00100000</i>
   <i type="int" name="NFREE">     1</i>
   <i name="POTIM">      0.50000000</i>
   <i name="SMASS">     -3.00000000</i>
   <i name="SCALEE">      1.00000000</i>
  </separator>
  <separator name="ionic md" >
   <i name="TEBEG">      0.00010000</i>
   <i name="TEEND">      0.00010000</i>
   <i type="int" name="NBLOCK">     1</i>
   <i type="int" name="KBLOCK">   128</i>
   <i type="int" name="NPACO">   256</i>
   <i name="APACO">     10.00000000</i>
  </separator>
  <separator name="symmetry" >
   <i type="int" name="ISYM">     2</i>
   <i name="SYMPREC">      0.00001000</i>
  </separator>
  <separator name="dos" >
   <i type="int" name="LORBIT">     0</i>
   <v name="RWIGS">     -1.00000000     -1.00000000</v>
   <i type="int" name="NEDOS">   301</i>
   <i name="EMIN">     10.00000000</i>
   <i name="EMAX">    -10.00000000</i>
   <i name="EFERMI">      0.00000000</i>
  </separator>
  <separator name="writing" >
   <i type="int" name="NWRITE">     2</i>
   <i type="logical" name="LWAVE"> F  </i>
   <i type="logical" name="LDOWNSAMPLE"> F  </i>
   <i type="logical" name="LCHARG"> F  </i>
   <i type="logical" name="LPARD"> F  </i>
   <i type="logical" name="LVTOT"> F  </i>
   <i type="logical" name="LVHAR"> F  </i>
   <i type="logical" name="LELF"> F  </i>
   <i type="logical" name="LOPTICS"> F  </i>
   <v name="STM">      0.00000000      0.00000000      0.00000000      0.00000000      0.00000000      0.00000000      0.00000000</v>
  </separator>
  <separator name="performance" >
   <i type="int" name="NPAR">    48</i>
   <i type="int" name="NSIM">     4</i>
   <i type="int" name="NBLK">    -1</i>
   <i type="logical" name="LPLANE"> T  </i>
   <i type="logical" name="LSCALAPACK"> T  </i>
   <i type="logical" name="LSCAAWARE"> F  </i>
   <i type="logical" name="LSCALU"> F  </i>
   <i type="logical" name="LASYNC"> F  </i>
   <i type="logical" name="LORBITALREAL"> F  </i>
  </separator>
  <separator name="miscellaneous" >
   <i type="int" name="IDIOT">     3</i>
   <i type="int" name="PHON_NSTRUCT">    -1</i>
   <i type="logical" name="LMUSIC"> F  </i>
   <v name="POMASS">     10.81100000     12.01100000</v>
   <v name="DARWINR">      0.00000000      0.00000000</v>
   <v name="DARWINV">      1.00000000      1.00000000</v>
   <i type="logical" name="LCORR"> T  </i>
  </separator>
  <i type="logical" name="GGA_COMPAT"> T  </i>
  <i type="logical" name="LBERRY"> F  </i>
  <i type="int" name="ICORELEVEL">     0</i>
  <i type="logical" name="LDAU"> F  </i>
  <i type="int" name="I_CONSTRAINED_M">     0</i>
  <separator name="electronic exchange-correlation" >
   <i type="string" name="GGA">PE</i>
   <i type="int" name="VOSKOWN">     0</i>
   <i type="logical" name="LHFCALC"> F  </i>
   <i type="string" name="PRECFOCK"></i>
   <i type="logical" name="LSYMGRAD"> F  </i>
   <i type="logical" name="LHFONE"> F  </i>
   <i type="logical" name="LRHFCALC"> F  </i>
   <i type="logical" name="LTHOMAS"> F  </i>
   <i type="logical" name="LMODELHF"> F  </i>
   <i type="logical" name="LFOCKACE"> F  </i>
   <i name="ENCUT4O">     -1.00000000</i>
   <i type="int" name="EXXOEP">     0</i>
   <i type="int" name="FOURORBIT">     0</i>
   <i name="AEXX">      0.00000000</i>
   <i name="HFALPHA">      0.00000000</i>
   <i name="MCALPHA">      0.00000000</i>
   <i name="ALDAX">      1.00000000</i>
   <i name="AGGAX">      1.00000000</i>
   <i name="ALDAC">      1.00000000</i>
   <i name="AGGAC">      1.00000000</i>
   <i type="int" name="NKREDX">     1</i>
   <i type="int" name="NKREDY">     1</i>
   <i type="int" name="NKREDZ">     1</i>
   <i type="logical" name="SHIFTRED"> F  </i>
   <i type="logical" name="ODDONLY"> F  </i>
   <i type="logical" name="EVENONLY"> F  </i>
   <i type="int" name="LMAXFOCK">     0</i>
   <i type="int" name="NMAXFOCKAE">     0</i>
   <i type="logical" name="LFOCKAEDFT"> F  </i>
   <i name="HFSCREEN">      0.00000000</i>
   <i name="HFSCREENC">      0.00000000</i>
   <i type="int" name="NBANDSGWLOW">     0</i>
  </separator>
  <separator name="vdW DFT" >
   <i type="logical" name="LUSE_VDW"> F  </i>
   <i name="Zab_VDW">     -0.84910000</i>
   <i name="PARAM1">      0.12340000</i>
   <i name="PARAM2">      1.00000000</i>
   <i name="PARAM3">      0.00000000</i>
  </separator>
  <separator name="model GW" >
   <i type="int" name="MODEL_GW">     0</i>
   <i name="MODEL_EPS0">     12.18236065</i>
   <i name="MODEL_ALPHA">      1.00000000</i>
  </separator>
  <separator name="linear response parameters" >
   <i type="logical" name="LEPSILON"> F  </i>
   <i type="logical" name="LRPA"> F  </i>
   <i type="logical" name="LNABLA"> F  </i>
   <i type="logical" name="LVEL"> F  </i>
   <i name="CSHIFT">      0.10000000</i>
   <i name="OMEGAMAX">     -1.00000000</i>
   <i name="DEG_THRESHOLD">      0.00200000</i>
   <i name="RTIME">     -0.10000000</i>
   <i name="WPLASMAI">      0.00000000</i>
   <v name="DFIELD">      0.00000000      0.00000000      0.00000000</v>
   <v name="WPLASMA">      0.00000000      0.00000000      0.00000000      0.00000000      0.00000000      0.00000000      0.00000000      0.00000000      0.00000000</v>
  </separator>
  <separator name="orbital magnetization" >
   <i type="logical" name="NUCIND"> F  </i>
   <v name="MAGPOS">      0.00000000      0.00000000      0.00000000</v>
   <i type="logical" name="LNICSALL"> T  </i>
   <i type="logical" name="ORBITALMAG"> F  </i>
   <i type="logical" name="LMAGBLOCH"> F  </i>
   <i type="logical" name="LCHIMAG"> F  </i>
   <i type="logical" name="LGAUGE"> T  </i>
   <i type="int" name="MAGATOM">     0</i>
   <v name="MAGDIPOL">      0.00000000      0.00000000      0.00000000</v>
   <v name="AVECCONST">      0.00000000      0.00000000      0.00000000</v>
  </separator>
  <separator name="response functions" >
   <i type="logical" name="LFINITE_TEMPERATURE"> F  </i>
   <i type="logical" name="LADDER"> F  </i>
   <i type="logical" name="LRPAFORCE"> F  </i>
   <i type="logical" name="LFXC"> F  </i>
   <i type="logical" name="LHARTREE"> T  </i>
   <i type="int" name="IBSE">     0</i>
   <v type="int" name="KPOINT">    -1     0     0     0</v>
   <i type="logical" name="LTCTC"> F  </i>
   <i type="logical" name="LTCTE"> F  </i>
   <i type="logical" name="LTETE"> F  </i>
   <i type="logical" name="LTRIPLET"> F  </i>
   <i type="logical" name="LFXCEPS"> F  </i>
   <i type="logical" name="LFXHEG"> F  </i>
   <i type="int" name="NATURALO">     2</i>
   <i type="logical" name="LHOLEGF"> F  </i>
   <i type="logical" name="L2ORDER"> F  </i>
   <i type="logical" name="LDMP1"> F  </i>
   <i type="logical" name="LMP2LT"> F  </i>
   <i type="logical" name="LSMP2LT"> F  </i>
   <i type="logical" name="LGWLF"> F  </i>
   <i name="ENCUTGW">     -2.00000000</i>
   <i name="ENCUTGWSOFT">     -2.00000000</i>
   <i name="ENCUTLF">     -1.00000000</i>
   <i type="logical" name="LESF_SPLINES"> F  </i>
   <i type="int" name="LMAXMP2">    -1</i>
   <i name="SCISSOR">      0.00000000</i>
   <i type="int" name="NOMEGA">     0</i>
   <i type="int" name="NOMEGAR">     0</i>
   <i type="int" name="NBANDSGW">    -1</i>
   <i type="int" name="NBANDSO">    -1</i>
   <i type="int" name="NBANDSV">    -1</i>
   <i type="int" name="NELMGW">     1</i>
   <i type="int" name="NELMHF">     1</i>
   <i type="int" name="DIM">     3</i>
   <i type="int" name="IESPILON">     4</i>
   <i type="int" name="ANTIRES">     0</i>
   <i name="OMEGAMAX">    -30.00000000</i>
   <i name="OMEGAMIN">    -30.00000000</i>
   <i name="OMEGATL">   -200.00000000</i>
   <i type="int" name="OMEGAGRID">     0</i>
   <i name="CSHIFT">     -0.10000000</i>
   <i type="logical" name="LSELFENERGY"> F  </i>
   <i type="logical" name="LSPECTRAL"> F  </i>
   <i type="logical" name="LSPECTRALGW"> F  </i>
   <i type="logical" name="LSINGLES"> F  </i>
   <i type="logical" name="LFERMIGW"> F  </i>
   <i type="logical" name="ODDONLYGW"> F  </i>
   <i type="logical" name="EVENONLYGW"> F  </i>
   <i type="int" name="NKREDLFX">     1</i>
   <i type="int" name="NKREDLFY">     1</i>
   <i type="int" name="NKREDLFZ">     1</i>
   <i type="int" name="MAXMEM">  2800</i>
   <i type="int" name="TELESCOPE">     0</i>
   <i type="int" name="NTAUPAR">    -1</i>
   <i type="int" name="NOMEGAPAR">    -1</i>
   <i name="DAMP_NEWTON">      0.80000001</i>
   <i name="LAMBDA">      1.00000000</i>
  </separator>
  <separator name="External order field" >
   <i name="OFIELD_KAPPA">      0.00000000</i>
   <v name="OFIELD_K">      0.00000000      0.00000000      0.00000000</v>
   <i name="OFIELD_Q6_NEAR">      0.00000000</i>
   <i name="OFIELD_Q6_FAR">      0.00000000</i>
   <i name="OFIELD_A">      0.00000000</i>
  </separator>
  <separator name="optional k-points parameters" >
   <i type="int" name="KPOINTS_OPT_MODE">     1</i>
   <i type="logical" name="LKPOINTS_OPT"> F  </i>
  </separator>
  <separator name="solvation model" >
   <i type="logical" name="LSOL"> F  </i>
  </separator>
 </parameters>
 <atominfo>
  <atoms>      15 </atoms>
  <types>       2 </types>
  <array name="atoms" >
   <dimension dim="1">ion</dimension>
   <field type="string">element</field>
   <field type="int">atomtype</field>
   <set>
    <rc><c>B </c><c>   1</c></rc>
    <rc><c>B </c><c>   1</c></rc>
    <rc><c>B </c><c>   1</c></rc>
    <rc><c>B </c><c>   1</c></rc>
    <rc><c>C </c><c>   2</c></rc>
    <rc><c>C </c><c>   2</c></rc>
    <rc><c>C </c><c>   2</c></rc>
    <rc><c>C </c><c>   2</c></rc>
    <rc><c>C </c><c>   2</c></rc>
    <rc><c>C </c><c>   2</c></rc>
    <rc><c>C </c><c>   2</c></rc>
    <rc><c>C </c><c>   2</c></rc>
    <rc><c>C </c><c>   2</c></rc>
    <rc><c>C </c><c>   2</c></rc>
    <rc><c>C </c><c>   2</c></rc>
   </set>
  </array>
  <array name="atomtypes" >
   <dimension dim="1">type</dimension>
   <field type="int">atomspertype</field>
   <field type="string">element</field>
   <field>mass</field>
   <field>valence</field>
   <field type="string">pseudopotential</field>
   <set>
    <rc><c>   4</c><c>B </c><c>     10.81100000</c><c>      3.00000000</c><c>  PAW_PBE B 06Sep2000                   </c></rc>
    <rc><c>  11</c><c>C </c><c>     12.01100000</c><c>      4.00000000</c><c>  PAW_PBE C 08Apr2002                   </c></rc>
   </set>
  </array>
 </atominfo>
 <structure name="initialpos" >
  <crystal>
   <varray name="basis" >
    <v>       4.19329501       2.42100000       0.00000000 </v>
    <v>      -4.19329501       2.42100000       0.00000000 </v>
    <v>       0.00000000       0.00000000      15.00000000 </v>
   </varray>
   <i name="volume">    304.55901622 </i>
   <varray name="rec_basis" >
    <v>       0.11923797       0.20652623       0.00000000 </v>
    <v>      -0.11923797       0.20652623       0.00000000 </v>
    <v>       0.00000000       0.00000000       0.06666667 </v>
   </varray>
  </crystal>
  <varray name="positions" >
   <v>       0.00415361       0.00267210       0.12034134 </v>
   <v>       0.35695335       0.00285503       0.09748893 </v>
   <v>       0.00423858       0.35550699       0.09749256 </v>
   <v>       0.65142295       0.65006557       0.09747688 </v>
   <v>       0.32808646       0.32671938       0.10030508 </v>
   <v>       0.68027775       0.00278085       0.10027562 </v>
   <v>       0.00416530       0.67883808       0.10026559 </v>
   <v>       0.99999933       0.49999967       0.33373333 </v>
   <v>       0.16666633       0.33333267       0.33373333 </v>
   <v>       0.99999933       0.99999967       0.33373333 </v>
   <v>       0.16666633       0.83333267       0.33373333 </v>
   <v>       0.49999933       0.49999967       0.33373333 </v>
   <v>       0.66666633       0.33333267       0.33373333 </v>
   <v>       0.49999933       0.99999967       0.33373333 </v>
   <v>       0.66666633       0.83333267       0.33373333 </v>
  </varray>
 </structure>
 <calculation>
  <scstep>
   <time name="dav">    5.48    5.54</time>
   <time name="total">    5.53    5.59</time>
   <energy>
    <i name="alphaZ">     58.40344200 </i>
    <i name="ewald">   4793.17621665 </i>
    <i name="hartreedc">  -6348.72519814 </i>
    <i name="XCdc">    175.21400693 </i>
    <i name="pawpsdc">   1365.87943566 </i>
    <i name="pawaedc">  -1368.52100941 </i>
    <i name="eentropy">     -0.01624922 </i>
    <i name="bandstr">   -374.35797228 </i>
    <i name="atom">   1903.26342058 </i>
    <i name="e_fr_energy">    204.31609277 </i>
    <i name="e_wo_entrp">    204.33234199 </i>
    <i name="e_0_energy">    204.32421738 </i>
   </energy>
  </scstep>
  <scstep>
   <time name="dav">    7.95    8.03</time>
   <time name="total">    7.95    8.03</time>
   <energy>
    <i name="e_fr_energy">   -116.43872624 </i>
    <i name="e_wo_entrp">   -116.43575601 </i>
    <i name="e_0_energy">   -116.43724112 </i>
   </energy>
  </scstep>
  <scstep>
   <time name="dav">   11.10   11.18</time>
   <time name="total">   11.10   11.18</time>
   <energy>
    <i name="e_fr_energy">   -129.40614190 </i>
    <i name="e_wo_entrp">   -129.40303516 </i>
    <i name="e_0_energy">   -129.40458853 </i>
   </energy>
  </scstep>
  <scstep>
   <time name="dav">    8.05    8.12</time>
   <time name="total">    8.05    8.12</time>
   <energy>
    <i name="e_fr_energy">   -129.42920870 </i>
    <i name="e_wo_entrp">   -129.42602706 </i>
    <i name="e_0_energy">   -129.42761788 </i>
   </energy>
  </scstep>
  <scstep>
   <time name="dav">   10.67   10.74</time>
   <time name="total">   10.93   11.02</time>
   <energy>
    <i name="e_fr_energy">   -129.42927019 </i>
    <i name="e_wo_entrp">   -129.42608845 </i>
    <i name="e_0_energy">   -129.42767932 </i>
   </energy>
  </scstep>
  <scstep>
   <time name="dav">   10.62   10.70</time>
   <time name="total">   10.92   11.00</time>
   <energy>
    <i name="e_fr_energy">    -92.15191836 </i>
    <i name="e_wo_entrp">    -92.14593128 </i>
    <i name="e_0_energy">    -92.14892482 </i>
   </energy>
  </scstep>
  <scstep>
   <time name="dav">    9.09    9.15</time>
   <time name="total">    9.39    9.47</time>
   <energy>
    <i name="e_fr_energy">   -100.60245907 </i>
    <i name="e_wo_entrp">   -100.59686438 </i>
    <i name="e_0_energy">   -100.59966173 </i>
   </energy>
  </scstep>
  <scstep>
   <time name="dav">   10.13   10.19</time>
   <time name="total">   10.42   10.49</time>
   <energy>
    <i name="e_fr_energy">   -110.47377348 </i>
    <i name="e_wo_entrp">   -110.47375915 </i>
    <i name="e_0_energy">   -110.47376632 </i>
   </energy>
  </scstep>
  <scstep>
   <time name="dav">    7.70    7.76</time>
   <time name="total">    7.99    8.06</time>
   <energy>
    <i name="e_fr_energy">   -117.34493521 </i>
    <i name="e_wo_entrp">   -117.34493045 </i>
    <i name="e_0_energy">   -117.34493283 </i>
   </energy>
  </scstep>
  <scstep>
   <time name="dav">    9.74    9.81</time>
   <time name="total">   10.04   10.11</time>
   <energy>
    <i name="e_fr_energy">   -123.65028628 </i>
    <i name="e_wo_entrp">   -123.64961064 </i>
    <i name="e_0_energy">   -123.64994846 </i>
   </energy>
  </scstep>
  <scstep>
   <time name="dav">   10.79   10.85</time>
   <time name="total">   11.08   11.16</time>
   <energy>
    <i name="e_fr_energy">   -125.27815805 </i>
    <i name="e_wo_entrp">   -125.27698405 </i>
    <i name="e_0_energy">   -125.27757105 </i>
   </energy>
  </scstep>
  <scstep>
   <time name="dav">    7.21    7.26</time>
   <time name="total">    7.50    7.56</time>
   <energy>
    <i name="e_fr_energy">   -125.43132987 </i>
    <i name="e_wo_entrp">   -125.42985082 </i>
    <i name="e_0_energy">   -125.43059035 </i>
   </energy>
  </scstep>
  <scstep>
   <time name="dav">    7.40    7.45</time>
   <time name="total">    7.68    7.75</time>
   <energy>
    <i name="e_fr_energy">   -125.46576104 </i>
    <i name="e_wo_entrp">   -125.46422709 </i>
    <i name="e_0_energy">   -125.46499407 </i>
   </energy>
  </scstep>
  <scstep>
   <time name="dav">    8.23    8.28</time>
   <time name="total">    8.52    8.59</time>
   <energy>
    <i name="e_fr_energy">   -125.48883332 </i>
    <i name="e_wo_entrp">   -125.48729469 </i>
    <i name="e_0_energy">   -125.48806401 </i>
   </energy>
  </scstep>
  <scstep>
   <time name="dav">    7.35    7.39</time>
   <time name="total">    7.64    7.69</time>
   <energy>
    <i name="e_fr_energy">   -125.49553686 </i>
    <i name="e_wo_entrp">   -125.49399770 </i>
    <i name="e_0_energy">   -125.49476728 </i>
   </energy>
  </scstep>
  <scstep>
   <time name="dav">    6.33    6.38</time>
   <time name="total">    6.62    6.68</time>
   <energy>
    <i name="e_fr_energy">   -125.49753745 </i>
    <i name="e_wo_entrp">   -125.49599834 </i>
    <i name="e_0_energy">   -125.49676789 </i>
   </energy>
  </scstep>
  <scstep>
   <time name="dav">    7.12    7.16</time>
   <time name="total">    7.41    7.46</time>
   <energy>
    <i name="e_fr_energy">   -125.49879344 </i>
    <i name="e_wo_entrp">   -125.49725434 </i>
    <i name="e_0_energy">   -125.49802389 </i>
   </energy>
  </scstep>
  <scstep>
   <time name="dav">    6.80    6.84</time>
   <time name="total">    7.09    7.14</time>
   <energy>
    <i name="e_fr_energy">   -125.49956361 </i>
    <i name="e_wo_entrp">   -125.49802452 </i>
    <i name="e_0_energy">   -125.49879407 </i>
   </energy>
  </scstep>
  <scstep>
   <time name="dav">    8.15    8.21</time>
   <time name="total">    8.44    8.51</time>
   <energy>
    <i name="e_fr_energy">   -125.49998474 </i>
    <i name="e_wo_entrp">   -125.49844567 </i>
    <i name="e_0_energy">   -125.49921520 </i>
   </energy>
  </scstep>
  <scstep>
   <time name="dav">    8.98    9.04</time>
   <time name="total">    9.27    9.34</time>
   <energy>
    <i name="e_fr_energy">   -125.50002082 </i>
    <i name="e_wo_entrp">   -125.49848175 </i>
    <i name="e_0_energy">   -125.49925128 </i>
   </energy>
  </scstep>
  <scstep>
   <time name="dav">    8.27    8.31</time>
   <time name="total">    8.56    8.62</time>
   <energy>
    <i name="e_fr_energy">   -125.50004616 </i>
    <i name="e_wo_entrp">   -125.49850706 </i>
    <i name="e_0_energy">   -125.49927661 </i>
   </energy>
  </scstep>
  <scstep>
   <time name="dav">    8.97    9.04</time>
   <time name="total">    9.26    9.34</time>
   <energy>
    <i name="e_fr_energy">   -125.50006945 </i>
    <i name="e_wo_entrp">   -125.49853035 </i>
    <i name="e_0_energy">   -125.49929990 </i>
   </energy>
  </scstep>
  <scstep>
   <time name="dav">    8.82    8.87</time>
   <time name="total">    9.11    9.18</time>
   <energy>
    <i name="e_fr_energy">   -125.50008075 </i>
    <i name="e_wo_entrp">   -125.49854164 </i>
    <i name="e_0_energy">   -125.49931120 </i>
   </energy>
  </scstep>
  <scstep>
   <time name="dav">    9.27    9.33</time>
   <time name="total">    9.56    9.63</time>
   <energy>
    <i name="e_fr_energy">   -125.50008312 </i>
    <i name="e_wo_entrp">   -125.49854402 </i>
    <i name="e_0_energy">   -125.49931357 </i>
   </energy>
  </scstep>
  <scstep>
   <time name="dav">    8.47    8.52</time>
   <time name="total">    8.76    8.82</time>
   <energy>
    <i name="e_fr_energy">   -125.50008415 </i>
    <i name="e_wo_entrp">   -125.49854504 </i>
    <i name="e_0_energy">   -125.49931459 </i>
   </energy>
  </scstep>
  <scstep>
   <time name="dav">    9.13    9.18</time>
   <time name="total">    9.16    9.22</time>
   <energy>
    <i name="alphaZ">     58.40344200 </i>
    <i name="ewald">   4793.17621665 </i>
    <i name="hartreedc">  -6550.90187661 </i>
    <i name="XCdc">    180.59422373 </i>
    <i name="pawpsdc">   5759.20016186 </i>
    <i name="pawaedc">  -5763.62000788 </i>
    <i name="eentropy">     -0.00153911 </i>
    <i name="bandstr">   -505.61412586 </i>
    <i name="atom">   1903.26342058 </i>
    <i name="e_fr_energy">   -125.50008465 </i>
    <i name="e_wo_entrp">   -125.49854554 </i>
    <i name="e_0_energy">   -125.49931509 </i>
   </energy>
  </scstep>
  <structure>
   <crystal>
    <varray name="basis" >
     <v>       4.19329501       2.42100000       0.00000000 </v>
     <v>      -4.19329501       2.42100000       0.00000000 </v>
     <v>       0.00000000       0.00000000      15.00000000 </v>
    </varray>
    <i name="volume">    304.55901622 </i>
    <varray name="rec_basis" >
     <v>       0.11923797       0.20652623       0.00000000 </v>
     <v>      -0.11923797       0.20652623       0.00000000 </v>
     <v>       0.00000000       0.00000000       0.06666667 </v>
    </varray>
   </crystal>
   <varray name="positions" >
    <v>       0.00415361       0.00267210       0.12034134 </v>
    <v>       0.35695335       0.00285503       0.09748893 </v>
    <v>       0.00423858       0.35550699       0.09749256 </v>
    <v>       0.65142295       0.65006557       0.09747688 </v>
    <v>       0.32808646       0.32671938       0.10030508 </v>
    <v>       0.68027775       0.00278085       0.10027562 </v>
    <v>       0.00416530       0.67883808       0.10026559 </v>
    <v>       0.99999933       0.49999967       0.33373333 </v>
    <v>       0.16666633       0.33333267       0.33373333 </v>
    <v>       0.99999933       0.99999967       0.33373333 </v>
    <v>       0.16666633       0.83333267       0.33373333 </v>
    <v>       0.49999933       0.49999967       0.33373333 </v>
    <v>       0.66666633       0.33333267       0.33373333 </v>
    <v>       0.49999933       0.99999967       0.33373333 </v>
    <v>       0.66666633       0.83333267       0.33373333 </v>
   </varray>
  </structure>
  <varray name="forces" >
   <v>      -0.00469100       0.00543180      -0.33789985 </v>
   <v>      -0.10937421      -0.04535571       0.10451945 </v>
   <v>       0.08908950      -0.07952232       0.10404559 </v>
   <v>       0.02264986       0.11719597       0.10559443 </v>
   <v>       0.02992332      -0.34847306      -0.00294187 </v>
   <v>       0.28512745       0.19722694      -0.00048729 </v>
   <v>      -0.31303890       0.15270148       0.00035433 </v>
   <v>       0.01313966       0.00522604       0.00273617 </v>
   <v>      -0.03523655       0.04110881       0.02115031 </v>
   <v>       0.00051095      -0.00031045      -0.03135315 </v>
   <v>       0.05268958       0.00951703       0.02204564 </v>
   <v>      -0.01077210       0.01020446       0.00363008 </v>
   <v>      -0.00045972       0.00025615      -0.01503696 </v>
   <v>      -0.00173132      -0.01390210       0.00259106 </v>
   <v>      -0.01782652      -0.05130505       0.02105205 </v>
  </varray>
  <varray name="stress" >
   <v>      -2.48768913       0.01664002      -0.00210484 </v>
   <v>       0.01664001      -2.46518573       0.02468457 </v>
   <v>      -0.00210485       0.02468456      -2.24486588 </v>
  </varray>
  <energy>
   <i name="e_fr_energy">   -127.10429782 </i>
   <i name="e_wo_entrp">   -127.10275871 </i>
   <i name="e_0_energy">   -127.10352826 </i>
  </energy>
  <time name="totalsc">  232.69  234.47</time>
 </calculation>
 <calculation>
  <scstep>
   <time name="dav">    5.47    5.51</time>
   <time name="total">    5.77    5.82</time>
   <energy>
    <i name="alphaZ">     58.40344200 </i>
    <i name="ewald">   4796.58910645 </i>
    <i name="hartreedc">  -6552.97204004 </i>
    <i name="XCdc">    180.67082171 </i>
    <i name="pawpsdc">   5759.20674213 </i>
    <i name="pawaedc">  -5763.62659100 </i>
    <i name="eentropy">     -0.00154344 </i>
    <i name="bandstr">   -507.04102767 </i>
    <i name="atom">   1903.26342058 </i>
    <i name="e_fr_energy">   -125.50766928 </i>
    <i name="e_wo_entrp">   -125.50612584 </i>
    <i name="e_0_energy">   -125.50689756 </i>
   </energy>
  </scstep>
  <scstep>
   <time name="dav">   10.69   10.76</time>
   <time name="total">   10.98   11.06</time>
   <energy>
    <i name="e_fr_energy">   -125.49936403 </i>
    <i name="e_wo_entrp">   -125.49782044 </i>
    <i name="e_0_energy">   -125.49859223 </i>
   </energy>
  </scstep>
  <scstep>
   <time name="dav">    8.98    9.04</time>
   <time name="total">    9.27    9.34</time>
   <energy>
    <i name="e_fr_energy">   -125.49839081 </i>
    <i name="e_wo_entrp">   -125.49684711 </i>
    <i name="e_0_energy">   -125.49761896 </i>
   </energy>
  </scstep>
  <scstep>
   <time name="dav">   10.57   10.64</time>
   <time name="total">   10.86   10.94</time>
   <energy>
    <i name="e_fr_energy">   -125.49834624 </i>
    <i name="e_wo_entrp">   -125.49680276 </i>
    <i name="e_0_energy">   -125.49757450 </i>
   </energy>
  </scstep>
  <scstep>
   <time name="dav">    9.99   10.05</time>
   <time name="total">   10.28   10.35</time>
   <energy>
    <i name="e_fr_energy">   -125.49834885 </i>
    <i name="e_wo_entrp">   -125.49680544 </i>
    <i name="e_0_energy">   -125.49757714 </i>
   </energy>
  </scstep>
  <scstep>
   <time name="dav">    9.04    9.09</time>
   <time name="total">    9.07    9.13</time>
   <energy>
    <i name="alphaZ">     58.40344200 </i>
    <i name="ewald">   4796.58910645 </i>
    <i name="hartreedc">  -6553.69478313 </i>
    <i name="XCdc">    180.68709931 </i>
    <i name="pawpsdc">   5784.75006375 </i>
    <i name="pawaedc">  -5789.17815962 </i>
    <i name="eentropy">     -0.00154343 </i>
    <i name="bandstr">   -506.31699489 </i>
    <i name="atom">   1903.26342058 </i>
    <i name="e_fr_energy">   -125.49834898 </i>
    <i name="e_wo_entrp">   -125.49680555 </i>
    <i name="e_0_energy">   -125.49757727 </i>
   </energy>
  </scstep>
  <structure>
   <crystal>
    <varray name="basis" >
     <v>       4.19329501       2.42100000       0.00000000 </v>
     <v>      -4.19329501       2.42100000       0.00000000 </v>
     <v>       0.00000000       0.00000000      15.00000000 </v>
    </varray>
    <i name="volume">    304.55901622 </i>
    <varray name="rec_basis" >
     <v>       0.11923797       0.20652623       0.00000000 </v>
     <v>      -0.11923797       0.20652623       0.00000000 </v>
     <v>       0.00000000       0.00000000       0.06666667 </v>
    </varray>
   </crystal>
   <varray name="positions" >
    <v>       0.00418074       0.00275320       0.11925459 </v>
    <v>       0.35587230       0.00303229       0.09782509 </v>
    <v>       0.00395874       0.35420221       0.09782719 </v>
    <v>       0.65272091       0.65110295       0.09781649 </v>
    <v>       0.32478663       0.32307528       0.10029562 </v>
    <v>       0.68388295       0.00310574       0.10027405 </v>
    <v>       0.00388601       0.68216021       0.10026673 </v>
    <v>       0.00012699       0.49997615       0.33374213 </v>
    <v>       0.16687322       0.33394494       0.33380136 </v>
    <v>       0.99999918       0.99999363       0.33363250 </v>
    <v>       0.16706424       0.83312440       0.33380424 </v>
    <v>       0.50003904       0.50016330       0.33374501 </v>
    <v>       0.66666624       0.33333786       0.33368497 </v>
    <v>       0.49985086       0.99987111       0.33374167 </v>
    <v>       0.66605262       0.83292404       0.33380104 </v>
   </varray>
  </structure>
  <varray name="forces" >
   <v>      -0.00104679      -0.00069062      -0.12684260 </v>
   <v>       0.23947475       0.13599153       0.05563556 </v>
   <v>      -0.24131979       0.13852114       0.05524673 </v>
   <v>       0.00121623      -0.27350357       0.05638171 </v>
   <v>      -0.00425423       0.56669394      -0.02352790 </v>
   <v>      -0.48490227      -0.28799598      -0.02164620 </v>
   <v>       0.49053068      -0.27985449      -0.02138277 </v>
   <v>      -0.05596405      -0.02325776       0.01026063 </v>
   <v>       0.12575531      -0.13987648      -0.00101375 </v>
   <v>      -0.00191408       0.00131341       0.00721937 </v>
   <v>      -0.18207487      -0.03577803      -0.00083080 </v>
   <v>       0.04693197      -0.04148758       0.01042879 </v>
   <v>       0.00201050      -0.00038567      -0.00900215 </v>
   <v>       0.00643588       0.05984846       0.01017747 </v>
   <v>       0.05912075       0.18046168      -0.00110409 </v>
  </varray>
  <varray name="stress" >
   <v>       0.08751617       0.00151946       0.00380738 </v>
   <v>       0.00151946       0.08861457       0.01599160 </v>
   <v>       0.00380737       0.01599162      -1.88400944 </v>
  </varray>
  <energy>
   <i name="e_fr_energy">   -127.10201479 </i>
   <i name="e_wo_entrp">   -127.10047137 </i>
   <i name="e_0_energy">   -127.10124308 </i>
  </energy>
  <time name="totalsc">   60.91   61.34</time>
 </calculation>
 <calculation>
  <scstep>
   <time name="dav">    5.47    5.51</time>
   <time name="total">    5.76    5.81</time>
   <energy>
    <i name="alphaZ">     58.40344200 </i>
    <i name="ewald">   4794.71269009 </i>
    <i name="hartreedc">  -6552.54674465 </i>
    <i name="XCdc">    180.64447332 </i>
    <i name="pawpsdc">   5784.70448789 </i>
    <i name="pawaedc">  -5789.13255651 </i>
    <i name="eentropy">     -0.00154124 </i>
    <i name="bandstr">   -505.55702953 </i>
    <i name="atom">   1903.26342058 </i>
    <i name="e_fr_energy">   -125.50935805 </i>
    <i name="e_wo_entrp">   -125.50781681 </i>
    <i name="e_0_energy">   -125.50858743 </i>
   </energy>
  </scstep>
  <scstep>
   <time name="dav">   10.95   11.02</time>
   <time name="total">   11.24   11.32</time>
   <energy>
    <i name="e_fr_energy">   -125.50689907 </i>
    <i name="e_wo_entrp">   -125.50535797 </i>
    <i name="e_0_energy">   -125.50612852 </i>
   </energy>
  </scstep>
  <scstep>
   <time name="dav">    9.78    9.84</time>
   <time name="total">   10.07   10.15</time>
   <energy>
    <i name="e_fr_energy">   -125.50662510 </i>
    <i name="e_wo_entrp">   -125.50508410 </i>
    <i name="e_0_energy">   -125.50585460 </i>
   </energy>
  </scstep>
  <scstep>
   <time name="dav">    9.13    9.18</time>
   <time name="total">    9.42    9.48</time>
   <energy>
    <i name="e_fr_energy">   -125.50661280 </i>
    <i name="e_wo_entrp">   -125.50507163 </i>
    <i name="e_0_energy">   -125.50584222 </i>
   </energy>
  </scstep>
  <scstep>
   <time name="dav">    9.54    9.59</time>
   <time name="total">    9.57    9.63</time>
   <energy>
    <i name="alphaZ">     58.40344200 </i>
    <i name="ewald">   4794.71269009 </i>
    <i name="hartreedc">  -6552.18240424 </i>
    <i name="XCdc">    180.63590521 </i>
    <i name="pawpsdc">   5770.31274166 </i>
    <i name="pawaedc">  -5774.73608867 </i>
    <i name="eentropy">     -0.00154118 </i>
    <i name="bandstr">   -505.91477905 </i>
    <i name="atom">   1903.26342058 </i>
    <i name="e_fr_energy">   -125.50661360 </i>
    <i name="e_wo_entrp">   -125.50507242 </i>
    <i name="e_0_energy">   -125.50584301 </i>
   </energy>
  </scstep>
  <structure>
   <crystal>
    <varray name="basis" >
     <v>       4.19329501       2.42100000       0.00000000 </v>
     <v>      -4.19329501       2.42100000       0.00000000 </v>
     <v>       0.00000000       0.00000000      15.00000000 </v>
    </varray>
    <i name="volume">    304.55901622 </i>
    <varray name="rec_basis" >
     <v>       0.11923797       0.20652623       0.00000000 </v>
     <v>      -0.11923797       0.20652623       0.00000000 </v>
     <v>       0.00000000       0.00000000       0.06666667 </v>
    </varray>
   </crystal>
   <varray name="positions" >
    <v>       0.00416614       0.00270957       0.11983927 </v>
    <v>       0.35645391       0.00293692       0.09764423 </v>
    <v>       0.00410930       0.35490419       0.09764716 </v>
    <v>       0.65202260       0.65054483       0.09763378 </v>
    <v>       0.32656197       0.32503583       0.10030071 </v>
    <v>       0.68194332       0.00293095       0.10027490 </v>
    <v>       0.00403627       0.68037287       0.10026611 </v>
    <v>       0.00005831       0.49998880       0.33373740 </v>
    <v>       0.16676191       0.33361553       0.33376476 </v>
    <v>       0.99999926       0.99999688       0.33368675 </v>
    <v>       0.16685016       0.83323645       0.33376609 </v>
    <v>       0.50001768       0.50007527       0.33373873 </v>
    <v>       0.66666629       0.33333507       0.33371099 </v>
    <v>       0.49993074       0.99994028       0.33373718 </v>
    <v>       0.66638280       0.83314388       0.33376461 </v>
   </varray>
  </structure>
  <varray name="forces" >
   <v>      -0.00312594       0.00281588      -0.23959818 </v>
   <v>       0.05444541       0.04056179       0.08191802 </v>
   <v>      -0.06683658       0.02232314       0.08148593 </v>
   <v>       0.01333986      -0.06678646       0.08285139 </v>
   <v>       0.01481805       0.07270562      -0.01267214 </v>
   <v>      -0.06964564      -0.02551059      -0.01051836 </v>
   <v>       0.05670233      -0.04691467      -0.00997213 </v>
   <v>      -0.01843316      -0.00780703       0.00622501 </v>
   <v>       0.03884060      -0.04252979       0.01096231 </v>
   <v>      -0.00061372       0.00043882      -0.01362451 </v>
   <v>      -0.05563667      -0.01115218       0.01152794 </v>
   <v>       0.01559814      -0.01342067       0.00678357 </v>
   <v>       0.00067781      -0.00003934      -0.01234343 </v>
   <v>       0.00197698       0.01980331       0.00610808 </v>
   <v>       0.01789253       0.05551215       0.01086651 </v>
  </varray>
  <varray name="stress" >
   <v>      -1.42199908       0.00961740       0.00049410 </v>
   <v>       0.00961741      -1.41206994       0.02110840 </v>
   <v>       0.00049410       0.02110839      -2.06283246 </v>
  </varray>
  <energy>
   <i name="e_fr_energy">   -127.11057315 </i>
   <i name="e_wo_entrp">   -127.10903197 </i>
   <i name="e_0_energy">   -127.10980256 </i>
  </energy>
  <time name="totalsc">   50.75   51.10</time>
 </calculation>
 <calculation>
  <scstep>
   <time name="dav">    5.47    5.50</time>
   <time name="total">    5.76    5.81</time>
   <energy>
    <i name="alphaZ">     58.40344200 </i>
    <i name="ewald">   4794.89226177 </i>
    <i name="hartreedc">  -6552.13144917 </i>
    <i name="XCdc">    180.65204162 </i>
    <i name="pawpsdc">   5770.32012665 </i>
    <i name="pawaedc">  -5774.74348232 </i>
    <i name="eentropy">     -0.00154385 </i>
    <i name="bandstr">   -506.16561054 </i>
    <i name="atom">   1903.26342058 </i>
    <i name="e_fr_energy">   -125.51079325 </i>
    <i name="e_wo_entrp">   -125.50924941 </i>
    <i name="e_0_energy">   -125.51002133 </i>
   </energy>
  </scstep>
  <scstep>
   <time name="dav">   11.80   11.86</time>
   <time name="total">   12.09   12.17</time>
   <energy>
    <i name="e_fr_energy">   -125.51080276 </i>
    <i name="e_wo_entrp">   -125.50925948 </i>
    <i name="e_0_energy">   -125.51003112 </i>
   </energy>
  </scstep>
  <scstep>
   <time name="dav">    9.09    9.15</time>
   <time name="total">    9.38    9.45</time>
   <energy>
    <i name="e_fr_energy">   -125.51078966 </i>
    <i name="e_wo_entrp">   -125.50924668 </i>
    <i name="e_0_energy">   -125.51001817 </i>
   </energy>
  </scstep>
  <scstep>
   <time name="dav">   10.65   10.71</time>
   <time name="total">   10.95   11.02</time>
   <energy>
    <i name="e_fr_energy">   -125.51079005 </i>
    <i name="e_wo_entrp">   -125.50924700 </i>
    <i name="e_0_energy">   -125.51001852 </i>
   </energy>
  </scstep>
  <scstep>
   <time name="dav">    9.17    9.22</time>
   <time name="total">    9.20    9.26</time>
   <energy>
    <i name="alphaZ">     58.40344200 </i>
    <i name="ewald">   4794.89226177 </i>
    <i name="hartreedc">  -6552.13369000 </i>
    <i name="XCdc">    180.65212649 </i>
    <i name="pawpsdc">   5774.98384984 </i>
    <i name="pawaedc">  -5779.40885375 </i>
    <i name="eentropy">     -0.00154306 </i>
    <i name="bandstr">   -506.16180461 </i>
    <i name="atom">   1903.26342058 </i>
    <i name="e_fr_energy">   -125.51079074 </i>
    <i name="e_wo_entrp">   -125.50924768 </i>
    <i name="e_0_energy">   -125.51001921 </i>
   </energy>
  </scstep>
  <structure>
   <crystal>
    <varray name="basis" >
     <v>       4.19329501       2.42100000       0.00000000 </v>
     <v>      -4.19329501       2.42100000       0.00000000 </v>
     <v>       0.00000000       0.00000000      15.00000000 </v>
    </varray>
    <i name="volume">    304.55901622 </i>
    <varray name="rec_basis" >
     <v>       0.11923797       0.20652623       0.00000000 </v>
     <v>      -0.11923797       0.20652623       0.00000000 </v>
     <v>       0.00000000       0.00000000       0.06666667 </v>
    </varray>
   </crystal>
   <varray name="positions" >
    <v>       0.00418029       0.00276606       0.11894516 </v>
    <v>       0.35688869       0.00305175       0.09794320 </v>
    <v>       0.00391152       0.35519792       0.09794460 </v>
    <v>       0.65174382       0.65007959       0.09793608 </v>
    <v>       0.32665765       0.32491399       0.10026254 </v>
    <v>       0.68204382       0.00312336       0.10024441 </v>
    <v>       0.00385716       0.68029573       0.10023771 </v>
    <v>      -0.00008148       0.50000955       0.33375694 </v>
    <v>       0.16662245       0.33315431       0.33380914 </v>
    <v>       0.99999998       0.00000279       0.33362849 </v>
    <v>       0.16654099       0.83338333       0.33381264 </v>
    <v>       0.49998596       0.49990695       0.33376041 </v>
    <v>       0.66666940       0.33333223       0.33366638 </v>
    <v>       0.50008876       0.00008179       0.33375630 </v>
    <v>       0.66685165       0.83346799       0.33380866 </v>
   </varray>
  </structure>
  <varray name="forces" >
   <v>      -0.00029469      -0.00006862      -0.22097485 </v>
   <v>       0.04378921       0.02246024       0.04647437 </v>
   <v>      -0.04251245       0.02680270       0.04625803 </v>
   <v>      -0.00096688      -0.04856054       0.04691110 </v>
   <v>      -0.00627339       0.09070928       0.01695487 </v>
   <v>      -0.07390138      -0.05152234       0.01841883 </v>
   <v>       0.07984550      -0.04059634       0.01864937 </v>
   <v>       0.05017541       0.02286679       0.00692812 </v>
   <v>      -0.08815821       0.08501051       0.00006604 </v>
   <v>       0.00208257      -0.00009658       0.00851591 </v>
   <v>       0.11580791       0.03053220       0.00009935 </v>
   <v>      -0.04258774       0.03559123       0.00694222 </v>
   <v>      -0.00180949       0.00010181      -0.00211534 </v>
   <v>      -0.00396018      -0.05321375       0.00685626 </v>
   <v>      -0.03123619      -0.12001660       0.00001573 </v>
  </varray>
  <varray name="stress" >
   <v>      -1.05650277       0.01296077       0.00488270 </v>
   <v>       0.01296079      -1.03120251       0.01502035 </v>
   <v>       0.00488270       0.01502035      -2.00579564 </v>
  </varray>
  <energy>
   <i name="e_fr_energy">   -127.11464844 </i>
   <i name="e_wo_entrp">   -127.11310538 </i>
   <i name="e_0_energy">   -127.11387691 </i>
  </energy>
  <time name="totalsc">   52.06   52.42</time>
 </calculation>
 <calculation>
  <scstep>
   <time name="dav">    5.46    5.50</time>
   <time name="total">    5.76    5.80</time>
   <energy>
    <i name="alphaZ">     58.40344200 </i>
    <i name="ewald">   4795.05421212 </i>
    <i name="hartreedc">  -6552.00214351 </i>
    <i name="XCdc">    180.67186810 </i>
    <i name="pawpsdc">   5775.12387499 </i>
    <i name="pawaedc">  -5779.54888936 </i>
    <i name="eentropy">     -0.00154621 </i>
    <i name="bandstr">   -506.47717634 </i>
    <i name="atom">   1903.26342058 </i>
    <i name="e_fr_energy">   -125.51293762 </i>
    <i name="e_wo_entrp">   -125.51139142 </i>
    <i name="e_0_energy">   -125.51216452 </i>
   </energy>
  </scstep>
  <scstep>
   <time name="dav">   10.65   10.71</time>
   <time name="total">   10.94   11.01</time>
   <energy>
    <i name="e_fr_energy">   -125.51296669 </i>
    <i name="e_wo_entrp">   -125.51142121 </i>
    <i name="e_0_energy">   -125.51219395 </i>
   </energy>
  </scstep>
  <scstep>
   <time name="dav">    8.74    8.79</time>
   <time name="total">    9.03    9.09</time>
   <energy>
    <i name="e_fr_energy">   -125.51294540 </i>
    <i name="e_wo_entrp">   -125.51140032 </i>
    <i name="e_0_energy">   -125.51217286 </i>
   </energy>
  </scstep>
  <scstep>
   <time name="dav">   10.40   10.46</time>
   <time name="total">   10.69   10.76</time>
   <energy>
    <i name="e_fr_energy">   -125.51294568 </i>
    <i name="e_wo_entrp">   -125.51140046 </i>
    <i name="e_0_energy">   -125.51217307 </i>
   </energy>
  </scstep>
  <scstep>
   <time name="dav">    8.76    8.82</time>
   <time name="total">    9.06    9.13</time>
   <energy>
    <i name="e_fr_energy">   -125.51294688 </i>
    <i name="e_wo_entrp">   -125.51140167 </i>
    <i name="e_0_energy">   -125.51217428 </i>
   </energy>
  </scstep>
  <scstep>
   <time name="dav">    9.60    9.66</time>
   <time name="total">    9.64    9.69</time>
   <energy>
    <i name="alphaZ">     58.40344200 </i>
    <i name="ewald">   4795.05421212 </i>
    <i name="hartreedc">  -6551.98866867 </i>
    <i name="XCdc">    180.67187356 </i>
    <i name="pawpsdc">   5781.12138482 </i>
    <i name="pawaedc">  -5785.54850196 </i>
    <i name="eentropy">     -0.00154516 </i>
    <i name="bandstr">   -506.48856436 </i>
    <i name="atom">   1903.26342058 </i>
    <i name="e_fr_energy">   -125.51294706 </i>
    <i name="e_wo_entrp">   -125.51140191 </i>
    <i name="e_0_energy">   -125.51217449 </i>
   </energy>
  </scstep>
  <structure>
   <crystal>
    <varray name="basis" >
     <v>       4.19329501       2.42100000       0.00000000 </v>
     <v>      -4.19329501       2.42100000       0.00000000 </v>
     <v>       0.00000000       0.00000000      15.00000000 </v>
    </varray>
    <i name="volume">    304.55901622 </i>
    <varray name="rec_basis" >
     <v>       0.11923797       0.20652623       0.00000000 </v>
     <v>      -0.11923797       0.20652623       0.00000000 </v>
     <v>       0.00000000       0.00000000       0.06666667 </v>
    </varray>
   </crystal>
   <varray name="positions" >
    <v>       0.00419901       0.00284083       0.11776177 </v>
    <v>       0.35746414       0.00320374       0.09833890 </v>
    <v>       0.00364976       0.35558668       0.09833827 </v>
    <v>       0.65137484       0.64946383       0.09833619 </v>
    <v>       0.32678429       0.32475272       0.10021202 </v>
    <v>       0.68217683       0.00337803       0.10020406 </v>
    <v>       0.00362010       0.68019363       0.10020011 </v>
    <v>      -0.00026650       0.50003700       0.33378280 </v>
    <v>       0.16643787       0.33254386       0.33386789 </v>
    <v>       0.00000094       0.00001060       0.33355138 </v>
    <v>       0.16613178       0.83357774       0.33387426 </v>
    <v>       0.49994399       0.49968418       0.33378912 </v>
    <v>       0.66667352       0.33332846       0.33360733 </v>
    <v>       0.50029791       0.00026908       0.33378160 </v>
    <v>       0.66747218       0.83389695       0.33386696 </v>
   </varray>
  </structure>
  <varray name="forces" >
   <v>       0.00354146      -0.00404327      -0.20109645 </v>
   <v>       0.02598481      -0.00234177       0.00117664 </v>
   <v>      -0.00810137       0.02982064       0.00125439 </v>
   <v>      -0.01863832      -0.02095245       0.00094288 </v>
   <v>      -0.03229564       0.11155705       0.05614366 </v>
   <v>      -0.07762934      -0.08286695       0.05673502 </v>
   <v>       0.10683866      -0.03191921       0.05657038 </v>
   <v>       0.13937633       0.06376577       0.00798069 </v>
   <v>      -0.25532549       0.25556484      -0.01409526 </v>
   <v>       0.00572842      -0.00081354       0.03690818 </v>
   <v>       0.34370820       0.08414913      -0.01476758 </v>
   <v>      -0.11903162       0.09885142       0.00726467 </v>
   <v>      -0.00512289       0.00029332       0.01109998 </v>
   <v>      -0.01081166      -0.14870331       0.00796491 </v>
   <v>      -0.09822154      -0.35236168      -0.01408212 </v>
  </varray>
  <varray name="stress" >
   <v>      -0.55836306       0.01726828       0.01028447 </v>
   <v>       0.01726830      -0.51582559       0.00797229 </v>
   <v>       0.01028445       0.00797232      -1.91660818 </v>
  </varray>
  <energy>
   <i name="e_fr_energy">   -127.11664741 </i>
   <i name="e_wo_entrp">   -127.11510225 </i>
   <i name="e_0_energy">   -127.11587483 </i>
  </energy>
  <time name="totalsc">   59.78   60.20</time>
 </calculation>
 <calculation>
  <scstep>
   <time name="dav">    5.58    5.61</time>
   <time name="total">    5.87    5.92</time>
   <energy>
    <i name="alphaZ">     58.40344200 </i>
    <i name="ewald">   4795.05973836 </i>
    <i name="hartreedc">  -6551.94699293 </i>
    <i name="XCdc">    180.67479276 </i>
    <i name="pawpsdc">   5781.18389071 </i>
    <i name="pawaedc">  -5785.61100827 </i>
    <i name="eentropy">     -0.00154547 </i>
    <i name="bandstr">   -506.53989070 </i>
    <i name="atom">   1903.26342058 </i>
    <i name="e_fr_energy">   -125.51415296 </i>
    <i name="e_wo_entrp">   -125.51260748 </i>
    <i name="e_0_energy">   -125.51338022 </i>
   </energy>
  </scstep>
  <scstep>
   <time name="dav">   10.60   10.67</time>
   <time name="total">   10.90   10.97</time>
   <energy>
    <i name="e_fr_energy">   -125.51415524 </i>
    <i name="e_wo_entrp">   -125.51260982 </i>
    <i name="e_0_energy">   -125.51338253 </i>
   </energy>
  </scstep>
  <scstep>
   <time name="dav">    7.86    7.91</time>
   <time name="total">    8.15    8.22</time>
   <energy>
    <i name="e_fr_energy">   -125.51415474 </i>
    <i name="e_wo_entrp">   -125.51260931 </i>
    <i name="e_0_energy">   -125.51338202 </i>
   </energy>
  </scstep>
  <scstep>
   <time name="dav">   10.18   10.24</time>
   <time name="total">   10.22   10.27</time>
   <energy>
    <i name="alphaZ">     58.40344200 </i>
    <i name="ewald">   4795.05973836 </i>
    <i name="hartreedc">  -6551.93397245 </i>
    <i name="XCdc">    180.67452794 </i>
    <i name="pawpsdc">   5782.08775883 </i>
    <i name="pawaedc">  -5786.51518530 </i>
    <i name="eentropy">     -0.00154540 </i>
    <i name="bandstr">   -506.55233953 </i>
    <i name="atom">   1903.26342058 </i>
    <i name="e_fr_energy">   -125.51415497 </i>
    <i name="e_wo_entrp">   -125.51260957 </i>
    <i name="e_0_energy">   -125.51338227 </i>
   </energy>
  </scstep>
  <structure>
   <crystal>
    <varray name="basis" >
     <v>       4.19329501       2.42100000       0.00000000 </v>
     <v>      -4.19329501       2.42100000       0.00000000 </v>
     <v>       0.00000000       0.00000000      15.00000000 </v>
    </varray>
    <i name="volume">    304.55901622 </i>
    <varray name="rec_basis" >
     <v>       0.11923797       0.20652623       0.00000000 </v>
     <v>      -0.11923797       0.20652623       0.00000000 </v>
     <v>       0.00000000       0.00000000       0.06666667 </v>
    </varray>
   </crystal>
   <varray name="positions" >
    <v>       0.00420140       0.00285124       0.11752399 </v>
    <v>       0.35757121       0.00322265       0.09840875 </v>
    <v>       0.00361505       0.35567075       0.09840778 </v>
    <v>       0.65129550       0.64935078       0.09840679 </v>
    <v>       0.32684865       0.32478327       0.10021133 </v>
    <v>       0.68214244       0.00340565       0.10020525 </v>
    <v>       0.00359183       0.68013328       0.10020176 </v>
    <v>      -0.00023378       0.50003427       0.33378852 </v>
    <v>       0.16645433       0.33261880       0.33387617 </v>
    <v>       0.00000224       0.00001011       0.33354320 </v>
    <v>       0.16618766       0.83356024       0.33388295 </v>
    <v>       0.49995024       0.49972081       0.33379523 </v>
    <v>       0.66667304       0.33332927       0.33359855 </v>
    <v>       0.50026460       0.00023756       0.33378721 </v>
    <v>       0.66739626       0.83383864       0.33387517 </v>
   </varray>
  </structure>
  <varray name="forces" >
   <v>       0.00402709      -0.00446978      -0.19799617 </v>
   <v>       0.01999159      -0.00758022      -0.00513546 </v>
   <v>       0.00009543       0.02800621      -0.00499830 </v>
   <v>      -0.02100448      -0.01330281      -0.00548318 </v>
   <v>      -0.03540661       0.10367342       0.06159708 </v>
   <v>      -0.06932786      -0.08134869       0.06200745 </v>
   <v>       0.10133182      -0.02572431       0.06178459 </v>
   <v>       0.12425964       0.05674538       0.00754732 </v>
   <v>      -0.23154977       0.23497663      -0.01558521 </v>
   <v>       0.00493084      -0.00095902       0.04032971 </v>
   <v>       0.31466750       0.07515449      -0.01635164 </v>
   <v>      -0.10638322       0.08832064       0.00672924 </v>
   <v>      -0.00445045       0.00042230       0.01357148 </v>
   <v>      -0.00982095      -0.13284678       0.00754130 </v>
   <v>      -0.09136060      -0.32106748      -0.01555821 </v>
  </varray>
  <varray name="stress" >
   <v>      -0.49239788       0.01422964       0.01088155 </v>
   <v>       0.01422962      -0.45737734       0.00728793 </v>
   <v>       0.01088157       0.00728793      -1.90057024 </v>
  </varray>
  <energy>
   <i name="e_fr_energy">   -127.11783184 </i>
   <i name="e_wo_entrp">   -127.11628644 </i>
   <i name="e_0_energy">   -127.11705914 </i>
  </energy>
  <time name="totalsc">   39.80   40.08</time>
 </calculation>
 <calculation>
  <scstep>
   <time name="dav">    5.47    5.50</time>
   <time name="total">    5.76    5.81</time>
   <energy>
    <i name="alphaZ">     58.40344200 </i>
    <i name="ewald">   4795.05575132 </i>
    <i name="hartreedc">  -6551.80565497 </i>
    <i name="XCdc">    180.68314889 </i>
    <i name="pawpsdc">   5782.10245333 </i>
    <i name="pawaedc">  -5786.52988656 </i>
    <i name="eentropy">     -0.00154631 </i>
    <i name="bandstr">   -506.68836001 </i>
    <i name="atom">   1903.26342058 </i>
    <i name="e_fr_energy">   -125.51723174 </i>
    <i name="e_wo_entrp">   -125.51568542 </i>
    <i name="e_0_energy">   -125.51645858 </i>
   </energy>
  </scstep>
  <scstep>
   <time name="dav">   10.12   10.17</time>
   <time name="total">   10.41   10.48</time>
   <energy>
    <i name="e_fr_energy">   -125.51725197 </i>
    <i name="e_wo_entrp">   -125.51570583 </i>
    <i name="e_0_energy">   -125.51647890 </i>
   </energy>
  </scstep>
  <scstep>
   <time name="dav">    7.77    7.82</time>
   <time name="total">    8.06    8.13</time>
   <energy>
    <i name="e_fr_energy">   -125.51724606 </i>
    <i name="e_wo_entrp">   -125.51569988 </i>
    <i name="e_0_energy">   -125.51647297 </i>
   </energy>
  </scstep>
  <scstep>
   <time name="dav">   11.14   11.21</time>
   <time name="total">   11.43   11.51</time>
   <energy>
    <i name="e_fr_energy">   -125.51724622 </i>
    <i name="e_wo_entrp">   -125.51570011 </i>
    <i name="e_0_energy">   -125.51647317 </i>
   </energy>
  </scstep>
  <scstep>
   <time name="dav">    8.25    8.30</time>
   <time name="total">    8.29    8.34</time>
   <energy>
    <i name="alphaZ">     58.40344200 </i>
    <i name="ewald">   4795.05575132 </i>
    <i name="hartreedc">  -6551.79323633 </i>
    <i name="XCdc">    180.68260651 </i>
    <i name="pawpsdc">   5784.73337470 </i>
    <i name="pawaedc">  -5789.16174013 </i>
    <i name="eentropy">     -0.00154607 </i>
    <i name="bandstr">   -506.69931913 </i>
    <i name="atom">   1903.26342058 </i>
    <i name="e_fr_energy">   -125.51724655 </i>
    <i name="e_wo_entrp">   -125.51570047 </i>
    <i name="e_0_energy">   -125.51647351 </i>
   </energy>
  </scstep>
  <structure>
   <crystal>
    <varray name="basis" >
     <v>       4.19329501       2.42100000       0.00000000 </v>
     <v>      -4.19329501       2.42100000       0.00000000 </v>
     <v>       0.00000000       0.00000000      15.00000000 </v>
    </varray>
    <i name="volume">    304.55901622 </i>
    <varray name="rec_basis" >
     <v>       0.11923797       0.20652623       0.00000000 </v>
     <v>      -0.11923797       0.20652623       0.00000000 </v>
     <v>       0.00000000       0.00000000       0.06666667 </v>
    </varray>
   </crystal>
   <varray name="positions" >
    <v>       0.00420858       0.00288247       0.11681064 </v>
    <v>       0.35789242       0.00327938       0.09861832 </v>
    <v>       0.00351091       0.35592299       0.09861631 </v>
    <v>       0.65105750       0.64901163       0.09861858 </v>
    <v>       0.32704175       0.32487491       0.10020926 </v>
    <v>       0.68203929       0.00348851       0.10020880 </v>
    <v>       0.00350702       0.67995221       0.10020670 </v>
    <v>      -0.00013563       0.50002609       0.33380568 </v>
    <v>       0.16650371       0.33284362       0.33390103 </v>
    <v>       0.00000613       0.00000865       0.33351864 </v>
    <v>       0.16635528       0.83350771       0.33390903 </v>
    <v>       0.49996898       0.49983072       0.33381358 </v>
    <v>       0.66667160       0.33333170       0.33357222 </v>
    <v>       0.50016465       0.00014302       0.33380407 </v>
    <v>       0.66716850       0.83366371       0.33389980 </v>
   </varray>
  </structure>
  <varray name="forces" >
   <v>       0.00550901      -0.00578000      -0.18963353 </v>
   <v>       0.00101477      -0.02359612      -0.02383484 </v>
   <v>       0.02543915       0.02189048      -0.02352637 </v>
   <v>      -0.02789289       0.01060275      -0.02452049 </v>
   <v>      -0.04437722       0.07933257       0.07802487 </v>
   <v>      -0.04394060      -0.07612201       0.07791423 </v>
   <v>       0.08395038      -0.00704608       0.07753152 </v>
   <v>       0.07924205       0.03595654       0.00623389 </v>
   <v>      -0.16074931       0.17388597      -0.02009520 </v>
   <v>       0.00257276      -0.00140947       0.05072451 </v>
   <v>       0.22837663       0.04828903      -0.02114321 </v>
   <v>      -0.06881718       0.05689326       0.00511117 </v>
   <v>      -0.00245134       0.00081665       0.02098373 </v>
   <v>      -0.00677815      -0.08572156       0.00625568 </v>
   <v>      -0.07109808      -0.22799200      -0.02002596 </v>
  </varray>
  <varray name="stress" >
   <v>      -0.29244594       0.00543501       0.01264125 </v>
   <v>       0.00543504      -0.27904085       0.00530677 </v>
   <v>       0.01264128       0.00530679      -1.87896888 </v>
  </varray>
  <energy>
   <i name="e_fr_energy">   -127.12085066 </i>
   <i name="e_wo_entrp">   -127.11930459 </i>
   <i name="e_0_energy">   -127.12007762 </i>
  </energy>
  <time name="totalsc">   48.63   48.98</time>
 </calculation>
 <calculation>
  <scstep>
   <time name="dav">    5.47    5.50</time>
   <time name="total">    5.75    5.80</time>
   <energy>
    <i name="alphaZ">     58.40344200 </i>
    <i name="ewald">   4794.95463561 </i>
    <i name="hartreedc">  -6551.46721096 </i>
    <i name="XCdc">    180.69832663 </i>
    <i name="pawpsdc">   5784.70362143 </i>
    <i name="pawaedc">  -5789.13198616 </i>
    <i name="eentropy">     -0.00154778 </i>
    <i name="bandstr">   -506.94373490 </i>
    <i name="atom">   1903.26342058 </i>
    <i name="e_fr_energy">   -125.52103355 </i>
    <i name="e_wo_entrp">   -125.51948577 </i>
    <i name="e_0_energy">   -125.52025966 </i>
   </energy>
  </scstep>
  <scstep>
   <time name="dav">   10.40   10.45</time>
   <time name="total">   10.70   10.76</time>
   <energy>
    <i name="e_fr_energy">   -125.52111508 </i>
    <i name="e_wo_entrp">   -125.51956769 </i>
    <i name="e_0_energy">   -125.52034138 </i>
   </energy>
  </scstep>
  <scstep>
   <time name="dav">    8.77    8.82</time>
   <time name="total">    9.06    9.13</time>
   <energy>
    <i name="e_fr_energy">   -125.52108875 </i>
    <i name="e_wo_entrp">   -125.51954125 </i>
    <i name="e_0_energy">   -125.52031500 </i>
   </energy>
  </scstep>
  <scstep>
   <time name="dav">   10.62   10.68</time>
   <time name="total">   10.91   10.98</time>
   <energy>
    <i name="e_fr_energy">   -125.52108895 </i>
    <i name="e_wo_entrp">   -125.51954158 </i>
    <i name="e_0_energy">   -125.52031526 </i>
   </energy>
  </scstep>
  <scstep>
   <time name="dav">    9.52    9.57</time>
   <time name="total">    9.55    9.61</time>
   <energy>
    <i name="alphaZ">     58.40344200 </i>
    <i name="ewald">   4794.95463561 </i>
    <i name="hartreedc">  -6551.45453921 </i>
    <i name="XCdc">    180.69746050 </i>
    <i name="pawpsdc">   5789.53586524 </i>
    <i name="pawaedc">  -5793.96597518 </i>
    <i name="eentropy">     -0.00154731 </i>
    <i name="bandstr">   -506.95385212 </i>
    <i name="atom">   1903.26342058 </i>
    <i name="e_fr_energy">   -125.52108990 </i>
    <i name="e_wo_entrp">   -125.51954259 </i>
    <i name="e_0_energy">   -125.52031624 </i>
   </energy>
  </scstep>
  <structure>
   <crystal>
    <varray name="basis" >
     <v>       4.19329501       2.42100000       0.00000000 </v>
     <v>      -4.19329501       2.42100000       0.00000000 </v>
     <v>       0.00000000       0.00000000      15.00000000 </v>
    </varray>
    <i name="volume">    304.55901622 </i>
    <varray name="rec_basis" >
     <v>       0.11923797       0.20652623       0.00000000 </v>
     <v>      -0.11923797       0.20652623       0.00000000 </v>
     <v>       0.00000000       0.00000000       0.06666667 </v>
    </varray>
   </crystal>
   <varray name="positions" >
    <v>       0.00422293       0.00294493       0.11538394 </v>
    <v>       0.35853483       0.00339285       0.09903744 </v>
    <v>       0.00330263       0.35642746       0.09903336 </v>
    <v>       0.65058149       0.64833333       0.09904217 </v>
    <v>       0.32742793       0.32505819       0.10020511 </v>
    <v>       0.68183299       0.00365424       0.10021592 </v>
    <v>       0.00333739       0.67959008       0.10021658 </v>
    <v>       0.00006067       0.50000973       0.33384000 </v>
    <v>       0.16660246       0.33329325       0.33395074 </v>
    <v>       0.00001391       0.00000571       0.33346953 </v>
    <v>       0.16669053       0.83340267       0.33396119 </v>
    <v>       0.50000647       0.50005053       0.33385028 </v>
    <v>       0.66666871       0.33333656       0.33351957 </v>
    <v>       0.49996474      -0.00004606       0.33383778 </v>
    <v>       0.66671297       0.83331386       0.33394905 </v>
   </varray>
  </structure>
  <varray name="forces" >
   <v>       0.00851935      -0.00847310      -0.17755168 </v>
   <v>      -0.04053319      -0.05727781      -0.05958844 </v>
   <v>       0.07910730       0.00723844      -0.05893757 </v>
   <v>      -0.04116000       0.06228822      -0.06093855 </v>
   <v>      -0.06181437       0.02753059       0.11077365 </v>
   <v>       0.00945900      -0.06370480       0.10962333 </v>
   <v>       0.04612526       0.03172054       0.10893907 </v>
   <v>      -0.01161960      -0.00556648       0.00362069 </v>
   <v>      -0.01867015       0.05254097      -0.02916414 </v>
   <v>      -0.00207369      -0.00228187       0.07148968 </v>
   <v>       0.05625107      -0.00618382      -0.03076702 </v>
   <v>       0.00671621      -0.00672525       0.00189780 </v>
   <v>       0.00152405       0.00159793       0.03591595 </v>
   <v>      -0.00027433       0.00915510       0.00370014 </v>
   <v>      -0.03155691      -0.04185866      -0.02901291 </v>
  </varray>
  <varray name="stress" >
   <v>       0.10507424      -0.01202665       0.01563624 </v>
   <v>      -0.01202668       0.07426630       0.00197835 </v>
   <v>       0.01563622       0.00197840      -1.85477509 </v>
  </varray>
  <energy>
   <i name="e_fr_energy">   -127.12453811 </i>
   <i name="e_wo_entrp">   -127.12299080 </i>
   <i name="e_0_energy">   -127.12376446 </i>
  </energy>
  <time name="totalsc">   50.64   50.99</time>
 </calculation>
 <calculation>
  <scstep>
   <time name="dav">    5.46    5.51</time>
   <time name="total">    5.76    5.81</time>
   <energy>
    <i name="alphaZ">     58.40344200 </i>
    <i name="ewald">   4794.37560598 </i>
    <i name="hartreedc">  -6550.51694168 </i>
    <i name="XCdc">    180.72260976 </i>
    <i name="pawpsdc">   5789.48356213 </i>
    <i name="pawaedc">  -5793.91367227 </i>
    <i name="eentropy">     -0.00155016 </i>
    <i name="bandstr">   -507.33591498 </i>
    <i name="atom">   1903.26342058 </i>
    <i name="e_fr_energy">   -125.51943865 </i>
    <i name="e_wo_entrp">   -125.51788849 </i>
    <i name="e_0_energy">   -125.51866357 </i>
   </energy>
  </scstep>
  <scstep>
   <time name="dav">   11.13   11.18</time>
   <time name="total">   11.41   11.48</time>
   <energy>
    <i name="e_fr_energy">   -125.51980144 </i>
    <i name="e_wo_entrp">   -125.51825210 </i>
    <i name="e_0_energy">   -125.51902677 </i>
   </energy>
  </scstep>
  <scstep>
   <time name="dav">    9.51    9.57</time>
   <time name="total">    9.80    9.87</time>
   <energy>
    <i name="e_fr_energy">   -125.51969332 </i>
    <i name="e_wo_entrp">   -125.51814376 </i>
    <i name="e_0_energy">   -125.51891854 </i>
   </energy>
  </scstep>
  <scstep>
   <time name="dav">   10.51   10.58</time>
   <time name="total">   10.81   10.88</time>
   <energy>
    <i name="e_fr_energy">   -125.51969698 </i>
    <i name="e_wo_entrp">   -125.51814757 </i>
    <i name="e_0_energy">   -125.51892228 </i>
   </energy>
  </scstep>
  <scstep>
   <time name="dav">    9.96   10.02</time>
   <time name="total">   10.26   10.32</time>
   <energy>
    <i name="e_fr_energy">   -125.51970122 </i>
    <i name="e_wo_entrp">   -125.51815194 </i>
    <i name="e_0_energy">   -125.51892658 </i>
   </energy>
  </scstep>
  <scstep>
   <time name="dav">    9.66    9.72</time>
   <time name="total">    9.70    9.76</time>
   <energy>
    <i name="alphaZ">     58.40344200 </i>
    <i name="ewald">   4794.37560598 </i>
    <i name="hartreedc">  -6550.49187112 </i>
    <i name="XCdc">    180.72124537 </i>
    <i name="pawpsdc">   5797.26803323 </i>
    <i name="pawaedc">  -5801.70116182 </i>
    <i name="eentropy">     -0.00154930 </i>
    <i name="bandstr">   -507.35686571 </i>
    <i name="atom">   1903.26342058 </i>
    <i name="e_fr_energy">   -125.51970079 </i>
    <i name="e_wo_entrp">   -125.51815149 </i>
    <i name="e_0_energy">   -125.51892614 </i>
   </energy>
  </scstep>
  <structure>
   <crystal>
    <varray name="basis" >
     <v>       4.19329501       2.42100000       0.00000000 </v>
     <v>      -4.19329501       2.42100000       0.00000000 </v>
     <v>       0.00000000       0.00000000      15.00000000 </v>
    </varray>
    <i name="volume">    304.55901622 </i>
    <varray name="rec_basis" >
     <v>       0.11923797       0.20652623       0.00000000 </v>
     <v>      -0.11923797       0.20652623       0.00000000 </v>
     <v>       0.00000000       0.00000000       0.06666667 </v>
    </varray>
   </crystal>
   <varray name="positions" >
    <v>       0.00425163       0.00306985       0.11253055 </v>
    <v>       0.35981965       0.00361980       0.09987569 </v>
    <v>       0.00288607       0.35743639       0.09986747 </v>
    <v>       0.64962948       0.64697674       0.09988933 </v>
    <v>       0.32820031       0.32542476       0.10019682 </v>
    <v>       0.68142039       0.00398569       0.10023014 </v>
    <v>       0.00299814       0.67886580       0.10023634 </v>
    <v>       0.00045328       0.49997700       0.33390864 </v>
    <v>       0.16679996       0.33419252       0.33405016 </v>
    <v>       0.00002948      -0.00000015       0.33337131 </v>
    <v>       0.16736102       0.83319258       0.33406550 </v>
    <v>       0.50008145       0.50049016       0.33392368 </v>
    <v>       0.66666294       0.33334627       0.33341425 </v>
    <v>       0.49956494      -0.00042422       0.33390521 </v>
    <v>       0.66580192       0.83261414       0.33404756 </v>
   </varray>
  </structure>
  <varray name="forces" >
   <v>       0.01461640      -0.01404243      -0.16683978 </v>
   <v>      -0.13896462      -0.13129711      -0.12559187 </v>
   <v>       0.19900156      -0.03249097      -0.12425978 </v>
   <v>      -0.06531624       0.18193348      -0.12819676 </v>
   <v>      -0.09376700      -0.08946850       0.17534901 </v>
   <v>       0.12709798      -0.02975149       0.17219364 </v>
   <v>      -0.04294461       0.11449359       0.17099393 </v>
   <v>      -0.19626755      -0.08869502      -0.00167640 </v>
   <v>       0.26717722      -0.18752247      -0.04754176 </v>
   <v>      -0.01106427      -0.00393297       0.11295389 </v>
   <v>      -0.28669180      -0.11756497      -0.05022088 </v>
   <v>       0.15948724      -0.13651791      -0.00456113 </v>
[...]
   <time name="dav">   10.00   10.06</time>
   <time name="total">   10.29   10.36</time>
   <energy>
    <i name="e_fr_energy">   -125.53109025 </i>
    <i name="e_wo_entrp">   -125.52953759 </i>
    <i name="e_0_energy">   -125.53031392 </i>
   </energy>
  </scstep>
  <scstep>
   <time name="dav">   10.01   10.07</time>
   <time name="total">   10.05   10.10</time>
   <energy>
    <i name="alphaZ">     58.40344200 </i>
    <i name="ewald">   4796.15495338 </i>
    <i name="hartreedc">  -6552.46811921 </i>
    <i name="XCdc">    180.75754557 </i>
    <i name="pawpsdc">   5810.14290047 </i>
    <i name="pawaedc">  -5814.58022832 </i>
    <i name="eentropy">     -0.00155260 </i>
    <i name="bandstr">   -507.20345283 </i>
    <i name="atom">   1903.26342058 </i>
    <i name="e_fr_energy">   -125.53109097 </i>
    <i name="e_wo_entrp">   -125.52953837 </i>
    <i name="e_0_energy">   -125.53031467 </i>
   </energy>
  </scstep>
  <structure>
   <crystal>
    <varray name="basis" >
     <v>       4.19329501       2.42100000       0.00000000 </v>
     <v>      -4.19329501       2.42100000       0.00000000 </v>
     <v>       0.00000000       0.00000000      15.00000000 </v>
    </varray>
    <i name="volume">    304.55901622 </i>
    <varray name="rec_basis" >
     <v>       0.11923797       0.20652623       0.00000000 </v>
     <v>      -0.11923797       0.20652623       0.00000000 </v>
     <v>       0.00000000       0.00000000       0.06666667 </v>
    </varray>
   </crystal>
   <varray name="positions" >
    <v>       0.00420654       0.00290666       0.10906858 </v>
    <v>       0.35890168       0.00315552       0.10017540 </v>
    <v>       0.00357102       0.35710537       0.10016826 </v>
    <v>       0.64999387       0.64793735       0.10018730 </v>
    <v>       0.32799107       0.32625888       0.10090519 </v>
    <v>       0.68064630       0.00293097       0.10094861 </v>
    <v>       0.00385063       0.67905628       0.10095500 </v>
    <v>      -0.00051036       0.50010030       0.33397894 </v>
    <v>       0.16721404       0.33365130       0.33394804 </v>
    <v>      -0.00005508      -0.00000222       0.33374378 </v>
    <v>       0.16657741       0.83288593       0.33395711 </v>
    <v>       0.49986087       0.49943479       0.33398677 </v>
    <v>       0.66673475       0.33334918       0.33356890 </v>
    <v>       0.50052622       0.00046917       0.33397506 </v>
    <v>       0.66645172       0.83352786       0.33394572 </v>
   </varray>
  </structure>
  <varray name="forces" >
   <v>       0.00147853       0.00068403      -0.05246166 </v>
   <v>       0.00725503      -0.00454539      -0.02340607 </v>
   <v>       0.01721976       0.01468941      -0.02212389 </v>
   <v>      -0.02532543      -0.00731929      -0.02537972 </v>
   <v>      -0.00240417      -0.04875588       0.03419726 </v>
   <v>       0.02660744       0.02770625       0.02990591 </v>
   <v>      -0.02506827       0.01701757       0.02883789 </v>
   <v>       0.26263169       0.09071857      -0.02841381 </v>
   <v>      -0.13426059      -0.17371498       0.01256564 </v>
   <v>       0.02879860       0.02317704       0.01832670 </v>
   <v>      -0.10481602       0.14958103       0.01131032 </v>
   <v>      -0.15631189       0.19129978      -0.02982213 </v>
   <v>      -0.02379280      -0.01718540       0.06170424 </v>
   <v>      -0.03328633      -0.22324415      -0.02820759 </v>
   <v>       0.16127443      -0.04010857       0.01296691 </v>
  </varray>
  <varray name="stress" >
   <v>       1.45613438       0.09675970       0.00571918 </v>
   <v>       0.09675968       1.68190654       0.01140394 </v>
   <v>       0.00571916       0.01140397      -1.59756700 </v>
  </varray>
  <energy>
   <i name="e_fr_energy">   -127.13333130 </i>
   <i name="e_wo_entrp">   -127.13177870 </i>
   <i name="e_0_energy">   -127.13255500 </i>
  </energy>
  <time name="totalsc">   71.71   72.21</time>
 </calculation>
 <calculation>
  <scstep>
   <time name="dav">    5.47    5.50</time>
   <time name="total">    5.76    5.80</time>
   <energy>
    <i name="alphaZ">     58.40344200 </i>
    <i name="ewald">   4796.19270603 </i>
    <i name="hartreedc">  -6552.43064652 </i>
    <i name="XCdc">    180.76336094 </i>
    <i name="pawpsdc">   5810.09823253 </i>
    <i name="pawaedc">  -5814.53554752 </i>
    <i name="eentropy">     -0.00155549 </i>
    <i name="bandstr">   -507.28649428 </i>
    <i name="atom">   1903.26342058 </i>
    <i name="e_fr_energy">   -125.53308172 </i>
    <i name="e_wo_entrp">   -125.53152623 </i>
    <i name="e_0_energy">   -125.53230398 </i>
   </energy>
  </scstep>
  <scstep>
   <time name="dav">   10.69   10.75</time>
   <time name="total">   10.98   11.05</time>
   <energy>
    <i name="e_fr_energy">   -125.53311354 </i>
    <i name="e_wo_entrp">   -125.53155832 </i>
    <i name="e_0_energy">   -125.53233593 </i>
   </energy>
  </scstep>
  <scstep>
   <time name="dav">    8.24    8.29</time>
   <time name="total">    8.53    8.59</time>
   <energy>
    <i name="e_fr_energy">   -125.53309241 </i>
    <i name="e_wo_entrp">   -125.53153715 </i>
    <i name="e_0_energy">   -125.53231478 </i>
   </energy>
  </scstep>
  <scstep>
   <time name="dav">    9.73    9.80</time>
   <time name="total">   10.02   10.10</time>
   <energy>
    <i name="e_fr_energy">   -125.53309288 </i>
    <i name="e_wo_entrp">   -125.53153771 </i>
    <i name="e_0_energy">   -125.53231530 </i>
   </energy>
  </scstep>
  <scstep>
   <time name="dav">    9.50    9.55</time>
   <time name="total">    9.53    9.59</time>
   <energy>
    <i name="alphaZ">     58.40344200 </i>
    <i name="ewald">   4796.19270603 </i>
    <i name="hartreedc">  -6552.56435277 </i>
    <i name="XCdc">    180.76344276 </i>
    <i name="pawpsdc">   5812.04215207 </i>
    <i name="pawaedc">  -5816.48016496 </i>
    <i name="eentropy">     -0.00155518 </i>
    <i name="bandstr">   -507.15218399 </i>
    <i name="atom">   1903.26342058 </i>
    <i name="e_fr_energy">   -125.53309346 </i>
    <i name="e_wo_entrp">   -125.53153828 </i>
    <i name="e_0_energy">   -125.53231587 </i>
   </energy>
  </scstep>
  <structure>
   <crystal>
    <varray name="basis" >
     <v>       4.19329501       2.42100000       0.00000000 </v>
     <v>      -4.19329501       2.42100000       0.00000000 </v>
     <v>       0.00000000       0.00000000      15.00000000 </v>
    </varray>
    <i name="volume">    304.55901622 </i>
    <varray name="rec_basis" >
     <v>       0.11923797       0.20652623       0.00000000 </v>
     <v>      -0.11923797       0.20652623       0.00000000 </v>
     <v>       0.00000000       0.00000000       0.06666667 </v>
    </varray>
   </crystal>
   <varray name="positions" >
    <v>       0.00420481       0.00289384       0.10824089 </v>
    <v>       0.35888718       0.00309420       0.10029111 </v>
    <v>       0.00367112       0.35716057       0.10028436 </v>
    <v>       0.64992352       0.64796173       0.10030266 </v>
    <v>       0.32795948       0.32635000       0.10102824 </v>
    <v>       0.68055334       0.00282193       0.10107331 </v>
    <v>       0.00395056       0.67906178       0.10107974 </v>
    <v>      -0.00025518       0.50002457       0.33398253 </v>
    <v>       0.16691975       0.33351279       0.33394833 </v>
    <v>      -0.00000676       0.00000670       0.33379951 </v>
    <v>       0.16665736       0.83313366       0.33395631 </v>
    <v>       0.49998609       0.49973936       0.33398906 </v>
    <v>       0.66669875       0.33334541       0.33361190 </v>
    <v>       0.50026980       0.00026214       0.33397857 </v>
    <v>       0.66654084       0.83339865       0.33394615 </v>
   </varray>
  </structure>
  <varray name="forces" >
   <v>       0.00136117      -0.00000997      -0.03820285 </v>
   <v>       0.01572727       0.00542911      -0.00914130 </v>
   <v>       0.00133014       0.01483008      -0.00796446 </v>
   <v>      -0.01843407      -0.01930635      -0.01097827 </v>
   <v>       0.00874455      -0.04231283       0.01518293 </v>
   <v>       0.01734944       0.03397424       0.01081661 </v>
   <v>      -0.02630208       0.00689602       0.00977625 </v>
   <v>       0.12659843       0.05598958      -0.02691341 </v>
   <v>      -0.05947919      -0.07327391       0.01626453 </v>
   <v>       0.01004880       0.00786546       0.00835162 </v>
   <v>      -0.04145267       0.07037539       0.01531865 </v>
   <v>      -0.09527342       0.08448531      -0.02793840 </v>
   <v>      -0.00717194      -0.00459906       0.05544243 </v>
   <v>      -0.00863464      -0.12192905      -0.02662016 </v>
   <v>       0.07558822      -0.01841403       0.01660581 </v>
  </varray>
  <varray name="stress" >
   <v>       1.68043891       0.02734673       0.00502834 </v>
   <v>       0.02734674       1.73644776       0.01018135 </v>
   <v>       0.00502835       0.01018136      -1.59117793 </v>
  </varray>
  <energy>
   <i name="e_fr_energy">   -127.13515375 </i>
   <i name="e_wo_entrp">   -127.13359858 </i>
   <i name="e_0_energy">   -127.13437617 </i>
  </energy>
  <time name="totalsc">   49.50   49.84</time>
 </calculation>
 <calculation>
  <scstep>
   <time name="dav">    5.45    5.49</time>
   <time name="total">    5.75    5.79</time>
   <energy>
    <i name="alphaZ">     58.40344200 </i>
    <i name="ewald">   4796.18163045 </i>
    <i name="hartreedc">  -6552.46891917 </i>
    <i name="XCdc">    180.76940012 </i>
    <i name="pawpsdc">   5812.07018785 </i>
    <i name="pawaedc">  -5816.50819222 </i>
    <i name="eentropy">     -0.00155551 </i>
    <i name="bandstr">   -507.24349756 </i>
    <i name="atom">   1903.26342058 </i>
    <i name="e_fr_energy">   -125.53408346 </i>
    <i name="e_wo_entrp">   -125.53252795 </i>
    <i name="e_0_energy">   -125.53330571 </i>
   </energy>
  </scstep>
  <scstep>
   <time name="dav">   10.82   10.90</time>
   <time name="total">   11.12   11.20</time>
   <energy>
    <i name="e_fr_energy">   -125.53413047 </i>
    <i name="e_wo_entrp">   -125.53257512 </i>
    <i name="e_0_energy">   -125.53335279 </i>
   </energy>
  </scstep>
  <scstep>
   <time name="dav">    9.85    9.91</time>
   <time name="total">   10.14   10.21</time>
   <energy>
    <i name="e_fr_energy">   -125.53409963 </i>
    <i name="e_wo_entrp">   -125.53254408 </i>
    <i name="e_0_energy">   -125.53332185 </i>
   </energy>
  </scstep>
  <scstep>
   <time name="dav">   10.02   10.08</time>
   <time name="total">   10.31   10.38</time>
   <energy>
    <i name="e_fr_energy">   -125.53409925 </i>
    <i name="e_wo_entrp">   -125.53254380 </i>
    <i name="e_0_energy">   -125.53332153 </i>
   </energy>
  </scstep>
  <scstep>
   <time name="dav">    9.66    9.72</time>
   <time name="total">    9.70    9.76</time>
   <energy>
    <i name="alphaZ">     58.40344200 </i>
    <i name="ewald">   4796.18163045 </i>
    <i name="hartreedc">  -6552.63171895 </i>
    <i name="XCdc">    180.76950010 </i>
    <i name="pawpsdc">   5814.16633038 </i>
    <i name="pawaedc">  -5818.60507282 </i>
    <i name="eentropy">     -0.00155544 </i>
    <i name="bandstr">   -507.08007563 </i>
    <i name="atom">   1903.26342058 </i>
    <i name="e_fr_energy">   -125.53409934 </i>
    <i name="e_wo_entrp">   -125.53254389 </i>
    <i name="e_0_energy">   -125.53332161 </i>
   </energy>
  </scstep>
  <structure>
   <crystal>
    <varray name="basis" >
     <v>       4.19329501       2.42100000       0.00000000 </v>
     <v>      -4.19329501       2.42100000       0.00000000 </v>
     <v>       0.00000000       0.00000000      15.00000000 </v>
    </varray>
    <i name="volume">    304.55901622 </i>
    <varray name="rec_basis" >
     <v>       0.11923797       0.20652623       0.00000000 </v>
     <v>      -0.11923797       0.20652623       0.00000000 </v>
     <v>       0.00000000       0.00000000       0.06666667 </v>
    </varray>
   </crystal>
   <varray name="positions" >
    <v>       0.00420272       0.00287839       0.10724272 </v>
    <v>       0.35886968       0.00302024       0.10043065 </v>
    <v>       0.00379184       0.35722714       0.10042436 </v>
    <v>       0.64983868       0.64799114       0.10044178 </v>
    <v>       0.32792138       0.32645989       0.10117662 </v>
    <v>       0.68044125       0.00269044       0.10122368 </v>
    <v>       0.00407108       0.67906841       0.10123018 </v>
    <v>       0.00005257       0.49993324       0.33398687 </v>
    <v>       0.16656484       0.33334575       0.33394867 </v>
    <v>       0.00005151       0.00001746       0.33386671 </v>
    <v>       0.16675378       0.83343242       0.33395535 </v>
    <v>       0.50013711       0.50010667       0.33399182 </v>
    <v>       0.66665535       0.33334085       0.33366377 </v>
    <v>       0.49996058       0.00001247       0.33398280 </v>
    <v>       0.66664832       0.83324281       0.33394668 </v>
   </varray>
  </structure>
  <varray name="forces" >
   <v>       0.00122278      -0.00084869      -0.02273449 </v>
   <v>       0.02374625       0.01604383       0.00833397 </v>
   <v>      -0.01553386       0.01380323       0.00939218 </v>
   <v>      -0.01024044      -0.03114605       0.00664534 </v>
   <v>       0.02203517      -0.03688851      -0.00740093 </v>
   <v>       0.00829156       0.04254329      -0.01185910 </v>
   <v>      -0.02972627      -0.00397992      -0.01286200 </v>
   <v>      -0.03818436       0.01384423      -0.02508151 </v>
   <v>       0.03098875       0.04708508       0.02072230 </v>
   <v>      -0.01264798      -0.01067989      -0.00368407 </v>
   <v>       0.03471373      -0.02487738       0.02014670 </v>
   <v>      -0.02059316      -0.04430358      -0.02568092 </v>
   <v>       0.01267837       0.01035106       0.04774561 </v>
   <v>       0.02093070       0.00073230      -0.02469907 </v>
   <v>      -0.02768125       0.00832100       0.02101598 </v>
  </varray>
  <varray name="stress" >
   <v>       1.94074560      -0.05546086       0.00416142 </v>
   <v>      -0.05546087       1.79478449       0.00893043 </v>
   <v>       0.00416144       0.00893041      -1.57886856 </v>
  </varray>
  <energy>
   <i name="e_fr_energy">   -127.13593701 </i>
   <i name="e_wo_entrp">   -127.13438157 </i>
   <i name="e_0_energy">   -127.13515929 </i>
  </energy>
  <time name="totalsc">   51.70   52.06</time>
 </calculation>
 <calculation>
  <scstep>
   <time name="dav">    5.56    5.59</time>
   <time name="total">    5.86    5.90</time>
   <energy>
    <i name="alphaZ">     58.40344200 </i>
    <i name="ewald">   4796.04573820 </i>
    <i name="hartreedc">  -6552.49260659 </i>
    <i name="XCdc">    180.77078060 </i>
    <i name="pawpsdc">   5814.19400120 </i>
    <i name="pawaedc">  -5818.63273249 </i>
    <i name="eentropy">     -0.00155623 </i>
    <i name="bandstr">   -507.08483429 </i>
    <i name="atom">   1903.26342058 </i>
    <i name="e_fr_energy">   -125.53434703 </i>
    <i name="e_wo_entrp">   -125.53279080 </i>
    <i name="e_0_energy">   -125.53356892 </i>
   </energy>
  </scstep>
  <scstep>
   <time name="dav">   10.42   10.48</time>
   <time name="total">   10.71   10.78</time>
   <energy>
    <i name="e_fr_energy">   -125.53434856 </i>
    <i name="e_wo_entrp">   -125.53279237 </i>
    <i name="e_0_energy">   -125.53357046 </i>
   </energy>
  </scstep>
  <scstep>
   <time name="dav">    9.57    9.62</time>
   <time name="total">    9.60    9.66</time>
   <energy>
    <i name="alphaZ">     58.40344200 </i>
    <i name="ewald">   4796.04573820 </i>
    <i name="hartreedc">  -6552.53316371 </i>
    <i name="XCdc">    180.77138522 </i>
    <i name="pawpsdc">   5814.58107334 </i>
    <i name="pawaedc">  -5819.01996205 </i>
    <i name="eentropy">     -0.00155613 </i>
    <i name="bandstr">   -507.04472611 </i>
    <i name="atom">   1903.26342058 </i>
    <i name="e_fr_energy">   -125.53434866 </i>
    <i name="e_wo_entrp">   -125.53279253 </i>
    <i name="e_0_energy">   -125.53357060 </i>
   </energy>
  </scstep>
  <structure>
   <crystal>
    <varray name="basis" >
     <v>       4.19329501       2.42100000       0.00000000 </v>
     <v>      -4.19329501       2.42100000       0.00000000 </v>
     <v>       0.00000000       0.00000000      15.00000000 </v>
    </varray>
    <i name="volume">    304.55901622 </i>
    <varray name="rec_basis" >
     <v>       0.11923797       0.20652623       0.00000000 </v>
     <v>      -0.11923797       0.20652623       0.00000000 </v>
     <v>       0.00000000       0.00000000       0.06666667 </v>
    </varray>
   </crystal>
   <varray name="positions" >
    <v>       0.00420208       0.00287277       0.10705299 </v>
    <v>       0.35892190       0.00301154       0.10046027 </v>
    <v>       0.00382212       0.35728121       0.10045470 </v>
    <v>       0.64975482       0.64794942       0.10047031 </v>
    <v>       0.32786973       0.32638706       0.10119836 </v>
    <v>       0.68050945       0.00273743       0.10124309 </v>
    <v>       0.00405304       0.67909408       0.10124900 </v>
    <v>       0.00009162       0.49998385       0.33397259 </v>
    <v>       0.16662302       0.33337055       0.33396116 </v>
    <v>       0.00002836       0.00001309       0.33387636 </v>
    <v>       0.16676181       0.83340163       0.33396727 </v>
    <v>       0.50005929       0.50011121       0.33397689 </v>
    <v>       0.66668054       0.33334568       0.33370157 </v>
    <v>       0.49992985      -0.00005267       0.33396873 </v>
    <v>       0.66665304       0.83326050       0.33395938 </v>
   </varray>
  </structure>
  <varray name="forces" >
   <v>       0.00246393      -0.00300922      -0.02038120 </v>
   <v>       0.02037565       0.01417475       0.01037089 </v>
   <v>      -0.01603569       0.01147174       0.01127964 </v>
   <v>      -0.00716678      -0.02659668       0.00881042 </v>
   <v>       0.02016251      -0.02151280      -0.01040951 </v>
   <v>       0.00089964       0.03256484      -0.01454921 </v>
   <v>      -0.02083210      -0.00756884      -0.01541731 </v>
   <v>      -0.03030046      -0.00570916      -0.01691257 </v>
   <v>       0.01554844       0.02495992       0.01538187 </v>
   <v>      -0.00322302      -0.00258763      -0.00124083 </v>
   <v>       0.01612414      -0.01997950       0.01495471 </v>
   <v>       0.01419042      -0.02442637      -0.01738170 </v>
   <v>       0.00261336       0.00210736       0.03644119 </v>
   <v>       0.00801650       0.02371951      -0.01659462 </v>
   <v>      -0.02283653       0.00239207       0.01564821 </v>
  </varray>
  <varray name="stress" >
   <v>       1.93276735      -0.01637557       0.00500285 </v>
   <v>      -0.01637555       1.88781053       0.00817901 </v>
   <v>       0.00500285       0.00817902      -1.59218669 </v>
  </varray>
  <energy>
   <i name="e_fr_energy">   -127.13612379 </i>
   <i name="e_wo_entrp">   -127.13456765 </i>
   <i name="e_0_energy">   -127.13534572 </i>
  </energy>
  <time name="totalsc">   30.83   31.04</time>
 </calculation>
 <calculation>
  <scstep>
   <time name="dav">    5.46    5.50</time>
   <time name="total">    5.75    5.81</time>
   <energy>
    <i name="alphaZ">     58.40344200 </i>
    <i name="ewald">   4795.76711660 </i>
    <i name="hartreedc">  -6552.22116472 </i>
    <i name="XCdc">    180.77362243 </i>
    <i name="pawpsdc">   5814.61289212 </i>
    <i name="pawaedc">  -5819.05177630 </i>
    <i name="eentropy">     -0.00155545 </i>
    <i name="bandstr">   -507.08062132 </i>
    <i name="atom">   1903.26342058 </i>
    <i name="e_fr_energy">   -125.53462407 </i>
    <i name="e_wo_entrp">   -125.53306862 </i>
    <i name="e_0_energy">   -125.53384634 </i>
   </energy>
  </scstep>
  <scstep>
   <time name="dav">   11.16   11.22</time>
   <time name="total">   11.45   11.52</time>
   <energy>
    <i name="e_fr_energy">   -125.53463020 </i>
    <i name="e_wo_entrp">   -125.53307467 </i>
    <i name="e_0_energy">   -125.53385243 </i>
   </energy>
  </scstep>
  <scstep>
