Lattice                                 
           1
     4.193295    2.421000    0.000000
    -4.193295    2.421000    0.000000
     0.000000    0.000000   15.000000
   B    C 
     4    11
Direct configuration=     1
   0.00415361  0.00267210  0.12034134
   0.35695335  0.00285503  0.09748893
   0.00423858  0.35550699  0.09749256
   0.65142295  0.65006557  0.09747688
   0.32808646  0.32671938  0.10030508
   0.68027775  0.00278085  0.10027562
   0.00416530  0.67883808  0.10026559
   0.99999933  0.49999967  0.33373333
   0.16666633  0.33333267  0.33373333
   0.99999933  0.99999967  0.33373333
   0.16666633  0.83333267  0.33373333
   0.49999933  0.49999967  0.33373333
   0.66666633  0.33333267  0.33373333
   0.49999933  0.99999967  0.33373333
   0.66666633  0.83333267  0.33373333
Direct configuration=     2
   0.00418074  0.00275320  0.11925459
   0.35587230  0.00303229  0.09782509
   0.00395874  0.35420221  0.09782719
   0.65272091  0.65110295  0.09781649
   0.32478663  0.32307528  0.10029562
   0.68388295  0.00310574  0.10027405
   0.00388601  0.68216021  0.10026673
   0.00012699  0.49997615  0.33374213
   0.16687322  0.33394494  0.33380136
   0.99999918  0.99999363  0.33363250
   0.16706424  0.83312440  0.33380424
   0.50003904  0.50016330  0.33374501
   0.66666624  0.33333786  0.33368497
   0.49985086  0.99987111  0.33374167
   0.66605262  0.83292404  0.33380104
Direct configuration=     3
   0.00416614  0.00270957  0.11983927
   0.35645391  0.00293692  0.09764423
   0.00410930  0.35490419  0.09764716
   0.65202260  0.65054483  0.09763378
   0.32656197  0.32503583  0.10030071
   0.68194332  0.00293095  0.10027490
   0.00403627  0.68037287  0.10026611
   0.00005831  0.49998880  0.33373740
   0.16676191  0.33361553  0.33376476
   0.99999926  0.99999688  0.33368675
   0.16685016  0.83323645  0.33376609
   0.50001768  0.50007527  0.33373873
   0.66666629  0.33333507  0.33371099
   0.49993074  0.99994028  0.33373718
   0.66638280  0.83314388  0.33376461
Direct configuration=     4
   0.00418029  0.00276606  0.11894516
   0.35688869  0.00305175  0.09794320
   0.00391152  0.35519792  0.09794460
   0.65174382  0.65007959  0.09793608
   0.32665765  0.32491399  0.10026254
   0.68204382  0.00312336  0.10024441
   0.00385716  0.68029573  0.10023771
  -0.00008148  0.50000955  0.33375694
   0.16662245  0.33315431  0.33380914
   0.99999998  0.00000279  0.33362849
   0.16654099  0.83338333  0.33381264
   0.49998596  0.49990695  0.33376041
   0.66666940  0.33333223  0.33366638
   0.50008876  0.00008179  0.33375630
   0.66685165  0.83346799  0.33380866
Direct configuration=     5
   0.00419901  0.00284083  0.11776177
   0.35746414  0.00320374  0.09833890
   0.00364976  0.35558668  0.09833827
   0.65137484  0.64946383  0.09833619
   0.32678429  0.32475272  0.10021202
   0.68217683  0.00337803  0.10020406
   0.00362010  0.68019363  0.10020011
  -0.00026650  0.50003700  0.33378280
   0.16643787  0.33254386  0.33386789
   0.00000094  0.00001060  0.33355138
   0.16613178  0.83357774  0.33387426
   0.49994399  0.49968418  0.33378912
   0.66667352  0.33332846  0.33360733
   0.50029791  0.00026908  0.33378160
   0.66747218  0.83389695  0.33386696
Direct configuration=     6
   0.00420140  0.00285124  0.11752399
   0.35757121  0.00322265  0.09840875
   0.00361505  0.35567075  0.09840778
   0.65129550  0.64935078  0.09840679
   0.32684865  0.32478327  0.10021133
   0.68214244  0.00340565  0.10020525
   0.00359183  0.68013328  0.10020176
  -0.00023378  0.50003427  0.33378852
   0.16645433  0.33261880  0.33387617
   0.00000224  0.00001011  0.33354320
   0.16618766  0.83356024  0.33388295
   0.49995024  0.49972081  0.33379523
   0.66667304  0.33332927  0.33359855
   0.50026460  0.00023756  0.33378721
   0.66739626  0.83383864  0.33387517
Direct configuration=     7
   0.00420858  0.00288247  0.11681064
   0.35789242  0.00327938  0.09861832
   0.00351091  0.35592299  0.09861631
   0.65105750  0.64901163  0.09861858
   0.32704175  0.32487491  0.10020926
   0.68203929  0.00348851  0.10020880
   0.00350702  0.67995221  0.10020670
  -0.00013563  0.50002609  0.33380568
   0.16650371  0.33284362  0.33390103
   0.00000613  0.00000865  0.33351864
   0.16635528  0.83350771  0.33390903
   0.49996898  0.49983072  0.33381358
   0.66667160  0.33333170  0.33357222
   0.50016465  0.00014302  0.33380407
   0.66716850  0.83366371  0.33389980
Direct configuration=     8
   0.00422293  0.00294493  0.11538394
   0.35853483  0.00339285  0.09903744
   0.00330263  0.35642746  0.09903336
   0.65058149  0.64833333  0.09904217
   0.32742793  0.32505819  0.10020511
   0.68183299  0.00365424  0.10021592
   0.00333739  0.67959008  0.10021658
   0.00006067  0.50000973  0.33384000
   0.16660246  0.33329325  0.33395074
   0.00001391  0.00000571  0.33346953
   0.16669053  0.83340267  0.33396119
   0.50000647  0.50005053  0.33385028
   0.66666871  0.33333656  0.33351957
   0.49996474 -0.00004606  0.33383778
   0.66671297  0.83331386  0.33394905
Direct configuration=     9
   0.00425163  0.00306985  0.11253055
   0.35981965  0.00361980  0.09987569
   0.00288607  0.35743639  0.09986747
   0.64962948  0.64697674  0.09988933
   0.32820031  0.32542476  0.10019682
   0.68142039  0.00398569  0.10023014
   0.00299814  0.67886580  0.10023634
   0.00045328  0.49997700  0.33390864
   0.16679996  0.33419252  0.33405016
   0.00002948 -0.00000015  0.33337131
   0.16736102  0.83319258  0.33406550
   0.50008145  0.50049016  0.33392368
   0.66666294  0.33334627  0.33341425
   0.49956494 -0.00042422  0.33390521
   0.66580192  0.83261414  0.33404756
Direct configuration=    10
   0.00423318  0.00298956  0.11436441
   0.35899390  0.00347394  0.09933695
   0.00315379  0.35678796  0.09933139
   0.65024133  0.64784862  0.09934486
   0.32770391  0.32518917  0.10020215
   0.68168557  0.00377267  0.10022100
   0.00321617  0.67933129  0.10022364
   0.00020095  0.49999803  0.33386452
   0.16667303  0.33361457  0.33398626
   0.00001947  0.00000362  0.33343444
   0.16693010  0.83332761  0.33399846
   0.50003326  0.50020761  0.33387651
   0.66666665  0.33334003  0.33348194
   0.49982189 -0.00018118  0.33386188
   0.66638745  0.83306384  0.33398425
Direct configuration=    11
   0.00423052  0.00298127  0.11383483
   0.35898468  0.00344210  0.09942080
   0.00319551  0.35681970  0.09941508
   0.65021659  0.64785749  0.09942911
   0.32773262  0.32529614  0.10027245
   0.68158164  0.00368850  0.10029376
   0.00327962  0.67930379  0.10029678
   0.00012982  0.50000826  0.33387597
   0.16672713  0.33361824  0.33398244
   0.00001202  0.00000303  0.33346537
   0.16689483  0.83328344  0.33399433
   0.50001603  0.50013033  0.33388753
   0.66667346  0.33334094  0.33349063
   0.49989233 -0.00011615  0.33387319
   0.66639387  0.83311024  0.33398040
Direct configuration=    12
   0.00422253  0.00295640  0.11224608
   0.35895701  0.00334657  0.09967233
   0.00332068  0.35691492  0.09966614
   0.65014235  0.64788411  0.09968184
   0.32781877  0.32561705  0.10048336
   0.68126986  0.00343599  0.10051205
   0.00346996  0.67922129  0.10051619
  -0.00008357  0.50003894  0.33391029
   0.16688943  0.33362926  0.33397097
  -0.00001035  0.00000128  0.33355818
   0.16678902  0.83315093  0.33398192
   0.49996431  0.49989848  0.33392061
   0.66669389  0.33334369  0.33351672
   0.50010362  0.00007896  0.33390715
   0.66641316  0.83324945  0.33396884
Direct configuration=    13
   0.00420654  0.00290666  0.10906858
   0.35890168  0.00315552  0.10017540
   0.00357102  0.35710537  0.10016826
   0.64999387  0.64793735  0.10018730
   0.32799107  0.32625888  0.10090519
   0.68064630  0.00293097  0.10094861
   0.00385063  0.67905628  0.10095500
  -0.00051036  0.50010030  0.33397894
   0.16721404  0.33365130  0.33394804
  -0.00005508 -0.00000222  0.33374378
   0.16657741  0.83288593  0.33395711
   0.49986087  0.49943479  0.33398677
   0.66673475  0.33334918  0.33356890
   0.50052622  0.00046917  0.33397506
   0.66645172  0.83352786  0.33394572
Direct configuration=    14
   0.00420481  0.00289384  0.10824089
   0.35888718  0.00309420  0.10029111
   0.00367112  0.35716057  0.10028436
   0.64992352  0.64796173  0.10030266
   0.32795948  0.32635000  0.10102824
   0.68055334  0.00282193  0.10107331
   0.00395056  0.67906178  0.10107974
  -0.00025518  0.50002457  0.33398253
   0.16691975  0.33351279  0.33394833
  -0.00000676  0.00000670  0.33379951
   0.16665736  0.83313366  0.33395631
   0.49998609  0.49973936  0.33398906
   0.66669875  0.33334541  0.33361190
   0.50026980  0.00026214  0.33397857
   0.66654084  0.83339865  0.33394615
Direct configuration=    15
   0.00420272  0.00287839  0.10724272
   0.35886968  0.00302024  0.10043065
   0.00379184  0.35722714  0.10042436
   0.64983868  0.64799114  0.10044178
   0.32792138  0.32645989  0.10117662
   0.68044125  0.00269044  0.10122368
   0.00407108  0.67906841  0.10123018
   0.00005257  0.49993324  0.33398687
   0.16656484  0.33334575  0.33394867
   0.00005151  0.00001746  0.33386671
   0.16675378  0.83343242  0.33395535
   0.50013711  0.50010667  0.33399182
   0.66665535  0.33334085  0.33366377
   0.49996058  0.00001247  0.33398280
   0.66664832  0.83324281  0.33394668
Direct configuration=    16
   0.00420208  0.00287277  0.10705299
   0.35892190  0.00301154  0.10046027
   0.00382212  0.35728121  0.10045470
   0.64975482  0.64794942  0.10047031
   0.32786973  0.32638706  0.10119836
   0.68050945  0.00273743  0.10124309
   0.00405304  0.67909408  0.10124900
   0.00009162  0.49998385  0.33397259
   0.16662302  0.33337055  0.33396116
   0.00002836  0.00001309  0.33387636
   0.16676181  0.83340163  0.33396727
   0.50005929  0.50011121  0.33397689
   0.66668054  0.33334568  0.33370157
   0.49992985 -0.00005267  0.33396873
   0.66665304  0.83326050  0.33395938
Direct configuration=    17
   0.00420082  0.00286155  0.10667408
   0.35902620  0.00299415  0.10051942
   0.00388260  0.35738920  0.10051527
   0.64958736  0.64786610  0.10052729
   0.32776660  0.32624161  0.10124177
   0.68064567  0.00283127  0.10128186
   0.00401701  0.67914535  0.10128659
   0.00016959  0.50008491  0.33394406
   0.16673920  0.33342008  0.33398612
  -0.00001787  0.00000434  0.33389562
   0.16677783  0.83334013  0.33399108
   0.49990389  0.50012028  0.33394709
   0.66673084  0.33335533  0.33377705
   0.49986849 -0.00018278  0.33394062
   0.66666246  0.83329582  0.33398475
Direct configuration=    18
   0.00418883  0.00282972  0.10644126
   0.35913405  0.00299214  0.10056565
   0.00390937  0.35749265  0.10056282
   0.64944314  0.64777372  0.10057122
   0.32775070  0.32615151  0.10125342
   0.68074162  0.00294192  0.10128776
   0.00395310  0.67914431  0.10129122
   0.00008459  0.50005477  0.33392694
   0.16673765  0.33342586  0.33400460
   0.00001394  0.00001090  0.33390975
   0.16672886  0.83330521  0.33400876
   0.49997330  0.50004262  0.33392906
   0.66669715  0.33334970  0.33383267
   0.49998504 -0.00005866  0.33392392
   0.66661933  0.83331098  0.33400362
Direct configuration=    19
   0.00418140  0.00280998  0.10629691
   0.35920091  0.00299089  0.10059431
   0.00392596  0.35755678  0.10059230
   0.64935372  0.64771644  0.10059846
   0.32774085  0.32609565  0.10126065
   0.68080110  0.00301052  0.10129142
   0.00391348  0.67914367  0.10129409
   0.00003190  0.50003609  0.33391633
   0.16673669  0.33342944  0.33401606
   0.00003366  0.00001497  0.33391850
   0.16669850  0.83328356  0.33401972
   0.50001634  0.49999447  0.33391788
   0.66667626  0.33334621  0.33386716
   0.50005730  0.00001828  0.33391357
   0.66659259  0.83332039  0.33401533
Direct configuration=    20
   0.00416390  0.00276945  0.10617590
   0.35924604  0.00300091  0.10062751
   0.00391991  0.35759754  0.10062636
   0.64930704  0.64767768  0.10062988
   0.32780764  0.32610986  0.10125165
   0.68080310  0.00307085  0.10127719
   0.00386514  0.67909490  0.10127877
   0.00000389  0.49997545  0.33392466
   0.16668344  0.33340823  0.33401796
   0.00002917  0.00001459  0.33393372
   0.16674458  0.83334612  0.33402146
   0.50007129  0.50003178  0.33392603
   0.66668229  0.33334688  0.33388183
   0.50001332  0.00003936  0.33392226
   0.66661992  0.83328373  0.33401749
Direct configuration=    21
   0.00415106  0.00273970  0.10608708
   0.35927916  0.00300826  0.10065188
   0.00391547  0.35762745  0.10065136
   0.64927278  0.64764922  0.10065293
   0.32785667  0.32612029  0.10124505
   0.68080456  0.00311513  0.10126676
   0.00382966  0.67905912  0.10126753
  -0.00001667  0.49993094  0.33393077
   0.16664435  0.33339267  0.33401935
   0.00002588  0.00001431  0.33394488
   0.16677839  0.83339205  0.33402275
   0.50011162  0.50005917  0.33393201
   0.66668671  0.33334737  0.33389259
   0.49998104  0.00005483  0.33392864
   0.66663998  0.83325683  0.33401908
Direct configuration=    22
   0.00413735  0.00270758  0.10595859
   0.35928574  0.00303055  0.10068828
   0.00389776  0.35761792  0.10068867
   0.64928061  0.64764816  0.10068725
   0.32791569  0.32614267  0.10122918
   0.68079337  0.00315520  0.10124420
   0.00379288  0.67901353  0.10124361
   0.00003454  0.49997684  0.33395313
   0.16667159  0.33339673  0.33401755
   0.00001758  0.00001260  0.33396318
   0.16677119  0.83337601  0.33402108
   0.50005638  0.50007102  0.33395452
   0.66669714  0.33334966  0.33389447
   0.49996016 -0.00000513  0.33395140
   0.66664868  0.83327397  0.33401756
Direct configuration=    23
   0.00412279  0.00267348  0.10582218
   0.35929272  0.00305422  0.10072692
   0.00387897  0.35760780  0.10072829
   0.64928893  0.64764704  0.10072368
   0.32797836  0.32616643  0.10121232
   0.68078149  0.00319775  0.10122026
   0.00375384  0.67896513  0.10121821
   0.00008891  0.50002558  0.33397687
   0.16670050  0.33340105  0.33401563
   0.00000877  0.00001079  0.33398261
   0.16676353  0.83335899  0.33401931
   0.49999774  0.50008360  0.33397843
   0.66670822  0.33335209  0.33389646
   0.49993798 -0.00006879  0.33397557
   0.66665792  0.83329217  0.33401595
Direct configuration=    24
   0.00413065  0.00268945  0.10569035
   0.35925725  0.00308213  0.10075253
   0.00386333  0.35754053  0.10075458
   0.64934545  0.64768532  0.10074748
   0.32794104  0.32614478  0.10120244
   0.68079013  0.00318832  0.10120386
   0.00376241  0.67897720  0.10120047
   0.00007084  0.50003722  0.33400023
   0.16671020  0.33340837  0.33402260
   0.00003421  0.00001633  0.33399136
   0.16671557  0.83332025  0.33402662
   0.50001633  0.50003539  0.33400233
   0.66668323  0.33334893  0.33389559
   0.50001703 -0.00001949  0.33399917
   0.66662300  0.83331262  0.33402307
Direct configuration=    25
   0.00413402  0.00269630  0.10563382
   0.35924205  0.00309410  0.10076351
   0.00385663  0.35751169  0.10076586
   0.64936968  0.64770173  0.10075769
   0.32792504  0.32613549  0.10119820
   0.68079383  0.00318427  0.10119682
   0.00376608  0.67898238  0.10119287
   0.00006309  0.50004221  0.33401025
   0.16671436  0.33341150  0.33402558
   0.00004511  0.00001870  0.33399511
   0.16669501  0.83330364  0.33402975
   0.50002431  0.50001471  0.33401258
   0.66667252  0.33334758  0.33389521
   0.50005092  0.00000164  0.33400929
   0.66660802  0.83332139  0.33402612
Direct configuration=    26
   0.00415125  0.00273553  0.10548290
   0.35920964  0.00311349  0.10077683
   0.00384383  0.35745340  0.10077958
   0.64942017  0.64772930  0.10076966
   0.32786315  0.32612804  0.10119699
   0.68078086  0.00312950  0.10118948
   0.00380960  0.67901125  0.10118431
   0.00000837  0.49998776  0.33402983
   0.16669989  0.33341493  0.33404679
   0.00002823  0.00001660  0.33399416
   0.16674994  0.83334239  0.33405144
   0.50005884  0.50002792  0.33403294
   0.66669226  0.33335076  0.33390137
   0.50001789  0.00003569  0.33402901
   0.66662677  0.83329075  0.33404738
Direct configuration=    27
   0.00416078  0.00275722  0.10539946
   0.35919172  0.00312422  0.10078420
   0.00383675  0.35742117  0.10078717
   0.64944808  0.64774455  0.10077628
   0.32782893  0.32612393  0.10119632
   0.68077368  0.00309922  0.10118543
   0.00383367  0.67902722  0.10117958
  -0.00002189  0.49995766  0.33404066
   0.16669189  0.33341682  0.33405851
   0.00001889  0.00001544  0.33399364
   0.16678032  0.83336382  0.33406342
   0.50007793  0.50003523  0.33404420
   0.66670317  0.33335252  0.33390477
   0.49999962  0.00005452  0.33403991
   0.66663713  0.83327380  0.33405913
Direct configuration=    28
   0.00416675  0.00277444  0.10526625
   0.35919580  0.00312251  0.10078709
   0.00382787  0.35742743  0.10079008
   0.64945026  0.64773000  0.10077860
   0.32782493  0.32616414  0.10120010
   0.68072848  0.00304273  0.10118518
   0.00387118  0.67903103  0.10117859
   0.00001536  0.49997545  0.33405370
   0.16668994  0.33341294  0.33408254
   0.00001854  0.00001514  0.33399208
   0.16678223  0.83336942  0.33408773
   0.50006071  0.50005669  0.33405778
   0.66670571  0.33335323  0.33391691
   0.49997813  0.00001733  0.33405293
   0.66664476  0.83327484  0.33408312
Direct configuration=    29
   0.00418232  0.00281937  0.10491876
   0.35920645  0.00311804  0.10079463
   0.00380471  0.35744378  0.10079769
   0.64945597  0.64769204  0.10078464
   0.32781450  0.32626906  0.10120996
   0.68061055  0.00289534  0.10118456
   0.00396905  0.67904098  0.10117599
   0.00011255  0.50002188  0.33408772
   0.16668487  0.33340281  0.33414521
   0.00001761  0.00001436  0.33398800
   0.16678722  0.83338403  0.33415114
   0.50001579  0.50011268  0.33409319
   0.66671234  0.33335509  0.33394859
   0.49992207 -0.00007968  0.33408691
   0.66666467  0.83327755  0.33414568
Direct configuration=    30
   0.00417618  0.00281284  0.10476134
   0.35923162  0.00309871  0.10079565
   0.00379911  0.35749268  0.10079850
   0.64942716  0.64765605  0.10078563
   0.32784002  0.32630567  0.10121229
   0.68057871  0.00286596  0.10118411
   0.00398029  0.67904011  0.10117507
   0.00009776  0.50003656  0.33410540
   0.16669739  0.33340119  0.33416869
   0.00003588  0.00001917  0.33399991
   0.16674234  0.83335222  0.33417459
   0.50002253  0.50007004  0.33411110
   0.66669622  0.33335383  0.33396690
   0.49998695 -0.00004233  0.33410445
   0.66664851  0.83330464  0.33416904
Direct configuration=    31
   0.00416973  0.00280596  0.10459588
   0.35925808  0.00307840  0.10079672
   0.00379322  0.35754407  0.10079934
   0.64939688  0.64761822  0.10078667
   0.32786684  0.32634415  0.10121473
   0.68054525  0.00283507  0.10118364
   0.00399210  0.67903920  0.10117410
   0.00008222  0.50005199  0.33412399
   0.16671055  0.33339948  0.33419337
   0.00005508  0.00002422  0.33401242
   0.16669516  0.83331879  0.33419923
   0.50002962  0.50002524  0.33412992
   0.66667927  0.33335250  0.33398615
   0.50005515 -0.00000307  0.33412290
   0.66663153  0.83333312  0.33419360
Direct configuration=    32
   0.00415900  0.00279045  0.10441681
   0.35928553  0.00304917  0.10079966
   0.00379672  0.35760080  0.10080187
   0.64935280  0.64758539  0.10079027
   0.32788154  0.32632100  0.10120994
   0.68057122  0.00286374  0.10117833
   0.00396253  0.67904662  0.10116876
   0.00002685  0.50001545  0.33414891
   0.16671930  0.33341232  0.33421127
   0.00004174  0.00002346  0.33404617
   0.16673019  0.83333074  0.33421666
   0.50005026  0.50001668  0.33415459
   0.66669607  0.33335582  0.33401054
   0.50004865  0.00003707  0.33414760
   0.66663827  0.83331864  0.33421128
Direct configuration=    33
   0.00414228  0.00276629  0.10413789
   0.35932830  0.00300365  0.10080423
   0.00380218  0.35768917  0.10080580
   0.64928412  0.64753426  0.10079587
   0.32790445  0.32628495  0.10120248
   0.68061167  0.00290839  0.10117006
   0.00391648  0.67905818  0.10116045
  -0.00005940  0.49995852  0.33418773
   0.16673293  0.33343232  0.33423915
   0.00002096  0.00002227  0.33409874
   0.16678476  0.83334935  0.33424379
   0.50008240  0.50000335  0.33419301
   0.66672224  0.33336098  0.33404854
   0.50003853  0.00009959  0.33418608
   0.66664878  0.83329607  0.33423884
Direct configuration=    34
   0.00414044  0.00276719  0.10397439
   0.35933691  0.00298603  0.10081059
   0.00381242  0.35770828  0.10081180
   0.64925462  0.64752487  0.10080311
   0.32789708  0.32623186  0.10119045
   0.68065778  0.00296114  0.10115920
   0.00387788  0.67905783  0.10114987
  -0.00001093  0.49997196  0.33421160
   0.16671914  0.33342971  0.33425346
   0.00002738  0.00002281  0.33413727
   0.16678894  0.83336062  0.33425751
   0.50007815  0.50003652  0.33421643
   0.66671879  0.33336080  0.33407427
   0.50001355  0.00005949  0.33420974
   0.66664850  0.83328823  0.33425297
Direct configuration=    35
   0.00413676  0.00276901  0.10364681
   0.35935416  0.00295074  0.10082333
   0.00383294  0.35774655  0.10082381
   0.64919551  0.64750604  0.10081760
   0.32788231  0.32612551  0.10116635
   0.68075017  0.00306681  0.10113745
   0.00380056  0.67905714  0.10112867
   0.00008619  0.49999888  0.33425943
   0.16669151  0.33342449  0.33428214
   0.00004025  0.00002388  0.33421447
   0.16679732  0.83338320  0.33428500
   0.50006965  0.50010300  0.33426333
   0.66671189  0.33336043  0.33412584
   0.49996350 -0.00002086  0.33425712
   0.66664795  0.83327252  0.33428130
Direct configuration=    36
   0.00414314  0.00278176  0.10351992
   0.35933595  0.00295785  0.10083407
   0.00384391  0.35771414  0.10083436
   0.64919770  0.64752507  0.10082914
   0.32788450  0.32611288  0.10114585
   0.68075398  0.00309960  0.10111991
   0.00378261  0.67902391  0.10111172
   0.00009675  0.50003389  0.33427520
   0.16670876  0.33340775  0.33429835
   0.00004920  0.00002668  0.33424273
   0.16674986  0.83335728  0.33430085
   0.50004603  0.50007258  0.33427870
   0.66670555  0.33336067  0.33415164
   0.50000508 -0.00002011  0.33427277
   0.66665766  0.83331339  0.33429744
Direct configuration=    37
   0.00414964  0.00279475  0.10339063
   0.35931740  0.00296510  0.10084501
   0.00385508  0.35768112  0.10084510
   0.64919993  0.64754446  0.10084089
   0.32788672  0.32610002  0.10112497
   0.68075786  0.00313300  0.10110204
   0.00376431  0.67899005  0.10109446
   0.00010751  0.50006956  0.33429128
   0.16672633  0.33339070  0.33431487
   0.00005832  0.00002953  0.33427152
   0.16670151  0.83333087  0.33431699
   0.50002197  0.50004158  0.33429436
   0.66669910  0.33336092  0.33417793
   0.50004744 -0.00001936  0.33428872
   0.66666755  0.83335504  0.33431389
Direct configuration=    38
   0.00415048  0.00279212  0.10325522
   0.35928722  0.00298433  0.10085925
   0.00386241  0.35763297  0.10085923
   0.64922274  0.64757754  0.10085601
   0.32790696  0.32613018  0.10109617
   0.68072583  0.00313727  0.10107795
   0.00376293  0.67894619  0.10107135
   0.00006813  0.50004388  0.33430629
   0.16673164  0.33339874  0.33433779
   0.00004918  0.00002941  0.33429607
   0.16672663  0.83334077  0.33433976
   0.50003680  0.50003533  0.33430900
   0.66671160  0.33336361  0.33420808
   0.50004371  0.00000997  0.33430368
   0.66667442  0.83334504  0.33433682
Direct configuration=    39
   0.00415155  0.00278876  0.10308209
   0.35924864  0.00300893  0.10087745
   0.00387178  0.35757140  0.10087730
   0.64925191  0.64761984  0.10087534
   0.32793283  0.32616874  0.10105934
   0.68068488  0.00314272  0.10104714
   0.00376116  0.67889011  0.10104182
   0.00001778  0.50001105  0.33432548
   0.16673843  0.33340903  0.33436709
   0.00003749  0.00002924  0.33432745
   0.16675874  0.83335342  0.33436889
   0.50005575  0.50002733  0.33432772
   0.66672758  0.33336705  0.33424662
   0.50003894  0.00004745  0.33432280
   0.66668320  0.83333226  0.33436614
Direct configuration=    40
   0.00413463  0.00274938  0.10298571
   0.35924494  0.00302193  0.10088363
   0.00386429  0.35756973  0.10088349
   0.64927046  0.64762980  0.10088198
   0.32794048  0.32620715  0.10103918
   0.68065758  0.00310293  0.10103120
   0.00378050  0.67890334  0.10102677
   0.00006810  0.50000711  0.33433933
   0.16670867  0.33342415  0.33438659
   0.00005280  0.00003044  0.33433859
   0.16677969  0.83337068  0.33438872
   0.50007890  0.50007391  0.33434154
   0.66671443  0.33336489  0.33426343
   0.50001085  0.00001539  0.33433674
   0.66665434  0.83329650  0.33438577
Direct configuration=    41
   0.00413123  0.00274146  0.10296632
   0.35924420  0.00302455  0.10088487
   0.00386279  0.35756939  0.10088473
   0.64927419  0.64763181  0.10088331
   0.32794202  0.32621488  0.10103512
   0.68065209  0.00309493  0.10102799
   0.00378439  0.67890600  0.10102374
   0.00007822  0.50000632  0.33434212
   0.16670268  0.33342719  0.33439052
   0.00005587  0.00003068  0.33434083
   0.16678391  0.83337415  0.33439271
   0.50008356  0.50008327  0.33434432
   0.66671178  0.33336445  0.33426681
   0.50000520  0.00000895  0.33433955
   0.66664853  0.83328931  0.33438972
Direct configuration=    42
   0.00411651  0.00270940  0.10290118
   0.35926617  0.00303298  0.10088308
   0.00384980  0.35759479  0.10088305
   0.64927183  0.64761441  0.10088159
   0.32792359  0.32623130  0.10102428
   0.68064350  0.00304773  0.10102035
   0.00381191  0.67894764  0.10101675
   0.00009426  0.50002988  0.33435623
   0.16671478  0.33341977  0.33440474
   0.00005556  0.00003100  0.33434474
   0.16676774  0.83336453  0.33440750
   0.50006084  0.50007691  0.33435863
   0.66671374  0.33336527  0.33427261
   0.50001167 -0.00000694  0.33435381
   0.66665875  0.83330866  0.33440412
Direct configuration=    43
   0.00410229  0.00267844  0.10283828
   0.35928739  0.00304111  0.10088136
   0.00383726  0.35761932  0.10088143
   0.64926955  0.64759761  0.10087994
   0.32790580  0.32624715  0.10101381
   0.68063522  0.00300217  0.10101298
   0.00383848  0.67898784  0.10101001
   0.00010975  0.50005262  0.33436984
   0.16672645  0.33341260  0.33441847
   0.00005526  0.00003131  0.33434851
   0.16675213  0.83335526  0.33442179
   0.50003890  0.50007077  0.33437245
   0.66671564  0.33336606  0.33427820
   0.50001793 -0.00002228  0.33436758
   0.66666861  0.83332734  0.33441802
Direct configuration=    44
   0.00410732  0.00269132  0.10276360
   0.35932628  0.00305520  0.10087377
   0.00382427  0.35764004  0.10087408
   0.64924018  0.64755520  0.10087214
   0.32786482  0.32623894  0.10100489
   0.68063555  0.00297386  0.10100737
   0.00386792  0.67901317  0.10100508
   0.00006230  0.50002734  0.33438963
   0.16672849  0.33340894  0.33443399
   0.00004910  0.00003222  0.33435369
   0.16676208  0.83336338  0.33443806
   0.50005592  0.50005285  0.33439259
   0.66672467  0.33336833  0.33428235
   0.50002906  0.00001839  0.33438762
   0.66668272  0.83332816  0.33443381
Direct configuration=    45
   0.00410906  0.00269579  0.10273770
   0.35933977  0.00306008  0.10087113
   0.00381976  0.35764723  0.10087153
   0.64922999  0.64754048  0.10086943
   0.32785061  0.32623609  0.10100179
   0.68063567  0.00296404  0.10100542
   0.00387813  0.67902196  0.10100338
   0.00004584  0.50001856  0.33439649
   0.16672919  0.33340766  0.33443937
   0.00004696  0.00003254  0.33435548
   0.16676552  0.83336620  0.33444371
   0.50006182  0.50004663  0.33439957
   0.66672781  0.33336912  0.33428379
   0.50003292  0.00003250  0.33439457
   0.66668761  0.83332845  0.33443929
Direct configuration=    46
   0.00412632  0.00273721  0.10268029
   0.35935442  0.00306463  0.10086170
   0.00381573  0.35764230  0.10086233
   0.64920544  0.64751505  0.10085963
   0.32783296  0.32621872  0.10099581
   0.68063831  0.00297702  0.10100121
   0.00388142  0.67900551  0.10099949
   0.00006598  0.50001246  0.33441292
   0.16671440  0.33342199  0.33445113
   0.00005945  0.00003419  0.33436339
   0.16677509  0.83337034  0.33445592
   0.50008280  0.50006599  0.33441618
   0.66671743  0.33336778  0.33429023
   0.50002851  0.00002716  0.33441118
   0.66666241  0.83330702  0.33445126
Direct configuration=    47
   0.00413087  0.00274813  0.10266516
   0.35935828  0.00306583  0.10085921
   0.00381466  0.35764100  0.10085990
   0.64919896  0.64750834  0.10085704
   0.32782830  0.32621414  0.10099423
   0.68063901  0.00298044  0.10100009
   0.00388229  0.67900117  0.10099847
   0.00007128  0.50001085  0.33441725
   0.16671051  0.33342576  0.33445423
   0.00006275  0.00003462  0.33436547
   0.16677761  0.83337143  0.33445914
   0.50008833  0.50007110  0.33442056
   0.66671470  0.33336742  0.33429193
   0.50002735  0.00002575  0.33441556
   0.66665577  0.83330137  0.33445442
Direct configuration=    48
   0.00413855  0.00277102  0.10260642
   0.35934230  0.00305464  0.10084848
   0.00381304  0.35762646  0.10084937
   0.64920058  0.64751320  0.10084586
   0.32784497  0.32620341  0.10098639
   0.68064204  0.00300994  0.10099311
   0.00386104  0.67897412  0.10099161
   0.00009189  0.50003468  0.33443304
   0.16672807  0.33342575  0.33446727
   0.00005739  0.00003376  0.33437807
   0.16677338  0.83336295  0.33447240
   0.50006041  0.50007348  0.33443638
   0.66672222  0.33336906  0.33430511
   0.50001966 -0.00000038  0.33443152
   0.66666514  0.83331524  0.33446764
Direct configuration=    49
   0.00414218  0.00278184  0.10257865
   0.35933475  0.00304936  0.10084341
   0.00381228  0.35761958  0.10084440
   0.64920134  0.64751549  0.10084058
   0.32785284  0.32619834  0.10098269
   0.68064347  0.00302389  0.10098981
   0.00385099  0.67896134  0.10098837
   0.00010164  0.50004594  0.33444051
   0.16673637  0.33342574  0.33447344
   0.00005486  0.00003335  0.33438403
   0.16677138  0.83335895  0.33447866
   0.50004721  0.50007460  0.33444385
   0.66672577  0.33336984  0.33431133
   0.50001602 -0.00001274  0.33443907
   0.66666957  0.83332180  0.33447388
Direct configuration=    50
   0.00413401  0.00276972  0.10252897
   0.35930658  0.00303044  0.10083520
   0.00381145  0.35761264  0.10083628
   0.64922335  0.64753976  0.10083204
   0.32788316  0.32619790  0.10097294
   0.68064627  0.00304250  0.10098009
   0.00382400  0.67895112  0.10097859
   0.00008585  0.50003975  0.33445263
   0.16673478  0.33341521  0.33448587
   0.00005483  0.00003464  0.33439772
   0.16676643  0.83336350  0.33449107
   0.50005318  0.50006545  0.33445587