   8   8   1   4
  0.4338553E+02  0.5169000E-09  0.5169000E-09  0.1500000E-08  0.5000000E-15
  1.000000000000000E-004
  CAR 
 PDOS                                    
     12.50058389    -21.42693059  301     -3.47723607      1.00000000
    -21.427  0.0000E+00  0.0000E+00
    -21.314  0.0000E+00  0.0000E+00
    -21.201  0.0000E+00  0.0000E+00
    -21.088  0.0000E+00  0.0000E+00
    -20.975  0.0000E+00  0.0000E+00
    -20.861  0.0000E+00  0.0000E+00
    -20.748  0.0000E+00  0.0000E+00
    -20.635  0.0000E+00  0.0000E+00
    -20.522  0.0000E+00  0.0000E+00
    -20.409  0.1038E-13  0.1174E-14
    -20.296  0.5962E-09  0.6743E-10
    -20.183  0.3121E-05  0.3530E-06
    -20.070  0.1606E-02  0.1820E-03
    -19.957  0.9253E-01  0.1065E-01
    -19.844  0.8001E+00  0.1011E+00
    -19.731  0.1757E+01  0.2998E+00
    -19.617  0.2126E+01  0.5403E+00
    -19.504  0.2460E+01  0.8185E+00
    -19.391  0.3252E+01  0.1186E+01
    -19.278  0.4310E+01  0.1674E+01
    -19.165  0.2519E+01  0.1959E+01
    -19.052  0.3580E+00  0.1999E+01
    -18.939  0.8482E-02  0.2000E+01
    -18.826  0.2501E-04  0.2000E+01
    -18.713  0.7306E-08  0.2000E+01
    -18.600  0.1862E-12  0.2000E+01
    -18.487  0.0000E+00  0.2000E+01
    -18.373  0.0000E+00  0.2000E+01
    -18.260  0.0000E+00  0.2000E+01
    -18.147  0.2061E-14  0.2000E+01
    -18.034  0.2223E-09  0.2000E+01
    -17.921  0.1988E-05  0.2000E+01
    -17.808  0.1530E-02  0.2000E+01
    -17.695  0.1121E+00  0.2013E+01
    -17.582  0.1065E+01  0.2133E+01
    -17.469  0.2670E+01  0.2435E+01
    -17.356  0.3193E+01  0.2796E+01
    -17.243  0.2402E+01  0.3068E+01
    -17.129  0.1922E+01  0.3285E+01
    -17.016  0.1970E+01  0.3508E+01
    -16.903  0.1694E+01  0.3700E+01
    -16.790  0.2275E+01  0.3957E+01
    -16.677  0.2517E+01  0.4242E+01
    -16.564  0.2307E+01  0.4503E+01
    -16.451  0.3706E+01  0.4922E+01
    -16.338  0.3322E+01  0.5297E+01
    -16.225  0.2352E+01  0.5563E+01
    -16.112  0.1967E+01  0.5786E+01
    -15.999  0.1399E+01  0.5944E+01
    -15.885  0.4545E+00  0.5995E+01
    -15.772  0.4015E-01  0.6000E+01
    -15.659  0.5172E-03  0.6000E+01
    -15.546  0.7331E-06  0.6000E+01
    -15.433  0.9664E-10  0.6000E+01
    -15.320  0.1087E-14  0.6000E+01
    -15.207  0.0000E+00  0.6000E+01
    -15.094  0.0000E+00  0.6000E+01
    -14.981  0.0000E+00  0.6000E+01
    -14.868  0.0000E+00  0.6000E+01
    -14.755  0.1460E-15  0.6000E+01
    -14.641  0.2500E-10  0.6000E+01
    -14.528  0.3232E-06  0.6000E+01
    -14.415  0.3574E-03  0.6000E+01
    -14.302  0.3741E-01  0.6004E+01
    -14.189  0.4725E+00  0.6058E+01
    -14.076  0.1321E+01  0.6207E+01
    -13.963  0.2521E+01  0.6492E+01
    -13.850  0.2805E+01  0.6809E+01
    -13.737  0.2631E+01  0.7107E+01
    -13.624  0.3095E+01  0.7457E+01
    -13.511  0.3167E+01  0.7815E+01
    -13.397  0.1247E+01  0.7956E+01
    -13.284  0.8313E+00  0.8050E+01
    -13.171  0.1469E+01  0.8216E+01
    -13.058  0.2024E+01  0.8445E+01
    -12.945  0.1217E+01  0.8583E+01
    -12.832  0.4587E+00  0.8635E+01
    -12.719  0.1636E+01  0.8820E+01
    -12.606  0.3184E+01  0.9180E+01
    -12.493  0.1327E+01  0.9330E+01
    -12.380  0.1130E+01  0.9457E+01
    -12.267  0.2057E+01  0.9690E+01
    -12.153  0.1763E+01  0.9889E+01
    -12.040  0.1244E+01  0.1003E+02
    -11.927  0.1558E+01  0.1021E+02
    -11.814  0.8640E+00  0.1030E+02
    -11.701  0.9662E-01  0.1031E+02
    -11.588  0.2833E+00  0.1035E+02
    -11.475  0.1028E+01  0.1046E+02
    -11.362  0.7802E+00  0.1055E+02
    -11.249  0.5345E+00  0.1061E+02
    -11.136  0.2599E+00  0.1064E+02
    -11.022  0.5189E+00  0.1070E+02
    -10.909  0.8166E+00  0.1079E+02
    -10.796  0.2132E+01  0.1103E+02
    -10.683  0.1760E+01  0.1123E+02
    -10.570  0.1793E+01  0.1144E+02
    -10.457  0.1844E+01  0.1164E+02
    -10.344  0.8695E+00  0.1174E+02
    -10.231  0.1914E+01  0.1196E+02
    -10.118  0.2958E+01  0.1229E+02
    -10.005  0.1549E+01  0.1247E+02
     -9.892  0.2333E+01  0.1273E+02
     -9.778  0.2669E+01  0.1303E+02
     -9.665  0.9951E+00  0.1315E+02
     -9.552  0.1575E+01  0.1332E+02
     -9.439  0.2793E+01  0.1364E+02
     -9.326  0.3202E+01  0.1400E+02
     -9.213  0.1552E+01  0.1418E+02
     -9.100  0.1479E+01  0.1435E+02
     -8.987  0.2485E+01  0.1463E+02
     -8.874  0.2327E+01  0.1489E+02
     -8.761  0.2602E+01  0.1518E+02
     -8.648  0.2782E+01  0.1550E+02
     -8.534  0.2983E+01  0.1584E+02
     -8.421  0.2673E+01  0.1614E+02
     -8.308  0.2523E+01  0.1642E+02
     -8.195  0.1732E+01  0.1662E+02
     -8.082  0.2378E+01  0.1689E+02
     -7.969  0.2961E+01  0.1722E+02
     -7.856  0.2875E+01  0.1755E+02
     -7.743  0.4954E+01  0.1811E+02
     -7.630  0.4576E+01  0.1863E+02
     -7.517  0.3787E+01  0.1905E+02
     -7.404  0.2450E+01  0.1933E+02
     -7.290  0.1847E+01  0.1954E+02
     -7.177  0.1488E+01  0.1971E+02
     -7.064  0.2277E+01  0.1997E+02
     -6.951  0.2194E+01  0.2021E+02
     -6.838  0.1168E+01  0.2035E+02
     -6.725  0.1507E+01  0.2052E+02
     -6.612  0.2718E+01  0.2082E+02
     -6.499  0.3922E+01  0.2127E+02
     -6.386  0.7364E+01  0.2210E+02
     -6.273  0.7542E+01  0.2295E+02
     -6.160  0.4552E+01  0.2347E+02
     -6.046  0.3824E+01  0.2390E+02
     -5.933  0.3323E+01  0.2428E+02
     -5.820  0.2104E+01  0.2451E+02
     -5.707  0.1732E+01  0.2471E+02
     -5.594  0.2412E+01  0.2498E+02
     -5.481  0.2845E+01  0.2530E+02
     -5.368  0.3427E+01  0.2569E+02
     -5.255  0.2909E+01  0.2602E+02
     -5.142  0.2588E+01  0.2631E+02
     -5.029  0.3776E+01  0.2674E+02
     -4.916  0.4673E+01  0.2727E+02
     -4.802  0.4374E+01  0.2776E+02
     -4.689  0.5157E+01  0.2835E+02
     -4.576  0.4093E+01  0.2881E+02
     -4.463  0.2487E+01  0.2909E+02
     -4.350  0.2227E+01  0.2934E+02
     -4.237  0.1632E+01  0.2953E+02
     -4.124  0.7935E+00  0.2962E+02
     -4.011  0.1187E+01  0.2975E+02
     -3.898  0.1190E+01  0.2989E+02
     -3.785  0.7779E+00  0.2997E+02
     -3.672  0.2156E+00  0.3000E+02
     -3.558  0.1469E-01  0.3000E+02
     -3.445  0.1543E-03  0.3000E+02
     -3.332  0.3784E-02  0.3000E+02
     -3.219  0.1380E+00  0.3002E+02
     -3.106  0.6936E+00  0.3009E+02
     -2.993  0.9024E+00  0.3020E+02
     -2.880  0.1826E+01  0.3040E+02
     -2.767  0.2773E+01  0.3072E+02
     -2.654  0.1927E+01  0.3093E+02
     -2.541  0.1919E+01  0.3115E+02
     -2.428  0.2119E+01  0.3139E+02
     -2.314  0.2031E+01  0.3162E+02
     -2.201  0.9798E+00  0.3173E+02
     -2.088  0.5312E+00  0.3179E+02
     -1.975  0.5832E+00  0.3186E+02
     -1.862  0.3922E+00  0.3190E+02
     -1.749  0.4034E+00  0.3195E+02
     -1.636  0.4069E+00  0.3199E+02
     -1.523  0.5412E-01  0.3200E+02
     -1.410  0.7582E-03  0.3200E+02
     -1.297  0.1213E-04  0.3200E+02
     -1.184  0.3943E-02  0.3200E+02
     -1.070  0.1326E+00  0.3202E+02
     -0.957  0.4979E+00  0.3207E+02
     -0.844  0.3199E+00  0.3211E+02
     -0.731  0.4755E+00  0.3216E+02
     -0.618  0.3013E+00  0.3220E+02
     -0.505  0.1070E+00  0.3221E+02
     -0.392  0.1103E+01  0.3233E+02
     -0.279  0.2230E+01  0.3258E+02
     -0.166  0.1864E+01  0.3280E+02
     -0.053  0.2124E+01  0.3304E+02
      0.060  0.2194E+01  0.3328E+02
      0.174  0.2330E+01  0.3355E+02
      0.287  0.2183E+01  0.3379E+02
      0.400  0.1069E+01  0.3392E+02
      0.513  0.6709E+00  0.3399E+02
      0.626  0.1648E+01  0.3418E+02
      0.739  0.1680E+01  0.3437E+02
      0.852  0.1163E+01  0.3450E+02
      0.965  0.1555E+01  0.3467E+02
      1.078  0.1664E+01  0.3486E+02
      1.191  0.1837E+01  0.3507E+02
      1.305  0.2833E+01  0.3539E+02
      1.418  0.1777E+01  0.3559E+02
      1.531  0.1314E+01  0.3574E+02
      1.644  0.3247E+01  0.3611E+02
      1.757  0.2706E+01  0.3641E+02
      1.870  0.1559E+01  0.3659E+02
      1.983  0.3109E+01  0.3694E+02
      2.096  0.4192E+01  0.3742E+02
      2.209  0.2810E+01  0.3773E+02
      2.322  0.2394E+01  0.3800E+02
      2.435  0.3857E+01  0.3844E+02
      2.549  0.4884E+01  0.3899E+02
      2.662  0.3664E+01  0.3941E+02
      2.775  0.3998E+01  0.3986E+02
      2.888  0.2725E+01  0.4017E+02
      3.001  0.4235E+01  0.4065E+02
      3.114  0.5233E+01  0.4124E+02
      3.227  0.3328E+01  0.4161E+02
      3.340  0.2276E+01  0.4187E+02
      3.453  0.4190E+01  0.4235E+02
      3.566  0.5086E+01  0.4292E+02
      3.679  0.2790E+01  0.4324E+02
      3.793  0.3310E+01  0.4361E+02
      3.906  0.4736E+01  0.4415E+02
      4.019  0.4930E+01  0.4470E+02
      4.132  0.3388E+01  0.4509E+02
      4.245  0.2476E+01  0.4537E+02
      4.358  0.2902E+01  0.4570E+02
      4.471  0.4613E+01  0.4622E+02
      4.584  0.5742E+01  0.4687E+02
      4.697  0.6240E+01  0.4757E+02
      4.810  0.4978E+01  0.4814E+02
      4.923  0.5062E+01  0.4871E+02
      5.037  0.4699E+01  0.4924E+02
      5.150  0.4730E+01  0.4977E+02
      5.263  0.8796E+01  0.5077E+02
      5.376  0.8561E+01  0.5174E+02
      5.489  0.6786E+01  0.5250E+02
      5.602  0.7517E+01  0.5335E+02
      5.715  0.6596E+01  0.5410E+02
      5.828  0.7064E+01  0.5490E+02
      5.941  0.7468E+01  0.5574E+02
      6.054  0.7306E+01  0.5657E+02
      6.167  0.7076E+01  0.5737E+02
      6.281  0.5746E+01  0.5802E+02
      6.394  0.8691E+01  0.5900E+02
      6.507  0.8375E+01  0.5995E+02
      6.620  0.7505E+01  0.6080E+02
      6.733  0.7009E+01  0.6159E+02
      6.846  0.8176E+01  0.6252E+02
      6.959  0.9230E+01  0.6356E+02
      7.072  0.9699E+01  0.6466E+02
      7.185  0.9864E+01  0.6577E+02
      7.298  0.9065E+01  0.6680E+02
      7.411  0.7709E+01  0.6767E+02
      7.525  0.6281E+01  0.6838E+02
      7.638  0.8181E+01  0.6931E+02
      7.751  0.7788E+01  0.7019E+02
      7.864  0.9754E+01  0.7129E+02
      7.977  0.1013E+02  0.7244E+02
      8.090  0.9799E+01  0.7354E+02
      8.203  0.8448E+01  0.7450E+02
      8.316  0.6909E+01  0.7528E+02
      8.429  0.5706E+01  0.7593E+02
      8.542  0.9480E+01  0.7700E+02
      8.655  0.1064E+02  0.7820E+02
      8.769  0.6953E+01  0.7899E+02
      8.882  0.6609E+01  0.7973E+02
      8.995  0.6474E+01  0.8047E+02
      9.108  0.7851E+01  0.8135E+02
      9.221  0.8828E+01  0.8235E+02
      9.334  0.9022E+01  0.8337E+02
      9.447  0.9375E+01  0.8443E+02
      9.560  0.9211E+01  0.8548E+02
      9.673  0.1016E+02  0.8662E+02
      9.786  0.1128E+02  0.8790E+02
      9.899  0.9263E+01  0.8895E+02
     10.013  0.8722E+01  0.8993E+02
     10.126  0.6950E+01  0.9072E+02
     10.239  0.7116E+01  0.9152E+02
     10.352  0.6252E+01  0.9223E+02
     10.465  0.5540E+01  0.9286E+02
     10.578  0.7117E+01  0.9366E+02
     10.691  0.7207E+01  0.9448E+02
     10.804  0.6041E+01  0.9516E+02
     10.917  0.4499E+01  0.9567E+02
     11.030  0.2462E+01  0.9595E+02
     11.143  0.4505E+00  0.9600E+02
     11.257  0.1114E-01  0.9600E+02
     11.370  0.2776E-04  0.9600E+02
     11.483  0.6211E-08  0.9600E+02
     11.596  0.1180E-12  0.9600E+02
     11.709  0.0000E+00  0.9600E+02
     11.822  0.0000E+00  0.9600E+02
     11.935  0.0000E+00  0.9600E+02
     12.048  0.0000E+00  0.9600E+02
     12.161  0.0000E+00  0.9600E+02
     12.274  0.0000E+00  0.9600E+02
     12.387  0.0000E+00  0.9600E+02
     12.501  0.0000E+00  0.9600E+02
     12.50058389    -21.42693059  301     -3.47723607      1.00000000
    -21.427  0.0000E+00  0.0000E+00  0.0000E+00  0.0000E+00  0.0000E+00  0.0000E+00  0.0000E+00  0.0000E+00  0.0000E+00
    -21.314  0.0000E+00  0.0000E+00  0.0000E+00  0.0000E+00  0.0000E+00  0.0000E+00  0.0000E+00  0.0000E+00  0.0000E+00
    -21.201  0.0000E+00  0.0000E+00  0.0000E+00  0.0000E+00  0.0000E+00  0.0000E+00  0.0000E+00  0.0000E+00  0.0000E+00
    -21.088  0.0000E+00  0.0000E+00  0.0000E+00  0.0000E+00  0.0000E+00  0.0000E+00  0.0000E+00  0.0000E+00  0.0000E+00
    -20.975  0.0000E+00  0.0000E+00  0.0000E+00  0.0000E+00  0.0000E+00  0.0000E+00  0.0000E+00  0.0000E+00  0.0000E+00
    -20.861  0.0000E+00  0.0000E+00  0.0000E+00  0.0000E+00  0.0000E+00  0.0000E+00  0.0000E+00  0.0000E+00  0.0000E+00
    -20.748  0.0000E+00  0.0000E+00  0.0000E+00  0.0000E+00  0.0000E+00  0.0000E+00  0.0000E+00  0.0000E+00  0.0000E+00
    -20.635  0.0000E+00  0.0000E+00  0.0000E+00  0.0000E+00  0.0000E+00  0.0000E+00  0.0000E+00  0.0000E+00  0.0000E+00
    -20.522  0.0000E+00  0.0000E+00  0.0000E+00  0.0000E+00  0.0000E+00  0.0000E+00  0.0000E+00  0.0000E+00  0.0000E+00
    -20.409  0.2898E-15  0.2846E-18  0.5823E-30  0.2846E-18  0.0000E+00  0.0000E+00  0.0000E+00  0.0000E+00  0.0000E+00
    -20.296  0.1657E-10  0.2944E-13  0.3687E-25  0.2944E-13  0.0000E+00  0.0000E+00  0.0000E+00  0.0000E+00  0.0000E+00
    -20.183  0.8629E-07  0.2514E-09  0.2174E-21  0.2514E-09  0.0000E+00  0.0000E+00  0.0000E+00  0.0000E+00  0.0000E+00
    -20.070  0.4409E-04  0.1956E-06  0.1251E-18  0.1956E-06  0.0000E+00  0.0000E+00  0.0000E+00  0.0000E+00  0.0000E+00
    -19.957  0.2510E-02  0.1756E-04  0.7673E-17  0.1755E-04  0.0000E+00  0.0000E+00  0.0000E+00  0.0000E+00  0.0000E+00
    -19.844  0.2110E-01  0.2753E-03  0.6505E-16  0.2753E-03  0.0000E+00  0.0000E+00  0.0000E+00  0.0000E+00  0.0000E+00
    -19.731  0.4318E-01  0.1229E-02  0.1531E-15  0.1229E-02  0.0000E+00  0.0000E+00  0.0000E+00  0.0000E+00  0.0000E+00
    -19.617  0.4523E-01  0.2840E-02  0.2389E-15  0.2839E-02  0.0000E+00  0.0000E+00  0.0000E+00  0.0000E+00  0.0000E+00
    -19.504  0.4129E-01  0.5272E-02  0.2649E-15  0.5271E-02  0.0000E+00  0.0000E+00  0.0000E+00  0.0000E+00  0.0000E+00
    -19.391  0.3677E-01  0.9938E-02  0.2241E-15  0.9937E-02  0.0000E+00  0.0000E+00  0.0000E+00  0.0000E+00  0.0000E+00
    -19.278  0.2812E-01  0.1641E-01  0.1722E-15  0.1641E-01  0.0000E+00  0.0000E+00  0.0000E+00  0.0000E+00  0.0000E+00
    -19.165  0.9727E-02  0.1059E-01  0.1163E-15  0.1059E-01  0.0000E+00  0.0000E+00  0.0000E+00  0.0000E+00  0.0000E+00
    -19.052  0.8460E-03  0.1582E-02  0.2568E-16  0.1583E-02  0.0000E+00  0.0000E+00  0.0000E+00  0.0000E+00  0.0000E+00
    -18.939  0.1205E-04  0.3862E-04  0.8417E-18  0.3862E-04  0.0000E+00  0.0000E+00  0.0000E+00  0.0000E+00  0.0000E+00
    -18.826  0.2283E-07  0.1156E-06  0.2900E-20  0.1156E-06  0.0000E+00  0.0000E+00  0.0000E+00  0.0000E+00  0.0000E+00
    -18.713  0.5165E-11  0.3399E-10  0.8986E-24  0.3399E-10  0.0000E+00  0.0000E+00  0.0000E+00  0.0000E+00  0.0000E+00
    -18.600  0.1182E-15  0.8680E-15  0.2336E-28  0.8681E-15  0.0000E+00  0.0000E+00  0.0000E+00  0.0000E+00  0.0000E+00
    -18.487  0.0000E+00  0.0000E+00  0.0000E+00  0.0000E+00  0.0000E+00  0.0000E+00  0.0000E+00  0.0000E+00  0.0000E+00
    -18.373  0.0000E+00  0.0000E+00  0.0000E+00  0.0000E+00  0.0000E+00  0.0000E+00  0.0000E+00  0.0000E+00  0.0000E+00
    -18.260  0.0000E+00  0.0000E+00  0.0000E+00  0.0000E+00  0.0000E+00  0.0000E+00  0.0000E+00  0.0000E+00  0.0000E+00
    -18.147  0.1024E-15  0.4772E-17  0.5730E-31  0.4833E-17  0.0000E+00  0.0000E+00  0.0000E+00  0.0000E+00  0.0000E+00
    -18.034  0.1104E-10  0.5163E-12  0.6144E-26  0.5194E-12  0.0000E+00  0.0000E+00  0.0000E+00  0.0000E+00  0.0000E+00
    -17.921  0.9871E-07  0.4619E-08  0.5453E-22  0.4639E-08  0.0000E+00  0.0000E+00  0.0000E+00  0.0000E+00  0.0000E+00
    -17.808  0.7591E-04  0.3560E-05  0.4170E-19  0.3570E-05  0.0000E+00  0.0000E+00  0.0000E+00  0.0000E+00  0.0000E+00
    -17.695  0.5543E-02  0.2638E-03  0.3063E-17  0.2642E-03  0.0000E+00  0.0000E+00  0.0000E+00  0.0000E+00  0.0000E+00
    -17.582  0.5177E-01  0.2681E-02  0.3048E-16  0.2682E-02  0.0000E+00  0.0000E+00  0.0000E+00  0.0000E+00  0.0000E+00
    -17.469  0.1236E+00  0.7930E-02  0.8770E-16  0.7928E-02  0.0000E+00  0.0000E+00  0.0000E+00  0.0000E+00  0.0000E+00
    -17.356  0.1379E+00  0.1124E-01  0.1284E-15  0.1123E-01  0.0000E+00  0.0000E+00  0.0000E+00  0.0000E+00  0.0000E+00
    -17.243  0.9514E-01  0.9508E-02  0.1007E-15  0.9509E-02  0.0000E+00  0.0000E+00  0.0000E+00  0.0000E+00  0.0000E+00
    -17.129  0.6709E-01  0.9200E-02  0.1088E-15  0.9201E-02  0.0000E+00  0.0000E+00  0.0000E+00  0.0000E+00  0.0000E+00
    -17.016  0.6262E-01  0.1076E-01  0.9356E-16  0.1075E-01  0.0000E+00  0.0000E+00  0.0000E+00  0.0000E+00  0.0000E+00
    -16.903  0.4712E-01  0.1060E-01  0.3826E-16  0.1061E-01  0.0000E+00  0.0000E+00  0.0000E+00  0.0000E+00  0.0000E+00
    -16.790  0.5138E-01  0.1718E-01  0.4474E-16  0.1718E-01  0.0000E+00  0.0000E+00  0.0000E+00  0.0000E+00  0.0000E+00
    -16.677  0.5147E-01  0.1942E-01  0.6933E-16  0.1942E-01  0.0000E+00  0.0000E+00  0.0000E+00  0.0000E+00  0.0000E+00
    -16.564  0.2793E-01  0.2219E-01  0.3485E-16  0.2220E-01  0.0000E+00  0.0000E+00  0.0000E+00  0.0000E+00  0.0000E+00
    -16.451  0.3117E-01  0.3734E-01  0.4445E-16  0.3734E-01  0.0000E+00  0.0000E+00  0.0000E+00  0.0000E+00  0.0000E+00
    -16.338  0.1867E-01  0.3347E-01  0.3549E-16  0.3347E-01  0.0000E+00  0.0000E+00  0.0000E+00  0.0000E+00  0.0000E+00
    -16.225  0.8386E-02  0.2313E-01  0.1489E-16  0.2313E-01  0.0000E+00  0.0000E+00  0.0000E+00  0.0000E+00  0.0000E+00
    -16.112  0.4400E-02  0.1708E-01  0.8560E-17  0.1708E-01  0.0000E+00  0.0000E+00  0.0000E+00  0.0000E+00  0.0000E+00
    -15.999  0.1983E-02  0.1115E-01  0.5511E-17  0.1114E-01  0.0000E+00  0.0000E+00  0.0000E+00  0.0000E+00  0.0000E+00
    -15.885  0.1371E-03  0.3406E-02  0.1590E-17  0.3400E-02  0.0000E+00  0.0000E+00  0.0000E+00  0.0000E+00  0.0000E+00
    -15.772  0.9626E-06  0.2901E-03  0.1304E-18  0.2890E-03  0.0000E+00  0.0000E+00  0.0000E+00  0.0000E+00  0.0000E+00
    -15.659  0.6032E-09  0.3650E-05  0.1607E-20  0.3626E-05  0.0000E+00  0.0000E+00  0.0000E+00  0.0000E+00  0.0000E+00
    -15.546  0.3180E-13  0.5114E-08  0.2226E-23  0.5063E-08  0.0000E+00  0.0000E+00  0.0000E+00  0.0000E+00  0.0000E+00
    -15.433  0.3766E-20  0.6716E-12  0.2904E-27  0.6626E-12  0.0000E+00  0.0000E+00  0.0000E+00  0.0000E+00  0.0000E+00
    -15.320  0.5870E-27  0.7594E-17  0.3240E-32  0.7371E-17  0.0000E+00  0.0000E+00  0.0000E+00  0.0000E+00  0.0000E+00
    -15.207  0.0000E+00  0.0000E+00  0.0000E+00  0.0000E+00  0.0000E+00  0.0000E+00  0.0000E+00  0.0000E+00  0.0000E+00
    -15.094  0.0000E+00  0.0000E+00  0.0000E+00  0.0000E+00  0.0000E+00  0.0000E+00  0.0000E+00  0.0000E+00  0.0000E+00
    -14.981  0.0000E+00  0.0000E+00  0.0000E+00  0.0000E+00  0.0000E+00  0.0000E+00  0.0000E+00  0.0000E+00  0.0000E+00
    -14.868  0.0000E+00  0.0000E+00  0.0000E+00  0.0000E+00  0.0000E+00  0.0000E+00  0.0000E+00  0.0000E+00  0.0000E+00
    -14.755  0.1328E-16  0.1082E-18  0.2896E-33  0.1082E-18  0.0000E+00  0.0000E+00  0.0000E+00  0.0000E+00  0.0000E+00
    -14.641  0.2273E-11  0.1859E-13  0.4960E-28  0.1855E-13  0.0000E+00  0.0000E+00  0.0000E+00  0.0000E+00  0.0000E+00
    -14.528  0.2938E-07  0.2425E-09  0.6405E-24  0.2421E-09  0.0000E+00  0.0000E+00  0.0000E+00  0.0000E+00  0.0000E+00
    -14.415  0.3245E-04  0.2786E-06  0.7047E-21  0.2783E-06  0.0000E+00  0.0000E+00  0.0000E+00  0.0000E+00  0.0000E+00
    -14.302  0.3383E-02  0.3343E-04  0.7242E-19  0.3342E-04  0.0000E+00  0.0000E+00  0.0000E+00  0.0000E+00  0.0000E+00
    -14.189  0.4215E-01  0.5915E-03  0.8632E-18  0.5913E-03  0.0000E+00  0.0000E+00  0.0000E+00  0.0000E+00  0.0000E+00
    -14.076  0.1125E+00  0.2866E-02  0.2186E-17  0.2866E-02  0.0000E+00  0.0000E+00  0.0000E+00  0.0000E+00  0.0000E+00
    -13.963  0.1993E+00  0.8646E-02  0.5442E-17  0.8646E-02  0.0000E+00  0.0000E+00  0.0000E+00  0.0000E+00  0.0000E+00
    -13.850  0.1974E+00  0.1626E-01  0.1179E-16  0.1626E-01  0.0000E+00  0.0000E+00  0.0000E+00  0.0000E+00  0.0000E+00
    -13.737  0.1380E+00  0.2868E-01  0.1406E-16  0.2868E-01  0.0000E+00  0.0000E+00  0.0000E+00  0.0000E+00  0.0000E+00
    -13.624  0.1467E+00  0.3494E-01  0.1346E-16  0.3494E-01  0.0000E+00  0.0000E+00  0.0000E+00  0.0000E+00  0.0000E+00
    -13.511  0.1650E+00  0.2847E-01  0.1397E-16  0.2848E-01  0.0000E+00  0.0000E+00  0.0000E+00  0.0000E+00  0.0000E+00
    -13.397  0.3991E-01  0.1922E-01  0.4446E-17  0.1922E-01  0.0000E+00  0.0000E+00  0.0000E+00  0.0000E+00  0.0000E+00
    -13.284  0.1817E-01  0.1479E-01  0.2013E-17  0.1479E-01  0.0000E+00  0.0000E+00  0.0000E+00  0.0000E+00  0.0000E+00
    -13.171  0.4469E-01  0.2042E-01  0.5452E-17  0.2042E-01  0.0000E+00  0.0000E+00  0.0000E+00  0.0000E+00  0.0000E+00
    -13.058  0.5451E-01  0.3127E-01  0.1181E-16  0.3127E-01  0.0000E+00  0.0000E+00  0.0000E+00  0.0000E+00  0.0000E+00
    -12.945  0.3000E-01  0.2065E-01  0.6641E-17  0.2064E-01  0.0000E+00  0.0000E+00  0.0000E+00  0.0000E+00  0.0000E+00
    -12.832  0.7518E-02  0.8492E-02  0.1279E-17  0.8489E-02  0.0000E+00  0.0000E+00  0.0000E+00  0.0000E+00  0.0000E+00
    -12.719  0.3075E-01  0.2668E-01  0.3940E-17  0.2669E-01  0.0000E+00  0.0000E+00  0.0000E+00  0.0000E+00  0.0000E+00
    -12.606  0.8549E-01  0.4501E-01  0.9032E-17  0.4500E-01  0.0000E+00  0.0000E+00  0.0000E+00  0.0000E+00  0.0000E+00
    -12.493  0.5521E-01  0.1486E-01  0.3601E-17  0.1486E-01  0.0000E+00  0.0000E+00  0.0000E+00  0.0000E+00  0.0000E+00
    -12.380  0.7416E-01  0.8090E-02  0.2042E-17  0.8092E-02  0.0000E+00  0.0000E+00  0.0000E+00  0.0000E+00  0.0000E+00
    -12.267  0.6438E-01  0.2459E-01  0.1813E-17  0.2459E-01  0.0000E+00  0.0000E+00  0.0000E+00  0.0000E+00  0.0000E+00
    -12.153  0.3782E-01  0.2465E-01  0.1195E-17  0.2465E-01  0.0000E+00  0.0000E+00  0.0000E+00  0.0000E+00  0.0000E+00
    -12.040  0.7084E-01  0.1164E-01  0.6721E-18  0.1164E-01  0.0000E+00  0.0000E+00  0.0000E+00  0.0000E+00  0.0000E+00
    -11.927  0.7733E-01  0.1538E-01  0.6280E-18  0.1538E-01  0.0000E+00  0.0000E+00  0.0000E+00  0.0000E+00  0.0000E+00
    -11.814  0.2828E-01  0.1036E-01  0.3009E-18  0.1035E-01  0.0000E+00  0.0000E+00  0.0000E+00  0.0000E+00  0.0000E+00
    -11.701  0.2332E-02  0.1282E-02  0.6109E-19  0.1281E-02  0.0000E+00  0.0000E+00  0.0000E+00  0.0000E+00  0.0000E+00
    -11.588  0.2476E-01  0.2052E-02  0.1132E-17  0.2053E-02  0.0000E+00  0.0000E+00  0.0000E+00  0.0000E+00  0.0000E+00
    -11.475  0.9047E-01  0.7403E-02  0.4018E-17  0.7403E-02  0.0000E+00  0.0000E+00  0.0000E+00  0.0000E+00  0.0000E+00
    -11.362  0.7233E-01  0.5424E-02  0.1915E-17  0.5422E-02  0.0000E+00  0.0000E+00  0.0000E+00  0.0000E+00  0.0000E+00
    -11.249  0.5866E-01  0.3175E-02  0.7036E-18  0.3174E-02  0.0000E+00  0.0000E+00  0.0000E+00  0.0000E+00  0.0000E+00
    -11.136  0.4263E-01  0.1008E-02  0.1731E-17  0.1007E-02  0.0000E+00  0.0000E+00  0.0000E+00  0.0000E+00  0.0000E+00
    -11.022  0.9365E-01  0.2308E-02  0.5120E-17  0.2308E-02  0.0000E+00  0.0000E+00  0.0000E+00  0.0000E+00  0.0000E+00
    -10.909  0.8132E-01  0.9147E-02  0.3382E-17  0.9150E-02  0.0000E+00  0.0000E+00  0.0000E+00  0.0000E+00  0.0000E+00
    -10.796  0.1392E+00  0.3192E-01  0.3383E-17  0.3192E-01  0.0000E+00  0.0000E+00  0.0000E+00  0.0000E+00  0.0000E+00
    -10.683  0.1572E+00  0.2497E-01  0.3440E-17  0.2496E-01  0.0000E+00  0.0000E+00  0.0000E+00  0.0000E+00  0.0000E+00
    -10.570  0.1421E+00  0.3023E-01  0.2872E-17  0.3023E-01  0.0000E+00  0.0000E+00  0.0000E+00  0.0000E+00  0.0000E+00
    -10.457  0.7808E-01  0.4067E-01  0.1797E-17  0.4067E-01  0.0000E+00  0.0000E+00  0.0000E+00  0.0000E+00  0.0000E+00
    -10.344  0.1685E-01  0.2073E-01  0.6072E-18  0.2073E-01  0.0000E+00  0.0000E+00  0.0000E+00  0.0000E+00  0.0000E+00
    -10.231  0.7302E-01  0.3912E-01  0.2493E-17  0.3911E-01  0.0000E+00  0.0000E+00  0.0000E+00  0.0000E+00  0.0000E+00
    -10.118  0.1936E+00  0.5543E-01  0.5541E-17  0.5543E-01  0.0000E+00  0.0000E+00  0.0000E+00  0.0000E+00  0.0000E+00
    -10.005  0.1335E+00  0.2341E-01  0.3226E-17  0.2341E-01  0.0000E+00  0.0000E+00  0.0000E+00  0.0000E+00  0.0000E+00
     -9.892  0.1312E+00  0.2447E-01  0.1392E-17  0.2447E-01  0.0000E+00  0.0000E+00  0.0000E+00  0.0000E+00  0.0000E+00
     -9.778  0.1464E+00  0.2673E-01  0.2281E-17  0.2673E-01  0.0000E+00  0.0000E+00  0.0000E+00  0.0000E+00  0.0000E+00
     -9.665  0.6631E-01  0.8354E-02  0.1084E-17  0.8357E-02  0.0000E+00  0.0000E+00  0.0000E+00  0.0000E+00  0.0000E+00
     -9.552  0.1063E+00  0.1748E-01  0.2831E-17  0.1748E-01  0.0000E+00  0.0000E+00  0.0000E+00  0.0000E+00  0.0000E+00
     -9.439  0.1438E+00  0.3843E-01  0.5151E-17  0.3843E-01  0.0000E+00  0.0000E+00  0.0000E+00  0.0000E+00  0.0000E+00
     -9.326  0.1989E+00  0.4112E-01  0.4024E-17  0.4113E-01  0.0000E+00  0.0000E+00  0.0000E+00  0.0000E+00  0.0000E+00
     -9.213  0.1090E+00  0.1670E-01  0.2959E-15  0.1670E-01  0.0000E+00  0.0000E+00  0.0000E+00  0.0000E+00  0.0000E+00
     -9.100  0.5990E-01  0.2333E-01  0.1529E-10  0.2332E-01  0.0000E+00  0.0000E+00  0.0000E+00  0.0000E+00  0.0000E+00
     -8.987  0.5414E-01  0.4816E-01  0.7120E-07  0.4817E-01  0.0000E+00  0.0000E+00  0.0000E+00  0.0000E+00  0.0000E+00
     -8.874  0.8438E-01  0.4760E-01  0.3383E-04  0.4759E-01  0.0000E+00  0.0000E+00  0.0000E+00  0.0000E+00  0.0000E+00
     -8.761  0.1474E+00  0.5047E-01  0.1936E-02  0.5047E-01  0.0000E+00  0.0000E+00  0.0000E+00  0.0000E+00  0.0000E+00
     -8.648  0.9345E-01  0.2481E-01  0.1636E-01  0.2482E-01  0.0000E+00  0.0000E+00  0.0000E+00  0.0000E+00  0.0000E+00
     -8.534  0.5405E-01  0.2115E-01  0.3481E-01  0.2115E-01  0.0000E+00  0.0000E+00  0.0000E+00  0.0000E+00  0.0000E+00
     -8.421  0.4255E-01  0.1864E-01  0.3628E-01  0.1864E-01  0.0000E+00  0.0000E+00  0.0000E+00  0.0000E+00  0.0000E+00
     -8.308  0.6603E-01  0.1745E-01  0.3943E-01  0.1744E-01  0.0000E+00  0.0000E+00  0.0000E+00  0.0000E+00  0.0000E+00
     -8.195  0.3469E-01  0.1085E-01  0.3238E-01  0.1087E-01  0.0000E+00  0.0000E+00  0.0000E+00  0.0000E+00  0.0000E+00
     -8.082  0.4264E-01  0.3813E-01  0.3675E-01  0.3819E-01  0.0000E+00  0.0000E+00  0.0000E+00  0.0000E+00  0.0000E+00
     -7.969  0.7079E-01  0.6274E-01  0.3437E-01  0.6271E-01  0.0000E+00  0.0000E+00  0.0000E+00  0.0000E+00  0.0000E+00
     -7.856  0.8194E-01  0.4515E-01  0.2608E-01  0.4514E-01  0.0000E+00  0.0000E+00  0.0000E+00  0.0000E+00  0.0000E+00
     -7.743  0.1279E+00  0.8061E-01  0.3637E-01  0.8064E-01  0.0000E+00  0.0000E+00  0.0000E+00  0.0000E+00  0.0000E+00
     -7.630  0.9905E-01  0.9333E-01  0.2465E-01  0.9333E-01  0.0000E+00  0.0000E+00  0.0000E+00  0.0000E+00  0.0000E+00
     -7.517  0.7522E-01  0.4453E-01  0.2149E-01  0.4449E-01  0.0000E+00  0.0000E+00  0.0000E+00  0.0000E+00  0.0000E+00
     -7.404  0.4310E-01  0.4194E-01  0.9475E-02  0.4195E-01  0.0000E+00  0.0000E+00  0.0000E+00  0.0000E+00  0.0000E+00
     -7.290  0.1989E-01  0.7867E-01  0.1129E-02  0.7868E-01  0.0000E+00  0.0000E+00  0.0000E+00  0.0000E+00  0.0000E+00
     -7.177  0.1068E-01  0.9261E-01  0.7310E-04  0.9261E-01  0.0000E+00  0.0000E+00  0.0000E+00  0.0000E+00  0.0000E+00
     -7.064  0.3258E-01  0.1261E+00  0.8363E-06  0.1261E+00  0.0000E+00  0.0000E+00  0.0000E+00  0.0000E+00  0.0000E+00
     -6.951  0.3872E-01  0.1188E+00  0.2354E-07  0.1188E+00  0.0000E+00  0.0000E+00  0.0000E+00  0.0000E+00  0.0000E+00
     -6.838  0.2165E-01  0.6378E-01  0.2427E-04  0.6378E-01  0.0000E+00  0.0000E+00  0.0000E+00  0.0000E+00  0.0000E+00
     -6.725  0.1075E-01  0.8047E-01  0.2511E-02  0.8048E-01  0.0000E+00  0.0000E+00  0.0000E+00  0.0000E+00  0.0000E+00
     -6.612  0.1595E-01  0.1171E+00  0.2976E-01  0.1171E+00  0.0000E+00  0.0000E+00  0.0000E+00  0.0000E+00  0.0000E+00
     -6.499  0.3037E-01  0.1476E+00  0.6040E-01  0.1476E+00  0.0000E+00  0.0000E+00  0.0000E+00  0.0000E+00  0.0000E+00
     -6.386  0.3085E-01  0.3245E+00  0.8401E-01  0.3245E+00  0.0000E+00  0.0000E+00  0.0000E+00  0.0000E+00  0.0000E+00
     -6.273  0.2487E-01  0.3149E+00  0.9602E-01  0.3147E+00  0.0000E+00  0.0000E+00  0.0000E+00  0.0000E+00  0.0000E+00
     -6.160  0.1097E-01  0.1652E+00  0.5749E-01  0.1652E+00  0.0000E+00  0.0000E+00  0.0000E+00  0.0000E+00  0.0000E+00
     -6.046  0.2544E-01  0.1155E+00  0.5421E-01  0.1154E+00  0.0000E+00  0.0000E+00  0.0000E+00  0.0000E+00  0.0000E+00
     -5.933  0.3808E-01  0.1081E+00  0.4825E-01  0.1081E+00  0.0000E+00  0.0000E+00  0.0000E+00  0.0000E+00  0.0000E+00
     -5.820  0.1022E-01  0.3213E-01  0.5325E-01  0.3213E-01  0.0000E+00  0.0000E+00  0.0000E+00  0.0000E+00  0.0000E+00
     -5.707  0.5369E-02  0.2139E-01  0.4563E-01  0.2140E-01  0.0000E+00  0.0000E+00  0.0000E+00  0.0000E+00  0.0000E+00
     -5.594  0.2241E-01  0.7312E-01  0.2890E-01  0.7314E-01  0.0000E+00  0.0000E+00  0.0000E+00  0.0000E+00  0.0000E+00
     -5.481  0.2287E-01  0.8531E-01  0.3701E-01  0.8531E-01  0.0000E+00  0.0000E+00  0.0000E+00  0.0000E+00  0.0000E+00
     -5.368  0.1797E-01  0.9219E-01  0.5474E-01  0.9219E-01  0.0000E+00  0.0000E+00  0.0000E+00  0.0000E+00  0.0000E+00
     -5.255  0.9049E-02  0.4458E-01  0.5291E-01  0.4458E-01  0.0000E+00  0.0000E+00  0.0000E+00  0.0000E+00  0.0000E+00
     -5.142  0.1369E-01  0.1053E+00  0.1801E-01  0.1053E+00  0.0000E+00  0.0000E+00  0.0000E+00  0.0000E+00  0.0000E+00
     -5.029  0.1188E-01  0.1383E+00  0.2720E-01  0.1383E+00  0.0000E+00  0.0000E+00  0.0000E+00  0.0000E+00  0.0000E+00
     -4.916  0.6060E-02  0.1185E+00  0.4019E-01  0.1185E+00  0.0000E+00  0.0000E+00  0.0000E+00  0.0000E+00  0.0000E+00
     -4.802  0.1284E-01  0.9876E-01  0.2733E-01  0.9879E-01  0.0000E+00  0.0000E+00  0.0000E+00  0.0000E+00  0.0000E+00
     -4.689  0.8594E-02  0.1342E+00  0.1421E-01  0.1342E+00  0.0000E+00  0.0000E+00  0.0000E+00  0.0000E+00  0.0000E+00
     -4.576  0.2426E-02  0.7513E-01  0.6892E-02  0.7509E-01  0.0000E+00  0.0000E+00  0.0000E+00  0.0000E+00  0.0000E+00
     -4.463  0.2622E-02  0.3865E-01  0.1920E-02  0.3868E-01  0.0000E+00  0.0000E+00  0.0000E+00  0.0000E+00  0.0000E+00
     -4.350  0.4824E-02  0.9958E-01  0.1356E-03  0.9961E-01  0.0000E+00  0.0000E+00  0.0000E+00  0.0000E+00  0.0000E+00
     -4.237  0.4145E-02  0.8924E-01  0.1200E-05  0.8922E-01  0.0000E+00  0.0000E+00  0.0000E+00  0.0000E+00  0.0000E+00
     -4.124  0.1572E-02  0.4346E-01  0.1042E-08  0.4347E-01  0.0000E+00  0.0000E+00  0.0000E+00  0.0000E+00  0.0000E+00
     -4.011  0.6348E-03  0.6513E-01  0.7937E-13  0.6514E-01  0.0000E+00  0.0000E+00  0.0000E+00  0.0000E+00  0.0000E+00
     -3.898  0.1094E-02  0.6410E-01  0.2854E-17  0.6411E-01  0.0000E+00  0.0000E+00  0.0000E+00  0.0000E+00  0.0000E+00
     -3.785  0.3177E-03  0.4176E-01  0.1072E-17  0.4172E-01  0.0000E+00  0.0000E+00  0.0000E+00  0.0000E+00  0.0000E+00