 ----------------------------------------------------
    OOO  PPPP  EEEEE N   N M   M PPPP
   O   O P   P E     NN  N MM MM P   P
   O   O PPPP  EEEEE N N N M M M PPPP   -- VERSION
   O   O P     E     N  NN M   M P
    OOO  P     EEEEE N   N M   M P
 ----------------------------------------------------
 running   24 mpi-ranks, with    1 threads/rank
 distrk:  each k-point on   24 cores,    1 groups
 distr:  one band on    1 cores,   24 groups
 vasp.6.3.2 27Jun22 (build Dec 22 2022 13:13:19) complex                        
  
 POSCAR found type information on POSCAR B C 
 POSCAR found :  2 types and      16 ions
 Reading from existing POTCAR
 scaLAPACK will be used
 Reading from existing POTCAR
 LDA part: xc-table for Pade appr. of Perdew
 POSCAR found type information on POSCAR B C 
 POSCAR found :  2 types and      16 ions
 POSCAR, INCAR and KPOINTS ok, starting setup
 FFT: planning ... GRIDC
 FFT: planning ... GRID_SOFT
 FFT: planning ... GRID
 WAVECAR not read
 entering main loop
       N       E                     dE             d eps       ncg     rms          rms(c)
DAV:   1     0.319583007177E+03    0.31958E+03   -0.26357E+04 88800   0.959E+02
DAV:   2    -0.119479437625E+03   -0.43906E+03   -0.43100E+03111456   0.227E+02
DAV:   3    -0.151511905184E+03   -0.32032E+02   -0.31864E+02131712   0.701E+01
DAV:   4    -0.151988657460E+03   -0.47675E+00   -0.47625E+00125328   0.987E+00
DAV:   5    -0.152004813180E+03   -0.16156E-01   -0.16151E-01130776   0.157E+00    0.184E+01
DAV:   6    -0.143465892469E+03    0.85389E+01   -0.91227E+00132048   0.101E+01    0.106E+01
DAV:   7    -0.140536167284E+03    0.29297E+01   -0.86233E+00132792   0.976E+00    0.300E+00
DAV:   8    -0.140494761416E+03    0.41406E-01   -0.32793E-01125232   0.194E+00    0.831E-01
DAV:   9    -0.140479042796E+03    0.15719E-01   -0.23592E-02121440   0.597E-01    0.211E-01
DAV:  10    -0.140469966280E+03    0.90765E-02   -0.62046E-03119136   0.263E-01    0.117E-01
DAV:  11    -0.140462706473E+03    0.72598E-02   -0.77585E-03121824   0.247E-01    0.613E-02
DAV:  12    -0.140462159233E+03    0.54724E-03   -0.18807E-03102120   0.115E-01    0.499E-02
DAV:  13    -0.140464490015E+03   -0.23308E-02   -0.64827E-04105336   0.797E-02    0.201E-02
DAV:  14    -0.140466512029E+03   -0.20220E-02   -0.21851E-04111000   0.387E-02    0.110E-02
DAV:  15    -0.140467452392E+03   -0.94036E-03   -0.91818E-05109080   0.214E-02    0.494E-03
DAV:  16    -0.140467662590E+03   -0.21020E-03   -0.18607E-05111480   0.984E-03    0.146E-03
DAV:  17    -0.140467693986E+03   -0.31396E-04   -0.21948E-06112152   0.332E-03    0.631E-04
DAV:  18    -0.140467701095E+03   -0.71087E-05   -0.32585E-07 84888   0.154E-03    0.276E-04
DAV:  19    -0.140467703260E+03   -0.21651E-05   -0.15632E-07 80640   0.872E-04    0.120E-04
DAV:  20    -0.140467703857E+03   -0.59743E-06   -0.25533E-08 99936   0.391E-04
   1 F= -.14222608E+03 E0= -.14222516E+03  d E =-.142226E+03
 curvature:   0.00 expect dE= 0.000E+00 dE for cont linesearch  0.000E+00
 trial: gam= 0.00000 g(F)=  0.952E-01 g(S)=  0.000E+00 ort = 0.000E+00 (trialstep = 0.100E+01)
 search vector abs. value=  0.952E-01
 bond charge predicted
       N       E                     dE             d eps       ncg     rms          rms(c)
DAV:   1    -0.140416954601E+03    0.50749E-01   -0.14973E+01 88800   0.127E+01    0.110E+00
DAV:   2    -0.140387784652E+03    0.29170E-01   -0.27792E-01119928   0.184E+00    0.575E-01
DAV:   3    -0.140383830691E+03    0.39540E-02   -0.48739E-02127080   0.676E-01    0.252E-01
DAV:   4    -0.140383893522E+03   -0.62831E-04   -0.72526E-03109464   0.233E-01    0.109E-01
DAV:   5    -0.140383870895E+03    0.22628E-04   -0.59358E-04108792   0.865E-02    0.190E-02
DAV:   6    -0.140383872377E+03   -0.14826E-05   -0.10337E-04124416   0.339E-02    0.123E-02
DAV:   7    -0.140383882554E+03   -0.10176E-04   -0.18522E-05131952   0.141E-02    0.267E-03
DAV:   8    -0.140383890175E+03   -0.76209E-05   -0.24893E-06116448   0.506E-03    0.174E-03
DAV:   9    -0.140383901650E+03   -0.11476E-04   -0.14669E-06100800   0.281E-03    0.142E-03
DAV:  10    -0.140383903899E+03   -0.22490E-05   -0.15358E-07 97176   0.108E-03    0.123E-03
DAV:  11    -0.140383908787E+03   -0.48874E-05   -0.71219E-07 97176   0.160E-03    0.570E-04
DAV:  12    -0.140383909078E+03   -0.29188E-06   -0.17012E-08105072   0.360E-04
   2 F= -.14214729E+03 E0= -.14214593E+03  d E =0.787947E-01
 trial-energy change:    0.078795  1 .order    0.077552   -0.095241    0.250346
 step:   0.2713(harm=  0.2756)  dis= 0.00754  next Energy=  -142.238979 (dE=-0.129E-01)
 bond charge predicted
       N       E                     dE             d eps       ncg     rms          rms(c)
DAV:   1    -0.140496254797E+03   -0.11235E+00   -0.79062E+00 88800   0.914E+00    0.827E-01
DAV:   2    -0.140481300964E+03    0.14954E-01   -0.14546E-01119784   0.136E+00    0.409E-01
DAV:   3    -0.140478977180E+03    0.23238E-02   -0.28738E-02123024   0.508E-01    0.163E-01
DAV:   4    -0.140478958188E+03    0.18992E-04   -0.39247E-03117192   0.173E-01    0.773E-02
DAV:   5    -0.140478951026E+03    0.71627E-05   -0.16001E-04 96960   0.503E-02    0.122E-02
DAV:   6    -0.140478950082E+03    0.94345E-06   -0.44033E-05127656   0.217E-02    0.761E-03
DAV:   7    -0.140478953660E+03   -0.35775E-05   -0.92439E-06129192   0.109E-02    0.240E-03
DAV:   8    -0.140478956368E+03   -0.27082E-05   -0.13832E-06104280   0.411E-03    0.111E-03
DAV:   9    -0.140478964048E+03   -0.76800E-05   -0.62959E-07 75768   0.218E-03    0.638E-04
DAV:  10    -0.140478966427E+03   -0.23787E-05   -0.10219E-07 87048   0.900E-04    0.499E-04
DAV:  11    -0.140478968941E+03   -0.25142E-05   -0.13196E-07 72000   0.716E-04    0.169E-04
DAV:  12    -0.140478969356E+03   -0.41553E-06   -0.13164E-08 97536   0.286E-04
   3 F= -.14223897E+03 E0= -.14223792E+03  d E =-.128849E-01
 curvature:  -0.14 expect dE=-0.775E-04 dE for cont linesearch -0.333E-08
 trial: gam= 0.00641 g(F)=  0.563E-03 g(S)=  0.000E+00 ort =-0.480E-04 (trialstep = 0.854E+00)
 search vector abs. value=  0.566E-03
 bond charge predicted
       N       E                     dE             d eps       ncg     rms          rms(c)
DAV:   1    -0.140478776213E+03    0.19273E-03   -0.45829E-02 88800   0.902E-01    0.467E-02
DAV:   2    -0.140478771095E+03    0.51186E-05   -0.62087E-04109920   0.109E-01    0.294E-02
DAV:   3    -0.140478769315E+03    0.17796E-05   -0.55771E-05107640   0.359E-02    0.689E-03
DAV:   4    -0.140478770382E+03   -0.10666E-05   -0.16912E-05 97512   0.147E-02    0.342E-03
DAV:   5    -0.140478771520E+03   -0.11388E-05   -0.49381E-07 71592   0.353E-03    0.787E-04
DAV:   6    -0.140478771467E+03    0.53173E-07   -0.14540E-07101544   0.176E-03
   4 F= -.14223944E+03 E0= -.14223840E+03  d E =-.472673E-03
 ZBRENT: can't locate minimum, use default step
 trial-energy change:   -0.000473  1 .order   -0.000472   -0.000480   -0.000464
 step:   3.4171(harm= 24.5012)  dis= 0.00612  next Energy=  -142.245856 (dE=-0.689E-02)
 bond charge predicted
       N       E                     dE             d eps       ncg     rms          rms(c)
DAV:   1    -0.140478119785E+03    0.65174E-03   -0.41249E-01 88896   0.271E+00    0.140E-01
DAV:   2    -0.140478103301E+03    0.16485E-04   -0.55922E-03102144   0.326E-01    0.882E-02
DAV:   3    -0.140478066009E+03    0.37292E-04   -0.50221E-04 96384   0.108E-01    0.208E-02
DAV:   4    -0.140478070862E+03   -0.48527E-05   -0.15159E-04124296   0.439E-02    0.102E-02
DAV:   5    -0.140478076215E+03   -0.53537E-05   -0.50040E-06123864   0.103E-02    0.238E-03
DAV:   6    -0.140478075950E+03    0.26482E-06   -0.75991E-07103104   0.350E-03
   5 F= -.14224076E+03 E0= -.14223973E+03  d E =-.179564E-02
 curvature:  -2.53 expect dE=-0.178E-02 dE for cont linesearch -0.106E-02
 ZBRENT: increasing intervall
 opt :   8.5427  next Energy=  -142.242974 (dE=-0.401E-02)
 bond charge predicted
       N       E                     dE             d eps       ncg     rms          rms(c)
DAV:   1    -0.140476404180E+03    0.16720E-02   -0.16498E+00 88800   0.541E+00    0.280E-01
DAV:   2    -0.140476411616E+03   -0.74360E-05   -0.22439E-02110736   0.652E-01    0.176E-01
DAV:   3    -0.140476210609E+03    0.20101E-03   -0.19918E-03 97872   0.215E-01    0.418E-02
DAV:   4    -0.140476228977E+03   -0.18368E-04   -0.60166E-04120984   0.875E-02    0.203E-02
DAV:   5    -0.140476237008E+03   -0.80311E-05   -0.19948E-05131112   0.203E-02    0.442E-03
DAV:   6    -0.140476236526E+03    0.48261E-06   -0.25835E-06123216   0.622E-03
   6 F= -.14224299E+03 E0= -.14224197E+03  d E =-.402336E-02
 curvature:  -5.28 expect dE=-0.106E-01 dE for cont linesearch -0.134E-02
 ZBRENT: increasing intervall
 opt :  18.7938  next Energy=  -142.245765 (dE=-0.680E-02)
 bond charge predicted
       N       E                     dE             d eps       ncg     rms          rms(c)
DAV:   1    -0.140471342302E+03    0.48947E-02   -0.65960E+00 88800   0.108E+01    0.563E-01
DAV:   2    -0.140471681614E+03   -0.33931E-03   -0.90573E-02114816   0.131E+00    0.353E-01
DAV:   3    -0.140470627438E+03    0.10542E-02   -0.77389E-03101304   0.422E-01    0.886E-02
DAV:   4    -0.140470733496E+03   -0.10606E-03   -0.22480E-03120936   0.167E-01    0.405E-02
DAV:   5    -0.140470767294E+03   -0.33798E-04   -0.73157E-05134664   0.366E-02    0.864E-03
DAV:   6    -0.140470764929E+03    0.23653E-05   -0.64419E-06126096   0.934E-03    0.399E-03
DAV:   7    -0.140470769565E+03   -0.46362E-05   -0.15053E-06107160   0.451E-03    0.133E-03
DAV:   8    -0.140470776025E+03   -0.64598E-05   -0.91723E-07104688   0.268E-03    0.138E-03
DAV:   9    -0.140470781415E+03   -0.53907E-05   -0.41243E-07 93864   0.153E-03    0.382E-04
DAV:  10    -0.140470784890E+03   -0.34742E-05   -0.34718E-07 94848   0.118E-03    0.436E-04
DAV:  11    -0.140470785954E+03   -0.10648E-05   -0.74422E-08 92880   0.647E-04    0.184E-04
DAV:  12    -0.140470786445E+03   -0.49040E-06   -0.24442E-08 82776   0.364E-04
   7 F= -.14224580E+03 E0= -.14224482E+03  d E =-.682837E-02
 curvature: -10.94 expect dE=-0.935E-01 dE for cont linesearch -0.522E-03
 ZBRENT: increasing intervall
 opt :  39.2962  next Energy=  -142.244766 (dE=-0.580E-02)
 bond charge predicted
       N       E                     dE             d eps       ncg     rms          rms(c)
DAV:   1    -0.140453530753E+03    0.17255E-01   -0.26338E+01 88800   0.216E+01    0.115E+00
DAV:   2    -0.140456131117E+03   -0.26004E-02   -0.37570E-01110400   0.267E+00    0.710E-01
DAV:   3    -0.140452044434E+03    0.40867E-02   -0.28093E-02113208   0.793E-01    0.224E-01
DAV:   4    -0.140452532535E+03   -0.48810E-03   -0.71953E-03117432   0.292E-01    0.856E-02
DAV:   5    -0.140452610128E+03   -0.77593E-04   -0.25340E-04138168   0.636E-02    0.222E-02
DAV:   6    -0.140452601326E+03    0.88025E-05   -0.18398E-05128184   0.177E-02    0.831E-03
DAV:   7    -0.140452615042E+03   -0.13716E-04   -0.63366E-06107112   0.901E-03    0.267E-03
DAV:   8    -0.140452628810E+03   -0.13768E-04   -0.21620E-06105936   0.459E-03    0.214E-03
DAV:   9    -0.140452638913E+03   -0.10103E-04   -0.11780E-06108432   0.255E-03    0.912E-04
DAV:  10    -0.140452646858E+03   -0.79455E-05   -0.10019E-06110064   0.202E-03    0.693E-04
DAV:  11    -0.140452649792E+03   -0.29333E-05   -0.27339E-07 94896   0.118E-03    0.323E-04
DAV:  12    -0.140452650645E+03   -0.85280E-06   -0.68706E-08 90408   0.633E-04
   8 F= -.14224465E+03 E0= -.14224377E+03  d E =-.568316E-02
 curvature:  21.61 expect dE= 0.806E+00 dE for cont linesearch  0.294E-02
 ZBRENT: bracketing found
 ZBRENT: interpolating
 opt :  26.4207  next Energy=  -142.246422 (dE=-0.745E-02)
 bond charge predicted
       N       E                     dE             d eps       ncg     rms          rms(c)
DAV:   1    -0.140465977042E+03   -0.13327E-01   -0.10400E+01 88800   0.136E+01    0.719E-01
DAV:   2    -0.140466364261E+03   -0.38722E-03   -0.14274E-01101472   0.165E+00    0.443E-01
DAV:   3    -0.140464860266E+03    0.15040E-02   -0.11853E-02118440   0.516E-01    0.128E-01
DAV:   4    -0.140465094329E+03   -0.23406E-03   -0.32202E-03101784   0.197E-01    0.563E-02
DAV:   5    -0.140465149771E+03   -0.55442E-04   -0.10397E-04145104   0.425E-02    0.140E-02
DAV:   6    -0.140465149428E+03    0.34361E-06   -0.66165E-06121704   0.979E-03
   9 F= -.14224640E+03 E0= -.14224547E+03  d E =-.743733E-02
 curvature:  -4.61 expect dE=-0.775E-01 dE for cont linesearch -0.226E-06
 trial: gam=29.86722 g(F)=  0.168E-01 g(S)=  0.000E+00 ort = 0.526E-05 (trialstep = 0.647E-02)
 search vector abs. value=  0.522E+00
 bond charge predicted
       N       E                     dE             d eps       ncg     rms          rms(c)
DAV:   1    -0.140465095042E+03    0.54729E-04   -0.24447E-03 99432   0.209E-01    0.104E-02
DAV:   2    -0.140465097317E+03   -0.22748E-05   -0.33531E-05113088   0.249E-02    0.656E-03
DAV:   3    -0.140465100561E+03   -0.32441E-05   -0.32628E-06118128   0.834E-03    0.174E-03
DAV:   4    -0.140465102948E+03   -0.23873E-05   -0.82265E-07115056   0.324E-03    0.850E-04
DAV:   5    -0.140465107041E+03   -0.40931E-05   -0.11386E-07 89808   0.107E-03    0.491E-04
DAV:   6    -0.140465111899E+03   -0.48574E-05   -0.13324E-07 78144   0.933E-04    0.226E-04
DAV:   7    -0.140465115054E+03   -0.31553E-05   -0.13015E-07 78552   0.760E-04    0.179E-04
DAV:   8    -0.140465115524E+03   -0.47015E-06   -0.54406E-09 96528   0.252E-04
  10 F= -.14224654E+03 E0= -.14224559E+03  d E =-.130639E-03
 ZBRENT: can't locate minimum, use default step
 trial-energy change:   -0.000131  1 .order   -0.000109   -0.000110   -0.000108
 step:   0.0259(harm=  0.5463)  dis= 0.00119  next Energy=  -142.251039 (dE=-0.463E-02)
 bond charge predicted
       N       E                     dE             d eps       ncg     rms          rms(c)
DAV:   1    -0.140464947076E+03    0.16798E-03   -0.22279E-02 90336   0.630E-01    0.324E-02
DAV:   2    -0.140464943675E+03    0.34010E-05   -0.30737E-04108024   0.762E-02    0.205E-02
DAV:   3    -0.140464943679E+03   -0.39163E-08   -0.27530E-05110856   0.251E-02    0.491E-03
DAV:   4    -0.140464944210E+03   -0.53094E-06   -0.82825E-06 98832   0.103E-02
  11 F= -.14224686E+03 E0= -.14224592E+03  d E =-.453307E-03
 curvature:  -0.59 expect dE=-0.962E-02 dE for cont linesearch -0.310E-03
 ZBRENT: increasing intervall
 opt :   0.0647  next Energy=  -142.247489 (dE=-0.108E-02)
 bond charge predicted
       N       E                     dE             d eps       ncg     rms          rms(c)
DAV:   1    -0.140464594398E+03    0.34928E-03   -0.89094E-02 88800   0.126E+00    0.646E-02
DAV:   2    -0.140464591578E+03    0.28205E-05   -0.12215E-03 90240   0.152E-01    0.409E-02
DAV:   3    -0.140464582695E+03    0.88833E-05   -0.11021E-04 97488   0.500E-02    0.983E-03
DAV:   4    -0.140464585198E+03   -0.25033E-05   -0.32650E-05124296   0.203E-02    0.481E-03
DAV:   5    -0.140464586406E+03   -0.12081E-05   -0.10301E-06 99792   0.480E-03    0.112E-03
DAV:   6    -0.140464586358E+03    0.47832E-07   -0.22339E-07104184   0.199E-03
  12 F= -.14224749E+03 E0= -.14224655E+03  d E =-.108504E-02
 curvature:  -1.21 expect dE=-0.186E-01 dE for cont linesearch -0.592E-03
 ZBRENT: increasing intervall
 opt :   0.1423  next Energy=  -142.248692 (dE=-0.229E-02)
 bond charge predicted
       N       E                     dE             d eps       ncg     rms          rms(c)
DAV:   1    -0.140463844208E+03    0.74220E-03   -0.35647E-01 88800   0.252E+00    0.130E-01
DAV:   2    -0.140463844204E+03    0.40991E-08   -0.49275E-03105288   0.305E-01    0.821E-02
DAV:   3    -0.140463798960E+03    0.45245E-04   -0.44107E-04 97416   0.101E-01    0.196E-02
DAV:   4    -0.140463803363E+03   -0.44034E-05   -0.13406E-04114480   0.413E-02    0.964E-03
DAV:   5    -0.140463807697E+03   -0.43339E-05   -0.43968E-06123384   0.978E-03    0.227E-03
DAV:   6    -0.140463807521E+03    0.17627E-06   -0.74439E-07100368   0.350E-03
  13 F= -.14224870E+03 E0= -.14224777E+03  d E =-.229179E-02
 curvature:  -2.45 expect dE=-0.350E-01 dE for cont linesearch -0.106E-02
 ZBRENT: increasing intervall
 opt :   0.2976  next Energy=  -142.250869 (dE=-0.446E-02)
 bond charge predicted
       N       E                     dE             d eps       ncg     rms          rms(c)
DAV:   1    -0.140462139297E+03    0.16684E-02   -0.14258E+00 88800   0.504E+00    0.260E-01
DAV:   2    -0.140462159889E+03   -0.20592E-04   -0.19765E-02111312   0.611E-01    0.164E-01
DAV:   3    -0.140461978402E+03    0.18149E-03   -0.17486E-03 97416   0.201E-01    0.393E-02
DAV:   4    -0.140461990182E+03   -0.11780E-04   -0.53097E-04115968   0.821E-02    0.192E-02
DAV:   5    -0.140461997993E+03   -0.78109E-05   -0.17323E-05130296   0.191E-02    0.424E-03
DAV:   6    -0.140461997461E+03    0.53170E-06   -0.25714E-06123384   0.629E-03
  14 F= -.14225088E+03 E0= -.14224997E+03  d E =-.447840E-02
 curvature:  -5.05 expect dE=-0.689E-01 dE for cont linesearch -0.165E-02
 ZBRENT: increasing intervall
 opt :   0.6082  next Energy=  -142.254338 (dE=-0.793E-02)
 bond charge predicted
       N       E                     dE             d eps       ncg     rms          rms(c)
DAV:   1    -0.140457855077E+03    0.41429E-02   -0.57009E+00 88800   0.101E+01    0.521E-01
DAV:   2    -0.140458179320E+03   -0.32424E-03   -0.79681E-02113232   0.123E+00    0.329E-01
DAV:   3    -0.140457252145E+03    0.92718E-03   -0.68147E-03100056   0.396E-01    0.827E-02
DAV:   4    -0.140457339113E+03   -0.86968E-04   -0.19943E-03117168   0.158E-01    0.380E-02
DAV:   5    -0.140457359067E+03   -0.19954E-04   -0.64399E-05135312   0.347E-02    0.799E-03
DAV:   6    -0.140457356818E+03    0.22491E-05   -0.63836E-06122784   0.943E-03    0.364E-03
DAV:   7    -0.140457359914E+03   -0.30959E-05   -0.95531E-07 93288   0.377E-03    0.107E-03
DAV:   8    -0.140457365343E+03   -0.54291E-05   -0.89300E-07102672   0.275E-03    0.138E-03
DAV:   9    -0.140457370718E+03   -0.53753E-05   -0.46465E-07 95376   0.183E-03    0.356E-04
DAV:  10    -0.140457373472E+03   -0.27538E-05   -0.22721E-07 93192   0.104E-03    0.307E-04
DAV:  11    -0.140457374792E+03   -0.13202E-05   -0.10271E-07 92472   0.707E-04    0.236E-04
DAV:  12    -0.140457375303E+03   -0.51058E-06   -0.27176E-08 82032   0.394E-04
  15 F= -.14225436E+03 E0= -.14225348E+03  d E =-.795111E-02
 curvature: -10.58 expect dE=-0.201E+00 dE for cont linesearch -0.170E-02
 ZBRENT: increasing intervall
 opt :   1.2293  next Energy=  -142.257636 (dE=-0.112E-01)
 bond charge predicted
       N       E                     dE             d eps       ncg     rms          rms(c)
DAV:   1    -0.140444888513E+03    0.12486E-01   -0.22776E+01 88800   0.201E+01    0.106E+00
DAV:   2    -0.140447248120E+03   -0.23596E-02   -0.32861E-01107208   0.250E+00    0.661E-01
DAV:   3    -0.140443405531E+03    0.38426E-02   -0.24961E-02108264   0.749E-01    0.204E-01
DAV:   4    -0.140443838057E+03   -0.43253E-03   -0.64897E-03114096   0.278E-01    0.788E-02
DAV:   5    -0.140443899467E+03   -0.61410E-04   -0.22474E-04137064   0.599E-02    0.208E-02
DAV:   6    -0.140443890589E+03    0.88783E-05   -0.17111E-05127464   0.170E-02    0.758E-03
DAV:   7    -0.140443898379E+03   -0.77908E-05   -0.35573E-06107904   0.723E-03    0.212E-03
DAV:   8    -0.140443909706E+03   -0.11326E-04   -0.21426E-06105312   0.456E-03    0.222E-03
DAV:   9    -0.140443920289E+03   -0.10583E-04   -0.13478E-06106224   0.293E-03    0.925E-04
DAV:  10    -0.140443926858E+03   -0.65697E-05   -0.70465E-07106848   0.181E-03    0.606E-04
DAV:  11    -0.140443930071E+03   -0.32126E-05   -0.30652E-07 91536   0.120E-03    0.398E-04
DAV:  12    -0.140443931001E+03   -0.92984E-06   -0.75767E-08 92376   0.667E-04
  16 F= -.14225750E+03 E0= -.14225670E+03  d E =-.110982E-01
 curvature: -20.36 expect dE=-0.115E+01 dE for cont linesearch -0.353E-04
 trial: gam= 3.23894 g(F)=  0.562E-01 g(S)=  0.000E+00 ort = 0.952E-03 (trialstep = 0.237E-01)
 search vector abs. value=  0.554E+01
 bond charge predicted
       N       E                     dE             d eps       ncg     rms          rms(c)
DAV:   1    -0.140443244864E+03    0.68521E-03   -0.35341E-01 88800   0.251E+00    0.129E-01
DAV:   2    -0.140443249676E+03   -0.48117E-05   -0.48454E-03106104   0.303E-01    0.816E-02
DAV:   3    -0.140443199724E+03    0.49952E-04   -0.43677E-04 93768   0.100E-01    0.194E-02
DAV:   4    -0.140443204303E+03   -0.45789E-05   -0.13372E-04113280   0.413E-02    0.957E-03
DAV:   5    -0.140443207856E+03   -0.35537E-05   -0.42100E-06120024   0.966E-03    0.227E-03
DAV:   6    -0.140443207576E+03    0.28029E-06   -0.74427E-07101688   0.355E-03
  17 F= -.14225888E+03 E0= -.14225809E+03  d E =-.137694E-02
 ZBRENT: can't locate minimum, use default step
 trial-energy change:   -0.001377  1 .order   -0.001375   -0.001404   -0.001345
 step:   0.0946(harm=  0.5704)  dis= 0.01312  next Energy=  -142.274422 (dE=-0.169E-01)
 bond charge predicted
       N       E                     dE             d eps       ncg     rms          rms(c)
DAV:   1    -0.140440991130E+03    0.22167E-02   -0.31807E+00 88800   0.753E+00    0.387E-01
DAV:   2    -0.140441104833E+03   -0.11370E-03   -0.43977E-02106608   0.913E-01    0.245E-01
DAV:   3    -0.140440626568E+03    0.47826E-03   -0.38686E-03 94968   0.298E-01    0.596E-02
DAV:   4    -0.140440663795E+03   -0.37227E-04   -0.11568E-03115920   0.121E-01    0.282E-02
DAV:   5    -0.140440674258E+03   -0.10463E-04   -0.36085E-05132864   0.270E-02    0.591E-03
DAV:   6    -0.140440673031E+03    0.12265E-05   -0.45793E-06121680   0.827E-03    0.264E-03
DAV:   7    -0.140440674595E+03   -0.15635E-05   -0.65929E-07 94992   0.313E-03    0.825E-04
DAV:   8    -0.140440678033E+03   -0.34381E-05   -0.40388E-07 87336   0.188E-03    0.102E-03
DAV:   9    -0.140440681126E+03   -0.30930E-05   -0.21914E-07 90744   0.128E-03    0.293E-04
DAV:  10    -0.140440682645E+03   -0.15186E-05   -0.12881E-07 92832   0.822E-04    0.312E-04
DAV:  11    -0.140440683264E+03   -0.61902E-06   -0.37815E-08 90864   0.504E-04
  18 F= -.14226271E+03 E0= -.14226194E+03  d E =-.520200E-02
 curvature:  -6.46 expect dE=-0.265E+00 dE for cont linesearch -0.298E-02
 ZBRENT: increasing intervall
 opt :   0.2366  next Energy=  -142.268987 (dE=-0.115E-01)
 bond charge predicted
       N       E                     dE             d eps       ncg     rms          rms(c)
DAV:   1    -0.140434902126E+03    0.57805E-02   -0.12714E+01 88800   0.151E+01    0.781E-01
DAV:   2    -0.140435867125E+03   -0.96500E-03   -0.17890E-01106560   0.184E+00    0.491E-01
DAV:   3    -0.140433702808E+03    0.21643E-02   -0.14685E-02101232   0.578E-01    0.133E-01
DAV:   4    -0.140433919997E+03   -0.21719E-03   -0.40752E-03117024   0.222E-01    0.564E-02
DAV:   5    -0.140433957454E+03   -0.37456E-04   -0.12842E-04136104   0.468E-02    0.135E-02
DAV:   6    -0.140433952538E+03    0.49156E-05   -0.10066E-05127920   0.122E-02    0.555E-03
DAV:   7    -0.140433956306E+03   -0.37684E-05   -0.23248E-06110160   0.599E-03    0.155E-03
DAV:   8    -0.140433963735E+03   -0.74288E-05   -0.12132E-06103392   0.343E-03    0.174E-03
DAV:   9    -0.140433970033E+03   -0.62975E-05   -0.58172E-07 99984   0.192E-03    0.503E-04
DAV:  10    -0.140433974489E+03   -0.44565E-05   -0.42336E-07 98472   0.135E-03    0.467E-04
DAV:  11    -0.140433976329E+03   -0.18394E-05   -0.16107E-07 93216   0.880E-04    0.290E-04
DAV:  12    -0.140433976890E+03   -0.56085E-06   -0.39060E-08 85224   0.470E-04
  19 F= -.14226891E+03 E0= -.14226822E+03  d E =-.114115E-01
 curvature: -13.61 expect dE=-0.365E+00 dE for cont linesearch -0.332E-02
 ZBRENT: increasing intervall
 opt :   0.5205  next Energy=  -142.275444 (dE=-0.179E-01)
 bond charge predicted
       N       E                     dE             d eps       ncg     rms          rms(c)
DAV:   1    -0.140412449125E+03    0.21527E-01   -0.50732E+01 88800   0.301E+01    0.163E+00
DAV:   2    -0.140421240792E+03   -0.87917E-02   -0.76452E-01106944   0.382E+00    0.994E-01
DAV:   3    -0.140412430744E+03    0.88100E-02   -0.50816E-02124296   0.105E+00    0.384E-01
DAV:   4    -0.140413311000E+03   -0.88026E-03   -0.11825E-02112392   0.385E-01    0.125E-01
DAV:   5    -0.140413385342E+03   -0.74342E-04   -0.46811E-04138072   0.853E-02    0.264E-02
DAV:   6    -0.140413372904E+03    0.12438E-04   -0.28831E-05126888   0.220E-02    0.114E-02
DAV:   7    -0.140413391849E+03   -0.18945E-04   -0.13921E-05110496   0.132E-02    0.388E-03
DAV:   8    -0.140413409949E+03   -0.18099E-04   -0.29911E-06106992   0.555E-03    0.319E-03
DAV:   9    -0.140413427730E+03   -0.17782E-04   -0.25183E-06108072   0.401E-03    0.129E-03
DAV:  10    -0.140413437453E+03   -0.97229E-05   -0.13687E-06110544   0.250E-03    0.843E-04
DAV:  11    -0.140413442076E+03   -0.46229E-05   -0.58414E-07104040   0.169E-03    0.464E-04
DAV:  12    -0.140413443078E+03   -0.10015E-05   -0.94910E-08 93912   0.795E-04    0.185E-04
DAV:  13    -0.140413443575E+03   -0.49749E-06   -0.39141E-08 79416   0.461E-04
  20 F= -.14227506E+03 E0= -.14227449E+03  d E =-.175556E-01
 curvature: -26.73 expect dE=-0.810E+00 dE for cont linesearch -0.160E-03
 trial: gam= 0.40378 g(F)=  0.303E-01 g(S)=  0.000E+00 ort = 0.576E-02 (trialstep = 0.123E+00)
 search vector abs. value=  0.938E+00
 bond charge predicted
       N       E                     dE             d eps       ncg     rms          rms(c)
DAV:   1    -0.140412434703E+03    0.10084E-02   -0.16433E+00 88800   0.543E+00    0.275E-01
DAV:   2    -0.140412481131E+03   -0.46428E-04   -0.22393E-02105768   0.655E-01    0.175E-01
DAV:   3    -0.140412250460E+03    0.23067E-03   -0.20315E-03 94728   0.217E-01    0.427E-02
DAV:   4    -0.140412265182E+03   -0.14722E-04   -0.61252E-04116544   0.887E-02    0.208E-02
DAV:   5    -0.140412274487E+03   -0.93052E-05   -0.19110E-05128088   0.201E-02    0.467E-03
DAV:   6    -0.140412273267E+03    0.12205E-05   -0.31020E-06122712   0.703E-03    0.179E-03
DAV:   7    -0.140412273551E+03   -0.28430E-06   -0.23807E-07 95640   0.202E-03
  21 F= -.14227871E+03 E0= -.14227816E+03  d E =-.364759E-02
 ZBRENT: can't locate minimum, use default step
 trial-energy change:   -0.003648  1 .order   -0.003648   -0.004013   -0.003283
 step:   0.4921(harm=  0.6770)  dis= 0.02698  next Energy=  -142.286098 (dE=-0.110E-01)
 bond charge predicted
       N       E                     dE             d eps       ncg     rms          rms(c)
DAV:   1    -0.140405167902E+03    0.71054E-02   -0.14778E+01 88800   0.163E+01    0.836E-01
DAV:   2    -0.140406405651E+03   -0.12377E-02   -0.20704E-01110256   0.199E+00    0.526E-01
DAV:   3    -0.140403890562E+03    0.25151E-02   -0.17040E-02109008   0.623E-01    0.146E-01
DAV:   4    -0.140404125113E+03   -0.23455E-03   -0.46542E-03116448   0.239E-01    0.615E-02
DAV:   5    -0.140404168343E+03   -0.43230E-04   -0.15333E-04136560   0.507E-02    0.151E-02
DAV:   6    -0.140404165323E+03    0.30207E-05   -0.12350E-05126912   0.140E-02    0.575E-03
DAV:   7    -0.140404167571E+03   -0.22485E-05   -0.19817E-06114960   0.584E-03    0.223E-03
DAV:   8    -0.140404174470E+03   -0.68983E-05   -0.16689E-06108000   0.446E-03    0.163E-03
DAV:   9    -0.140404180486E+03   -0.60168E-05   -0.64162E-07100296   0.239E-03    0.112E-03
DAV:  10    -0.140404186298E+03   -0.58121E-05   -0.61819E-07106968   0.182E-03    0.461E-04
DAV:  11    -0.140404189156E+03   -0.28579E-05   -0.26985E-07 91344   0.112E-03    0.440E-04
DAV:  12    -0.140404189710E+03   -0.55315E-06   -0.39703E-08 98856   0.518E-04
  22 F= -.14228526E+03 E0= -.14228479E+03  d E =-.102002E-01
 curvature:  -8.65 expect dE=-0.101E+00 dE for cont linesearch -0.693E-03
 ZBRENT: extrapolating
 opt :   0.6696  next Energy=  -142.286028 (dE=-0.110E-01)
 bond charge predicted
       N       E                     dE             d eps       ncg     rms          rms(c)
DAV:   1    -0.140398139835E+03    0.60493E-02   -0.34209E+00 88800   0.784E+00    0.398E-01
DAV:   2    -0.140398259786E+03   -0.11995E-03   -0.46729E-02105432   0.947E-01    0.252E-01
DAV:   3    -0.140397750291E+03    0.50950E-03   -0.42073E-03 93672   0.311E-01    0.625E-02
DAV:   4    -0.140397790718E+03   -0.40427E-04   -0.12444E-03117672   0.126E-01    0.297E-02
DAV:   5    -0.140397804008E+03   -0.13290E-04   -0.39246E-05130224   0.282E-02    0.642E-03
DAV:   6    -0.140397801278E+03    0.27300E-05   -0.54336E-06123984   0.916E-03    0.263E-03
DAV:   7    -0.140397801838E+03   -0.56032E-06   -0.48502E-07 96192   0.286E-03
  23 F= -.14228600E+03 E0= -.14228557E+03  d E =-.109454E-01
 curvature:  -9.60 expect dE=-0.175E+00 dE for cont linesearch -0.704E-06
 trial: gam= 0.62906 g(F)=  0.183E-01 g(S)=  0.000E+00 ort =-0.262E-03 (trialstep = 0.232E+00)
 search vector abs. value=  0.389E+00
 bond charge predicted
       N       E                     dE             d eps       ncg     rms          rms(c)
DAV:   1    -0.140395564423E+03    0.22369E-02   -0.24548E+00 88800   0.666E+00    0.335E-01
DAV:   2    -0.140395598367E+03   -0.33943E-04   -0.32408E-02112392   0.790E-01    0.212E-01
DAV:   3    -0.140395259791E+03    0.33858E-03   -0.29088E-03 97272   0.260E-01    0.514E-02
DAV:   4    -0.140395283666E+03   -0.23875E-04   -0.88620E-04123312   0.107E-01    0.244E-02
DAV:   5    -0.140395292621E+03   -0.89546E-05   -0.26691E-05129696   0.237E-02    0.544E-03
DAV:   6    -0.140395291575E+03    0.10457E-05   -0.39466E-06127080   0.788E-03    0.222E-03
DAV:   7    -0.140395292676E+03   -0.11003E-05   -0.39684E-07 95088   0.251E-03    0.663E-04
DAV:   8    -0.140395295418E+03   -0.27424E-05   -0.29625E-07 93096   0.178E-03    0.807E-04
DAV:   9    -0.140395297644E+03   -0.22256E-05   -0.14979E-07 94248   0.111E-03    0.264E-04
DAV:  10    -0.140395299074E+03   -0.14306E-05   -0.11379E-07 93936   0.773E-04    0.220E-04
DAV:  11    -0.140395299643E+03   -0.56857E-06   -0.35664E-08 91152   0.490E-04
  24 F= -.14228948E+03 E0= -.14228907E+03  d E =-.347605E-02
 trial-energy change:   -0.003476  1 .order   -0.003462   -0.004207   -0.002716
 step:   0.6003(harm=  0.6556)  dis= 0.02416  next Energy=  -142.291688 (dE=-0.568E-02)
 bond charge predicted
       N       E                     dE             d eps       ncg     rms          rms(c)
DAV:   1    -0.140388751437E+03    0.65476E-02   -0.61541E+00 88800   0.105E+01    0.530E-01
DAV:   2    -0.140388979888E+03   -0.22845E-03   -0.81798E-02106224   0.125E+00    0.335E-01
DAV:   3    -0.140388020921E+03    0.95897E-03   -0.72220E-03100344   0.408E-01    0.832E-02
DAV:   4    -0.140388113490E+03   -0.92570E-04   -0.21278E-03124944   0.164E-01    0.381E-02
DAV:   5    -0.140388140735E+03   -0.27245E-04   -0.63918E-05132648   0.350E-02    0.821E-03
DAV:   6    -0.140388138207E+03    0.25286E-05   -0.68208E-06122664   0.101E-02    0.362E-03
DAV:   7    -0.140388138818E+03   -0.61146E-06   -0.85821E-07102360   0.377E-03
  25 F= -.14229187E+03 E0= -.14229149E+03  d E =-.586843E-02
 curvature:  -6.92 expect dE=-0.210E-01 dE for cont linesearch -0.313E-04
 ZBRENT: extrapolating
 opt :   0.6474  next Energy=  -142.291904 (dE=-0.590E-02)
 bond charge predicted
       N       E                     dE             d eps       ncg     rms          rms(c)
DAV:   1    -0.140386955654E+03    0.11826E-02   -0.10102E-01 89304   0.135E+00    0.686E-02
DAV:   2    -0.140386954695E+03    0.95870E-06   -0.13230E-03114096   0.160E-01    0.432E-02
DAV:   3    -0.140386942894E+03    0.11800E-04   -0.12036E-04 94992   0.528E-02    0.106E-02
DAV:   4    -0.140386945077E+03   -0.21822E-05   -0.37048E-05117864   0.219E-02    0.512E-03
DAV:   5    -0.140386946370E+03   -0.12937E-05   -0.11268E-06 97680   0.495E-03    0.113E-03
DAV:   6    -0.140386946867E+03   -0.49655E-06   -0.23844E-07 94104   0.198E-03
  26 F= -.14229191E+03 E0= -.14229153E+03  d E =-.590702E-02
 curvature:  -6.91 expect dE=-0.215E-01 dE for cont linesearch -0.481E-07
 trial: gam= 0.06515 g(F)=  0.312E-02 g(S)=  0.000E+00 ort =-0.520E-04 (trialstep = 0.315E+00)
 search vector abs. value=  0.476E-02
 bond charge predicted
       N       E                     dE             d eps       ncg     rms          rms(c)
DAV:   1    -0.140387088959E+03   -0.14259E-03   -0.49933E-02 88800   0.991E-01    0.497E-02
DAV:   2    -0.140387102204E+03   -0.13245E-04   -0.68185E-04103104   0.114E-01    0.312E-02
DAV:   3    -0.140387095759E+03    0.64447E-05   -0.69911E-05 94128   0.380E-02    0.112E-02
DAV:   4    -0.140387096873E+03   -0.11145E-05   -0.15875E-05120024   0.153E-02    0.550E-03
DAV:   5    -0.140387097545E+03   -0.67121E-06   -0.95207E-07 76704   0.423E-03
  27 F= -.14229257E+03 E0= -.14229219E+03  d E =-.657540E-03
 trial-energy change:   -0.000658  1 .order   -0.000654   -0.000983   -0.000325
 step:   0.4712(harm=  0.4712)  dis= 0.00199  next Energy=  -142.292645 (dE=-0.734E-03)
 bond charge predicted
       N       E                     dE             d eps       ncg     rms          rms(c)
DAV:   1    -0.140386927011E+03    0.16986E-03   -0.12219E-02 88800   0.490E-01    0.246E-02
DAV:   2    -0.140386930252E+03   -0.32406E-05   -0.16749E-04 98256   0.567E-02    0.155E-02
DAV:   3    -0.140386929272E+03    0.98013E-06   -0.17097E-05 93168   0.188E-02    0.566E-03
DAV:   4    -0.140386929593E+03   -0.32146E-06   -0.38547E-06116616   0.757E-03
  28 F= -.14229265E+03 E0= -.14229227E+03  d E =-.739962E-03
 curvature:  -0.36 expect dE=-0.987E-03 dE for cont linesearch -0.769E-08
 trial: gam= 0.87365 g(F)=  0.274E-02 g(S)=  0.000E+00 ort = 0.101E-04 (trialstep = 0.258E+00)
 search vector abs. value=  0.639E-02
 bond charge predicted
       N       E                     dE             d eps       ncg     rms          rms(c)
DAV:   1    -0.140387132306E+03   -0.20303E-03   -0.39509E-02 88800   0.864E-01    0.417E-02
DAV:   2    -0.140387135957E+03   -0.36517E-05   -0.34425E-04 99264   0.809E-02    0.261E-02
DAV:   3    -0.140387136680E+03   -0.72292E-06   -0.37722E-05 92136   0.283E-02    0.607E-03
DAV:   4    -0.140387137242E+03   -0.56176E-06   -0.86910E-06118248   0.111E-02
  29 F= -.14229319E+03 E0= -.14229281E+03  d E =-.540716E-03
 trial-energy change:   -0.000541  1 .order   -0.000539   -0.000710   -0.000368
 step:   0.5360(harm=  0.5360)  dis= 0.00290  next Energy=  -142.293388 (dE=-0.737E-03)
 bond charge predicted
       N       E                     dE             d eps       ncg     rms          rms(c)
DAV:   1    -0.140386973911E+03    0.16277E-03   -0.45771E-02 88800   0.930E-01    0.450E-02
DAV:   2    -0.140386978861E+03   -0.49504E-05   -0.39962E-04 98400   0.872E-02    0.282E-02
DAV:   3    -0.140386979785E+03   -0.92337E-06   -0.43673E-05 92952   0.305E-02    0.665E-03
DAV:   4    -0.140386980392E+03   -0.60755E-06   -0.10103E-05120408   0.119E-02    0.334E-03
DAV:   5    -0.140386980897E+03   -0.50440E-06   -0.43191E-07 72120   0.283E-03
  30 F= -.14229339E+03 E0= -.14229301E+03  d E =-.743326E-03
 curvature:  -0.62 expect dE=-0.647E-03 dE for cont linesearch -0.138E-07
 trial: gam= 0.38265 g(F)=  0.104E-02 g(S)=  0.000E+00 ort = 0.119E-04 (trialstep = 0.314E+00)
 search vector abs. value=  0.198E-02
 bond charge predicted
       N       E                     dE             d eps       ncg     rms          rms(c)
DAV:   1    -0.140387039114E+03   -0.58721E-04   -0.17206E-02 88800   0.591E-01    0.299E-02
DAV:   2    -0.140387046665E+03   -0.75516E-05   -0.25110E-04 94200   0.720E-02    0.189E-02
DAV:   3    -0.140387045453E+03    0.12126E-05   -0.32295E-05 92808   0.254E-02    0.715E-03
DAV:   4    -0.140387045810E+03   -0.35754E-06   -0.64954E-06109128   0.103E-02
  31 F= -.14229358E+03 E0= -.14229319E+03  d E =-.182256E-03
 trial-energy change:   -0.000182  1 .order   -0.000181   -0.000327   -0.000035
 step:   0.3519(harm=  0.3519)  dis= 0.00105  next Energy=  -142.293578 (dE=-0.183E-03)
 bond charge predicted
       N       E                     dE             d eps       ncg     rms          rms(c)
DAV:   1    -0.140387034064E+03    0.11388E-04   -0.24991E-04 90936   0.713E-02    0.372E-03
DAV:   2    -0.140387034296E+03   -0.23171E-06   -0.37001E-06 94800   0.864E-03
  32 F= -.14229358E+03 E0= -.14229320E+03  d E =-.184961E-03
 curvature:  -0.33 expect dE=-0.313E-04 dE for cont linesearch -0.646E-08
 trial: gam= 0.09108 g(F)=  0.935E-04 g(S)=  0.000E+00 ort = 0.618E-05 (trialstep = 0.321E+00)
 search vector abs. value=  0.111E-03
 bond charge predicted
       N       E                     dE             d eps       ncg     rms          rms(c)
DAV:   1    -0.140387079970E+03   -0.45905E-04   -0.10048E-03 92304   0.139E-01    0.790E-03
DAV:   2    -0.140387080285E+03   -0.31546E-06   -0.13860E-05 95208   0.158E-02    0.510E-03
DAV:   3    -0.140387080279E+03    0.58535E-08   -0.18027E-06108576   0.579E-03
  33 F= -.14229360E+03 E0= -.14229321E+03  d E =-.191143E-04
 trial-energy change:   -0.000019  1 .order   -0.000019   -0.000030   -0.000007
 step:   0.4212(harm=  0.4212)  dis= 0.00033  next Energy=  -142.293599 (dE=-0.198E-04)
 bond charge predicted
       N       E                     dE             d eps       ncg     rms          rms(c)
DAV:   1    -0.140387089928E+03   -0.96432E-05   -0.98452E-05114912   0.437E-02    0.270E-03
DAV:   2    -0.140387089939E+03   -0.10479E-07   -0.11768E-06 94488   0.478E-03
  34 F= -.14229360E+03 E0= -.14229322E+03  d E =-.204256E-04
 curvature:  -0.25 expect dE=-0.112E-04 dE for cont linesearch -0.165E-07
 trial: gam= 0.45796 g(F)=  0.451E-04 g(S)=  0.000E+00 ort = 0.272E-05 (trialstep = 0.341E+00)
 search vector abs. value=  0.709E-04
 bond charge predicted
       N       E                     dE             d eps       ncg     rms          rms(c)
DAV:   1    -0.140387156928E+03   -0.67000E-04   -0.68348E-04 93936   0.114E-01    0.591E-03
DAV:   2    -0.140387156775E+03    0.15256E-06   -0.68364E-06 92160   0.117E-02
  35 F= -.14229361E+03 E0= -.14229323E+03  d E =-.126558E-04
 trial-energy change:   -0.000013  1 .order   -0.000013   -0.000016   -0.000010
 step:   0.9514(harm=  0.9514)  dis= 0.00087  next Energy=  -142.293622 (dE=-0.220E-04)
 bond charge predicted
       N       E                     dE             d eps       ncg     rms          rms(c)
DAV:   1    -0.140387261810E+03   -0.10488E-03   -0.21569E-03 90816   0.202E-01    0.108E-02
DAV:   2    -0.140387261641E+03    0.16868E-06   -0.20161E-05 93000   0.201E-02    0.679E-03
DAV:   3    -0.140387262425E+03   -0.78372E-06   -0.20555E-06 80160   0.704E-03
  36 F= -.14229362E+03 E0= -.14229324E+03  d E =-.214905E-04
 curvature:  -0.73 expect dE=-0.176E-04 dE for cont linesearch -0.994E-07
 trial: gam= 0.63215 g(F)=  0.241E-04 g(S)=  0.000E+00 ort =-0.311E-05 (trialstep = 0.463E+00)
 search vector abs. value=  0.485E-04
 bond charge predicted
       N       E                     dE             d eps       ncg     rms          rms(c)
DAV:   1    -0.140387366429E+03   -0.10479E-03   -0.10613E-03 90696   0.142E-01    0.742E-03
DAV:   2    -0.140387366260E+03    0.16986E-06   -0.14606E-05 92448   0.168E-02    0.482E-03
DAV:   3    -0.140387366635E+03   -0.37576E-06   -0.14008E-06 85224   0.572E-03
  37 F= -.14229363E+03 E0= -.14229324E+03  d E =-.627383E-05
 trial-energy change:   -0.000006  1 .order   -0.000006   -0.000010   -0.000001
 step:   0.5136(harm=  0.5136)  dis= 0.00039  next Energy=  -142.293627 (dE=-0.570E-05)
 bond charge predicted
       N       E                     dE             d eps       ncg     rms          rms(c)
DAV:   1    -0.140387377442E+03   -0.11182E-04   -0.13995E-05 98544   0.164E-02    0.131E-03
DAV:   2    -0.140387377451E+03   -0.88003E-08   -0.21327E-07108552   0.219E-03
  38 F= -.14229363E+03 E0= -.14229324E+03  d E =-.647304E-05
 curvature:  -0.56 expect dE=-0.142E-04 dE for cont linesearch -0.254E-07
 trial: gam= 0.94465 g(F)=  0.253E-04 g(S)=  0.000E+00 ort = 0.148E-05 (trialstep = 0.322E+00)
 search vector abs. value=  0.714E-04
 bond charge predicted
       N       E                     dE             d eps       ncg     rms          rms(c)
DAV:   1    -0.140387486307E+03   -0.10887E-03   -0.81349E-04 90096   0.123E-01    0.618E-03
DAV:   2    -0.140387485991E+03    0.31680E-06   -0.10725E-05 91128   0.144E-02    0.394E-03
DAV:   3    -0.140387486188E+03   -0.19755E-06   -0.93135E-07 80208   0.472E-03
  39 F= -.14229363E+03 E0= -.14229325E+03  d E =-.683871E-05
 trial-energy change:   -0.000007  1 .order   -0.000007   -0.000009   -0.000005
 step:   0.7276(harm=  0.7276)  dis= 0.00051  next Energy=  -142.293638 (dE=-0.972E-05)
 bond charge predicted
       N       E                     dE             d eps       ncg     rms          rms(c)
DAV:   1    -0.140387618835E+03   -0.13284E-03   -0.13128E-03 88944   0.156E-01    0.817E-03
DAV:   2    -0.140387618334E+03    0.50126E-06   -0.17097E-05 89808   0.182E-02    0.517E-03
DAV:   3    -0.140387618673E+03   -0.33968E-06   -0.15710E-06 74496   0.616E-03
  40 F= -.14229364E+03 E0= -.14229325E+03  d E =-.108675E-04
 curvature:  -0.97 expect dE=-0.298E-04 dE for cont linesearch -0.290E-07
 trial: gam= 1.23452 g(F)=  0.307E-04 g(S)=  0.000E+00 ort = 0.146E-05 (trialstep = 0.201E+00)
 search vector abs. value=  0.143E-03
 bond charge predicted
       N       E                     dE             d eps       ncg     rms          rms(c)
DAV:   1    -0.140387724456E+03   -0.10612E-03   -0.67635E-04 90000   0.111E-01    0.591E-03
DAV:   2    -0.140387724109E+03    0.34735E-06   -0.91039E-06 90816   0.133E-02
  41 F= -.14229365E+03 E0= -.14229326E+03  d E =-.635132E-05
 ZBRENT: can't locate minimum, use default step
 trial-energy change:   -0.000006  1 .order   -0.000006   -0.000007   -0.000006
 step:   0.8041(harm=  7.3479)  dis= 0.00066  next Energy=  -142.293758 (dE=-0.119E-03)
 bond charge predicted
       N       E                     dE             d eps       ncg     rms          rms(c)
DAV:   1    -0.140388035479E+03   -0.31102E-03   -0.59052E-03 88944   0.328E-01    0.171E-02
DAV:   2    -0.140388033629E+03    0.18497E-05   -0.77627E-05 90168   0.389E-02    0.109E-02
DAV:   3    -0.140388034716E+03   -0.10863E-05   -0.74924E-06100320   0.131E-02    0.275E-03
DAV:   4    -0.140388034992E+03   -0.27601E-06   -0.22025E-06 92184   0.540E-03
  42 F= -.14229366E+03 E0= -.14229327E+03  d E =-.199241E-04
 curvature:  -2.62 expect dE=-0.807E-04 dE for cont linesearch -0.390E-05
 ZBRENT: increasing intervall
 opt :   2.0102  next Energy=  -142.293656 (dE=-0.170E-04)
 bond charge predicted
       N       E                     dE             d eps       ncg     rms          rms(c)
DAV:   1    -0.140388630721E+03   -0.59601E-03   -0.23888E-02 88800   0.658E-01    0.333E-02
DAV:   2    -0.140388628033E+03    0.26878E-05   -0.32429E-04 90792   0.791E-02    0.211E-02
DAV:   3    -0.140388627001E+03    0.10319E-05   -0.30273E-05107760   0.262E-02    0.552E-03
DAV:   4    -0.140388628019E+03   -0.10173E-05   -0.87402E-06 92544   0.107E-02    0.275E-03
DAV:   5    -0.140388628884E+03   -0.86505E-06   -0.27538E-07 74520   0.255E-03
  43 F= -.14229366E+03 E0= -.14229327E+03  d E =-.195930E-04
 curvature:   1.94 expect dE= 0.412E-03 dE for cont linesearch  0.402E-05
 ZBRENT: bracketing found
 ZBRENT: interpolating
 opt :   1.3578  next Energy=  -142.293663 (dE=-0.240E-04)
 bond charge predicted
       N       E                     dE             d eps       ncg     rms          rms(c)
DAV:   1    -0.140388313095E+03    0.31492E-03   -0.69640E-03 89040   0.355E-01    0.180E-02
DAV:   2    -0.140388311727E+03    0.13681E-05   -0.93995E-05 98160   0.426E-02    0.114E-02
DAV:   3    -0.140388311980E+03   -0.25329E-06   -0.88970E-06 96816   0.143E-02
  44 F= -.14229366E+03 E0= -.14229327E+03  d E =-.240388E-04
 curvature:  -1.95 expect dE=-0.173E-03 dE for cont linesearch -0.971E-06
 ZBRENT: bisectioning
 opt :   1.6840  next Energy=  -142.293665 (dE=-0.262E-04)
 bond charge predicted
       N       E                     dE             d eps       ncg     rms          rms(c)
DAV:   1    -0.140388472004E+03   -0.16028E-03   -0.16959E-03 91656   0.175E-01    0.794E-03
DAV:   2    -0.140388472049E+03   -0.44814E-07   -0.24751E-05 92544   0.214E-02    0.506E-03
DAV:   3    -0.140388471960E+03    0.88789E-07   -0.19977E-06 99408   0.672E-03
  45 F= -.14229366E+03 E0= -.14229327E+03  d E =-.233315E-04
 curvature:  -4.34 expect dE=-0.614E-03 dE for cont linesearch -0.316E-05
 ZBRENT: interpolating
 opt :   1.5054  next Energy=  -142.293663 (dE=-0.247E-04)
 bond charge predicted
       N       E                     dE             d eps       ncg     rms          rms(c)
DAV:   1    -0.140388385043E+03    0.87005E-04   -0.51263E-04 92280   0.963E-02    0.441E-03
DAV:   2    -0.140388385043E+03    0.17644E-09   -0.74329E-06 98352   0.117E-02
  46 F= -.14229366E+03 E0= -.14229327E+03  d E =-.243808E-04
 curvature:  -0.86 expect dE=-0.934E-04 dE for cont linesearch -0.990E-07
 trial: gam= 4.05828 g(F)=  0.109E-03 g(S)=  0.000E+00 ort =-0.407E-05 (trialstep = 0.272E-01)
 search vector abs. value=  0.243E-02
 bond charge predicted
       N       E                     dE             d eps       ncg     rms          rms(c)
DAV:   1    -0.140388444935E+03   -0.59892E-04   -0.21796E-04 95280   0.619E-02    0.275E-03
DAV:   2    -0.140388444909E+03    0.26675E-07   -0.33163E-06 90480   0.775E-03
  47 F= -.14229367E+03 E0= -.14229327E+03  d E =-.272707E-05
 ZBRENT: can't locate minimum, use default step
 trial-energy change:   -0.000003  1 .order   -0.000003   -0.000003   -0.000003
 step:   0.1087(harm=  0.1087)  dis= 0.00033  next Energy=  -142.293675 (dE=-0.115E-04)
 bond charge predicted
       N       E                     dE             d eps       ncg     rms          rms(c)
DAV:   1    -0.140388624007E+03   -0.17907E-03   -0.18408E-03 88944   0.182E-01    0.959E-03
DAV:   2    -0.140388623056E+03    0.95193E-06   -0.24160E-05 88944   0.216E-02    0.607E-03
DAV:   3    -0.140388623546E+03   -0.49007E-06   -0.23090E-06 95328   0.721E-03
  48 F= -.14229367E+03 E0= -.14229328E+03  d E =-.997080E-05
 curvature:  -2.20 expect dE=-0.237E-03 dE for cont linesearch -0.470E-05
 ZBRENT: increasing intervall
 opt :   0.2717  next Energy=  -142.293680 (dE=-0.173E-04)
 bond charge predicted
       N       E                     dE             d eps       ncg     rms          rms(c)
DAV:   1    -0.140388980324E+03   -0.35727E-03   -0.75104E-03 88800   0.366E-01    0.192E-02
DAV:   2    -0.140388977875E+03    0.24486E-05   -0.99214E-05 88800   0.438E-02    0.121E-02
DAV:   3    -0.140388978785E+03   -0.90981E-06   -0.94345E-06 98232   0.146E-02
  49 F= -.14229369E+03 E0= -.14229329E+03  d E =-.225189E-04
 curvature:  -3.44 expect dE=-0.386E-03 dE for cont linesearch -0.241E-05
 ZBRENT: increasing intervall
 opt :   0.5977  next Energy=  -142.293689 (dE=-0.259E-04)
 bond charge predicted
       N       E                     dE             d eps       ncg     rms          rms(c)
DAV:   1    -0.140389686394E+03   -0.70852E-03   -0.30041E-02 88800   0.733E-01    0.385E-02
DAV:   2    -0.140389682135E+03    0.42597E-05   -0.39671E-04 90480   0.876E-02    0.243E-02
DAV:   3    -0.140389680759E+03    0.13758E-05   -0.37644E-05102624   0.292E-02    0.596E-03
DAV:   4    -0.140389682002E+03   -0.12427E-05   -0.11218E-05 91824   0.120E-02    0.292E-03
DAV:   5    -0.140389683032E+03   -0.10307E-05   -0.31837E-07 74352   0.279E-03    0.644E-04
DAV:   6    -0.140389683045E+03   -0.12899E-07   -0.90379E-08106152   0.138E-03
  50 F= -.14229371E+03 E0= -.14229331E+03  d E =-.419068E-04
 curvature:  -4.83 expect dE=-0.700E-03 dE for cont linesearch -0.323E-05
 ZBRENT: increasing intervall
 opt :   1.2497  next Energy=  -142.293731 (dE=-0.676E-04)
 bond charge predicted
       N       E                     dE             d eps       ncg     rms          rms(c)
DAV:   1    -0.140391073717E+03   -0.13907E-02   -0.11922E-01 88800   0.146E+00    0.748E-02
DAV:   2    -0.140391060700E+03    0.13017E-04   -0.16022E-03 91200   0.175E-01    0.472E-02
DAV:   3    -0.140391052593E+03    0.81073E-05   -0.14682E-04104544   0.575E-02    0.119E-02
DAV:   4    -0.140391055914E+03   -0.33213E-05   -0.42791E-05 91920   0.233E-02    0.571E-03
DAV:   5    -0.140391058873E+03   -0.29583E-05   -0.13126E-06103104   0.535E-03    0.124E-03
DAV:   6    -0.140391058902E+03   -0.29939E-07   -0.23346E-07 93768   0.202E-03
  51 F= -.14229371E+03 E0= -.14229331E+03  d E =-.493538E-04
 curvature: -38.42 expect dE=-0.113E-01 dE for cont linesearch -0.720E-05
 trial: gam= 1.80839 g(F)=  0.293E-03 g(S)=  0.000E+00 ort =-0.214E-04 (trialstep = 0.809E-01)
 search vector abs. value=  0.817E-02
 bond charge predicted
       N       E                     dE             d eps       ncg     rms          rms(c)
DAV:   1    -0.140391391299E+03   -0.33243E-03   -0.61415E-03 88800   0.332E-01    0.171E-02
DAV:   2    -0.140391389459E+03    0.18402E-05   -0.84368E-05 98448   0.402E-02    0.108E-02
DAV:   3    -0.140391390058E+03   -0.59912E-06   -0.78050E-06 95112   0.133E-02
  52 F= -.14229373E+03 E0= -.14229333E+03  d E =-.190451E-04
 trial-energy change:   -0.000019  1 .order   -0.000017   -0.000021   -0.000014
 step:   0.2460(harm=  0.2460)  dis= 0.00132  next Energy=  -142.293744 (dE=-0.313E-04)
 bond charge predicted
       N       E                     dE             d eps       ncg     rms          rms(c)
DAV:   1    -0.140392060391E+03   -0.67093E-03   -0.25771E-02 88800   0.679E-01    0.359E-02
DAV:   2    -0.140392056341E+03    0.40501E-05   -0.34626E-04 88800   0.820E-02    0.226E-02
DAV:   3    -0.140392055654E+03    0.68761E-06   -0.33191E-05 98232   0.274E-02    0.565E-03
DAV:   4    -0.140392056713E+03   -0.10589E-05   -0.97797E-06 90720   0.113E-02    0.280E-03
DAV:   5    -0.140392057720E+03   -0.10077E-05   -0.28916E-07 68760   0.263E-03    0.608E-04
DAV:   6    -0.140392057803E+03   -0.82796E-07   -0.84823E-08 89952   0.133E-03
  53 F= -.14229376E+03 E0= -.14229335E+03  d E =-.498563E-04
 curvature:  -3.95 expect dE=-0.539E-03 dE for cont linesearch -0.952E-05
 ZBRENT: increasing intervall
 opt :   0.5763  next Energy=  -142.293799 (dE=-0.861E-04)
 bond charge predicted
       N       E                     dE             d eps       ncg     rms          rms(c)
DAV:   1    -0.140393363024E+03   -0.13053E-02   -0.10229E-01 88800   0.135E+00    0.696E-02
DAV:   2    -0.140393353917E+03    0.91067E-05   -0.13968E-03 89088   0.164E-01    0.439E-02
DAV:   3    -0.140393345665E+03    0.82525E-05   -0.12889E-04104928   0.539E-02    0.112E-02
DAV:   4    -0.140393348775E+03   -0.31101E-05   -0.37022E-05 91512   0.218E-02    0.545E-03
DAV:   5    -0.140393351378E+03   -0.26033E-05   -0.11941E-06101640   0.505E-03    0.118E-03
DAV:   6    -0.140393351440E+03   -0.62060E-07   -0.21934E-07 91200   0.196E-03
  54 F= -.14229378E+03 E0= -.14229337E+03  d E =-.710909E-04
 curvature: -15.06 expect dE=-0.212E-02 dE for cont linesearch -0.594E-06
 trial: gam= 0.37924 g(F)=  0.141E-03 g(S)=  0.000E+00 ort =-0.180E-04 (trialstep = 0.180E+00)
 search vector abs. value=  0.130E-02
 bond charge predicted
       N       E                     dE             d eps       ncg     rms          rms(c)
DAV:   1    -0.140393640960E+03   -0.28958E-03   -0.46695E-03 88800   0.289E-01    0.150E-02
DAV:   2    -0.140393639682E+03    0.12775E-05   -0.62241E-05106296   0.345E-02    0.935E-03
DAV:   3    -0.140393640069E+03   -0.38707E-06   -0.56464E-06 95136   0.114E-02
  55 F= -.14229381E+03 E0= -.14229339E+03  d E =-.215755E-04
 trial-energy change:   -0.000022  1 .order   -0.000020   -0.000024   -0.000016
 step:   0.5345(harm=  0.5345)  dis= 0.00166  next Energy=  -142.293819 (dE=-0.358E-04)
 bond charge predicted
       N       E                     dE             d eps       ncg     rms          rms(c)
DAV:   1    -0.140394194716E+03   -0.55503E-03   -0.18239E-02 88800   0.572E-01    0.304E-02
DAV:   2    -0.140394191028E+03    0.36884E-05   -0.23793E-04 90288   0.679E-02    0.190E-02
DAV:   3    -0.140394191393E+03   -0.36532E-06   -0.22569E-05 94944   0.226E-02    0.467E-03
DAV:   4    -0.140394192317E+03   -0.92385E-06   -0.67312E-06 91416   0.931E-03
  56 F= -.14229383E+03 E0= -.14229341E+03  d E =-.481330E-04
 curvature:  -2.60 expect dE=-0.195E-03 dE for cont linesearch -0.390E-05
 ZBRENT: increasing intervall
 opt :   1.2434  next Energy=  -142.293831 (dE=-0.478E-04)
 bond charge predicted
       N       E                     dE             d eps       ncg     rms          rms(c)
DAV:   1    -0.140395239102E+03   -0.10477E-02   -0.72387E-02 88800   0.114E+00    0.589E-02
DAV:   2    -0.140395234140E+03    0.49626E-05   -0.95629E-04 89568   0.136E-01    0.368E-02
DAV:   3    -0.140395227997E+03    0.61425E-05   -0.86616E-05109824   0.442E-02    0.926E-03
DAV:   4    -0.140395230433E+03   -0.24361E-05   -0.25013E-05 92736   0.178E-02    0.446E-03
DAV:   5    -0.140395232105E+03   -0.16717E-05   -0.80184E-07 83376   0.419E-03    0.983E-04
DAV:   6    -0.140395232189E+03   -0.84350E-07   -0.18900E-07 99840   0.192E-03
  57 F= -.14229382E+03 E0= -.14229339E+03  d E =-.376644E-04
 curvature:   0.20 expect dE= 0.743E-04 dE for cont linesearch  0.936E-06
 ZBRENT: bracketing found
 ZBRENT: interpolating
 opt :   0.7927  next Energy=  -142.293837 (dE=-0.538E-04)
 bond charge predicted
       N       E                     dE             d eps       ncg     rms          rms(c)
DAV:   1    -0.140394584344E+03    0.64776E-03   -0.29239E-02 88800   0.724E-01    0.374E-02
DAV:   2    -0.140394580742E+03    0.36015E-05   -0.38850E-04 99984   0.862E-02    0.235E-02
DAV:   3    -0.140394580831E+03   -0.89292E-07   -0.35574E-05101472   0.284E-02    0.577E-03
DAV:   4    -0.140394581420E+03   -0.58883E-06   -0.10458E-05 91488   0.116E-02    0.279E-03
DAV:   5    -0.140394582247E+03   -0.82651E-06   -0.30538E-07 73992   0.270E-03
  58 F= -.14229384E+03 E0= -.14229342E+03  d E =-.553055E-04
 curvature:  -1.25 expect dE=-0.162E-03 dE for cont linesearch -0.378E-07
 trial: gam= 0.90954 g(F)=  0.130E-03 g(S)=  0.000E+00 ort = 0.628E-05 (trialstep = 0.303E+00)
 search vector abs. value=  0.122E-02
 bond charge predicted
       N       E                     dE             d eps       ncg     rms          rms(c)
DAV:   1    -0.140395022032E+03   -0.44061E-03   -0.11918E-02 88800   0.464E-01    0.243E-02
DAV:   2    -0.140395019633E+03    0.23991E-05   -0.15866E-04 89472   0.552E-02    0.153E-02
DAV:   3    -0.140395019940E+03   -0.30701E-06   -0.14863E-05 90528   0.182E-02    0.390E-03
DAV:   4    -0.140395020509E+03   -0.56868E-06   -0.42711E-06 91896   0.745E-03
  59 F= -.14229386E+03 E0= -.14229344E+03  d E =-.233781E-04
 trial-energy change:   -0.000023  1 .order   -0.000024   -0.000041   -0.000008
 step:   0.3715(harm=  0.3715)  dis= 0.00113  next Energy=  -142.293864 (dE=-0.252E-04)
 bond charge predicted
       N       E                     dE             d eps       ncg     rms          rms(c)
DAV:   1    -0.140395116411E+03   -0.96471E-04   -0.62061E-04 89160   0.106E-01    0.548E-03
DAV:   2    -0.140395116186E+03    0.22568E-06   -0.82449E-06 93672   0.126E-02
  60 F= -.14229386E+03 E0= -.14229344E+03  d E =-.245732E-04
 curvature:  -1.67 expect dE=-0.634E-04 dE for cont linesearch -0.406E-07
 trial: gam= 0.30351 g(F)=  0.381E-04 g(S)=  0.000E+00 ort = 0.545E-05 (trialstep = 0.316E+00)
 search vector abs. value=  0.154E-03
 bond charge predicted
       N       E                     dE             d eps       ncg     rms          rms(c)
DAV:   1    -0.140395260357E+03   -0.14395E-03   -0.14439E-03 89496   0.163E-01    0.916E-03
DAV:   2    -0.140395259904E+03    0.45329E-06   -0.17273E-05 90480   0.185E-02    0.572E-03
DAV:   3    -0.140395260375E+03   -0.47188E-06   -0.17684E-06 93960   0.631E-03
  61 F= -.14229387E+03 E0= -.14229345E+03  d E =-.849365E-05
 trial-energy change:   -0.000008  1 .order   -0.000008   -0.000013   -0.000004
 step:   0.4430(harm=  0.4430)  dis= 0.00060  next Energy=  -142.293872 (dE=-0.880E-05)
 bond charge predicted
       N       E                     dE             d eps       ncg     rms          rms(c)
DAV:   1    -0.140395316004E+03   -0.56100E-04   -0.24461E-04 90120   0.670E-02    0.396E-03
DAV:   2    -0.140395315897E+03    0.10698E-06   -0.30000E-06 97776   0.771E-03
  62 F= -.14229387E+03 E0= -.14229345E+03  d E =-.965570E-05
 curvature:  -0.86 expect dE=-0.112E-04 dE for cont linesearch -0.185E-06
 ZBRENT: increasing intervall
 opt :   0.6965  next Energy=  -142.293873 (dE=-0.970E-05)
 bond charge predicted
       N       E                     dE             d eps       ncg     rms          rms(c)
DAV:   1    -0.140395423494E+03   -0.10749E-03   -0.92764E-04 89112   0.131E-01    0.721E-03
DAV:   2    -0.140395423229E+03    0.26513E-06   -0.11093E-05 90240   0.148E-02    0.452E-03
DAV:   3    -0.140395423531E+03   -0.30228E-06   -0.10283E-06 72312   0.495E-03
  63 F= -.14229387E+03 E0= -.14229344E+03  d E =-.862201E-05
 curvature:  -0.18 expect dE=-0.687E-05 dE for cont linesearch -0.325E-06
 ZBRENT: bracketing found
 ZBRENT: interpolating
 opt :   0.5086  next Energy=  -142.293873 (dE=-0.984E-05)
 bond charge predicted
       N       E                     dE             d eps       ncg     rms          rms(c)
DAV:   1    -0.140395344404E+03    0.78824E-04   -0.50932E-04 89088   0.967E-02    0.483E-03
DAV:   2    -0.140395344347E+03    0.57793E-07   -0.68620E-06 97752   0.114E-02
  64 F= -.14229387E+03 E0= -.14229345E+03  d E =-.997830E-05
 curvature:  -0.11 expect dE=-0.179E-05 dE for cont linesearch -0.102E-08
 trial: gam= 0.46201 g(F)=  0.168E-04 g(S)=  0.000E+00 ort =-0.121E-05 (trialstep = 0.355E+00)
 search vector abs. value=  0.485E-04
 bond charge predicted
       N       E                     dE             d eps       ncg     rms          rms(c)
DAV:   1    -0.140395415411E+03   -0.71006E-04   -0.55736E-04 89688   0.103E-01    0.519E-03
DAV:   2    -0.140395415417E+03   -0.65947E-08   -0.82005E-06 90024   0.123E-02
  65 F= -.14229388E+03 E0= -.14229345E+03  d E =-.291691E-05
 trial-energy change:   -0.000003  1 .order   -0.000003   -0.000006    0.000000
 step:   0.3492(harm=  0.3492)  dis= 0.00021  next Energy=  -142.293876 (dE=-0.284E-05)
 bond charge predicted
       N       E                     dE             d eps       ncg     rms          rms(c)
DAV:   1    -0.140395414345E+03    0.10659E-05   -0.10758E-06 73536   0.487E-03    0.813E-04
DAV:   2    -0.140395414386E+03   -0.41880E-07   -0.19852E-07 77400   0.181E-03
  66 F= -.14229388E+03 E0= -.14229345E+03  d E =-.294736E-05
 curvature:  -0.52 expect dE=-0.147E-05 dE for cont linesearch -0.562E-08
 ZBRENT: interpolating
 opt :   0.3344  next Energy=  -142.293876 (dE=-0.295E-05)
 bond charge predicted
       N       E                     dE             d eps       ncg     rms          rms(c)
DAV:   1    -0.140395411564E+03    0.27808E-05   -0.92028E-07 83040   0.423E-03    0.189E-04
DAV:   2    -0.140395411577E+03   -0.12784E-07   -0.30159E-08 95640   0.867E-04
  67 F= -.14229388E+03 E0= -.14229345E+03  d E =-.299786E-05
 curvature:  -0.50 expect dE=-0.129E-05 dE for cont linesearch -0.722E-09
 trial: gam= 0.13693 g(F)=  0.258E-05 g(S)=  0.000E+00 ort = 0.265E-06 (trialstep = 0.351E+00)
 search vector abs. value=  0.357E-05
 bond charge predicted
       N       E                     dE             d eps       ncg     rms          rms(c)
DAV:   1    -0.140395422030E+03   -0.10466E-04   -0.35386E-05 96336   0.256E-02    0.129E-03
DAV:   2    -0.140395422009E+03    0.21016E-07   -0.28309E-07 72360   0.249E-03
  68 F= -.14229388E+03 E0= -.14229345E+03  d E =-.745504E-06
 trial-energy change:   -0.000001  1 .order   -0.000001   -0.000001   -0.000001
 step:   1.1181(harm=  1.1181)  dis= 0.00014  next Energy=  -142.293878 (dE=-0.146E-05)
 bond charge predicted
       N       E                     dE             d eps       ncg     rms          rms(c)
DAV:   1    -0.140395443828E+03   -0.21798E-04   -0.16716E-04 89472   0.558E-02    0.287E-03
DAV:   2    -0.140395443740E+03    0.87662E-07   -0.12868E-06 73056   0.531E-03
  69 F= -.14229388E+03 E0= -.14229345E+03  d E =-.124442E-05
 curvature:  -0.76 expect dE=-0.591E-06 dE for cont linesearch -0.223E-10
 trial: gam= 0.32965 g(F)=  0.777E-06 g(S)=  0.000E+00 ort =-0.102E-07 (trialstep = 0.504E+00)
 search vector abs. value=  0.116E-05
 bond charge predicted
       N       E                     dE             d eps       ncg     rms          rms(c)
DAV:   1    -0.140395452377E+03   -0.85494E-05   -0.27615E-05 90864   0.240E-02    0.133E-03
DAV:   2    -0.140395452364E+03    0.13309E-07   -0.42096E-07 73656   0.307E-03
  70 F= -.14229388E+03 E0= -.14229345E+03  d E =-.206531E-06
 trial-energy change:   -0.000000  1 .order   -0.000000   -0.000000    0.000000
 step:   0.3402(harm=  0.3402)  dis= 0.00002  next Energy=  -142.293878 (dE=-0.132E-06)
 bond charge predicted
       N       E                     dE             d eps       ncg     rms          rms(c)
DAV:   1    -0.140395449694E+03    0.26828E-05   -0.33758E-06 97248   0.817E-03    0.365E-04
DAV:   2    -0.140395449700E+03   -0.52560E-08   -0.68330E-08 94584   0.122E-03
  71 F= -.14229388E+03 E0= -.14229345E+03  d E =-.279761E-06
 curvature:  -0.25 expect dE=-0.249E-07 dE for cont linesearch -0.815E-09
 trial: gam= 0.16020 g(F)=  0.979E-07 g(S)=  0.000E+00 ort =-0.609E-07 (trialstep = 0.471E+00)
 search vector abs. value=  0.108E-06
 reached required accuracy - stopping structural energy minimisation
