    2    2    1    1
  0.3953030E+02  0.2467000E-09  0.2467000E-09  0.1500000E-08  0.5000000E-15
  1.000000000000000E-004
  CAR 
 SC                                      
      8    289     48
 
  0.0000000E+00  0.0000000E+00  0.0000000E+00  0.9182736E-03
      1        -21.757118   1.000000
      2         -9.860608   1.000000
      3         -5.282613   1.000000
      4         -5.282571   1.000000
      5          1.008417   0.000000
      6          1.913503   0.000000
      7          2.448793   0.000000
      8          4.340524   0.000000
      9          5.099374   0.000000
     10          6.062992   0.000000
     11          6.063050   0.000000
     12          8.238074   0.000000
     13          9.161215   0.000000
     14          9.351693   0.000000
     15         10.217867   0.000000
     16         13.562809   0.000000
     17         15.072411   0.000000
     18         20.126511   0.000000
     19         20.225943   0.000000
     20         22.222023   0.000000
     21         25.917986   0.000000
     22         25.917997   0.000000
     23         27.117354   0.000000
     24         29.332494   0.000000
     25         29.332508   0.000000
     26         30.721641   0.000000
     27         31.454089   0.000000
     28         32.945901   0.000000
     29         32.945903   0.000000
     30         33.452286   0.000000
     31         33.452292   0.000000
     32         33.940854   0.000000
     33         34.197677   0.000000
     34         34.480007   0.000000
     35         35.128462   0.000000
     36         35.128475   0.000000
     37         35.220229   0.000000
     38         35.220248   0.000000
     39         35.273128   0.000000
     40         35.273151   0.000000
     41         35.302960   0.000000
     42         35.402922   0.000000
     43         35.415777   0.000000
     44         35.415787   0.000000
     45         35.637112   0.000000
     46         36.742677   0.000000
     47         37.341010   0.000000
     48         37.455217   0.000000
 
  0.3030303E-01 -0.1930957E-17  0.0000000E+00  0.3673095E-02
      1        -21.735419   1.000000
      2         -9.834756   1.000000
      3         -5.372585   1.000000
      4         -5.330103   1.000000
      5          1.037856   0.000000
      6          1.943181   0.000000
      7          2.478776   0.000000
      8          4.370008   0.000000
      9          5.128090   0.000000
     10          6.078118   0.000000
     11          6.158646   0.000000
     12          8.266661   0.000000
     13          9.084537   0.000000
     14          9.381505   0.000000
     15         10.256292   0.000000
     16         13.589196   0.000000
     17         15.101686   0.000000
     18         20.142577   0.000000
     19         20.297809   0.000000
     20         22.250343   0.000000
     21         25.684291   0.000000
     22         25.693412   0.000000
     23         26.965089   0.000000
     24         29.392307   0.000000
     25         29.618699   0.000000
     26         30.748205   0.000000
     27         31.577297   0.000000
     28         31.925742   0.000000
     29         32.226328   0.000000
     30         32.969966   0.000000
     31         33.090958   0.000000
     32         33.339750   0.000000
     33         34.066410   0.000000
     34         34.169897   0.000000
     35         34.310085   0.000000
     36         34.338035   0.000000
     37         34.383140   0.000000
     38         34.785674   0.000000
     39         35.361651   0.000000
     40         35.590623   0.000000
     41         35.879828   0.000000
     42         36.073126   0.000000
     43         36.264154   0.000000
     44         36.266422   0.000000
     45         36.455983   0.000000
     46         36.487861   0.000000
     47         36.572107   0.000000
     48         36.902964   0.000000
 
 -0.3030303E-01  0.3030303E-01  0.0000000E+00  0.1836547E-02
      1        -21.735419   1.000000
      2         -9.834756   1.000000
      3         -5.372616   1.000000
      4         -5.330072   1.000000
      5          1.037856   0.000000
      6          1.943181   0.000000
      7          2.478776   0.000000
      8          4.370008   0.000000
      9          5.128091   0.000000
     10          6.078161   0.000000
     11          6.158602   0.000000
     12          8.266661   0.000000
     13          9.084537   0.000000
     14          9.381505   0.000000
     15         10.256293   0.000000
     16         13.589196   0.000000
     17         15.101686   0.000000
     18         20.142577   0.000000
     19         20.297809   0.000000
     20         22.250343   0.000000
     21         25.684297   0.000000
     22         25.693409   0.000000
     23         26.965084   0.000000
     24         29.392315   0.000000
     25         29.618690   0.000000
     26         30.748205   0.000000
     27         31.577300   0.000000
     28         31.925744   0.000000
     29         32.226325   0.000000
     30         32.969967   0.000000
     31         33.090960   0.000000
     32         33.339753   0.000000
     33         34.066413   0.000000
     34         34.169894   0.000000
     35         34.310075   0.000000
     36         34.338032   0.000000
     37         34.383139   0.000000
     38         34.785672   0.000000
     39         35.361656   0.000000
     40         35.590628   0.000000
     41         35.879834   0.000000
     42         36.073132   0.000000
     43         36.264146   0.000000
     44         36.266414   0.000000
     45         36.455982   0.000000
     46         36.487860   0.000000
     47         36.572102   0.000000
     48         36.902961   0.000000
 
  0.6060606E-01 -0.3861913E-17  0.0000000E+00  0.3673095E-02
      1        -21.670345   1.000000
      2         -9.757133   1.000000
      3         -5.635522   1.000000
      4         -5.467534   1.000000
      5          1.126187   0.000000
      6          2.032245   0.000000
      7          2.568732   0.000000
      8          4.458501   0.000000
      9          5.214198   0.000000
     10          6.111909   0.000000
     11          6.437707   0.000000
     12          8.352458   0.000000
     13          8.858707   0.000000
     14          9.470760   0.000000
     15         10.375673   0.000000
     16         13.668287   0.000000
     17         15.189306   0.000000
     18         20.185971   0.000000
     19         20.506516   0.000000
     20         22.335871   0.000000
     21         24.957752   0.000000
     22         25.137166   0.000000
     23         26.914795   0.000000
     24         29.476481   0.000000
     25         29.834385   0.000000
     26         30.316274   0.000000
     27         30.828863   0.000000
     28         31.351729   0.000000
     29         31.355488   0.000000
     30         31.439440   0.000000
     31         32.196381   0.000000
     32         33.054160   0.000000
     33         33.147357   0.000000
     34         33.371967   0.000000
     35         33.432090   0.000000
     36         33.522397   0.000000
     37         33.898280   0.000000
     38         33.919946   0.000000
     39         35.234196   0.000000
     40         35.520461   0.000000
     41         35.701390   0.000000
     42         35.945905   0.000000
     43         35.952640   0.000000
     44         36.117601   0.000000
     45         36.859525   0.000000
     46         37.351087   0.000000
     47         37.383928   0.000000
     48         37.406766   0.000000
 
 -0.6060606E-01  0.6060606E-01  0.0000000E+00  0.1836547E-02
      1        -21.670345   1.000000
      2         -9.757133   1.000000
      3         -5.635551   1.000000
      4         -5.467505   1.000000
      5          1.126187   0.000000
      6          2.032245   0.000000
      7          2.568732   0.000000
      8          4.458501   0.000000
      9          5.214198   0.000000
     10          6.111948   0.000000
     11          6.437665   0.000000
     12          8.352458   0.000000
     13          8.858706   0.000000
     14          9.470761   0.000000
     15         10.375675   0.000000
     16         13.668287   0.000000
     17         15.189306   0.000000
     18         20.185971   0.000000
     19         20.506517   0.000000
     20         22.335871   0.000000
     21         24.957756   0.000000
     22         25.137170   0.000000
     23         26.914784   0.000000
     24         29.476486   0.000000
     25         29.834388   0.000000
     26         30.316267   0.000000
     27         30.828863   0.000000
     28         31.351731   0.000000
     29         31.355485   0.000000
     30         31.439443   0.000000
     31         32.196381   0.000000
     32         33.054164   0.000000
     33         33.147359   0.000000
     34         33.371964   0.000000
     35         33.432080   0.000000
     36         33.522398   0.000000
     37         33.898281   0.000000
     38         33.919951   0.000000
     39         35.234195   0.000000
     40         35.520462   0.000000
     41         35.701379   0.000000
     42         35.945905   0.000000
     43         35.952638   0.000000
     44         36.117607   0.000000
     45         36.859530   0.000000
     46         37.351085   0.000000
     47         37.383905   0.000000
     48         37.406757   0.000000
 
  0.9090909E-01 -0.1308691E-16  0.0000000E+00  0.3673095E-02
      1        -21.561995   1.000000
      2         -9.628047   1.000000
      3         -6.050305   1.000000
      4         -5.679785   1.000000
      5          1.273422   0.000000
      6          2.180608   0.000000
      7          2.718673   0.000000
      8          4.605866   0.000000
      9          5.357208   0.000000
     10          6.143665   0.000000
     11          6.885363   0.000000
     12          8.480721   0.000000
     13          8.509825   0.000000
     14          9.618880   0.000000
     15         10.584653   0.000000
     16         13.798750   0.000000
     17         15.334699   0.000000
     18         20.236413   0.000000
     19         20.829029   0.000000
     20         22.480596   0.000000
     21         23.981884   0.000000
     22         24.477893   0.000000
     23         27.057162   0.000000
     24         28.114553   0.000000
     25         29.343220   0.000000
     26         29.630901   0.000000
     27         29.827848   0.000000
     28         30.529826   0.000000
     29         30.958127   0.000000
     30         31.175955   0.000000
     31         31.380024   0.000000
     32         31.909821   0.000000
     33         32.168115   0.000000
     34         32.529192   0.000000
     35         32.663309   0.000000
     36         32.702322   0.000000
     37         32.744295   0.000000
     38         34.410149   0.000000
     39         34.824463   0.000000
     40         34.852922   0.000000
     41         35.144028   0.000000
     42         35.372414   0.000000
     43         36.039587   0.000000
     44         36.060933   0.000000
     45         36.358025   0.000000
     46         37.356846   0.000000
     47         38.075617   0.000000
     48         38.328640   0.000000
 
 -0.9090909E-01  0.9090909E-01  0.0000000E+00  0.1836547E-02
      1        -21.561995   1.000000
      2         -9.628047   1.000000
      3         -6.050332   1.000000
      4         -5.679757   1.000000
      5          1.273422   0.000000
      6          2.180608   0.000000
      7          2.718674   0.000000
      8          4.605866   0.000000
      9          5.357209   0.000000
     10          6.143699   0.000000
     11          6.885323   0.000000
     12          8.480722   0.000000
     13          8.509822   0.000000
     14          9.618880   0.000000
     15         10.584657   0.000000
     16         13.798750   0.000000
     17         15.334699   0.000000
     18         20.236415   0.000000
     19         20.829030   0.000000
     20         22.480596   0.000000
     21         23.981890   0.000000
     22         24.477896   0.000000
     23         27.057150   0.000000
     24         28.114556   0.000000
     25         29.343224   0.000000
     26         29.630905   0.000000
     27         29.827850   0.000000
     28         30.529822   0.000000
     29         30.958127   0.000000
     30         31.175951   0.000000
     31         31.380024   0.000000
     32         31.909823   0.000000
     33         32.168121   0.000000
     34         32.529188   0.000000
     35         32.663298   0.000000
     36         32.702327   0.000000
     37         32.744291   0.000000
     38         34.410151   0.000000
     39         34.824454   0.000000
     40         34.852925   0.000000
     41         35.144025   0.000000
     42         35.372419   0.000000
     43         36.039588   0.000000
     44         36.060938   0.000000
     45         36.358021   0.000000
     46         37.356838   0.000000
     47         38.075617   0.000000
     48         38.328640   0.000000
 
  0.1212121E+00 -0.7723827E-17  0.0000000E+00  0.3673095E-02
      1        -21.410519   1.000000
      2         -9.447936   1.000000
      3         -6.590410   1.000000
      4         -5.948054   1.000000
      5          1.479553   0.000000
      6          2.388144   0.000000
      7          2.928603   0.000000
      8          4.811882   0.000000
      9          5.554728   0.000000
     10          6.156664   0.000000
     11          7.481619   0.000000
     12          8.008350   0.000000
     13          8.696083   0.000000
     14          9.825022   0.000000
     15         10.887933   0.000000
     16         13.978521   0.000000
     17         15.537100   0.000000
     18         20.242757   0.000000
     19         21.222554   0.000000
     20         22.688703   0.000000
     21         23.044626   0.000000
     22         23.801622   0.000000
     23         26.458116   0.000000
     24         27.141003   0.000000
     25         27.878294   0.000000
     26         27.969873   0.000000
     27         29.662822   0.000000
     28         29.758211   0.000000
     29         30.326359   0.000000
     30         30.373302   0.000000
     31         30.774767   0.000000
     32         31.164707   0.000000
     33         31.525332   0.000000
     34         31.745094   0.000000
     35         31.968429   0.000000
     36         32.017657   0.000000
     37         32.551667   0.000000
     38         33.926488   0.000000
     39         34.051904   0.000000
     40         34.426832   0.000000
     41         34.429364   0.000000
     42         34.639208   0.000000
     43         34.788161   0.000000
     44         35.988463   0.000000
     45         37.470234   0.000000
     46         37.932994   0.000000
     47         38.068764   0.000000
     48         38.135180   0.000000
 
 -0.1212121E+00  0.1212121E+00  0.0000000E+00  0.1836547E-02
      1        -21.410519   1.000000
      2         -9.447936   1.000000
      3         -6.590434   1.000000
      4         -5.948029   1.000000
      5          1.479553   0.000000
      6          2.388144   0.000000
      7          2.928603   0.000000
      8          4.811882   0.000000
      9          5.554729   0.000000
     10          6.156692   0.000000
     11          7.481581   0.000000
     12          8.008347   0.000000
     13          8.696083   0.000000
     14          9.825022   0.000000
     15         10.887939   0.000000
     16         13.978522   0.000000
     17         15.537100   0.000000
     18         20.242761   0.000000
     19         21.222556   0.000000
     20         22.688703   0.000000
     21         23.044632   0.000000
     22         23.801624   0.000000
     23         26.458118   0.000000
     24         27.140996   0.000000
     25         27.878297   0.000000
     26         27.969873   0.000000
     27         29.662826   0.000000
     28         29.758208   0.000000
     29         30.326360   0.000000
     30         30.373302   0.000000
     31         30.774770   0.000000
     32         31.164706   0.000000
     33         31.525327   0.000000
     34         31.745090   0.000000
     35         31.968426   0.000000
     36         32.017661   0.000000
     37         32.551660   0.000000
     38         33.926488   0.000000
     39         34.051894   0.000000
     40         34.426829   0.000000
     41         34.429368   0.000000
     42         34.639211   0.000000
     43         34.788165   0.000000
     44         35.988467   0.000000
     45         37.470232   0.000000
     46         37.932999   0.000000
     47         38.068760   0.000000
     48         38.135176   0.000000
 
  0.1515152E+00  0.2413476E-17  0.0000000E+00  0.3673095E-02
      1        -21.216150   1.000000
      2         -9.217517   1.000000
      3         -7.227023   1.000000
      4         -6.252322   1.000000
      5          1.744518   0.000000
      6          2.654584   0.000000
      7          3.198500   0.000000
      8          5.075951   0.000000
      9          5.792840   0.000000
     10          6.151205   0.000000
     11          7.417754   0.000000
     12          8.201378   0.000000
     13          8.951991   0.000000
     14         10.088461   0.000000
     15         11.279283   0.000000
     16         14.203906   0.000000
     17         15.795623   0.000000
     18         20.088706   0.000000
     19         21.602261   0.000000
     20         22.334965   0.000000
     21         22.962910   0.000000
     22         23.146896   0.000000
     23         24.911741   0.000000
     24         26.065847   0.000000
     25         26.196985   0.000000
     26         27.476972   0.000000
     27         28.765629   0.000000
     28         28.942050   0.000000
     29         29.042369   0.000000
     30         29.650033   0.000000
     31         30.017766   0.000000
     32         30.948645   0.000000
     33         31.020579   0.000000
     34         31.231990   0.000000
     35         31.424820   0.000000
     36         31.556472   0.000000
     37         32.739206   0.000000
     38         32.920815   0.000000
     39         33.146318   0.000000
     40         33.333035   0.000000
     41         33.805576   0.000000
     42         34.041500   0.000000
     43         34.130551   0.000000
     44         36.684737   0.000000
     45         37.350474   0.000000
     46         37.729576   0.000000
     47         37.855760   0.000000
     48         38.120329   0.000000
 
 -0.1515152E+00  0.1515152E+00  0.0000000E+00  0.1836547E-02
      1        -21.216150   1.000000
      2         -9.217516   1.000000
      3         -7.227044   1.000000
      4         -6.252298   1.000000
      5          1.744519   0.000000
      6          2.654584   0.000000
      7          3.198500   0.000000
      8          5.075951   0.000000
      9          5.792844   0.000000
     10          6.151225   0.000000
     11          7.417750   0.000000
     12          8.201342   0.000000
     13          8.951992   0.000000
     14         10.088461   0.000000
     15         11.279290   0.000000
     16         14.203907   0.000000
     17         15.795623   0.000000
     18         20.088713   0.000000
     19         21.602266   0.000000
     20         22.334968   0.000000
     21         22.962910   0.000000
     22         23.146897   0.000000
     23         24.911741   0.000000
     24         26.065849   0.000000
     25         26.196987   0.000000
     26         27.476966   0.000000
     27         28.765631   0.000000
     28         28.942050   0.000000
     29         29.042365   0.000000
     30         29.650033   0.000000
     31         30.017769   0.000000
     32         30.948637   0.000000
     33         31.020575   0.000000
     34         31.231986   0.000000
     35         31.424821   0.000000
     36         31.556476   0.000000
     37         32.739208   0.000000
     38         32.920819   0.000000
     39         33.146317   0.000000
     40         33.333025   0.000000
     41         33.805574   0.000000
     42         34.041505   0.000000
     43         34.130546   0.000000
     44         36.684737   0.000000
     45         37.350470   0.000000
     46         37.729578   0.000000
     47         37.855753   0.000000
     48         38.120331   0.000000
 
  0.1818182E+00 -0.7048282E-17  0.0000000E+00  0.3673095E-02
      1        -20.979177   1.000000
      2         -8.937720   1.000000
      3         -7.933480   1.000000
      4         -6.574255   1.000000
      5          2.068213   0.000000
      6          2.979448   0.000000
      7          3.528309   0.000000
      8          5.396040   0.000000
      9          5.952160   0.000000
     10          6.247275   0.000000
     11          6.745021   0.000000
     12          9.024127   0.000000
     13          9.263525   0.000000
     14         10.408838   0.000000
     15         11.741718   0.000000
     16         14.468928   0.000000
     17         16.109340   0.000000
     18         19.647821   0.000000
     19         21.747695   0.000000
     20         21.980623   0.000000
     21         22.530720   0.000000
     22         23.213283   0.000000
     23         23.692378   0.000000
     24         24.574290   0.000000
     25         24.636057   0.000000
     26         26.701693   0.000000
     27         27.222353   0.000000
     28         28.260189   0.000000
     29         28.383398   0.000000
     30         29.369425   0.000000
     31         29.529682   0.000000
     32         30.314277   0.000000
     33         30.355912   0.000000
     34         30.577995   0.000000
     35         31.214626   0.000000
     36         31.402885   0.000000
     37         31.428314   0.000000
     38         31.717000   0.000000
     39         32.671268   0.000000
     40         32.797085   0.000000
     41         33.405555   0.000000
     42         33.429253   0.000000
     43         34.991780   0.000000
     44         36.282495   0.000000
     45         36.688705   0.000000
     46         36.836850   0.000000
     47         36.844835   0.000000
     48         37.263960   0.000000
 
 -0.1818182E+00  0.1818182E+00  0.0000000E+00  0.1836547E-02
      1        -20.979177   1.000000
      2         -8.937719   1.000000
      3         -7.933499   1.000000
      4         -6.574233   1.000000
      5          2.068213   0.000000
      6          2.979449   0.000000
      7          3.528310   0.000000
      8          5.396040   0.000000
      9          5.952174   0.000000
     10          6.247279   0.000000
     11          6.745015   0.000000
     12          9.024093   0.000000
     13          9.263526   0.000000
     14         10.408839   0.000000
     15         11.741727   0.000000
     16         14.468930   0.000000
     17         16.109340   0.000000
     18         19.647831   0.000000
     19         21.747704   0.000000
     20         21.980623   0.000000
     21         22.530720   0.000000
     22         23.213285   0.000000
     23         23.692376   0.000000
     24         24.574293   0.000000
     25         24.636058   0.000000
     26         26.701695   0.000000
     27         27.222354   0.000000
     28         28.260184   0.000000
     29         28.383394   0.000000
     30         29.369427   0.000000
     31         29.529682   0.000000
     32         30.314269   0.000000
     33         30.355908   0.000000
     34         30.577992   0.000000
     35         31.214631   0.000000
     36         31.402889   0.000000
     37         31.428316   0.000000
     38         31.717000   0.000000
     39         32.671258   0.000000
     40         32.797084   0.000000
     41         33.405560   0.000000
     42         33.429250   0.000000
     43         34.991776   0.000000
     44         36.282496   0.000000
     45         36.688701   0.000000
     46         36.836853   0.000000
     47         36.844830   0.000000
     48         37.263953   0.000000
 
  0.2121212E+00 -0.2632252E-17  0.0000000E+00  0.3673095E-02
      1        -20.700005   1.000000
      2         -8.688010   1.000000
      3         -8.609909   1.000000
      4         -6.899080   1.000000
      5          2.450438   0.000000
      6          3.361432   0.000000
      7          3.917897   0.000000
      8          5.737647   0.000000
      9          5.906525   0.000000
     10          6.042907   0.000000
     11          6.579039   0.000000
     12          9.629414   0.000000
     13          9.929303   0.000000
     14         10.785945   0.000000
     15         12.246470   0.000000
     16         14.761988   0.000000
     17         16.476966   0.000000
     18         18.992664   0.000000
     19         21.111289   0.000000
     20         21.798206   0.000000
     21         21.961564   0.000000
     22         22.627802   0.000000
     23         23.249733   0.000000
     24         23.303989   0.000000
     25         23.954102   0.000000
     26         25.425488   0.000000
     27         25.813327   0.000000
     28         27.781557   0.000000
     29         27.859595   0.000000
     30         28.764526   0.000000
     31         29.314887   0.000000
     32         29.722356   0.000000
     33         29.751149   0.000000
     34         29.795329   0.000000
     35         30.149251   0.000000
     36         30.416082   0.000000
     37         30.945721   0.000000
     38         32.057241   0.000000
     39         32.067076   0.000000
     40         32.246384   0.000000
     41         32.842269   0.000000
     42         33.276695   0.000000
     43         35.212518   0.000000
     44         35.422849   0.000000
     45         35.906781   0.000000
     46         36.080271   0.000000
     47         36.364324   0.000000
     48         37.020171   0.000000
 
 -0.2121212E+00  0.2121212E+00  0.0000000E+00  0.1836547E-02
      1        -20.700005   1.000000
      2         -8.688026   1.000000
      3         -8.609908   1.000000
      4         -6.899060   1.000000
      5          2.450438   0.000000
      6          3.361433   0.000000
      7          3.917897   0.000000
      8          5.737648   0.000000
      9          5.906540   0.000000
     10          6.042899   0.000000
     11          6.579039   0.000000
     12          9.629414   0.000000
     13          9.929271   0.000000
     14         10.785945   0.000000
     15         12.246479   0.000000
     16         14.761990   0.000000
     17         16.476965   0.000000
     18         18.992674   0.000000
     19         21.111300   0.000000
     20         21.798208   0.000000
     21         21.961564   0.000000
     22         22.627806   0.000000
     23         23.249733   0.000000
     24         23.303986   0.000000
     25         23.954102   0.000000
     26         25.425492   0.000000
     27         25.813326   0.000000
     28         27.781554   0.000000
     29         27.859591   0.000000
     30         28.764529   0.000000
     31         29.314888   0.000000
     32         29.722347   0.000000
     33         29.751145   0.000000
     34         29.795326   0.000000
     35         30.149252   0.000000
     36         30.416085   0.000000
     37         30.945722   0.000000
     38         32.057241   0.000000
     39         32.067066   0.000000
     40         32.246382   0.000000
     41         32.842274   0.000000
     42         33.276693   0.000000
     43         35.212519   0.000000
     44         35.422852   0.000000
     45         35.906778   0.000000
     46         36.080267   0.000000
     47         36.364318   0.000000
     48         37.020163   0.000000
 
  0.2424242E+00 -0.1114696E-16  0.0000000E+00  0.3673095E-02
      1        -20.379135   1.000000
      2         -9.472417   1.000000
      3         -8.235995   1.000000
      4         -7.214368   1.000000
      5          2.890902   0.000000
      6          3.794959   0.000000
      7          4.366927   0.000000
      8          5.194086   0.000000
      9          5.804724   0.000000
     10          6.241114   0.000000
     11          7.008251   0.000000
     12         10.047916   0.000000
     13         10.898199   0.000000
     14         11.219518   0.000000
     15         12.757896   0.000000
     16         15.059170   0.000000
     17         16.896537   0.000000
     18         18.283633   0.000000
     19         19.910148   0.000000
     20         21.155511   0.000000
     21         21.307947   0.000000
     22         21.443992   0.000000
     23         22.503426   0.000000
     24         23.080667   0.000000
     25         24.050537   0.000000
     26         24.248383   0.000000
     27         24.950683   0.000000
     28         27.158929   0.000000
     29         27.236986   0.000000
     30         28.073869   0.000000
     31         28.668746   0.000000
     32         28.711959   0.000000
     33         29.185025   0.000000
     34         29.206313   0.000000
     35         29.526342   0.000000
     36         30.147146   0.000000
     37         30.674601   0.000000
     38         31.520560   0.000000
     39         31.722523   0.000000
     40         32.156851   0.000000
     41         32.629688   0.000000
     42         33.120497   0.000000
     43         34.041303   0.000000
     44         34.162324   0.000000
     45         35.524571   0.000000
     46         35.822139   0.000000
     47         36.224792   0.000000
     48         36.584839   0.000000
 
 -0.2424242E+00  0.2424242E+00  0.0000000E+00  0.1836547E-02
      1        -20.379135   1.000000
      2         -9.472432   1.000000
      3         -8.235994   1.000000
      4         -7.214350   1.000000
      5          2.890903   0.000000
      6          3.794960   0.000000
      7          4.366927   0.000000
      8          5.194078   0.000000