  15  15   0   4
  0.2040470E+02  0.4854000E-09  0.4854000E-09  0.1500000E-08  0.5000000E-15
  1.000000000000000E-004
  CAR 
 Lattice                                 
     10.30487352    -21.67016645  301     -0.33858574      1.00000000
    -21.670  0.0000E+00  0.0000E+00  0.0000E+00  0.0000E+00
    -21.564  0.0000E+00  0.0000E+00  0.0000E+00  0.0000E+00
    -21.457  0.0000E+00  0.0000E+00  0.0000E+00  0.0000E+00
    -21.350  0.0000E+00  0.0000E+00  0.0000E+00  0.0000E+00
    -21.244  0.0000E+00  0.0000E+00  0.0000E+00  0.0000E+00
    -21.137  0.0000E+00  0.0000E+00  0.0000E+00  0.0000E+00
    -21.031  0.0000E+00  0.0000E+00  0.0000E+00  0.0000E+00
    -20.924  0.0000E+00  0.0000E+00  0.0000E+00  0.0000E+00
    -20.817  0.0000E+00  0.0000E+00  0.0000E+00  0.0000E+00
    -20.711  0.7578E-15  0.7578E-15  0.8077E-16  0.8077E-16
    -20.604  0.1261E-10  0.1261E-10  0.1344E-11  0.1344E-11
    -20.498  0.2542E-07  0.2542E-07  0.2711E-08  0.2711E-08
    -20.391  0.6821E-05  0.6821E-05  0.7298E-06  0.7298E-06
    -20.285  0.2721E-03  0.2721E-03  0.2974E-04  0.2974E-04
    -20.178  0.1978E-02  0.1978E-02  0.2405E-03  0.2405E-03
    -20.071  0.4158E-02  0.4158E-02  0.6837E-03  0.6837E-03
    -19.965  0.4531E-02  0.4531E-02  0.1167E-02  0.1167E-02
    -19.858  0.4943E-02  0.4943E-02  0.1693E-02  0.1693E-02
    -19.752  0.4168E-02  0.4168E-02  0.2138E-02  0.2138E-02
    -19.645  0.5393E-02  0.5393E-02  0.2713E-02  0.2713E-02
    -19.538  0.4217E-02  0.4217E-02  0.3162E-02  0.3162E-02
    -19.432  0.4279E-02  0.4279E-02  0.3618E-02  0.3618E-02
    -19.325  0.6014E-02  0.6014E-02  0.4259E-02  0.4259E-02
    -19.219  0.3805E-02  0.3805E-02  0.4664E-02  0.4664E-02
    -19.112  0.3914E-02  0.3914E-02  0.5082E-02  0.5082E-02
    -19.006  0.6129E-02  0.6129E-02  0.5735E-02  0.5735E-02
    -18.899  0.5197E-02  0.5197E-02  0.6289E-02  0.6289E-02
    -18.792  0.2952E-02  0.2952E-02  0.6603E-02  0.6603E-02
    -18.686  0.4437E-02  0.4437E-02  0.7076E-02  0.7076E-02
    -18.579  0.6912E-02  0.6912E-02  0.7813E-02  0.7813E-02
    -18.473  0.4547E-02  0.4547E-02  0.8298E-02  0.8298E-02
    -18.366  0.3787E-02  0.3787E-02  0.8701E-02  0.8701E-02
    -18.259  0.3013E-02  0.3013E-02  0.9022E-02  0.9022E-02
    -18.153  0.6699E-02  0.6699E-02  0.9736E-02  0.9736E-02
    -18.046  0.6565E-02  0.6565E-02  0.1044E-01  0.1044E-01
    -17.940  0.3497E-02  0.3497E-02  0.1081E-01  0.1081E-01
    -17.833  0.3327E-02  0.3327E-02  0.1116E-01  0.1116E-01
    -17.727  0.4128E-02  0.4128E-02  0.1160E-01  0.1160E-01
    -17.620  0.6291E-02  0.6291E-02  0.1227E-01  0.1227E-01
    -17.513  0.6743E-02  0.6743E-02  0.1299E-01  0.1299E-01
    -17.407  0.5652E-02  0.5652E-02  0.1360E-01  0.1360E-01
    -17.300  0.6723E-02  0.6723E-02  0.1431E-01  0.1431E-01
    -17.194  0.1043E-01  0.1043E-01  0.1542E-01  0.1542E-01
    -17.087  0.1474E-01  0.1474E-01  0.1699E-01  0.1699E-01
    -16.980  0.1574E-01  0.1574E-01  0.1867E-01  0.1867E-01
    -16.874  0.1742E-01  0.1742E-01  0.2053E-01  0.2053E-01
    -16.767  0.2102E-01  0.2102E-01  0.2277E-01  0.2277E-01
    -16.661  0.1556E-01  0.1556E-01  0.2443E-01  0.2443E-01
    -16.554  0.4701E-02  0.4701E-02  0.2493E-01  0.2493E-01
    -16.448  0.7459E-02  0.7459E-02  0.2572E-01  0.2572E-01
    -16.341  0.8000E-02  0.8000E-02  0.2658E-01  0.2658E-01
    -16.234  0.4541E-02  0.4541E-02  0.2706E-01  0.2706E-01
    -16.128  0.4129E-02  0.4129E-02  0.2750E-01  0.2750E-01
    -16.021  0.3912E-02  0.3912E-02  0.2792E-01  0.2792E-01
    -15.915  0.3747E-02  0.3747E-02  0.2832E-01  0.2832E-01
    -15.808  0.3818E-02  0.3818E-02  0.2872E-01  0.2872E-01
    -15.701  0.8278E-02  0.8278E-02  0.2961E-01  0.2961E-01
    -15.595  0.7874E-02  0.7874E-02  0.3044E-01  0.3044E-01
    -15.488  0.3873E-02  0.3873E-02  0.3086E-01  0.3086E-01
    -15.382  0.3866E-02  0.3866E-02  0.3127E-01  0.3127E-01
    -15.275  0.3426E-02  0.3426E-02  0.3163E-01  0.3163E-01
    -15.169  0.4711E-02  0.4711E-02  0.3214E-01  0.3214E-01
    -15.062  0.6348E-02  0.6348E-02  0.3281E-01  0.3281E-01
    -14.955  0.1124E-01  0.1124E-01  0.3401E-01  0.3401E-01
    -14.849  0.1719E-01  0.1719E-01  0.3584E-01  0.3584E-01
    -14.742  0.1846E-01  0.1846E-01  0.3781E-01  0.3781E-01
    -14.636  0.1711E-01  0.1711E-01  0.3963E-01  0.3963E-01
    -14.529  0.1051E-01  0.1051E-01  0.4075E-01  0.4075E-01
    -14.422  0.7989E-02  0.7989E-02  0.4161E-01  0.4161E-01
    -14.316  0.1544E-01  0.1544E-01  0.4325E-01  0.4325E-01
    -14.209  0.1505E-01  0.1505E-01  0.4486E-01  0.4486E-01
    -14.103  0.1103E-01  0.1103E-01  0.4603E-01  0.4603E-01
    -13.996  0.1072E-01  0.1072E-01  0.4717E-01  0.4717E-01
    -13.890  0.1297E-01  0.1297E-01  0.4856E-01  0.4856E-01
    -13.783  0.1999E-01  0.1999E-01  0.5069E-01  0.5069E-01
    -13.676  0.1962E-01  0.1962E-01  0.5278E-01  0.5278E-01
    -13.570  0.1777E-01  0.1777E-01  0.5467E-01  0.5467E-01
    -13.463  0.1037E-01  0.1037E-01  0.5578E-01  0.5578E-01
    -13.357  0.6500E-02  0.6500E-02  0.5647E-01  0.5647E-01
    -13.250  0.3313E-02  0.3313E-02  0.5682E-01  0.5682E-01
    -13.143  0.4169E-02  0.4169E-02  0.5727E-01  0.5727E-01
    -13.037  0.6995E-02  0.6995E-02  0.5801E-01  0.5801E-01
    -12.930  0.6783E-02  0.6783E-02  0.5873E-01  0.5873E-01
    -12.824  0.4854E-02  0.4854E-02  0.5925E-01  0.5925E-01
    -12.717  0.6976E-02  0.6976E-02  0.6000E-01  0.6000E-01
    -12.611  0.7003E-02  0.7003E-02  0.6074E-01  0.6074E-01
    -12.504  0.5531E-02  0.5531E-02  0.6133E-01  0.6133E-01
    -12.397  0.5352E-02  0.5352E-02  0.6190E-01  0.6190E-01
    -12.291  0.3278E-02  0.3278E-02  0.6225E-01  0.6225E-01
    -12.184  0.6659E-02  0.6659E-02  0.6296E-01  0.6296E-01
    -12.078  0.7909E-02  0.7909E-02  0.6380E-01  0.6380E-01
    -11.971  0.3173E-02  0.3173E-02  0.6414E-01  0.6414E-01
    -11.864  0.3404E-02  0.3404E-02  0.6450E-01  0.6450E-01
    -11.758  0.3438E-02  0.3438E-02  0.6487E-01  0.6487E-01
    -11.651  0.6268E-02  0.6268E-02  0.6554E-01  0.6554E-01
    -11.545  0.6577E-02  0.6577E-02  0.6624E-01  0.6624E-01
    -11.438  0.3582E-02  0.3582E-02  0.6662E-01  0.6662E-01
    -11.332  0.1961E-02  0.1961E-02  0.6683E-01  0.6683E-01
    -11.225  0.4812E-02  0.4812E-02  0.6734E-01  0.6734E-01
    -11.118  0.5811E-02  0.5811E-02  0.6796E-01  0.6796E-01
    -11.012  0.5052E-02  0.5052E-02  0.6850E-01  0.6850E-01
    -10.905  0.7736E-02  0.7736E-02  0.6933E-01  0.6933E-01
    -10.799  0.5988E-02  0.5988E-02  0.6996E-01  0.6996E-01
    -10.692  0.2534E-02  0.2534E-02  0.7023E-01  0.7023E-01
    -10.585  0.8223E-02  0.8223E-02  0.7111E-01  0.7111E-01
    -10.479  0.1311E-01  0.1311E-01  0.7251E-01  0.7251E-01
    -10.372  0.1534E-01  0.1534E-01  0.7414E-01  0.7414E-01
    -10.266  0.1449E-01  0.1449E-01  0.7569E-01  0.7569E-01
    -10.159  0.1475E-01  0.1475E-01  0.7726E-01  0.7726E-01
    -10.053  0.1840E-01  0.1840E-01  0.7922E-01  0.7922E-01
     -9.946  0.1836E-01  0.1836E-01  0.8118E-01  0.8118E-01
     -9.839  0.9500E-02  0.9500E-02  0.8219E-01  0.8219E-01
     -9.733  0.7195E-02  0.7195E-02  0.8296E-01  0.8296E-01
     -9.626  0.1440E-01  0.1440E-01  0.8449E-01  0.8449E-01
     -9.520  0.1524E-01  0.1524E-01  0.8612E-01  0.8612E-01
     -9.413  0.1645E-01  0.1645E-01  0.8787E-01  0.8787E-01
     -9.306  0.1563E-01  0.1563E-01  0.8954E-01  0.8954E-01
     -9.200  0.1394E-01  0.1394E-01  0.9102E-01  0.9102E-01
     -9.093  0.1035E-01  0.1035E-01  0.9213E-01  0.9213E-01
     -8.987  0.8024E-02  0.8024E-02  0.9298E-01  0.9298E-01
     -8.880  0.1592E-01  0.1592E-01  0.9468E-01  0.9468E-01
     -8.774  0.2026E-01  0.2026E-01  0.9684E-01  0.9684E-01
     -8.667  0.1469E-01  0.1469E-01  0.9840E-01  0.9840E-01
     -8.560  0.7616E-02  0.7616E-02  0.9922E-01  0.9922E-01
     -8.454  0.1157E-01  0.1157E-01  0.1004E+00  0.1004E+00
     -8.347  0.2075E-01  0.2075E-01  0.1027E+00  0.1027E+00
     -8.241  0.1758E-01  0.1758E-01  0.1045E+00  0.1045E+00
     -8.134  0.1195E-01  0.1195E-01  0.1058E+00  0.1058E+00
     -8.027  0.1687E-01  0.1687E-01  0.1076E+00  0.1076E+00
     -7.921  0.2521E-01  0.2521E-01  0.1103E+00  0.1103E+00
     -7.814  0.2473E-01  0.2473E-01  0.1129E+00  0.1129E+00
     -7.708  0.1908E-01  0.1908E-01  0.1150E+00  0.1150E+00
     -7.601  0.9979E-02  0.9979E-02  0.1160E+00  0.1160E+00
     -7.495  0.8596E-02  0.8596E-02  0.1169E+00  0.1169E+00
     -7.388  0.1869E-01  0.1869E-01  0.1189E+00  0.1189E+00
     -7.281  0.1809E-01  0.1809E-01  0.1209E+00  0.1209E+00
     -7.175  0.1184E-01  0.1184E-01  0.1221E+00  0.1221E+00
     -7.068  0.1083E-01  0.1083E-01  0.1233E+00  0.1233E+00
     -6.962  0.1689E-01  0.1689E-01  0.1251E+00  0.1251E+00
     -6.855  0.1844E-01  0.1844E-01  0.1270E+00  0.1270E+00
     -6.748  0.2048E-01  0.2048E-01  0.1292E+00  0.1292E+00
     -6.642  0.2053E-01  0.2053E-01  0.1314E+00  0.1314E+00
     -6.535  0.1786E-01  0.1786E-01  0.1333E+00  0.1333E+00
     -6.429  0.2058E-01  0.2058E-01  0.1355E+00  0.1355E+00
     -6.322  0.1730E-01  0.1730E-01  0.1374E+00  0.1374E+00
     -6.216  0.1915E-01  0.1915E-01  0.1394E+00  0.1394E+00
     -6.109  0.2637E-01  0.2637E-01  0.1422E+00  0.1422E+00
     -6.002  0.2237E-01  0.2237E-01  0.1446E+00  0.1446E+00
     -5.896  0.3169E-01  0.3169E-01  0.1480E+00  0.1480E+00
     -5.789  0.2871E-01  0.2871E-01  0.1510E+00  0.1510E+00
     -5.683  0.1624E-01  0.1624E-01  0.1528E+00  0.1528E+00
     -5.576  0.1856E-01  0.1856E-01  0.1547E+00  0.1547E+00
     -5.469  0.3341E-01  0.3341E-01  0.1583E+00  0.1583E+00
     -5.363  0.3632E-01  0.3632E-01  0.1622E+00  0.1622E+00
     -5.256  0.2245E-01  0.2245E-01  0.1646E+00  0.1646E+00
     -5.150  0.1621E-01  0.1621E-01  0.1663E+00  0.1663E+00
     -5.043  0.1058E-01  0.1058E-01  0.1674E+00  0.1674E+00
     -4.937  0.1129E-01  0.1129E-01  0.1686E+00  0.1686E+00
     -4.830  0.1411E-01  0.1411E-01  0.1701E+00  0.1701E+00
     -4.723  0.1041E-01  0.1041E-01  0.1712E+00  0.1712E+00
     -4.617  0.7711E-02  0.7711E-02  0.1721E+00  0.1721E+00
     -4.510  0.9564E-02  0.9564E-02  0.1731E+00  0.1731E+00
     -4.404  0.1754E-01  0.1754E-01  0.1749E+00  0.1749E+00
     -4.297  0.2213E-01  0.2213E-01  0.1773E+00  0.1773E+00
     -4.190  0.1886E-01  0.1886E-01  0.1793E+00  0.1793E+00
     -4.084  0.1859E-01  0.1859E-01  0.1813E+00  0.1813E+00
     -3.977  0.2199E-01  0.2199E-01  0.1836E+00  0.1836E+00
     -3.871  0.2343E-01  0.2343E-01  0.1861E+00  0.1861E+00
     -3.764  0.1817E-01  0.1817E-01  0.1881E+00  0.1881E+00
     -3.658  0.1846E-01  0.1846E-01  0.1900E+00  0.1900E+00
     -3.551  0.2044E-01  0.2044E-01  0.1922E+00  0.1922E+00
     -3.444  0.1572E-01  0.1572E-01  0.1939E+00  0.1939E+00
     -3.338  0.1363E-01  0.1363E-01  0.1953E+00  0.1953E+00
     -3.231  0.1286E-01  0.1286E-01  0.1967E+00  0.1967E+00
     -3.125  0.1732E-01  0.1732E-01  0.1986E+00  0.1986E+00
     -3.018  0.1827E-01  0.1827E-01  0.2005E+00  0.2005E+00
     -2.911  0.1179E-01  0.1179E-01  0.2018E+00  0.2018E+00
     -2.805  0.1188E-01  0.1188E-01  0.2030E+00  0.2030E+00
     -2.698  0.7523E-02  0.7523E-02  0.2038E+00  0.2038E+00
     -2.592  0.1010E-01  0.1010E-01  0.2049E+00  0.2049E+00
     -2.485  0.1957E-01  0.1957E-01  0.2070E+00  0.2070E+00
     -2.379  0.1445E-01  0.1445E-01  0.2085E+00  0.2085E+00
     -2.272  0.4030E-02  0.4030E-02  0.2090E+00  0.2090E+00
     -2.165  0.4849E-02  0.4849E-02  0.2095E+00  0.2095E+00
     -2.059  0.1044E-01  0.1044E-01  0.2106E+00  0.2106E+00
     -1.952  0.1023E-01  0.1023E-01  0.2117E+00  0.2117E+00
     -1.846  0.1124E-01  0.1124E-01  0.2129E+00  0.2129E+00
     -1.739  0.1152E-01  0.1152E-01  0.2141E+00  0.2141E+00
     -1.632  0.9539E-02  0.9539E-02  0.2151E+00  0.2151E+00
     -1.526  0.7145E-02  0.7145E-02  0.2159E+00  0.2159E+00
     -1.419  0.4441E-02  0.4441E-02  0.2164E+00  0.2164E+00
     -1.313  0.4006E-02  0.4006E-02  0.2168E+00  0.2168E+00
     -1.206  0.4010E-02  0.4010E-02  0.2172E+00  0.2172E+00
     -1.100  0.3994E-02  0.3994E-02  0.2176E+00  0.2176E+00
     -0.993  0.5853E-02  0.5853E-02  0.2183E+00  0.2183E+00
     -0.886  0.2827E-02  0.2827E-02  0.2186E+00  0.2186E+00
     -0.780  0.5870E-03  0.5870E-03  0.2186E+00  0.2186E+00
     -0.673  0.6119E-04  0.6118E-04  0.2186E+00  0.2186E+00
     -0.567  0.2457E-05  0.2457E-05  0.2186E+00  0.2186E+00
     -0.460  0.8737E-04  0.8737E-04  0.2187E+00  0.2187E+00
     -0.353  0.7603E-03  0.7603E-03  0.2187E+00  0.2187E+00
     -0.247  0.9870E-03  0.9870E-03  0.2188E+00  0.2188E+00
     -0.140  0.1948E-03  0.1948E-03  0.2189E+00  0.2189E+00
     -0.034  0.5307E-05  0.5307E-05  0.2189E+00  0.2189E+00
      0.073  0.3820E-06  0.3820E-06  0.2189E+00  0.2189E+00
      0.179  0.5849E-04  0.5849E-04  0.2189E+00  0.2189E+00
      0.286  0.1178E-02  0.1178E-02  0.2190E+00  0.2190E+00
      0.393  0.3346E-02  0.3346E-02  0.2193E+00  0.2193E+00
      0.499  0.1538E-02  0.1538E-02  0.2195E+00  0.2195E+00
      0.606  0.1264E-02  0.1264E-02  0.2196E+00  0.2196E+00
      0.712  0.3432E-02  0.3433E-02  0.2200E+00  0.2200E+00
      0.819  0.5299E-02  0.5299E-02  0.2206E+00  0.2206E+00
      0.926  0.1014E-01  0.1014E-01  0.2217E+00  0.2217E+00
      1.032  0.2587E-01  0.2587E-01  0.2244E+00  0.2244E+00
      1.139  0.1999E-01  0.1999E-01  0.2265E+00  0.2265E+00
      1.245  0.4897E-02  0.4897E-02  0.2271E+00  0.2271E+00
      1.352  0.4263E-02  0.4263E-02  0.2275E+00  0.2275E+00
      1.458  0.8558E-02  0.8558E-02  0.2284E+00  0.2284E+00
      1.565  0.1306E-01  0.1306E-01  0.2298E+00  0.2298E+00
      1.672  0.1950E-01  0.1950E-01  0.2319E+00  0.2319E+00
      1.778  0.1485E-01  0.1485E-01  0.2335E+00  0.2335E+00
      1.885  0.6294E-02  0.6294E-02  0.2342E+00  0.2342E+00
      1.991  0.6994E-02  0.6994E-02  0.2349E+00  0.2349E+00
      2.098  0.9996E-02  0.9996E-02  0.2360E+00  0.2360E+00
      2.205  0.7257E-02  0.7256E-02  0.2367E+00  0.2367E+00
      2.311  0.8397E-02  0.8398E-02  0.2376E+00  0.2376E+00
      2.418  0.7174E-02  0.7174E-02  0.2384E+00  0.2384E+00
      2.524  0.1082E-01  0.1082E-01  0.2396E+00  0.2396E+00
      2.631  0.1109E-01  0.1109E-01  0.2407E+00  0.2407E+00
      2.737  0.6406E-02  0.6406E-02  0.2414E+00  0.2414E+00
      2.844  0.4415E-02  0.4414E-02  0.2419E+00  0.2419E+00
      2.951  0.8927E-02  0.8926E-02  0.2428E+00  0.2428E+00
      3.057  0.1179E-01  0.1179E-01  0.2441E+00  0.2441E+00
      3.164  0.1004E-01  0.1004E-01  0.2452E+00  0.2452E+00
      3.270  0.9755E-02  0.9754E-02  0.2462E+00  0.2462E+00
      3.377  0.1024E-01  0.1024E-01  0.2473E+00  0.2473E+00
      3.484  0.1160E-01  0.1160E-01  0.2485E+00  0.2485E+00
      3.590  0.1741E-01  0.1740E-01  0.2504E+00  0.2504E+00
      3.697  0.2339E-01  0.2338E-01  0.2529E+00  0.2529E+00
      3.803  0.2477E-01  0.2476E-01  0.2555E+00  0.2555E+00
      3.910  0.2280E-01  0.2280E-01  0.2580E+00  0.2580E+00
      4.016  0.2350E-01  0.2350E-01  0.2605E+00  0.2605E+00
      4.123  0.2550E-01  0.2550E-01  0.2632E+00  0.2632E+00
      4.230  0.2478E-01  0.2478E-01  0.2658E+00  0.2658E+00
      4.336  0.2395E-01  0.2395E-01  0.2684E+00  0.2684E+00
      4.443  0.2227E-01  0.2227E-01  0.2707E+00  0.2707E+00
      4.549  0.2138E-01  0.2139E-01  0.2730E+00  0.2730E+00
      4.656  0.2127E-01  0.2127E-01  0.2753E+00  0.2753E+00
      4.763  0.2734E-01  0.2734E-01  0.2782E+00  0.2782E+00
      4.869  0.2429E-01  0.2430E-01  0.2808E+00  0.2808E+00
      4.976  0.2116E-01  0.2116E-01  0.2831E+00  0.2831E+00
      5.082  0.2529E-01  0.2529E-01  0.2857E+00  0.2857E+00
      5.189  0.2736E-01  0.2737E-01  0.2887E+00  0.2887E+00
      5.295  0.2423E-01  0.2423E-01  0.2912E+00  0.2912E+00
      5.402  0.2114E-01  0.2114E-01  0.2935E+00  0.2935E+00
      5.509  0.2039E-01  0.2038E-01  0.2957E+00  0.2957E+00
      5.615  0.2633E-01  0.2633E-01  0.2985E+00  0.2985E+00
      5.722  0.2320E-01  0.2321E-01  0.3010E+00  0.3010E+00
      5.828  0.2427E-01  0.2427E-01  0.3035E+00  0.3035E+00
      5.935  0.2006E-01  0.2005E-01  0.3057E+00  0.3057E+00
      6.042  0.1956E-01  0.1956E-01  0.3078E+00  0.3078E+00
      6.148  0.1493E-01  0.1494E-01  0.3094E+00  0.3094E+00
      6.255  0.1922E-01  0.1923E-01  0.3114E+00  0.3114E+00
      6.361  0.2320E-01  0.2319E-01  0.3139E+00  0.3139E+00
      6.468  0.2367E-01  0.2367E-01  0.3164E+00  0.3164E+00
      6.574  0.2523E-01  0.2523E-01  0.3191E+00  0.3191E+00
      6.681  0.2818E-01  0.2818E-01  0.3221E+00  0.3221E+00
      6.788  0.3170E-01  0.3171E-01  0.3255E+00  0.3255E+00
      6.894  0.2504E-01  0.2505E-01  0.3281E+00  0.3281E+00
      7.001  0.2552E-01  0.2552E-01  0.3309E+00  0.3309E+00
      7.107  0.2761E-01  0.2758E-01  0.3338E+00  0.3338E+00
      7.214  0.2191E-01  0.2190E-01  0.3361E+00  0.3361E+00
      7.321  0.1929E-01  0.1929E-01  0.3382E+00  0.3382E+00
      7.427  0.1945E-01  0.1945E-01  0.3403E+00  0.3403E+00
      7.534  0.2479E-01  0.2478E-01  0.3429E+00  0.3429E+00
      7.640  0.2526E-01  0.2525E-01  0.3456E+00  0.3456E+00
      7.747  0.3196E-01  0.3195E-01  0.3490E+00  0.3490E+00
      7.853  0.3247E-01  0.3248E-01  0.3525E+00  0.3525E+00
      7.960  0.2414E-01  0.2416E-01  0.3550E+00  0.3550E+00
      8.067  0.3241E-01  0.3242E-01  0.3585E+00  0.3585E+00
      8.173  0.3564E-01  0.3564E-01  0.3623E+00  0.3623E+00
      8.280  0.3505E-01  0.3504E-01  0.3660E+00  0.3660E+00
      8.386  0.3741E-01  0.3740E-01  0.3700E+00  0.3700E+00
      8.493  0.2421E-01  0.2421E-01  0.3726E+00  0.3726E+00
      8.600  0.1168E-01  0.1168E-01  0.3738E+00  0.3738E+00
      8.706  0.4865E-02  0.4866E-02  0.3744E+00  0.3744E+00
      8.813  0.3130E-02  0.3131E-02  0.3747E+00  0.3747E+00
      8.919  0.2353E-02  0.2353E-02  0.3749E+00  0.3749E+00
      9.026  0.5291E-03  0.5292E-03  0.3750E+00  0.3750E+00
      9.132  0.2087E-04  0.2088E-04  0.3750E+00  0.3750E+00
      9.239  0.1074E-06  0.1075E-06  0.3750E+00  0.3750E+00
      9.346  0.6400E-10  0.6404E-10  0.3750E+00  0.3750E+00
      9.452  0.4200E-14  0.4202E-14  0.3750E+00  0.3750E+00
      9.559  0.0000E+00  0.0000E+00  0.3750E+00  0.3750E+00
      9.665  0.0000E+00  0.0000E+00  0.3750E+00  0.3750E+00
      9.772  0.0000E+00  0.0000E+00  0.3750E+00  0.3750E+00
      9.879  0.0000E+00  0.0000E+00  0.3750E+00  0.3750E+00
      9.985  0.0000E+00  0.0000E+00  0.3750E+00  0.3750E+00
     10.092  0.0000E+00  0.0000E+00  0.3750E+00  0.3750E+00
     10.198  0.0000E+00  0.0000E+00  0.3750E+00  0.3750E+00
     10.305  0.0000E+00  0.0000E+00  0.3750E+00  0.3750E+00
