Lattice                                 
           1
     4.203687    2.427000    0.000000
    -4.203687    2.427000    0.000000
     0.000000    0.000000   15.000000
   B    C 
     4    11
Direct configuration=     1
   0.00415361  0.00267210  0.12034134
   0.35695335  0.00285503  0.09748893
   0.00423858  0.35550699  0.09749256
   0.65142295  0.65006557  0.09747688
   0.32808646  0.32671938  0.10030508
   0.68027775  0.00278085  0.10027562
   0.00416530  0.67883808  0.10026559
   0.08333267  0.41666633  0.33646667
   0.24999967  0.24999933  0.33646667
   0.08333267  0.91666633  0.33646667
   0.24999967  0.74999933  0.33646667
   0.58333267  0.41666633  0.33646667
   0.74999967  0.24999933  0.33646667
   0.58333267  0.91666633  0.33646667
   0.74999967  0.74999933  0.33646667
Direct configuration=     2
   0.00414187  0.00266871  0.11906961
   0.35564013  0.00283110  0.09782891
   0.00413941  0.35439941  0.09789040
   0.65265511  0.65113785  0.09786112
   0.32462955  0.32302880  0.10030150
   0.68411398  0.00285648  0.10032688
   0.00417164  0.68234016  0.10027838
   0.08331708  0.41677841  0.33646365
   0.25017420  0.25026028  0.33656134
   0.08349704  0.91679757  0.33645267
   0.25029893  0.74995748  0.33643699
   0.58328613  0.41664601  0.33642207
   0.74993375  0.25000406  0.33646185
   0.58309013  0.91661475  0.33653748
   0.74953840  0.74977961  0.33648647
Direct configuration=     3
   0.00414779  0.00267042  0.11971102
   0.35630247  0.00284317  0.09765744
   0.00418943  0.35495803  0.09768975
   0.65203366  0.65059703  0.09766733
   0.32637308  0.32489018  0.10030331
   0.68217913  0.00281834  0.10030103
   0.00416844  0.68057384  0.10027193
   0.08332494  0.41672188  0.33646517
   0.25008617  0.25012867  0.33651359
   0.08341414  0.91673138  0.33645973
   0.25014799  0.74997859  0.33645196
   0.58330960  0.41665626  0.33644456
   0.74996700  0.25000167  0.33646428
   0.58321246  0.91664077  0.33650176
   0.74977104  0.74989043  0.33647648
