Lattice                                 
           1
     4.203687    2.427000    0.000000
    -4.203687    2.427000    0.000000
     0.000000    0.000000   15.000000
   B    C 
     4    11
Direct configuration=     1
   0.00415361  0.00267210  0.12034134
   0.35695335  0.00285503  0.09748893
   0.00423858  0.35550699  0.09749256
   0.65142295  0.65006557  0.09747688
   0.32808646  0.32671938  0.10030508
   0.68027775  0.00278085  0.10027562
   0.00416530  0.67883808  0.10026559
   0.08333267  0.41666633  0.33646667
   0.24999967  0.24999933  0.33646667
   0.08333267  0.91666633  0.33646667
   0.24999967  0.74999933  0.33646667
   0.58333267  0.41666633  0.33646667
   0.74999967  0.24999933  0.33646667
   0.58333267  0.91666633  0.33646667
   0.74999967  0.74999933  0.33646667
Direct configuration=     2
   0.00414187  0.00266871  0.11906961
   0.35564013  0.00283110  0.09782891
   0.00413941  0.35439941  0.09789040
   0.65265511  0.65113785  0.09786112
   0.32462955  0.32302880  0.10030150
   0.68411398  0.00285648  0.10032688
   0.00417164  0.68234016  0.10027838
   0.08331708  0.41677841  0.33646365
   0.25017420  0.25026028  0.33656134
   0.08349704  0.91679757  0.33645267
   0.25029893  0.74995748  0.33643699
   0.58328613  0.41664601  0.33642207
   0.74993375  0.25000406  0.33646185
   0.58309013  0.91661475  0.33653748
   0.74953840  0.74977961  0.33648647
Direct configuration=     3
   0.00414779  0.00267042  0.11971102
   0.35630247  0.00284317  0.09765744
   0.00418943  0.35495803  0.09768975
   0.65203366  0.65059703  0.09766733
   0.32637308  0.32489018  0.10030331
   0.68217913  0.00281834  0.10030103
   0.00416844  0.68057384  0.10027193
   0.08332494  0.41672188  0.33646517
   0.25008617  0.25012867  0.33651359
   0.08341414  0.91673138  0.33645973
   0.25014799  0.74997859  0.33645196
   0.58330960  0.41665626  0.33644456
   0.74996700  0.25000167  0.33646428
   0.58321246  0.91664077  0.33650176
   0.74977104  0.74989043  0.33647648
Direct configuration=     4
   0.00414679  0.00269550  0.11861102
   0.35678177  0.00281075  0.09797097
   0.00415728  0.35540341  0.09806069
   0.65165568  0.65004753  0.09802387
   0.32653796  0.32488422  0.10026742
   0.68215019  0.00285503  0.10031654
   0.00418083  0.68045773  0.10025127
   0.08328760  0.41665801  0.33646893
   0.24988820  0.24998558  0.33658759
   0.08321673  0.91664326  0.33645969
   0.24983496  0.75006393  0.33642881
   0.58331496  0.41668007  0.33641733
   0.74996769  0.25002939  0.33645971
   0.58339917  0.91675069  0.33656256
   0.75010752  0.75013556  0.33649292
Direct configuration=     5
   0.00414404  0.00276403  0.11560506
   0.35809154  0.00272214  0.09882775
   0.00406943  0.35662050  0.09907436
   0.65062279  0.64854591  0.09899821
   0.32698852  0.32486792  0.10016934
   0.68207110  0.00295529  0.10035893
   0.00421470  0.68014044  0.10019483
   0.08318555  0.41648348  0.33647922
   0.24934721  0.24959455  0.33678979
   0.08267729  0.91640246  0.33645959
   0.24897955  0.75029714  0.33636557
   0.58332960  0.41674513  0.33634292
   0.74996960  0.25010514  0.33644723
   0.58390940  0.91705109  0.33672869
   0.75102701  0.75080544  0.33653785
Direct configuration=     6
   0.00414762  0.00276816  0.11527946
   0.35820925  0.00271201  0.09890584
   0.00407205  0.35671945  0.09916582
   0.65053514  0.64841866  0.09908627
   0.32706735  0.32491395  0.10017634
   0.68201421  0.00295221  0.10037861
   0.00422158  0.68007251  0.10020577
   0.08318385  0.41653833  0.33648154
   0.24941454  0.24965915  0.33680321
   0.08274925  0.91647963  0.33646277
   0.24910457  0.75027893  0.33636316
   0.58330195  0.41676314  0.33634107
   0.74995603  0.25010973  0.33644723
   0.58379504  0.91701248  0.33674050
   0.75085490  0.75070232  0.33654175
Direct configuration=     7
   0.00415838  0.00278056  0.11430265
   0.35856236  0.00268163  0.09914011
   0.00407991  0.35701632  0.09944021
   0.65027219  0.64803692  0.09935045
   0.32730385  0.32505206  0.10019735
   0.68184353  0.00294297  0.10043765
   0.00424222  0.67986872  0.10023858
   0.08317877  0.41670287  0.33648850
   0.24961651  0.24985294  0.33684345
   0.08296513  0.91671112  0.33647229
   0.24947960  0.75022430  0.33635596
   0.58321903  0.41681718  0.33633550
   0.74991530  0.25012350  0.33644722
   0.58345197  0.91689663  0.33677594
   0.75033858  0.75039296  0.33655347
Direct configuration=     8
   0.00417989  0.00280535  0.11234903
   0.35926858  0.00262085  0.09960865
   0.00409563  0.35761006  0.09998898
   0.64974629  0.64727343  0.09987881
   0.32777684  0.32532826  0.10023937
   0.68150218  0.00292448  0.10055574
   0.00428350  0.67946113  0.10030422
   0.08316862  0.41703195  0.33650242
   0.25002045  0.25024053  0.33692395
   0.08339690  0.91717412  0.33649135
   0.25022967  0.75011505  0.33634154
   0.58305319  0.41692526  0.33632437
   0.74983385  0.25015103  0.33644719
   0.58276582  0.91666493  0.33684681
   0.74930594  0.74977424  0.33657690
Direct configuration=     9
   0.00420096  0.00279270  0.11173051
   0.35930465  0.00260034  0.09970631
   0.00413673  0.35760676  0.10009650
   0.64974868  0.64724603  0.09998362
   0.32785405  0.32540111  0.10031685
   0.68142553  0.00287401  0.10064598
   0.00430876  0.67938645  0.10038593
   0.08316270  0.41701034  0.33651042
   0.25001774  0.25035959  0.33691889
   0.08337700  0.91710652  0.33650682
   0.25020494  0.75014470  0.33635443
   0.58305440  0.41686888  0.33634252
   0.74977825  0.25017258  0.33645330
   0.58278743  0.91669372  0.33684546
   0.74926551  0.74983695  0.33658182
Direct configuration=    10
   0.00426419  0.00275476  0.10987496
   0.35941284  0.00253880  0.09999929
   0.00426003  0.35759684  0.10041904
   0.64975585  0.64716381  0.10029804
   0.32808569  0.32561966  0.10054931
   0.68119556  0.00272258  0.10091669
   0.00438457  0.67916239  0.10063107
   0.08314495  0.41694552  0.33653441
   0.25000963  0.25071675  0.33690369
   0.08331729  0.91690372  0.33655321
   0.25013073  0.75023368  0.33639308
   0.58305802  0.41669973  0.33639696
   0.74961146  0.25023722  0.33647161
   0.58285227  0.91678008  0.33684140
   0.74914425  0.75002511  0.33659658
Direct configuration=    11
   0.00439064  0.00267889  0.10616384
   0.35962924  0.00241573  0.10058526
   0.00450663  0.35757700  0.10106414
   0.64977020  0.64699939  0.10092687
   0.32854896  0.32605675  0.10101421
   0.68073562  0.00241973  0.10145812
   0.00453618  0.67871428  0.10112135
   0.08310946  0.41681587  0.33658239
   0.24999341  0.25143109  0.33687330
   0.08319787  0.91649813  0.33664599
   0.24998232  0.75041163  0.33647039
   0.58306527  0.41636144  0.33650584
   0.74927787  0.25036651  0.33650823
   0.58298195  0.91695279  0.33683329
   0.74890172  0.75040143  0.33662610
Direct configuration=    12
   0.00442211  0.00264963  0.10540440
   0.35963193  0.00239142  0.10070341
   0.00455830  0.35755001  0.10118432
   0.64979699  0.64701082  0.10104657
   0.32857843  0.32608472  0.10111936
   0.68072074  0.00235960  0.10157083
   0.00456967  0.67866745  0.10122974
   0.08303929  0.41687472  0.33659144
   0.24989319  0.25119620  0.33686070
   0.08310540  0.91661753  0.33666491
   0.24987699  0.75039339  0.33649409
   0.58303152  0.41651912  0.33653210
   0.74934225  0.25034615  0.33652056
   0.58298702  0.91703002  0.33682316
   0.74907350  0.75040987  0.33663375
Direct configuration=    13
   0.00451646  0.00256192  0.10312786
   0.35964000  0.00231856  0.10105756
   0.00471318  0.35746910  0.10154457
   0.64987727  0.64704512  0.10140537
   0.32866676  0.32616857  0.10143457
   0.68067613  0.00217934  0.10190872
   0.00467006  0.67852708  0.10155465
   0.08282896  0.41705116  0.33661858
   0.24959278  0.25049208  0.33682291
   0.08282820  0.91697546  0.33672162
   0.24956127  0.75033872  0.33656511
   0.58293033  0.41699179  0.33661080
   0.74953525  0.25028512  0.33655750
   0.58300224  0.91726150  0.33679281
   0.74958844  0.75043516  0.33665669
Direct configuration=    14
   0.00451926  0.00255932  0.10306028
   0.35964024  0.00231639  0.10106808
   0.00471778  0.35746669  0.10155527
   0.64987965  0.64704613  0.10141602
   0.32866938  0.32617106  0.10144393
   0.68067480  0.00217399  0.10191875
   0.00467304  0.67852291  0.10156430
   0.08282272  0.41705640  0.33661939
   0.24958386  0.25047117  0.33682179
   0.08281998  0.91698609  0.33672331
   0.24955190  0.75033709  0.33656722
   0.58292733  0.41700582  0.33661313
   0.74954098  0.25028331  0.33655859
   0.58300269  0.91726837  0.33679191
   0.74960372  0.75043591  0.33665737
Direct configuration=    15
   0.00452654  0.00253925  0.10302022
   0.35961995  0.00231675  0.10109191
   0.00471002  0.35745720  0.10156274
   0.64988406  0.64707446  0.10142824
   0.32857857  0.32606681  0.10144518
   0.68080085  0.00219271  0.10190618
   0.00467420  0.67859063  0.10156274
   0.08285664  0.41706021  0.33661826
   0.24956863  0.25042241  0.33681932
   0.08287571  0.91705500  0.33672030
   0.24958460  0.75038130  0.33657710
   0.58290684  0.41703830  0.33661473
   0.74955177  0.25034331  0.33656643
   0.58292905  0.91715540  0.33678419
   0.74955989  0.75040693  0.33666179
