  15  15   0   4
  0.2035429E+02  0.4848000E-09  0.4848000E-09  0.1500000E-08  0.5000000E-15
  1.000000000000000E-004
  CAR 
 Lattice                                 
     10.32775230    -21.69137883  301     -0.32808328      1.00000000
    -21.691  0.0000E+00  0.0000E+00  0.0000E+00  0.0000E+00
    -21.585  0.0000E+00  0.0000E+00  0.0000E+00  0.0000E+00
    -21.478  0.0000E+00  0.0000E+00  0.0000E+00  0.0000E+00
    -21.371  0.0000E+00  0.0000E+00  0.0000E+00  0.0000E+00
    -21.264  0.0000E+00  0.0000E+00  0.0000E+00  0.0000E+00
    -21.158  0.0000E+00  0.0000E+00  0.0000E+00  0.0000E+00
    -21.051  0.0000E+00  0.0000E+00  0.0000E+00  0.0000E+00
    -20.944  0.0000E+00  0.0000E+00  0.0000E+00  0.0000E+00
    -20.838  0.0000E+00  0.0000E+00  0.0000E+00  0.0000E+00
    -20.731  0.7058E-15  0.7058E-15  0.7533E-16  0.7533E-16
    -20.624  0.1204E-10  0.1204E-10  0.1286E-11  0.1286E-11
    -20.517  0.2474E-07  0.2474E-07  0.2642E-08  0.2642E-08
    -20.411  0.6726E-05  0.6726E-05  0.7206E-06  0.7206E-06
    -20.304  0.2706E-03  0.2706E-03  0.2960E-04  0.2960E-04
    -20.197  0.1973E-02  0.1973E-02  0.2402E-03  0.2402E-03
    -20.090  0.4151E-02  0.4151E-02  0.6832E-03  0.6832E-03
    -19.984  0.4520E-02  0.4520E-02  0.1166E-02  0.1166E-02
    -19.877  0.4936E-02  0.4936E-02  0.1692E-02  0.1692E-02
    -19.770  0.4155E-02  0.4155E-02  0.2136E-02  0.2136E-02
    -19.664  0.5382E-02  0.5382E-02  0.2710E-02  0.2710E-02
    -19.557  0.4214E-02  0.4214E-02  0.3160E-02  0.3160E-02
    -19.450  0.4256E-02  0.4256E-02  0.3614E-02  0.3614E-02
    -19.343  0.6008E-02  0.6008E-02  0.4256E-02  0.4256E-02
    -19.237  0.3810E-02  0.3810E-02  0.4662E-02  0.4662E-02
    -19.130  0.3883E-02  0.3883E-02  0.5077E-02  0.5077E-02
    -19.023  0.6115E-02  0.6115E-02  0.5729E-02  0.5729E-02
    -18.916  0.5204E-02  0.5204E-02  0.6285E-02  0.6285E-02
    -18.810  0.2958E-02  0.2958E-02  0.6600E-02  0.6600E-02
    -18.703  0.4380E-02  0.4380E-02  0.7068E-02  0.7068E-02
    -18.596  0.6911E-02  0.6911E-02  0.7806E-02  0.7806E-02
    -18.489  0.4560E-02  0.4560E-02  0.8292E-02  0.8292E-02
    -18.383  0.3792E-02  0.3792E-02  0.8697E-02  0.8697E-02
    -18.276  0.2981E-02  0.2981E-02  0.9015E-02  0.9015E-02
    -18.169  0.6636E-02  0.6636E-02  0.9723E-02  0.9723E-02
    -18.063  0.6598E-02  0.6598E-02  0.1043E-01  0.1043E-01
    -17.956  0.3527E-02  0.3527E-02  0.1080E-01  0.1080E-01
    -17.849  0.3293E-02  0.3293E-02  0.1116E-01  0.1116E-01
    -17.742  0.4104E-02  0.4104E-02  0.1159E-01  0.1159E-01
    -17.636  0.6225E-02  0.6225E-02  0.1226E-01  0.1226E-01
    -17.529  0.6760E-02  0.6760E-02  0.1298E-01  0.1298E-01
    -17.422  0.5566E-02  0.5566E-02  0.1357E-01  0.1357E-01
    -17.315  0.6535E-02  0.6535E-02  0.1427E-01  0.1427E-01
    -17.209  0.1023E-01  0.1023E-01  0.1536E-01  0.1536E-01
    -17.102  0.1461E-01  0.1461E-01  0.1692E-01  0.1692E-01
    -16.995  0.1563E-01  0.1563E-01  0.1859E-01  0.1859E-01
    -16.889  0.1712E-01  0.1712E-01  0.2042E-01  0.2042E-01
    -16.782  0.2083E-01  0.2083E-01  0.2264E-01  0.2264E-01
    -16.675  0.1624E-01  0.1624E-01  0.2438E-01  0.2438E-01
    -16.568  0.5020E-02  0.5020E-02  0.2491E-01  0.2491E-01
    -16.462  0.7293E-02  0.7293E-02  0.2569E-01  0.2569E-01
    -16.355  0.8122E-02  0.8122E-02  0.2656E-01  0.2656E-01
    -16.248  0.4559E-02  0.4559E-02  0.2704E-01  0.2704E-01
    -16.141  0.4142E-02  0.4142E-02  0.2749E-01  0.2749E-01
    -16.035  0.3876E-02  0.3876E-02  0.2790E-01  0.2790E-01
    -15.928  0.3795E-02  0.3795E-02  0.2830E-01  0.2830E-01
    -15.821  0.3687E-02  0.3687E-02  0.2870E-01  0.2870E-01
    -15.714  0.8106E-02  0.8106E-02  0.2956E-01  0.2956E-01
    -15.608  0.8034E-02  0.8034E-02  0.3042E-01  0.3042E-01
    -15.501  0.3919E-02  0.3919E-02  0.3084E-01  0.3084E-01
    -15.394  0.3865E-02  0.3865E-02  0.3125E-01  0.3125E-01
    -15.288  0.3377E-02  0.3377E-02  0.3161E-01  0.3161E-01
    -15.181  0.4639E-02  0.4639E-02  0.3211E-01  0.3211E-01
    -15.074  0.6203E-02  0.6203E-02  0.3277E-01  0.3277E-01
    -14.967  0.1078E-01  0.1078E-01  0.3392E-01  0.3392E-01
    -14.861  0.1692E-01  0.1692E-01  0.3573E-01  0.3573E-01
    -14.754  0.1832E-01  0.1832E-01  0.3768E-01  0.3768E-01
    -14.647  0.1733E-01  0.1733E-01  0.3953E-01  0.3953E-01
    -14.540  0.1099E-01  0.1099E-01  0.4070E-01  0.4070E-01
    -14.434  0.7736E-02  0.7736E-02  0.4153E-01  0.4153E-01
    -14.327  0.1493E-01  0.1493E-01  0.4312E-01  0.4312E-01
    -14.220  0.1540E-01  0.1540E-01  0.4477E-01  0.4477E-01
    -14.114  0.1107E-01  0.1107E-01  0.4595E-01  0.4595E-01
    -14.007  0.1076E-01  0.1076E-01  0.4710E-01  0.4710E-01
    -13.900  0.1252E-01  0.1252E-01  0.4843E-01  0.4843E-01
    -13.793  0.1975E-01  0.1975E-01  0.5054E-01  0.5054E-01
    -13.687  0.1983E-01  0.1983E-01  0.5266E-01  0.5266E-01
    -13.580  0.1803E-01  0.1803E-01  0.5458E-01  0.5458E-01
    -13.473  0.1096E-01  0.1096E-01  0.5575E-01  0.5575E-01
    -13.366  0.6716E-02  0.6716E-02  0.5647E-01  0.5647E-01
    -13.260  0.3286E-02  0.3286E-02  0.5682E-01  0.5682E-01
    -13.153  0.4077E-02  0.4077E-02  0.5725E-01  0.5725E-01
    -13.046  0.6871E-02  0.6871E-02  0.5799E-01  0.5799E-01
    -12.939  0.6874E-02  0.6874E-02  0.5872E-01  0.5872E-01
    -12.833  0.4827E-02  0.4827E-02  0.5923E-01  0.5923E-01
    -12.726  0.6785E-02  0.6785E-02  0.5996E-01  0.5996E-01
    -12.619  0.7044E-02  0.7044E-02  0.6071E-01  0.6071E-01
    -12.513  0.5573E-02  0.5573E-02  0.6131E-01  0.6131E-01
    -12.406  0.5374E-02  0.5374E-02  0.6188E-01  0.6188E-01
    -12.299  0.3328E-02  0.3328E-02  0.6223E-01  0.6223E-01
    -12.192  0.6412E-02  0.6412E-02  0.6292E-01  0.6292E-01
    -12.086  0.7999E-02  0.7999E-02  0.6377E-01  0.6377E-01
    -11.979  0.3331E-02  0.3331E-02  0.6413E-01  0.6413E-01
    -11.872  0.3368E-02  0.3368E-02  0.6449E-01  0.6449E-01
    -11.765  0.3396E-02  0.3396E-02  0.6485E-01  0.6485E-01
    -11.659  0.6025E-02  0.6025E-02  0.6549E-01  0.6549E-01
    -11.552  0.6717E-02  0.6717E-02  0.6621E-01  0.6621E-01
    -11.445  0.3772E-02  0.3772E-02  0.6661E-01  0.6661E-01
    -11.339  0.1881E-02  0.1881E-02  0.6681E-01  0.6681E-01
    -11.232  0.4741E-02  0.4741E-02  0.6732E-01  0.6732E-01
    -11.125  0.5814E-02  0.5814E-02  0.6794E-01  0.6794E-01
    -11.018  0.5131E-02  0.5131E-02  0.6849E-01  0.6849E-01
    -10.912  0.7748E-02  0.7748E-02  0.6931E-01  0.6931E-01
    -10.805  0.6051E-02  0.6051E-02  0.6996E-01  0.6996E-01
    -10.698  0.2474E-02  0.2474E-02  0.7022E-01  0.7022E-01
    -10.591  0.8015E-02  0.8015E-02  0.7108E-01  0.7108E-01
    -10.485  0.1275E-01  0.1275E-01  0.7244E-01  0.7244E-01
    -10.378  0.1536E-01  0.1536E-01  0.7408E-01  0.7408E-01
    -10.271  0.1481E-01  0.1481E-01  0.7566E-01  0.7566E-01
    -10.164  0.1457E-01  0.1457E-01  0.7722E-01  0.7722E-01
    -10.058  0.1809E-01  0.1809E-01  0.7915E-01  0.7915E-01
     -9.951  0.1858E-01  0.1858E-01  0.8113E-01  0.8113E-01
     -9.844  0.9680E-02  0.9680E-02  0.8216E-01  0.8216E-01
     -9.738  0.6927E-02  0.6927E-02  0.8290E-01  0.8290E-01
     -9.631  0.1420E-01  0.1420E-01  0.8442E-01  0.8442E-01
     -9.524  0.1540E-01  0.1540E-01  0.8606E-01  0.8606E-01
     -9.417  0.1638E-01  0.1638E-01  0.8781E-01  0.8781E-01
     -9.311  0.1555E-01  0.1555E-01  0.8947E-01  0.8947E-01
     -9.204  0.1408E-01  0.1408E-01  0.9097E-01  0.9097E-01
     -9.097  0.1049E-01  0.1049E-01  0.9209E-01  0.9209E-01
     -8.990  0.7681E-02  0.7681E-02  0.9291E-01  0.9291E-01
     -8.884  0.1562E-01  0.1562E-01  0.9458E-01  0.9458E-01
     -8.777  0.2054E-01  0.2054E-01  0.9677E-01  0.9677E-01
     -8.670  0.1515E-01  0.1515E-01  0.9839E-01  0.9839E-01
     -8.564  0.7620E-02  0.7620E-02  0.9920E-01  0.9920E-01
     -8.457  0.1096E-01  0.1096E-01  0.1004E+00  0.1004E+00
     -8.350  0.2084E-01  0.2084E-01  0.1026E+00  0.1026E+00
     -8.243  0.1841E-01  0.1841E-01  0.1046E+00  0.1046E+00
     -8.137  0.1169E-01  0.1169E-01  0.1058E+00  0.1058E+00
     -8.030  0.1640E-01  0.1640E-01  0.1076E+00  0.1076E+00
     -7.923  0.2505E-01  0.2505E-01  0.1102E+00  0.1102E+00
     -7.816  0.2453E-01  0.2453E-01  0.1128E+00  0.1128E+00
     -7.710  0.1997E-01  0.1997E-01  0.1150E+00  0.1150E+00
     -7.603  0.1007E-01  0.1007E-01  0.1161E+00  0.1161E+00
     -7.496  0.8443E-02  0.8443E-02  0.1170E+00  0.1170E+00
     -7.390  0.1877E-01  0.1877E-01  0.1190E+00  0.1190E+00
     -7.283  0.1795E-01  0.1795E-01  0.1209E+00  0.1209E+00
     -7.176  0.1171E-01  0.1171E-01  0.1221E+00  0.1221E+00
     -7.069  0.1111E-01  0.1111E-01  0.1233E+00  0.1233E+00
     -6.963  0.1700E-01  0.1700E-01  0.1251E+00  0.1251E+00
     -6.856  0.1811E-01  0.1811E-01  0.1271E+00  0.1271E+00
     -6.749  0.2002E-01  0.2002E-01  0.1292E+00  0.1292E+00
     -6.642  0.2076E-01  0.2076E-01  0.1314E+00  0.1314E+00
     -6.536  0.1836E-01  0.1836E-01  0.1334E+00  0.1334E+00
     -6.429  0.2040E-01  0.2040E-01  0.1355E+00  0.1355E+00
     -6.322  0.1707E-01  0.1707E-01  0.1374E+00  0.1374E+00
     -6.215  0.1863E-01  0.1863E-01  0.1394E+00  0.1394E+00
     -6.109  0.2621E-01  0.2621E-01  0.1422E+00  0.1422E+00
     -6.002  0.2260E-01  0.2260E-01  0.1446E+00  0.1446E+00
     -5.895  0.3154E-01  0.3154E-01  0.1479E+00  0.1479E+00
     -5.789  0.2858E-01  0.2858E-01  0.1510E+00  0.1510E+00
     -5.682  0.1611E-01  0.1611E-01  0.1527E+00  0.1527E+00
     -5.575  0.1851E-01  0.1851E-01  0.1547E+00  0.1547E+00
     -5.468  0.3304E-01  0.3304E-01  0.1582E+00  0.1582E+00
     -5.362  0.3598E-01  0.3598E-01  0.1620E+00  0.1620E+00
     -5.255  0.2316E-01  0.2316E-01  0.1645E+00  0.1645E+00
     -5.148  0.1667E-01  0.1667E-01  0.1663E+00  0.1663E+00
     -5.041  0.1048E-01  0.1048E-01  0.1674E+00  0.1674E+00
     -4.935  0.1065E-01  0.1065E-01  0.1686E+00  0.1686E+00
     -4.828  0.1429E-01  0.1429E-01  0.1701E+00  0.1701E+00
     -4.721  0.1091E-01  0.1091E-01  0.1712E+00  0.1712E+00
     -4.615  0.7968E-02  0.7968E-02  0.1721E+00  0.1721E+00
     -4.508  0.9206E-02  0.9206E-02  0.1731E+00  0.1731E+00
     -4.401  0.1659E-01  0.1659E-01  0.1748E+00  0.1748E+00
     -4.294  0.2220E-01  0.2220E-01  0.1772E+00  0.1772E+00
     -4.188  0.1852E-01  0.1852E-01  0.1792E+00  0.1792E+00
     -4.081  0.1889E-01  0.1889E-01  0.1812E+00  0.1812E+00
     -3.974  0.2217E-01  0.2217E-01  0.1836E+00  0.1836E+00
     -3.867  0.2381E-01  0.2381E-01  0.1861E+00  0.1861E+00
     -3.761  0.1823E-01  0.1823E-01  0.1881E+00  0.1881E+00
     -3.654  0.1814E-01  0.1814E-01  0.1900E+00  0.1900E+00
     -3.547  0.2038E-01  0.2038E-01  0.1922E+00  0.1922E+00
     -3.440  0.1577E-01  0.1577E-01  0.1939E+00  0.1939E+00
     -3.334  0.1381E-01  0.1381E-01  0.1953E+00  0.1953E+00
     -3.227  0.1306E-01  0.1306E-01  0.1967E+00  0.1967E+00
     -3.120  0.1726E-01  0.1726E-01  0.1986E+00  0.1986E+00
     -3.014  0.1825E-01  0.1825E-01  0.2005E+00  0.2005E+00
     -2.907  0.1184E-01  0.1184E-01  0.2018E+00  0.2018E+00
     -2.800  0.1187E-01  0.1187E-01  0.2030E+00  0.2030E+00
     -2.693  0.7470E-02  0.7470E-02  0.2038E+00  0.2038E+00
     -2.587  0.1012E-01  0.1012E-01  0.2049E+00  0.2049E+00
     -2.480  0.1967E-01  0.1967E-01  0.2070E+00  0.2070E+00
     -2.373  0.1427E-01  0.1427E-01  0.2085E+00  0.2085E+00
     -2.266  0.3991E-02  0.3991E-02  0.2090E+00  0.2090E+00
     -2.160  0.4732E-02  0.4732E-02  0.2095E+00  0.2095E+00
     -2.053  0.1034E-01  0.1034E-01  0.2106E+00  0.2106E+00
     -1.946  0.1027E-01  0.1027E-01  0.2117E+00  0.2117E+00
     -1.840  0.1120E-01  0.1120E-01  0.2129E+00  0.2129E+00
     -1.733  0.1155E-01  0.1155E-01  0.2141E+00  0.2141E+00
     -1.626  0.9506E-02  0.9506E-02  0.2151E+00  0.2151E+00
     -1.519  0.7131E-02  0.7131E-02  0.2159E+00  0.2159E+00
     -1.413  0.4528E-02  0.4528E-02  0.2164E+00  0.2164E+00
     -1.306  0.3946E-02  0.3946E-02  0.2168E+00  0.2168E+00
     -1.199  0.4021E-02  0.4021E-02  0.2172E+00  0.2172E+00
     -1.092  0.3971E-02  0.3971E-02  0.2176E+00  0.2176E+00
     -0.986  0.5866E-02  0.5866E-02  0.2183E+00  0.2183E+00
     -0.879  0.2888E-02  0.2888E-02  0.2186E+00  0.2186E+00
     -0.772  0.6135E-03  0.6135E-03  0.2186E+00  0.2186E+00
     -0.665  0.6749E-04  0.6749E-04  0.2186E+00  0.2186E+00
     -0.559  0.2487E-05  0.2487E-05  0.2186E+00  0.2186E+00
     -0.452  0.8118E-04  0.8118E-04  0.2187E+00  0.2187E+00
     -0.345  0.7397E-03  0.7397E-03  0.2187E+00  0.2187E+00
     -0.239  0.1000E-02  0.1000E-02  0.2188E+00  0.2188E+00
     -0.132  0.2052E-03  0.2052E-03  0.2189E+00  0.2189E+00
     -0.025  0.5802E-05  0.5802E-05  0.2189E+00  0.2189E+00
      0.082  0.3111E-06  0.3111E-06  0.2189E+00  0.2189E+00
      0.188  0.5074E-04  0.5074E-04  0.2189E+00  0.2189E+00
      0.295  0.1099E-02  0.1099E-02  0.2190E+00  0.2190E+00
      0.402  0.3331E-02  0.3331E-02  0.2193E+00  0.2193E+00
      0.509  0.1609E-02  0.1609E-02  0.2195E+00  0.2195E+00
      0.615  0.1209E-02  0.1209E-02  0.2196E+00  0.2196E+00
      0.722  0.3343E-02  0.3343E-02  0.2200E+00  0.2200E+00
      0.829  0.5225E-02  0.5225E-02  0.2206E+00  0.2206E+00
      0.935  0.9699E-02  0.9699E-02  0.2216E+00  0.2216E+00
      1.042  0.2552E-01  0.2552E-01  0.2243E+00  0.2243E+00
      1.149  0.2065E-01  0.2065E-01  0.2265E+00  0.2265E+00
      1.256  0.5052E-02  0.5052E-02  0.2271E+00  0.2271E+00
      1.362  0.4152E-02  0.4152E-02  0.2275E+00  0.2275E+00
      1.469  0.8365E-02  0.8365E-02  0.2284E+00  0.2284E+00
      1.576  0.1263E-01  0.1263E-01  0.2297E+00  0.2297E+00
      1.683  0.1923E-01  0.1923E-01  0.2318E+00  0.2318E+00
      1.789  0.1544E-01  0.1544E-01  0.2334E+00  0.2334E+00
      1.896  0.6521E-02  0.6521E-02  0.2341E+00  0.2341E+00
      2.003  0.6704E-02  0.6704E-02  0.2348E+00  0.2348E+00
      2.110  0.9987E-02  0.9987E-02  0.2359E+00  0.2359E+00
      2.216  0.7320E-02  0.7320E-02  0.2367E+00  0.2367E+00
      2.323  0.8234E-02  0.8234E-02  0.2376E+00  0.2376E+00
      2.430  0.7345E-02  0.7345E-02  0.2384E+00  0.2384E+00
      2.536  0.1048E-01  0.1048E-01  0.2395E+00  0.2395E+00
      2.643  0.1119E-01  0.1119E-01  0.2407E+00  0.2407E+00
      2.750  0.6668E-02  0.6668E-02  0.2414E+00  0.2414E+00
      2.857  0.4455E-02  0.4455E-02  0.2419E+00  0.2419E+00
      2.963  0.8970E-02  0.8971E-02  0.2428E+00  0.2428E+00
      3.070  0.1202E-01  0.1202E-01  0.2441E+00  0.2441E+00
      3.177  0.9772E-02  0.9772E-02  0.2451E+00  0.2451E+00
      3.284  0.9949E-02  0.9950E-02  0.2462E+00  0.2462E+00
      3.390  0.9994E-02  0.9993E-02  0.2473E+00  0.2473E+00
      3.497  0.1114E-01  0.1114E-01  0.2485E+00  0.2485E+00
      3.604  0.1679E-01  0.1680E-01  0.2503E+00  0.2503E+00
      3.710  0.2191E-01  0.2191E-01  0.2526E+00  0.2526E+00
      3.817  0.2474E-01  0.2474E-01  0.2552E+00  0.2552E+00
      3.924  0.2263E-01  0.2263E-01  0.2576E+00  0.2576E+00
      4.031  0.2349E-01  0.2349E-01  0.2602E+00  0.2602E+00
      4.137  0.2434E-01  0.2434E-01  0.2628E+00  0.2628E+00
      4.244  0.2586E-01  0.2586E-01  0.2655E+00  0.2655E+00
      4.351  0.2410E-01  0.2410E-01  0.2681E+00  0.2681E+00
      4.458  0.2305E-01  0.2305E-01  0.2705E+00  0.2705E+00
      4.564  0.2179E-01  0.2180E-01  0.2729E+00  0.2729E+00
      4.671  0.2172E-01  0.2172E-01  0.2752E+00  0.2752E+00
      4.778  0.2712E-01  0.2712E-01  0.2781E+00  0.2781E+00
      4.885  0.2400E-01  0.2400E-01  0.2806E+00  0.2806E+00
      4.991  0.2182E-01  0.2182E-01  0.2830E+00  0.2830E+00
      5.098  0.2562E-01  0.2562E-01  0.2857E+00  0.2857E+00
      5.205  0.2660E-01  0.2660E-01  0.2885E+00  0.2885E+00
      5.311  0.2383E-01  0.2383E-01  0.2911E+00  0.2911E+00
      5.418  0.2140E-01  0.2139E-01  0.2934E+00  0.2934E+00
      5.525  0.1991E-01  0.1991E-01  0.2955E+00  0.2955E+00
      5.632  0.2676E-01  0.2676E-01  0.2984E+00  0.2984E+00
      5.738  0.2526E-01  0.2527E-01  0.3010E+00  0.3010E+00
      5.845  0.2295E-01  0.2294E-01  0.3035E+00  0.3035E+00
      5.952  0.1910E-01  0.1910E-01  0.3055E+00  0.3055E+00
      6.059  0.1984E-01  0.1984E-01  0.3077E+00  0.3077E+00
      6.165  0.1527E-01  0.1527E-01  0.3093E+00  0.3093E+00
      6.272  0.1946E-01  0.1946E-01  0.3114E+00  0.3114E+00
      6.379  0.2312E-01  0.2311E-01  0.3138E+00  0.3138E+00
      6.485  0.2355E-01  0.2355E-01  0.3163E+00  0.3163E+00
      6.592  0.2443E-01  0.2443E-01  0.3189E+00  0.3189E+00
      6.699  0.2819E-01  0.2820E-01  0.3220E+00  0.3220E+00
      6.806  0.3266E-01  0.3266E-01  0.3254E+00  0.3254E+00
      6.912  0.2573E-01  0.2573E-01  0.3282E+00  0.3282E+00
      7.019  0.2563E-01  0.2564E-01  0.3309E+00  0.3309E+00
      7.126  0.2713E-01  0.2713E-01  0.3338E+00  0.3338E+00
      7.233  0.2108E-01  0.2107E-01  0.3361E+00  0.3361E+00
      7.339  0.1895E-01  0.1896E-01  0.3381E+00  0.3381E+00
      7.446  0.2103E-01  0.2104E-01  0.3403E+00  0.3403E+00
      7.553  0.2335E-01  0.2334E-01  0.3428E+00  0.3428E+00
      7.659  0.2444E-01  0.2444E-01  0.3454E+00  0.3454E+00
      7.766  0.3063E-01  0.3064E-01  0.3487E+00  0.3487E+00
      7.873  0.3363E-01  0.3363E-01  0.3523E+00  0.3523E+00
      7.980  0.2572E-01  0.2572E-01  0.3550E+00  0.3550E+00
      8.086  0.3234E-01  0.3235E-01  0.3585E+00  0.3585E+00
      8.193  0.3353E-01  0.3352E-01  0.3621E+00  0.3621E+00
      8.300  0.3274E-01  0.3274E-01  0.3656E+00  0.3656E+00
      8.407  0.3873E-01  0.3873E-01  0.3697E+00  0.3697E+00
      8.513  0.2560E-01  0.2560E-01  0.3724E+00  0.3724E+00
      8.620  0.1240E-01  0.1240E-01  0.3738E+00  0.3738E+00
      8.727  0.5367E-02  0.5366E-02  0.3743E+00  0.3743E+00
      8.834  0.3218E-02  0.3218E-02  0.3747E+00  0.3747E+00
      8.940  0.2488E-02  0.2488E-02  0.3749E+00  0.3749E+00
      9.047  0.5434E-03  0.5433E-03  0.3750E+00  0.3750E+00
      9.154  0.2086E-04  0.2085E-04  0.3750E+00  0.3750E+00
      9.260  0.1054E-06  0.1054E-06  0.3750E+00  0.3750E+00
      9.367  0.6158E-10  0.6154E-10  0.3750E+00  0.3750E+00
      9.474  0.3941E-14  0.3938E-14  0.3750E+00  0.3750E+00
      9.581  0.0000E+00  0.0000E+00  0.3750E+00  0.3750E+00
      9.687  0.0000E+00  0.0000E+00  0.3750E+00  0.3750E+00
      9.794  0.0000E+00  0.0000E+00  0.3750E+00  0.3750E+00
      9.901  0.0000E+00  0.0000E+00  0.3750E+00  0.3750E+00
     10.008  0.0000E+00  0.0000E+00  0.3750E+00  0.3750E+00
     10.114  0.0000E+00  0.0000E+00  0.3750E+00  0.3750E+00
     10.221  0.0000E+00  0.0000E+00  0.3750E+00  0.3750E+00
     10.328  0.0000E+00  0.0000E+00  0.3750E+00  0.3750E+00
