 ----------------------------------------------------
    OOO  PPPP  EEEEE N   N M   M PPPP
   O   O P   P E     NN  N MM MM P   P
   O   O PPPP  EEEEE N N N M M M PPPP   -- VERSION
   O   O P     E     N  NN M   M P
    OOO  P     EEEEE N   N M   M P
 ----------------------------------------------------
 running   48 mpi-ranks, with    1 threads/rank
 distrk:  each k-point on   48 cores,    1 groups
 distr:  one band on    1 cores,   48 groups
 vasp.6.3.2 27Jun22 (build Dec 22 2022 13:13:19) complex                        
  
 POSCAR found type information on POSCAR B C 
 POSCAR found :  2 types and      15 ions
 Reading from existing POTCAR
 -----------------------------------------------------------------------------
|                                                                             |
|           W    W    AA    RRRRR   N    N  II  N    N   GGGG   !!!           |
|           W    W   A  A   R    R  NN   N  II  NN   N  G    G  !!!           |
|           W    W  A    A  R    R  N N  N  II  N N  N  G       !!!           |
|           W WW W  AAAAAA  RRRRR   N  N N  II  N  N N  G  GGG   !            |
|           WW  WW  A    A  R   R   N   NN  II  N   NN  G    G                |
|           W    W  A    A  R    R  N    N  II  N    N   GGGG   !!!           |
|                                                                             |
|     You use a magnetic or noncollinear calculation, but did not specify     |
|     the initial magnetic moment with the MAGMOM tag. Note that a            |
|     default of 1 will be used for all atoms. This ferromagnetic setup       |
|     may break the symmetry of the crystal, in particular it may rule        |
|     out finding an antiferromagnetic solution. Thence, we recommend         |
|     setting the initial magnetic moment manually or verifying carefully     |
|     that this magnetic setup is desired.                                    |
|                                                                             |
 -----------------------------------------------------------------------------

 scaLAPACK will be used
 Reading from existing POTCAR
 LDA part: xc-table for Pade appr. of Perdew
 POSCAR found type information on POSCAR B C 
 POSCAR found :  2 types and      15 ions
 POSCAR, INCAR and KPOINTS ok, starting setup
 FFT: planning ... GRIDC
 FFT: planning ... GRID_SOFT
 FFT: planning ... GRID
 WAVECAR not read
 entering main loop
       N       E                     dE             d eps       ncg     rms          rms(c)
DAV:   1     0.202299862539E+03    0.20230E+03   -0.25652E+04 14208   0.859E+02
DAV:   2    -0.116207005643E+03   -0.31851E+03   -0.31682E+03 20160   0.162E+02
DAV:   3    -0.129301479346E+03   -0.13094E+02   -0.13072E+02 26352   0.431E+01
DAV:   4    -0.129330737905E+03   -0.29259E-01   -0.29257E-01 20976   0.193E+00
DAV:   5    -0.129330792967E+03   -0.55062E-04   -0.55062E-04 25392   0.845E-02    0.244E+01
DAV:   6    -0.921150607020E+02    0.37216E+02   -0.72193E+01 25728   0.255E+01    0.139E+01
DAV:   7    -0.100561567271E+03   -0.84465E+01   -0.97808E+00 21888   0.101E+01    0.811E+00
DAV:   8    -0.110477418471E+03   -0.99159E+01   -0.89087E+00 24480   0.899E+00    0.435E+00
DAV:   9    -0.117316498204E+03   -0.68391E+01   -0.40636E+00 19680   0.622E+00    0.279E+00
DAV:  10    -0.123659159284E+03   -0.63427E+01   -0.84391E+00 23952   0.710E+00    0.161E+00
DAV:  11    -0.125275700787E+03   -0.16165E+01   -0.23520E+00 26112   0.367E+00    0.982E-01
DAV:  12    -0.125429979275E+03   -0.15428E+00   -0.22779E-01 18864   0.140E+00    0.442E-01
DAV:  13    -0.125464818535E+03   -0.34839E-01   -0.24324E-02 18384   0.568E-01    0.181E-01
DAV:  14    -0.125487870437E+03   -0.23052E-01   -0.66285E-03 19872   0.286E-01    0.813E-02
DAV:  15    -0.125494565709E+03   -0.66953E-02   -0.28500E-03 18288   0.151E-01    0.421E-02
DAV:  16    -0.125496570140E+03   -0.20044E-02   -0.59411E-04 16896   0.802E-02    0.220E-02
DAV:  17    -0.125497819966E+03   -0.12498E-02   -0.14986E-04 17376   0.507E-02    0.166E-02
DAV:  18    -0.125498592400E+03   -0.77243E-03   -0.79853E-05 17088   0.386E-02    0.115E-02
DAV:  19    -0.125499011655E+03   -0.41925E-03   -0.39483E-05 20880   0.252E-02    0.684E-03
DAV:  20    -0.125499048957E+03   -0.37303E-04   -0.18026E-05 22128   0.174E-02    0.399E-03
DAV:  21    -0.125499073556E+03   -0.24599E-04   -0.57012E-06 21456   0.984E-03    0.212E-03
DAV:  22    -0.125499096922E+03   -0.23366E-04   -0.27247E-06 22656   0.587E-03    0.130E-03
DAV:  23    -0.125499107878E+03   -0.10957E-04   -0.13787E-06 21360   0.388E-03    0.682E-04
DAV:  24    -0.125499110243E+03   -0.23646E-05   -0.27153E-07 23424   0.204E-03    0.361E-04
DAV:  25    -0.125499111263E+03   -0.10202E-05   -0.11026E-07 21024   0.113E-03    0.181E-04
DAV:  26    -0.125499111762E+03   -0.49907E-06   -0.27400E-08 22608   0.554E-04
   1 F= -.12710244E+03 E0= -.12710167E+03  d E =-.127102E+03  mag=    -0.0000
 curvature:   0.00 expect dE= 0.000E+00 dE for cont linesearch  0.000E+00
 trial: gam= 0.00000 g(F)=  0.292E-01 g(S)=  0.000E+00 ort = 0.000E+00 (trialstep = 0.100E+01)
 search vector abs. value=  0.292E-01
 bond charge predicted
       N       E                     dE             d eps       ncg     rms          rms(c)
DAV:   1    -0.125507514806E+03   -0.84035E-02   -0.33386E+00 14208   0.582E+00    0.496E-01
DAV:   2    -0.125498691029E+03    0.88238E-02   -0.66418E-02 26208   0.767E-01    0.220E-01
DAV:   3    -0.125497658802E+03    0.10322E-02   -0.57587E-03 21696   0.223E-01    0.857E-02
DAV:   4    -0.125497612061E+03    0.46741E-04   -0.65104E-04 26448   0.769E-02    0.245E-02
DAV:   5    -0.125497614807E+03   -0.27459E-05   -0.19141E-05 23472   0.150E-02    0.909E-03
DAV:   6    -0.125497614921E+03   -0.11401E-06   -0.26747E-06 22992   0.536E-03
   2 F= -.12710036E+03 E0= -.12709959E+03  d E =0.207453E-02  mag=    -0.0000
 trial-energy change:    0.002075  1 .order    0.002032   -0.029179    0.033242
 step:   0.4674(harm=  0.4674)  dis= 0.00667  next Energy=  -127.109258 (dE=-0.682E-02)
 bond charge predicted
       N       E                     dE             d eps       ncg     rms          rms(c)
DAV:   1    -0.125509028806E+03   -0.11414E-01   -0.94636E-01 14208   0.310E+00    0.265E-01
DAV:   2    -0.125506469329E+03    0.25595E-02   -0.18815E-02 26448   0.407E-01    0.117E-01
DAV:   3    -0.125506185437E+03    0.28389E-03   -0.15992E-03 24240   0.118E-01    0.462E-02
DAV:   4    -0.125506172519E+03    0.12917E-04   -0.17766E-04 22896   0.402E-02    0.126E-02
DAV:   5    -0.125506173340E+03   -0.82012E-06   -0.60749E-06 22800   0.835E-03
   3 F= -.12710923E+03 E0= -.12710846E+03  d E =-.678988E-02  mag=    -0.0000
 curvature:  -0.23 expect dE=-0.144E-02 dE for cont linesearch -0.478E-09
 trial: gam= 0.21097 g(F)=  0.616E-02 g(S)=  0.000E+00 ort = 0.773E-05 (trialstep = 0.893E+00)
 search vector abs. value=  0.747E-02
 bond charge predicted
       N       E                     dE             d eps       ncg     rms          rms(c)
DAV:   1    -0.125510639943E+03   -0.44674E-02   -0.25120E-01 14208   0.191E+00    0.109E-01
DAV:   2    -0.125510654165E+03   -0.14222E-04   -0.22469E-03 27936   0.202E-01    0.628E-02
DAV:   3    -0.125510641144E+03    0.13021E-04   -0.23662E-04 22944   0.570E-02    0.211E-02
DAV:   4    -0.125510641523E+03   -0.37851E-06   -0.45510E-05 26112   0.240E-02    0.888E-03
DAV:   5    -0.125510642224E+03   -0.70171E-06   -0.20371E-06 22896   0.598E-03
   4 F= -.12711359E+03 E0= -.12711282E+03  d E =-.436079E-02  mag=     0.0000
 trial-energy change:   -0.004361  1 .order   -0.004361   -0.005509   -0.003214
 step:   2.1452(harm=  2.1452)  dis= 0.01119  next Energy=  -127.115841 (dE=-0.661E-02)
 bond charge predicted
       N       E                     dE             d eps       ncg     rms          rms(c)
DAV:   1    -0.125513098014E+03   -0.24565E-02   -0.49443E-01 14208   0.268E+00    0.152E-01
DAV:   2    -0.125513140821E+03   -0.42807E-04   -0.44209E-03 26112   0.283E-01    0.880E-02
DAV:   3    -0.125513116768E+03    0.24052E-04   -0.47419E-04 21984   0.808E-02    0.294E-02
DAV:   4    -0.125513117174E+03   -0.40540E-06   -0.92676E-05 25728   0.341E-02    0.126E-02
DAV:   5    -0.125513118549E+03   -0.13755E-05   -0.41722E-06 22272   0.859E-03    0.457E-03
DAV:   6    -0.125513118724E+03   -0.17477E-06   -0.11028E-06 23664   0.398E-03
   5 F= -.12711589E+03 E0= -.12711512E+03  d E =-.666206E-02  mag=    -0.0000
 curvature:  -1.30 expect dE=-0.372E-01 dE for cont linesearch -0.168E-05
 trial: gam= 4.64044 g(F)=  0.286E-01 g(S)=  0.000E+00 ort = 0.984E-04 (trialstep = 0.449E-01)
 search vector abs. value=  0.190E+00
 bond charge predicted
       N       E                     dE             d eps       ncg     rms          rms(c)
DAV:   1    -0.125514399397E+03   -0.12808E-02   -0.15363E-02 14208   0.444E-01    0.261E-02
DAV:   2    -0.125514402090E+03   -0.26932E-05   -0.11802E-04 26208   0.449E-02    0.153E-02
DAV:   3    -0.125514401537E+03    0.55256E-06   -0.13014E-05 20400   0.135E-02    0.406E-03
DAV:   4    -0.125514401786E+03   -0.24869E-06   -0.22375E-06 24768   0.555E-03
   6 F= -.12711715E+03 E0= -.12711638E+03  d E =-.125821E-02  mag=    -0.0000
 ZBRENT: can't locate minimum, use default step
 trial-energy change:   -0.001258  1 .order   -0.001258   -0.001305   -0.001211
 step:   0.1795(harm=  0.6198)  dis= 0.00433  next Energy=  -127.124906 (dE=-0.902E-02)
 bond charge predicted
       N       E                     dE             d eps       ncg     rms          rms(c)
DAV:   1    -0.125517673459E+03   -0.32719E-02   -0.13842E-01 14208   0.133E+00    0.785E-02
DAV:   2    -0.125517695502E+03   -0.22043E-04   -0.10223E-03 24672   0.133E-01    0.458E-02
DAV:   3    -0.125517689345E+03    0.61572E-05   -0.11564E-04 20400   0.400E-02    0.120E-02
DAV:   4    -0.125517689518E+03   -0.17295E-06   -0.19503E-05 26592   0.162E-02    0.517E-03
DAV:   5    -0.125517689873E+03   -0.35504E-06   -0.67787E-07 19920   0.349E-03
   7 F= -.12712036E+03 E0= -.12711959E+03  d E =-.446937E-02  mag=     0.0000
 curvature:  -0.84 expect dE=-0.120E-01 dE for cont linesearch -0.190E-02
 ZBRENT: increasing intervall
 opt :   0.4487  next Energy=  -127.124267 (dE=-0.838E-02)
 bond charge predicted
       N       E                     dE             d eps       ncg     rms          rms(c)
DAV:   1    -0.125521736168E+03   -0.40467E-02   -0.55590E-01 14208   0.267E+00    0.157E-01
DAV:   2    -0.125521825079E+03   -0.88912E-04   -0.41497E-03 25440   0.266E-01    0.911E-02
DAV:   3    -0.125521797680E+03    0.27400E-04   -0.46156E-04 22272   0.797E-02    0.241E-02
DAV:   4    -0.125521797976E+03   -0.29675E-06   -0.75095E-05 25344   0.318E-02    0.103E-02
DAV:   5    -0.125521798987E+03   -0.10108E-05   -0.27122E-06 23568   0.697E-03    0.440E-03
DAV:   6    -0.125521798991E+03   -0.32251E-08   -0.12676E-06 23088   0.405E-03
   8 F= -.12712430E+03 E0= -.12712353E+03  d E =-.841395E-02  mag=     0.0000
 curvature:  -1.73 expect dE=-0.109E-01 dE for cont linesearch -0.674E-03
 ZBRENT: increasing intervall
 opt :   0.9872  next Energy=  -127.122410 (dE=-0.652E-02)
 bond charge predicted
       N       E                     dE             d eps       ncg     rms          rms(c)
DAV:   1    -0.125520161294E+03    0.16377E-02   -0.22362E+00 14208   0.533E+00    0.313E-01
DAV:   2    -0.125520545900E+03   -0.38461E-03   -0.17282E-02 26592   0.540E-01    0.181E-01
DAV:   3    -0.125520431828E+03    0.11407E-03   -0.18111E-03 23472   0.157E-01    0.493E-02
DAV:   4    -0.125520436040E+03   -0.42121E-05   -0.28724E-04 25632   0.620E-02    0.204E-02
DAV:   5    -0.125520440665E+03   -0.46247E-05   -0.97219E-06 23280   0.133E-02    0.855E-03
DAV:   6    -0.125520440203E+03    0.46209E-06   -0.45524E-06 24480   0.771E-03
   9 F= -.12712257E+03 E0= -.12712180E+03  d E =-.668484E-02  mag=    -0.0000
 curvature:   4.86 expect dE= 0.195E+00 dE for cont linesearch  0.569E-02
 ZBRENT: bracketing found
 ZBRENT: interpolating
 opt :   0.6458  next Energy=  -127.125153 (dE=-0.926E-02)
 bond charge predicted
       N       E                     dE             d eps       ncg     rms          rms(c)
DAV:   1    -0.125522654567E+03   -0.22139E-02   -0.89844E-01 14208   0.337E+00    0.198E-01
DAV:   2    -0.125522809714E+03   -0.15515E-03   -0.70886E-03 27648   0.345E-01    0.115E-01
DAV:   3    -0.125522762011E+03    0.47703E-04   -0.69942E-04 19392   0.981E-02    0.316E-02
DAV:   4    -0.125522765607E+03   -0.35959E-05   -0.11764E-04 25056   0.397E-02    0.128E-02
DAV:   5    -0.125522767723E+03   -0.21161E-05   -0.35072E-06 17760   0.800E-03    0.553E-03
DAV:   6    -0.125522767917E+03   -0.19421E-06   -0.14864E-06 24672   0.440E-03
  10 F= -.12712514E+03 E0= -.12712437E+03  d E =-.925361E-02  mag=    -0.0000
 curvature:  -0.72 expect dE=-0.786E-02 dE for cont linesearch -0.274E-07
 trial: gam= 0.50212 g(F)=  0.108E-01 g(S)=  0.000E+00 ort =-0.848E-04 (trialstep = 0.165E+00)
 search vector abs. value=  0.587E-01
 bond charge predicted
       N       E                     dE             d eps       ncg     rms          rms(c)
DAV:   1    -0.125524552663E+03   -0.17849E-02   -0.65888E-02 14208   0.848E-01    0.498E-02
DAV:   2    -0.125524563818E+03   -0.11154E-04   -0.40523E-04 21792   0.742E-02    0.295E-02
DAV:   3    -0.125524561562E+03    0.22553E-05   -0.46496E-05 17088   0.219E-02    0.565E-03
DAV:   4    -0.125524561885E+03   -0.32272E-06   -0.41934E-06 23424   0.777E-03
  11 F= -.12712682E+03 E0= -.12712605E+03  d E =-.167965E-02  mag=    -0.0000
 ZBRENT: can't locate minimum, use default step
 trial-energy change:   -0.001680  1 .order   -0.001680   -0.001782   -0.001578
 step:   0.6602(harm=  1.4450)  dis= 0.00515  next Energy=  -127.132943 (dE=-0.780E-02)
 bond charge predicted
       N       E                     dE             d eps       ncg     rms          rms(c)
DAV:   1    -0.125528682376E+03   -0.41208E-02   -0.59400E-01 14208   0.254E+00    0.149E-01
DAV:   2    -0.125528794411E+03   -0.11203E-03   -0.35223E-03 27744   0.220E-01    0.882E-02
DAV:   3    -0.125528765418E+03    0.28993E-04   -0.42108E-04 21216   0.649E-02    0.161E-02
DAV:   4    -0.125528765301E+03    0.11653E-06   -0.32694E-05 23184   0.225E-02    0.770E-03
DAV:   5    -0.125528763547E+03    0.17540E-05   -0.33583E-06 22272   0.703E-03    0.296E-03
DAV:   6    -0.125528762510E+03    0.10370E-05   -0.15391E-06 24096   0.425E-03    0.139E-03
DAV:   7    -0.125528762470E+03    0.40698E-07   -0.34989E-07 20256   0.190E-03
  12 F= -.12713068E+03 E0= -.12712991E+03  d E =-.553821E-02  mag=    -0.0000
 curvature:  -2.45 expect dE=-0.128E-01 dE for cont linesearch -0.157E-02
 ZBRENT: increasing intervall
 opt :   1.6505  next Energy=  -127.133350 (dE=-0.821E-02)
 bond charge predicted
       N       E                     dE             d eps       ncg     rms          rms(c)
DAV:   1    -0.125532182798E+03   -0.34203E-02   -0.23781E+00 14208   0.508E+00    0.293E-01
DAV:   2    -0.125532659600E+03   -0.47680E-03   -0.13284E-02 27936   0.431E-01    0.174E-01
DAV:   3    -0.125532550324E+03    0.10928E-03   -0.17090E-03 21984   0.130E-01    0.294E-02
DAV:   4    -0.125532548477E+03    0.18471E-05   -0.12316E-04 23904   0.441E-02    0.151E-02
DAV:   5    -0.125532543531E+03    0.49451E-05   -0.11901E-05 22080   0.137E-02    0.561E-03
DAV:   6    -0.125532540801E+03    0.27303E-05   -0.53438E-06 24672   0.824E-03    0.193E-03
DAV:   7    -0.125532541676E+03   -0.87520E-06   -0.32615E-06 22608   0.562E-03
  13 F= -.12713378E+03 E0= -.12713300E+03  d E =-.863763E-02  mag=    -0.0000
 curvature:  -4.17 expect dE=-0.616E-01 dE for cont linesearch -0.105E-04
 trial: gam= 1.50029 g(F)=  0.148E-01 g(S)=  0.000E+00 ort = 0.384E-03 (trialstep = 0.183E+00)
 search vector abs. value=  0.148E+00
 bond charge predicted
       N       E                     dE             d eps       ncg     rms          rms(c)
DAV:   1    -0.125534778131E+03   -0.22373E-02   -0.23395E-01 14208   0.183E+00    0.956E-02
DAV:   2    -0.125534818478E+03   -0.40347E-04   -0.17951E-03 25920   0.180E-01    0.585E-02
DAV:   3    -0.125534787382E+03    0.31097E-04   -0.25087E-04 20880   0.587E-02    0.122E-02
DAV:   4    -0.125534787826E+03   -0.44421E-06   -0.27786E-05 24336   0.208E-02    0.725E-03
DAV:   5    -0.125534788410E+03   -0.58446E-06   -0.14948E-06 22560   0.501E-03
  14 F= -.12713582E+03 E0= -.12713504E+03  d E =-.203531E-02  mag=     0.0000
 trial-energy change:   -0.002035  1 .order   -0.002036   -0.002810   -0.001261
 step:   0.3325(harm=  0.3325)  dis= 0.00390  next Energy=  -127.136331 (dE=-0.255E-02)
 bond charge predicted
       N       E                     dE             d eps       ncg     rms          rms(c)
DAV:   1    -0.125535473489E+03   -0.68566E-03   -0.15534E-01 14208   0.149E+00    0.776E-02
DAV:   2    -0.125535502014E+03   -0.28525E-04   -0.11844E-03 26112   0.146E-01    0.476E-02
DAV:   3    -0.125535482024E+03    0.19990E-04   -0.16856E-04 24096   0.480E-02    0.996E-03
DAV:   4    -0.125535481970E+03    0.53659E-07   -0.17494E-05 25104   0.167E-02    0.594E-03
DAV:   5    -0.125535482249E+03   -0.27913E-06   -0.10066E-06 23712   0.417E-03
  15 F= -.12713633E+03 E0= -.12713556E+03  d E =-.255254E-02  mag=    -0.0000
 curvature:  -1.61 expect dE=-0.181E-02 dE for cont linesearch -0.828E-07
 trial: gam= 0.19939 g(F)=  0.113E-02 g(S)=  0.000E+00 ort = 0.874E-04 (trialstep = 0.213E+00)
 search vector abs. value=  0.705E-02
 bond charge predicted
       N       E                     dE             d eps       ncg     rms          rms(c)
DAV:   1    -0.125535757250E+03   -0.27528E-03   -0.14743E-02 14592   0.463E-01    0.239E-02
DAV:   2    -0.125535759895E+03   -0.26458E-05   -0.11883E-04 25824   0.448E-02    0.143E-02
DAV:   3    -0.125535759861E+03    0.34530E-07   -0.11710E-05 22992   0.123E-02    0.405E-03
DAV:   4    -0.125535760296E+03   -0.43511E-06   -0.15684E-06 20928   0.483E-03
  16 F= -.12713653E+03 E0= -.12713576E+03  d E =-.199494E-03  mag=     0.0000
 trial-energy change:   -0.000199  1 .order   -0.000200   -0.000244   -0.000156
 step:   0.5859(harm=  0.5859)  dis= 0.00180  next Energy=  -127.136670 (dE=-0.336E-03)
 bond charge predicted
       N       E                     dE             d eps       ncg     rms          rms(c)
DAV:   1    -0.125536029316E+03   -0.26945E-03   -0.45120E-02 14208   0.810E-01    0.419E-02
DAV:   2    -0.125536037228E+03   -0.79120E-05   -0.35767E-04 26640   0.780E-02    0.251E-02
DAV:   3    -0.125536035771E+03    0.14564E-05   -0.34760E-05 22080   0.212E-02    0.662E-03
DAV:   4    -0.125536036091E+03   -0.32004E-06   -0.51532E-06 24240   0.842E-03
  17 F= -.12713667E+03 E0= -.12713589E+03  d E =-.337456E-03  mag=     0.0000
 curvature:  -1.80 expect dE=-0.182E-02 dE for cont linesearch -0.446E-07
 trial: gam= 0.89161 g(F)=  0.101E-02 g(S)=  0.000E+00 ort = 0.132E-04 (trialstep = 0.288E+00)
 search vector abs. value=  0.664E-02
 bond charge predicted
       N       E                     dE             d eps       ncg     rms          rms(c)
DAV:   1    -0.125536340702E+03   -0.30493E-03   -0.25597E-02 14208   0.630E-01    0.316E-02
DAV:   2    -0.125536347933E+03   -0.72310E-05   -0.22645E-04 27360   0.641E-02    0.192E-02
DAV:   3    -0.125536347550E+03    0.38319E-06   -0.19780E-05 20832   0.165E-02    0.579E-03
DAV:   4    -0.125536347911E+03   -0.36126E-06   -0.35612E-06 22128   0.685E-03
  18 F= -.12713686E+03 E0= -.12713609E+03  d E =-.193539E-03  mag=    -0.0000
 trial-energy change:   -0.000194  1 .order   -0.000194   -0.000295   -0.000093
 step:   0.4198(harm=  0.4198)  dis= 0.00138  next Energy=  -127.136886 (dE=-0.215E-03)
 bond charge predicted
       N       E                     dE             d eps       ncg     rms          rms(c)
DAV:   1    -0.125536422095E+03   -0.74545E-04   -0.53965E-03 14208   0.289E-01    0.147E-02
DAV:   2    -0.125536423760E+03   -0.16649E-05   -0.48854E-05 25680   0.297E-02    0.898E-03
DAV:   3    -0.125536424031E+03   -0.27112E-06   -0.42975E-06 19344   0.774E-03
  19 F= -.12713689E+03 E0= -.12713611E+03  d E =-.214965E-03  mag=     0.0000
 curvature:  -1.36 expect dE=-0.610E-03 dE for cont linesearch -0.905E-08
 trial: gam= 0.46357 g(F)=  0.449E-03 g(S)=  0.000E+00 ort =-0.665E-05 (trialstep = 0.314E+00)
 search vector abs. value=  0.187E-02
 bond charge predicted
       N       E                     dE             d eps       ncg     rms          rms(c)
DAV:   1    -0.125536611682E+03   -0.18792E-03   -0.96123E-03 14208   0.380E-01    0.214E-02
DAV:   2    -0.125536612586E+03   -0.90457E-06   -0.10668E-04 27696   0.429E-02    0.126E-02
DAV:   3    -0.125536611376E+03    0.12106E-05   -0.10303E-05 18912   0.123E-02    0.338E-03
DAV:   4    -0.125536611686E+03   -0.30973E-06   -0.12389E-06 23616   0.436E-03
  20 F= -.12713699E+03 E0= -.12713621E+03  d E =-.989917E-04  mag=    -0.0000
 trial-energy change:   -0.000099  1 .order   -0.000098   -0.000140   -0.000057
 step:   0.5278(harm=  0.5278)  dis= 0.00112  next Energy=  -127.137004 (dE=-0.118E-03)
 bond charge predicted
       N       E                     dE             d eps       ncg     rms          rms(c)
DAV:   1    -0.125536691689E+03   -0.80313E-04   -0.44483E-03 14208   0.259E-01    0.144E-02
DAV:   2    -0.125536692282E+03   -0.59301E-06   -0.49513E-05 27552   0.291E-02    0.846E-03
DAV:   3    -0.125536691838E+03    0.44383E-06   -0.44814E-06 16272   0.819E-03
  21 F= -.12713701E+03 E0= -.12713623E+03  d E =-.118763E-03  mag=    -0.0000
 curvature:  -1.11 expect dE=-0.496E-03 dE for cont linesearch -0.222E-09
 trial: gam= 0.98815 g(F)=  0.448E-03 g(S)=  0.000E+00 ort =-0.612E-06 (trialstep = 0.294E+00)
 search vector abs. value=  0.227E-02
 bond charge predicted
       N       E                     dE             d eps       ncg     rms          rms(c)
DAV:   1    -0.125536905356E+03   -0.21307E-03   -0.97739E-03 14208   0.383E-01    0.192E-02
DAV:   2    -0.125536908262E+03   -0.29064E-05   -0.94196E-05 26304   0.397E-02    0.114E-02
DAV:   3    -0.125536908388E+03   -0.12552E-06   -0.83643E-06 15312   0.108E-02
  22 F= -.12713710E+03 E0= -.12713632E+03  d E =-.982366E-04  mag=     0.0000
 trial-energy change:   -0.000098  1 .order   -0.000097   -0.000131   -0.000063
 step:   0.5665(harm=  0.5665)  dis= 0.00139  next Energy=  -127.137132 (dE=-0.127E-03)
 bond charge predicted
       N       E                     dE             d eps       ncg     rms          rms(c)
DAV:   1    -0.125537047220E+03   -0.13896E-03   -0.84768E-03 14208   0.357E-01    0.183E-02
DAV:   2    -0.125537050203E+03   -0.29825E-05   -0.82048E-05 27072   0.372E-02    0.109E-02
DAV:   3    -0.125537050504E+03   -0.30084E-06   -0.75111E-06 16992   0.102E-02
  23 F= -.12713714E+03 E0= -.12713636E+03  d E =-.130123E-03  mag=    -0.0000
 curvature:  -1.44 expect dE=-0.443E-03 dE for cont linesearch -0.233E-07
 trial: gam= 0.68662 g(F)=  0.308E-03 g(S)=  0.000E+00 ort = 0.607E-05 (trialstep = 0.348E+00)
 search vector abs. value=  0.139E-02
 bond charge predicted
       N       E                     dE             d eps       ncg     rms          rms(c)
DAV:   1    -0.125537263747E+03   -0.21354E-03   -0.92126E-03 14208   0.376E-01    0.202E-02
DAV:   2    -0.125537265150E+03   -0.14023E-05   -0.10091E-04 25584   0.412E-02    0.120E-02
DAV:   3    -0.125537264390E+03    0.75988E-06   -0.90246E-06 19632   0.116E-02
  24 F= -.12713720E+03 E0= -.12713642E+03  d E =-.674470E-04  mag=     0.0000
 trial-energy change:   -0.000067  1 .order   -0.000067   -0.000109   -0.000025
 step:   0.4532(harm=  0.4532)  dis= 0.00067  next Energy=  -127.137206 (dE=-0.708E-04)
 bond charge predicted
       N       E                     dE             d eps       ncg     rms          rms(c)
DAV:   1    -0.125537312662E+03   -0.47512E-04   -0.84262E-04 14208   0.114E-01    0.663E-03
DAV:   2    -0.125537312968E+03   -0.30635E-06   -0.92701E-06 25104   0.127E-02
  25 F= -.12713721E+03 E0= -.12713643E+03  d E =-.718257E-04  mag=    -0.0000
 curvature:  -1.01 expect dE=-0.218E-03 dE for cont linesearch -0.911E-07
 trial: gam= 0.70815 g(F)=  0.217E-03 g(S)=  0.000E+00 ort = 0.112E-04 (trialstep = 0.369E+00)
 search vector abs. value=  0.928E-03
 bond charge predicted
       N       E                     dE             d eps       ncg     rms          rms(c)
DAV:   1    -0.125537528262E+03   -0.21560E-03   -0.71423E-03 14208   0.329E-01    0.180E-02
DAV:   2    -0.125537528331E+03   -0.69374E-07   -0.78352E-05 21264   0.370E-02    0.106E-02
DAV:   3    -0.125537527837E+03    0.49364E-06   -0.85573E-06 24000   0.111E-02
  26 F= -.12713726E+03 E0= -.12713648E+03  d E =-.554499E-04  mag=     0.0000
 trial-energy change:   -0.000055  1 .order   -0.000055   -0.000083   -0.000028
 step:   0.5537(harm=  0.5537)  dis= 0.00047  next Energy=  -127.137269 (dE=-0.621E-04)
 bond charge predicted
       N       E                     dE             d eps       ncg     rms          rms(c)
DAV:   1    -0.125537615303E+03   -0.86972E-04   -0.18059E-03 14208   0.165E-01    0.949E-03
DAV:   2    -0.125537615487E+03   -0.18445E-06   -0.20298E-05 19104   0.190E-02    0.568E-03
DAV:   3    -0.125537615478E+03    0.91050E-08   -0.23359E-06 21696   0.597E-03
  27 F= -.12713727E+03 E0= -.12713649E+03  d E =-.633805E-04  mag=    -0.0000
 curvature:  -1.15 expect dE=-0.238E-03 dE for cont linesearch -0.257E-07
 trial: gam= 0.96994 g(F)=  0.208E-03 g(S)=  0.000E+00 ort = 0.457E-05 (trialstep = 0.346E+00)
 search vector abs. value=  0.109E-02
 bond charge predicted
       N       E                     dE             d eps       ncg     rms          rms(c)
DAV:   1    -0.125537851116E+03   -0.23563E-03   -0.70832E-03 14208   0.324E-01    0.161E-02
DAV:   2    -0.125537852376E+03   -0.12608E-05   -0.63329E-05 20448   0.341E-02    0.984E-03
DAV:   3    -0.125537852332E+03    0.44258E-07   -0.69689E-06 25392   0.982E-03
  28 F= -.12713733E+03 E0= -.12713655E+03  d E =-.584206E-04  mag=    -0.0000
 trial-energy change:   -0.000058  1 .order   -0.000058   -0.000073   -0.000043
 step:   0.8298(harm=  0.8298)  dis= 0.00104  next Energy=  -127.137358 (dE=-0.880E-04)
 bond charge predicted
       N       E                     dE             d eps       ncg     rms          rms(c)
DAV:   1    -0.125538131754E+03   -0.27938E-03   -0.13914E-02 14208   0.455E-01    0.227E-02
DAV:   2    -0.125538134822E+03   -0.30677E-05   -0.12464E-04 23952   0.478E-02    0.140E-02
DAV:   3    -0.125538134438E+03    0.38426E-06   -0.13673E-05 25776   0.136E-02    0.359E-03
DAV:   4    -0.125538134464E+03   -0.26494E-07   -0.19685E-06 15456   0.549E-03
  29 F= -.12713736E+03 E0= -.12713658E+03  d E =-.908100E-04  mag=    -0.0000
 curvature:  -2.13 expect dE=-0.591E-03 dE for cont linesearch -0.131E-06
 trial: gam= 1.31828 g(F)=  0.277E-03 g(S)=  0.000E+00 ort = 0.818E-05 (trialstep = 0.220E+00)
 search vector abs. value=  0.219E-02
 bond charge predicted
       N       E                     dE             d eps       ncg     rms          rms(c)
DAV:   1    -0.125538352111E+03   -0.21767E-03   -0.60517E-03 14208   0.297E-01    0.156E-02
DAV:   2    -0.125538352606E+03   -0.49482E-06   -0.58356E-05 22416   0.325E-02    0.956E-03
DAV:   3    -0.125538351998E+03    0.60808E-06   -0.63546E-06 21648   0.964E-03
  30 F= -.12713741E+03 E0= -.12713663E+03  d E =-.467337E-04  mag=     0.0000
 trial-energy change:   -0.000047  1 .order   -0.000047   -0.000063   -0.000030
 step:   0.4165(harm=  0.4165)  dis= 0.00063  next Energy=  -127.137421 (dE=-0.600E-04)
 bond charge predicted
       N       E                     dE             d eps       ncg     rms          rms(c)
DAV:   1    -0.125538518623E+03   -0.16602E-03   -0.48421E-03 14208   0.266E-01    0.142E-02
DAV:   2    -0.125538519172E+03   -0.54912E-06   -0.46211E-05 24672   0.289E-02    0.873E-03
DAV:   3    -0.125538518799E+03    0.37293E-06   -0.49299E-06 21648   0.850E-03
  31 F= -.12713742E+03 E0= -.12713664E+03  d E =-.610234E-04  mag=     0.0000
 curvature:  -1.59 expect dE=-0.286E-03 dE for cont linesearch -0.111E-07
 trial: gam= 0.67913 g(F)=  0.181E-03 g(S)=  0.000E+00 ort = 0.392E-05 (trialstep = 0.259E+00)
 search vector abs. value=  0.120E-02
 bond charge predicted
       N       E                     dE             d eps       ncg     rms          rms(c)
DAV:   1    -0.125538721510E+03   -0.20234E-03   -0.45255E-03 14208   0.255E-01    0.129E-02
DAV:   2    -0.125538722239E+03   -0.72937E-06   -0.40439E-05 19824   0.272E-02    0.808E-03
DAV:   3    -0.125538722264E+03   -0.24586E-07   -0.48467E-06 19200   0.824E-03
  32 F= -.12713746E+03 E0= -.12713668E+03  d E =-.398258E-04  mag=    -0.0000
 trial-energy change:   -0.000040  1 .order   -0.000039   -0.000047   -0.000030
 step:   0.7234(harm=  0.7234)  dis= 0.00099  next Energy=  -127.137488 (dE=-0.662E-04)
 bond charge predicted
       N       E                     dE             d eps       ncg     rms          rms(c)
DAV:   1    -0.125539043409E+03   -0.32117E-03   -0.14488E-02 14208   0.457E-01    0.230E-02
DAV:   2    -0.125539045660E+03   -0.22513E-05   -0.12862E-04 22512   0.483E-02    0.144E-02
DAV:   3    -0.125539045377E+03    0.28326E-06   -0.15595E-05 24144   0.144E-02    0.385E-03
DAV:   4    -0.125539045422E+03   -0.44627E-07   -0.26956E-06 18480   0.626E-03
  33 F= -.12713749E+03 E0= -.12713671E+03  d E =-.699893E-04  mag=    -0.0000
 curvature:  -2.36 expect dE=-0.623E-03 dE for cont linesearch -0.181E-06
 trial: gam= 1.41227 g(F)=  0.263E-03 g(S)=  0.000E+00 ort = 0.959E-05 (trialstep = 0.157E+00)
 search vector abs. value=  0.268E-02
 bond charge predicted
       N       E                     dE             d eps       ncg     rms          rms(c)
DAV:   1    -0.125539239418E+03   -0.19404E-03   -0.39575E-03 14208   0.240E-01    0.118E-02
DAV:   2    -0.125539239885E+03   -0.46746E-06   -0.35197E-05 18528   0.252E-02    0.721E-03
DAV:   3    -0.125539239897E+03   -0.11572E-07   -0.37710E-06 18288   0.735E-03
  34 F= -.12713753E+03 E0= -.12713675E+03  d E =-.385115E-04  mag=    -0.0000
 ZBRENT: can't locate minimum, use default step
 trial-energy change:   -0.000039  1 .order   -0.000038   -0.000044   -0.000033
 step:   0.6297(harm=  0.6305)  dis= 0.00166  next Energy=  -127.137579 (dE=-0.873E-04)
 bond charge predicted
       N       E                     dE             d eps       ncg     rms          rms(c)
DAV:   1    -0.125539760092E+03   -0.52021E-03   -0.35616E-02 14208   0.720E-01    0.352E-02
DAV:   2    -0.125539764101E+03   -0.40095E-05   -0.30932E-04 23280   0.736E-02    0.214E-02
DAV:   3    -0.125539762347E+03    0.17542E-05   -0.32955E-05 25680   0.207E-02    0.524E-03
DAV:   4    -0.125539762697E+03   -0.34950E-06   -0.43041E-06 16320   0.795E-03
  35 F= -.12713759E+03 E0= -.12713681E+03  d E =-.935300E-04  mag=     0.0000
 curvature:  -3.05 expect dE=-0.622E-03 dE for cont linesearch -0.558E-06
 trial: gam= 0.78390 g(F)=  0.204E-03 g(S)=  0.000E+00 ort = 0.221E-04 (trialstep = 0.252E+00)
 search vector abs. value=  0.188E-02
 bond charge predicted
       N       E                     dE             d eps       ncg     rms          rms(c)
DAV:   1    -0.125540017919E+03   -0.25557E-03   -0.78141E-03 14208   0.343E-01    0.165E-02
DAV:   2    -0.125540018889E+03   -0.96977E-06   -0.75396E-05 21936   0.366E-02    0.103E-02
DAV:   3    -0.125540018551E+03    0.33748E-06   -0.87360E-06 18816   0.113E-02
  36 F= -.12713763E+03 E0= -.12713685E+03  d E =-.408709E-04  mag=     0.0000
 trial-energy change:   -0.000041  1 .order   -0.000040   -0.000056   -0.000024
 step:   0.4406(harm=  0.4406)  dis= 0.00087  next Energy=  -127.137634 (dE=-0.488E-04)
 bond charge predicted
       N       E                     dE             d eps       ncg     rms          rms(c)
DAV:   1    -0.125540190142E+03   -0.17125E-03   -0.44168E-03 14208   0.258E-01    0.128E-02
DAV:   2    -0.125540190912E+03   -0.76944E-06   -0.42417E-05 25392   0.275E-02    0.805E-03
DAV:   3    -0.125540190952E+03   -0.39642E-07   -0.47686E-06 14784   0.851E-03
  37 F= -.12713764E+03 E0= -.12713686E+03  d E =-.521579E-04  mag=     0.0000
 curvature:  -1.88 expect dE=-0.304E-03 dE for cont linesearch -0.614E-07
 trial: gam= 0.84217 g(F)=  0.162E-03 g(S)=  0.000E+00 ort = 0.785E-05 (trialstep = 0.290E+00)
 search vector abs. value=  0.151E-02
 bond charge predicted
       N       E                     dE             d eps       ncg     rms          rms(c)
DAV:   1    -0.125540458485E+03   -0.26757E-03   -0.83982E-03 14208   0.352E-01    0.166E-02
DAV:   2    -0.125540459312E+03   -0.82684E-06   -0.78537E-05 19536   0.368E-02    0.102E-02
DAV:   3    -0.125540459442E+03   -0.13005E-06   -0.82070E-06 14976   0.109E-02
  38 F= -.12713768E+03 E0= -.12713690E+03  d E =-.407222E-04  mag=     0.0000
 trial-energy change:   -0.000041  1 .order   -0.000039   -0.000049   -0.000028
 step:   0.6933(harm=  0.6933)  dis= 0.00116  next Energy=  -127.137696 (dE=-0.585E-04)
 bond charge predicted
       N       E                     dE             d eps       ncg     rms          rms(c)
DAV:   1    -0.125540799498E+03   -0.34019E-03   -0.16323E-02 14208   0.491E-01    0.233E-02
DAV:   2    -0.125540801132E+03   -0.16344E-05   -0.15306E-04 20832   0.512E-02    0.143E-02
DAV:   3    -0.125540801032E+03    0.10033E-06   -0.16194E-05 16320   0.151E-02    0.397E-03
DAV:   4    -0.125540801484E+03   -0.45283E-06   -0.29266E-06 15888   0.701E-03
  39 F= -.12713770E+03 E0= -.12713692E+03  d E =-.653226E-04  mag=    -0.0000
 curvature:  -3.10 expect dE=-0.453E-03 dE for cont linesearch -0.306E-06
 trial: gam= 0.86264 g(F)=  0.146E-03 g(S)=  0.000E+00 ort = 0.122E-04 (trialstep = 0.370E+00)
 search vector abs. value=  0.129E-02
 bond charge predicted
       N       E                     dE             d eps       ncg     rms          rms(c)
DAV:   1    -0.125541114457E+03   -0.31343E-03   -0.12751E-02 14208   0.441E-01    0.213E-02
DAV:   2    -0.125541114848E+03   -0.39108E-06   -0.12796E-04 21648   0.474E-02    0.132E-02
DAV:   3    -0.125541113789E+03    0.10588E-05   -0.15852E-05 20640   0.151E-02    0.288E-03
DAV:   4    -0.125541114040E+03   -0.25097E-06   -0.23276E-06 16512   0.622E-03
  40 F= -.12713773E+03 E0= -.12713696E+03  d E =-.312056E-04  mag=    -0.0000
 trial-energy change:   -0.000031  1 .order   -0.000031   -0.000058   -0.000004
 step:   0.3965(harm=  0.3965)  dis= 0.00055  next Energy=  -127.137734 (dE=-0.310E-04)
 bond charge predicted
       N       E                     dE             d eps       ncg     rms          rms(c)
DAV:   1    -0.125541134141E+03   -0.20351E-04   -0.64798E-05 16704   0.315E-02    0.191E-03
DAV:   2    -0.125541134188E+03   -0.47576E-07   -0.77973E-07 22464   0.402E-03
  41 F= -.12713773E+03 E0= -.12713696E+03  d E =-.314759E-04  mag=    -0.0000
 curvature:  -1.64 expect dE=-0.133E-03 dE for cont linesearch -0.593E-08
 trial: gam= 0.63426 g(F)=  0.813E-04 g(S)=  0.000E+00 ort = 0.216E-05 (trialstep = 0.376E+00)
 search vector abs. value=  0.604E-03
 bond charge predicted
       N       E                     dE             d eps       ncg     rms          rms(c)
DAV:   1    -0.125541369299E+03   -0.23516E-03   -0.60547E-03 14208   0.302E-01    0.145E-02
DAV:   2    -0.125541368750E+03    0.54905E-06   -0.56925E-05 14448   0.320E-02    0.885E-03
DAV:   3    -0.125541368661E+03    0.88857E-07   -0.76286E-06 14448   0.106E-02
  42 F= -.12713776E+03 E0= -.12713698E+03  d E =-.227523E-04  mag=    -0.0000
 trial-energy change:   -0.000023  1 .order   -0.000022   -0.000031   -0.000013
 step:   0.6331(harm=  0.6331)  dis= 0.00062  next Energy=  -127.137761 (dE=-0.262E-04)
 bond charge predicted
       N       E                     dE             d eps       ncg     rms          rms(c)
DAV:   1    -0.125541520497E+03   -0.15175E-03   -0.28909E-03 14208   0.208E-01    0.104E-02
DAV:   2    -0.125541520425E+03    0.71767E-07   -0.27626E-05 17088   0.226E-02    0.643E-03
DAV:   3    -0.125541520593E+03   -0.16739E-06   -0.36927E-06 14640   0.764E-03
  43 F= -.12713776E+03 E0= -.12713698E+03  d E =-.295353E-04  mag=    -0.0000
 curvature:  -2.31 expect dE=-0.220E-03 dE for cont linesearch -0.189E-06
 trial: gam= 0.96350 g(F)=  0.952E-04 g(S)=  0.000E+00 ort = 0.702E-05 (trialstep = 0.385E+00)
 search vector abs. value=  0.669E-03
 bond charge predicted
       N       E                     dE             d eps       ncg     rms          rms(c)
DAV:   1    -0.125541777327E+03   -0.25690E-03   -0.73345E-03 14208   0.335E-01    0.165E-02
DAV:   2    -0.125541777179E+03    0.14772E-06   -0.73654E-05 18000   0.365E-02    0.102E-02
DAV:   3    -0.125541776843E+03    0.33607E-06   -0.99143E-06 16224   0.121E-02
  44 F= -.12713779E+03 E0= -.12713701E+03  d E =-.240829E-04  mag=     0.0000
 trial-energy change:   -0.000024  1 .order   -0.000022   -0.000039   -0.000005
 step:   0.4402(harm=  0.4402)  dis= 0.00052  next Energy=  -127.137787 (dE=-0.224E-04)
 bond charge predicted
       N       E                     dE             d eps       ncg     rms          rms(c)
DAV:   1    -0.125541810761E+03   -0.33582E-04   -0.16074E-04 15312   0.496E-02    0.330E-03
DAV:   2    -0.125541810771E+03   -0.94678E-08   -0.18539E-06 14400   0.644E-03
  45 F= -.12713779E+03 E0= -.12713701E+03  d E =-.249175E-04  mag=     0.0000
 curvature:  -1.44 expect dE=-0.800E-04 dE for cont linesearch -0.196E-06
 trial: gam= 0.67352 g(F)=  0.554E-04 g(S)=  0.000E+00 ort = 0.954E-05 (trialstep = 0.396E+00)
 search vector abs. value=  0.372E-03
 bond charge predicted
       N       E                     dE             d eps       ncg     rms          rms(c)
DAV:   1    -0.125542014080E+03   -0.20332E-03   -0.42106E-03 14208   0.250E-01    0.128E-02
DAV:   2    -0.125542013802E+03    0.27794E-06   -0.43433E-05 14208   0.282E-02    0.796E-03
DAV:   3    -0.125542013762E+03    0.40197E-07   -0.57209E-06 14208   0.999E-03
  46 F= -.12713780E+03 E0= -.12713703E+03  d E =-.154645E-04  mag=    -0.0000
 trial-energy change:   -0.000015  1 .order   -0.000015   -0.000024   -0.000006
 step:   0.5181(harm=  0.5181)  dis= 0.00050  next Energy=  -127.137805 (dE=-0.160E-04)
 bond charge predicted
       N       E                     dE             d eps       ncg     rms          rms(c)
DAV:   1    -0.125542072806E+03   -0.59004E-04   -0.41128E-04 14208   0.783E-02    0.441E-03
DAV:   2    -0.125542072760E+03    0.45939E-07   -0.46292E-06 14208   0.987E-03
  47 F= -.12713781E+03 E0= -.12713703E+03  d E =-.168270E-04  mag=     0.0000
 curvature:  -1.56 expect dE=-0.586E-04 dE for cont linesearch -0.200E-06
 trial: gam= 0.64853 g(F)=  0.376E-04 g(S)=  0.000E+00 ort = 0.691E-05 (trialstep = 0.421E+00)
 search vector abs. value=  0.203E-03
 bond charge predicted
       N       E                     dE             d eps       ncg     rms          rms(c)
DAV:   1    -0.125542241537E+03   -0.16873E-03   -0.28239E-03 14208   0.207E-01    0.106E-02
DAV:   2    -0.125542241227E+03    0.30967E-06   -0.32629E-05 14208   0.248E-02    0.670E-03
DAV:   3    -0.125542241416E+03   -0.18926E-06   -0.52540E-06 14304   0.988E-03
  48 F= -.12713782E+03 E0= -.12713704E+03  d E =-.105520E-04  mag=    -0.0000
 trial-energy change:   -0.000011  1 .order   -0.000010   -0.000018   -0.000002
 step:   0.4838(harm=  0.4838)  dis= 0.00031  next Energy=  -127.137816 (dE=-0.102E-04)
 bond charge predicted
       N       E                     dE             d eps       ncg     rms          rms(c)
DAV:   1    -0.125542265476E+03   -0.24249E-04   -0.70848E-05 14208   0.332E-02    0.249E-03
DAV:   2    -0.125542265404E+03    0.72588E-07   -0.12560E-06 14352   0.584E-03
  49 F= -.12713782E+03 E0= -.12713704E+03  d E =-.108107E-04  mag=    -0.0000
 curvature:  -1.17 expect dE=-0.379E-04 dE for cont linesearch -0.131E-06
 trial: gam= 0.83513 g(F)=  0.325E-04 g(S)=  0.000E+00 ort = 0.477E-05 (trialstep = 0.433E+00)
 search vector abs. value=  0.182E-03
 bond charge predicted
       N       E                     dE             d eps       ncg     rms          rms(c)
DAV:   1    -0.125542441081E+03   -0.17561E-03   -0.28892E-03 14208   0.210E-01    0.103E-02
DAV:   2    -0.125542440738E+03    0.34318E-06   -0.31843E-05 14400   0.241E-02    0.647E-03
DAV:   3    -0.125542440792E+03   -0.53752E-07   -0.44425E-06 14208   0.896E-03
  50 F= -.12713783E+03 E0= -.12713705E+03  d E =-.110195E-04  mag=     0.0000
 trial-energy change:   -0.000011  1 .order   -0.000010   -0.000016   -0.000005
 step:   0.6317(harm=  0.6317)  dis= 0.00048  next Energy=  -127.137828 (dE=-0.115E-04)
 bond charge predicted
       N       E                     dE             d eps       ncg     rms          rms(c)
DAV:   1    -0.125542517645E+03   -0.76907E-04   -0.62153E-04 14208   0.974E-02    0.497E-03
DAV:   2    -0.125542517556E+03    0.88724E-07   -0.72357E-06 14208   0.121E-02
  51 F= -.12713783E+03 E0= -.12713705E+03  d E =-.125436E-04  mag=    -0.0000
 curvature:  -1.58 expect dE=-0.624E-04 dE for cont linesearch -0.283E-06
 trial: gam= 1.18788 g(F)=  0.396E-04 g(S)=  0.000E+00 ort = 0.572E-05 (trialstep = 0.278E+00)
 search vector abs. value=  0.310E-03
 bond charge predicted
       N       E                     dE             d eps       ncg     rms          rms(c)
DAV:   1    -0.125542668927E+03   -0.15128E-03   -0.21400E-03 14208   0.182E-01    0.886E-03
DAV:   2    -0.125542668575E+03    0.35111E-06   -0.23997E-05 14208   0.214E-02    0.562E-03
DAV:   3    -0.125542668898E+03   -0.32242E-06   -0.38004E-06 14592   0.887E-03
  52 F= -.12713784E+03 E0= -.12713706E+03  d E =-.964723E-05  mag=     0.0000
 trial-energy change:   -0.000010  1 .order   -0.000009   -0.000013   -0.000005
 step:   0.4596(harm=  0.4596)  dis= 0.00052  next Energy=  -127.137840 (dE=-0.107E-04)
 bond charge predicted
       N       E                     dE             d eps       ncg     rms          rms(c)
DAV:   1    -0.125542764281E+03   -0.95706E-04   -0.94868E-04 14208   0.121E-01    0.594E-03
DAV:   2    -0.125542764108E+03    0.17302E-06   -0.11026E-05 14208   0.148E-02    0.385E-03
DAV:   3    -0.125542764453E+03   -0.34465E-06   -0.20127E-06 14688   0.686E-03
  53 F= -.12713784E+03 E0= -.12713706E+03  d E =-.123320E-04  mag=     0.0000
 curvature:  -1.54 expect dE=-0.328E-04 dE for cont linesearch -0.995E-07
 ZBRENT: extrapolating
 opt :   0.5184  next Energy=  -127.137842 (dE=-0.125E-04)
 bond charge predicted
       N       E                     dE             d eps       ncg     rms          rms(c)
DAV:   1    -0.125542794512E+03   -0.30404E-04   -0.10058E-04 14784   0.396E-02    0.209E-03
DAV:   2    -0.125542794452E+03    0.59586E-07   -0.13713E-06 16224   0.574E-03
  54 F= -.12713784E+03 E0= -.12713706E+03  d E =-.123563E-04  mag=     0.0000
 curvature:  -2.03 expect dE=-0.554E-04 dE for cont linesearch -0.474E-07
 trial: gam= 0.79787 g(F)=  0.273E-04 g(S)=  0.000E+00 ort = 0.269E-05 (trialstep = 0.326E+00)
 search vector abs. value=  0.229E-03
 bond charge predicted
       N       E                     dE             d eps       ncg     rms          rms(c)
DAV:   1    -0.125542951451E+03   -0.15694E-03   -0.23896E-03 14208   0.190E-01    0.894E-03
DAV:   2    -0.125542950853E+03    0.59800E-06   -0.24430E-05 14304   0.211E-02    0.558E-03
DAV:   3    -0.125542951008E+03   -0.15494E-06   -0.37716E-06 14208   0.814E-03
  55 F= -.12713785E+03 E0= -.12713707E+03  d E =-.766951E-05  mag=    -0.0000
 trial-energy change:   -0.000008  1 .order   -0.000007   -0.000010   -0.000005
 step:   0.6269(harm=  0.6269)  dis= 0.00059  next Energy=  -127.137851 (dE=-0.923E-05)
 bond charge predicted
       N       E                     dE             d eps       ncg     rms          rms(c)
DAV:   1    -0.125543092589E+03   -0.14174E-03   -0.20773E-03 14208   0.177E-01    0.838E-03
DAV:   2    -0.125543092163E+03    0.42550E-06   -0.21439E-05 14208   0.201E-02    0.529E-03
DAV:   3    -0.125543092450E+03   -0.28642E-06   -0.34546E-06 14208   0.816E-03
  56 F= -.12713785E+03 E0= -.12713707E+03  d E =-.115721E-04  mag=     0.0000
 curvature:  -2.44 expect dE=-0.968E-04 dE for cont linesearch -0.168E-06
 trial: gam= 1.17368 g(F)=  0.397E-04 g(S)=  0.000E+00 ort = 0.398E-05 (trialstep = 0.243E+00)
 search vector abs. value=  0.364E-03
 bond charge predicted
       N       E                     dE             d eps       ncg     rms          rms(c)
DAV:   1    -0.125543241292E+03   -0.14913E-03   -0.22145E-03 14208   0.183E-01    0.856E-03
DAV:   2    -0.125543240810E+03    0.48196E-06   -0.23408E-05 14208   0.209E-02    0.540E-03
DAV:   3    -0.125543241054E+03   -0.24400E-06   -0.36801E-06 14208   0.851E-03
  57 F= -.12713786E+03 E0= -.12713708E+03  d E =-.951537E-05  mag=     0.0000
 trial-energy change:   -0.000010  1 .order   -0.000008   -0.000011   -0.000006
 step:   0.5725(harm=  0.5725)  dis= 0.00061  next Energy=  -127.137866 (dE=-0.127E-04)
 bond charge predicted
       N       E                     dE             d eps       ncg     rms          rms(c)
DAV:   1    -0.125543436559E+03   -0.19575E-03   -0.40873E-03 14208   0.249E-01    0.116E-02
DAV:   2    -0.125543435701E+03    0.85842E-06   -0.42259E-05 14208   0.278E-02    0.727E-03
DAV:   3    -0.125543435876E+03   -0.17538E-06   -0.64611E-06 14208   0.108E-02
  58 F= -.12713787E+03 E0= -.12713709E+03  d E =-.150863E-04  mag=    -0.0000
 curvature:  -2.35 expect dE=-0.801E-04 dE for cont linesearch -0.145E-07
 trial: gam= 1.16690 g(F)=  0.341E-04 g(S)=  0.000E+00 ort =-0.150E-05 (trialstep = 0.213E+00)
 search vector abs. value=  0.527E-03
 bond charge predicted
       N       E                     dE             d eps       ncg     rms          rms(c)
DAV:   1    -0.125543594222E+03   -0.15852E-03   -0.24649E-03 14208   0.192E-01    0.906E-03
DAV:   2    -0.125543593671E+03    0.55050E-06   -0.25853E-05 14208   0.221E-02    0.568E-03
DAV:   3    -0.125543594091E+03   -0.41975E-06   -0.42482E-06 14208   0.927E-03
  59 F= -.12713788E+03 E0= -.12713710E+03  d E =-.728804E-05  mag=     0.0000
 trial-energy change:   -0.000007  1 .order   -0.000006   -0.000007   -0.000005
 step:   0.6967(harm=  0.6967)  dis= 0.00083  next Energy=  -127.137880 (dE=-0.113E-04)
 bond charge predicted
       N       E                     dE             d eps       ncg     rms          rms(c)
DAV:   1    -0.125543945112E+03   -0.35144E-03   -0.12516E-02 14208   0.434E-01    0.199E-02
DAV:   2    -0.125543942924E+03    0.21878E-05   -0.12550E-04 16512   0.472E-02    0.123E-02
DAV:   3    -0.125543942572E+03    0.35238E-06   -0.17969E-05 14784   0.168E-02    0.316E-03
DAV:   4    -0.125543942922E+03   -0.35039E-06   -0.44171E-06 14976   0.986E-03
  60 F= -.12713788E+03 E0= -.12713710E+03  d E =-.144697E-04  mag=     0.0000
 curvature:  -5.68 expect dE=-0.256E-03 dE for cont linesearch -0.160E-07
 trial: gam= 1.20519 g(F)=  0.452E-04 g(S)=  0.000E+00 ort = 0.122E-05 (trialstep = 0.201E+00)
 search vector abs. value=  0.813E-03
 bond charge predicted
       N       E                     dE             d eps       ncg     rms          rms(c)
DAV:   1    -0.125544131301E+03   -0.18873E-03   -0.32882E-03 14208   0.222E-01    0.104E-02
DAV:   2    -0.125544130962E+03    0.33907E-06   -0.36535E-05 17280   0.253E-02    0.661E-03
DAV:   3    -0.125544131104E+03   -0.14174E-06   -0.48652E-06 17856   0.897E-03
  61 F= -.12713789E+03 E0= -.12713711E+03  d E =-.723460E-05  mag=     0.0000
 trial-energy change:   -0.000007  1 .order   -0.000007   -0.000009   -0.000004
 step:   0.3730(harm=  0.3730)  dis= 0.00054  next Energy=  -127.137892 (dE=-0.870E-05)
 bond charge predicted
       N       E                     dE             d eps       ncg     rms          rms(c)
DAV:   1    -0.125544289775E+03   -0.15881E-03   -0.24392E-03 14208   0.191E-01    0.917E-03
DAV:   2    -0.125544289307E+03    0.46779E-06   -0.25251E-05 14400   0.217E-02    0.577E-03
DAV:   3    -0.125544289610E+03   -0.30274E-06   -0.38239E-06 14208   0.847E-03
  62 F= -.12713789E+03 E0= -.12713711E+03  d E =-.107180E-04  mag=     0.0000
 curvature:  -3.25 expect dE=-0.821E-04 dE for cont linesearch -0.727E-07
 trial: gam= 0.33423 g(F)=  0.253E-04 g(S)=  0.000E+00 ort = 0.426E-05 (trialstep = 0.235E+00)
 search vector abs. value=  0.119E-03
 bond charge predicted
       N       E                     dE             d eps       ncg     rms          rms(c)
DAV:   1    -0.125544374038E+03   -0.84730E-04   -0.63909E-04 14208   0.982E-02    0.513E-03
DAV:   2    -0.125544373870E+03    0.16745E-06   -0.79026E-06 14208   0.127E-02
  63 F= -.12713790E+03 E0= -.12713712E+03  d E =-.520327E-05  mag=     0.0000
 trial-energy change:   -0.000005  1 .order   -0.000005   -0.000006   -0.000004
 step:   0.7461(harm=  0.7461)  dis= 0.00046  next Energy=  -127.137903 (dE=-0.995E-05)
 bond charge predicted
       N       E                     dE             d eps       ncg     rms          rms(c)
DAV:   1    -0.125544548221E+03   -0.17418E-03   -0.28979E-03 14208   0.210E-01    0.110E-02
DAV:   2    -0.125544547629E+03    0.59202E-06   -0.33753E-05 14208   0.253E-02    0.693E-03
DAV:   3    -0.125544547959E+03   -0.32921E-06   -0.56583E-06 14496   0.106E-02
  64 F= -.12713790E+03 E0= -.12713712E+03  d E =-.762517E-05  mag=     0.0000
 curvature:  -1.66 expect dE=-0.944E-04 dE for cont linesearch -0.210E-05
 ZBRENT: interpolating
 opt :   0.5409  next Energy=  -127.137902 (dE=-0.888E-05)
 bond charge predicted
       N       E                     dE             d eps       ncg     rms          rms(c)
DAV:   1    -0.125544479750E+03    0.67880E-04   -0.46242E-04 14208   0.840E-02    0.382E-03
DAV:   2    -0.125544479621E+03    0.12905E-06   -0.70352E-06 14496   0.119E-02
  65 F= -.12713790E+03 E0= -.12713712E+03  d E =-.825624E-05  mag=     0.0000
 curvature:  -0.99 expect dE=-0.251E-04 dE for cont linesearch -0.482E-09
 trial: gam= 1.16373 g(F)=  0.252E-04 g(S)=  0.000E+00 ort = 0.240E-06 (trialstep = 0.189E+00)
 search vector abs. value=  0.187E-03
 bond charge predicted
       N       E                     dE             d eps       ncg     rms          rms(c)
DAV:   1    -0.125544563953E+03   -0.84204E-04   -0.61537E-04 19104   0.954E-02    0.421E-03
DAV:   2    -0.125544563745E+03    0.20832E-06   -0.69096E-06 16176   0.117E-02
  66 F= -.12713791E+03 E0= -.12713713E+03  d E =-.417471E-05  mag=     0.0000
 ZBRENT: can't locate minimum, use default step
 trial-energy change:   -0.000004  1 .order   -0.000004   -0.000005   -0.000004
 step:   0.7546(harm=  0.8323)  dis= 0.00061  next Energy=  -127.137912 (dE=-0.106E-04)
 bond charge predicted
       N       E                     dE             d eps       ncg     rms          rms(c)
DAV:   1    -0.125544807418E+03   -0.24346E-03   -0.53024E-03 14208   0.283E-01    0.142E-02
DAV:   2    -0.125544806543E+03    0.87513E-06   -0.58261E-05 14208   0.325E-02    0.883E-03
DAV:   3    -0.125544806679E+03   -0.13659E-06   -0.84590E-06 14208   0.122E-02
  67 F= -.12713791E+03 E0= -.12713713E+03  d E =-.731145E-05  mag=     0.0000
 curvature:  -3.00 expect dE=-0.643E-04 dE for cont linesearch -0.200E-05
 ZBRENT: interpolating
 opt :   0.5502  next Energy=  -127.137910 (dE=-0.845E-05)
 bond charge predicted
       N       E                     dE             d eps       ncg     rms          rms(c)
DAV:   1    -0.125544720726E+03    0.85817E-04   -0.67789E-04 14208   0.101E-01    0.442E-03
DAV:   2    -0.125544720579E+03    0.14729E-06   -0.97436E-06 14208   0.139E-02
  68 F= -.12713791E+03 E0= -.12713713E+03  d E =-.780242E-05  mag=     0.0000
 curvature:  -1.71 expect dE=-0.200E-04 dE for cont linesearch -0.866E-08
 trial: gam= 0.31272 g(F)=  0.117E-04 g(S)=  0.000E+00 ort = 0.972E-06 (trialstep = 0.261E+00)
 search vector abs. value=  0.306E-04
 bond charge predicted
       N       E                     dE             d eps       ncg     rms          rms(c)
DAV:   1    -0.125544764081E+03   -0.43355E-04   -0.24434E-04 20064   0.615E-02    0.302E-03
DAV:   2    -0.125544763839E+03    0.24147E-06   -0.39394E-06 16368   0.962E-03
  69 F= -.12713791E+03 E0= -.12713713E+03  d E =-.203684E-05  mag=    -0.0000
 trial-energy change:   -0.000002  1 .order   -0.000002   -0.000003   -0.000001
 step:   0.3945(harm=  0.3945)  dis= 0.00011  next Energy=  -127.137912 (dE=-0.237E-05)
 bond charge predicted
       N       E                     dE             d eps       ncg     rms          rms(c)
DAV:   1    -0.125544785151E+03   -0.21070E-04   -0.56678E-05 14784   0.308E-02    0.220E-03
DAV:   2    -0.125544784977E+03    0.17398E-06   -0.12974E-06 14208   0.597E-03
  70 F= -.12713791E+03 E0= -.12713713E+03  d E =-.208169E-05  mag=    -0.0000
 curvature:  -0.50 expect dE=-0.341E-05 dE for cont linesearch -0.173E-07
 trial: gam= 0.75038 g(F)=  0.678E-05 g(S)=  0.000E+00 ort =-0.103E-05 (trialstep = 0.288E+00)
 search vector abs. value=  0.225E-04
 bond charge predicted
       N       E                     dE             d eps       ncg     rms          rms(c)
DAV:   1    -0.125544829507E+03   -0.44356E-04   -0.20087E-04 15984   0.555E-02    0.294E-03
DAV:   2    -0.125544829301E+03    0.20663E-06   -0.26789E-06 14640   0.774E-03
  71 F= -.12713791E+03 E0= -.12713713E+03  d E =-.134384E-05  mag=     0.0000
 trial-energy change:   -0.000001  1 .order   -0.000001   -0.000002   -0.000001
 step:   0.9460(harm=  0.9460)  dis= 0.00031  next Energy=  -127.137915 (dE=-0.284E-05)
 bond charge predicted
       N       E                     dE             d eps       ncg     rms          rms(c)
DAV:   1    -0.125544929053E+03   -0.99546E-04   -0.10475E-03 14880   0.127E-01    0.640E-03
DAV:   2    -0.125544928535E+03    0.51793E-06   -0.12008E-05 14640   0.152E-02    0.397E-03
DAV:   3    -0.125544928772E+03   -0.23619E-06   -0.22673E-06 15216   0.690E-03
  72 F= -.12713791E+03 E0= -.12713713E+03  d E =-.250255E-05  mag=     0.0000
 curvature:  -1.77 expect dE=-0.247E-04 dE for cont linesearch -0.220E-06
 trial: gam= 1.64960 g(F)=  0.140E-04 g(S)=  0.000E+00 ort =-0.167E-05 (trialstep = 0.135E+00)
 search vector abs. value=  0.696E-04
 bond charge predicted
       N       E                     dE             d eps       ncg     rms          rms(c)
DAV:   1    -0.125544967109E+03   -0.38573E-04   -0.15536E-04 14208   0.490E-02    0.244E-03
DAV:   2    -0.125544966974E+03    0.13433E-06   -0.21626E-06 14208   0.717E-03
  73 F= -.12713792E+03 E0= -.12713714E+03  d E =-.126956E-05  mag=     0.0000
 ZBRENT: can't locate minimum, use default step
 trial-energy change:   -0.000001  1 .order   -0.000001   -0.000002   -0.000001
 step:   0.5414(harm=  0.9908)  dis= 0.00030  next Energy=  -127.137920 (dE=-0.556E-05)
 bond charge predicted
       N       E                     dE             d eps       ncg     rms          rms(c)
DAV:   1    -0.125545080114E+03   -0.11301E-03   -0.13458E-03 14208   0.144E-01    0.689E-03
DAV:   2    -0.125545079569E+03    0.54491E-06   -0.14963E-05 14208   0.169E-02    0.435E-03
DAV:   3    -0.125545079750E+03   -0.18068E-06   -0.26553E-06 14208   0.736E-03
  74 F= -.12713792E+03 E0= -.12713714E+03  d E =-.328386E-05  mag=     0.0000
 curvature:  -2.22 expect dE=-0.338E-04 dE for cont linesearch -0.119E-06
 trial: gam= 1.00428 g(F)=  0.152E-04 g(S)=  0.000E+00 ort =-0.193E-05 (trialstep = 0.185E+00)
 search vector abs. value=  0.815E-04
 bond charge predicted
       N       E                     dE             d eps       ncg     rms          rms(c)
DAV:   1    -0.125545137104E+03   -0.57535E-04   -0.33712E-04 14208   0.716E-02    0.357E-03
DAV:   2    -0.125545136900E+03    0.20400E-06   -0.43565E-06 14208   0.967E-03
  75 F= -.12713792E+03 E0= -.12713714E+03  d E =-.216563E-05  mag=    -0.0000
 ZBRENT: can't locate minimum, use default step
 trial-energy change:   -0.000002  1 .order   -0.000002   -0.000002   -0.000002
 step:   0.7393(harm=  1.0955)  dis= 0.00044  next Energy=  -127.137925 (dE=-0.728E-05)
 bond charge predicted
       N       E                     dE             d eps       ncg     rms          rms(c)
DAV:   1    -0.125545304661E+03   -0.16756E-03   -0.29237E-03 14208   0.211E-01    0.103E-02
DAV:   2    -0.125545303467E+03    0.11940E-05   -0.32930E-05 14736   0.246E-02    0.642E-03
DAV:   3    -0.125545303596E+03   -0.12943E-06   -0.55307E-06 14304   0.999E-03
  76 F= -.12713792E+03 E0= -.12713714E+03  d E =-.393929E-05  mag=     0.0000
 curvature:  -2.85 expect dE=-0.499E-04 dE for cont linesearch -0.182E-05
 ZBRENT: interpolating
 opt :   0.5200  next Energy=  -127.137922 (dE=-0.473E-05)
 bond charge predicted
       N       E                     dE             d eps       ncg     rms          rms(c)
DAV:   1    -0.125545238918E+03    0.64548E-04   -0.45064E-04 14208   0.831E-02    0.351E-03
DAV:   2    -0.125545238722E+03    0.19684E-06   -0.67558E-06 15072   0.117E-02
  77 F= -.12713792E+03 E0= -.12713714E+03  d E =-.428638E-05  mag=     0.0000
 curvature:  -1.24 expect dE=-0.906E-05 dE for cont linesearch -0.501E-09
 trial: gam= 0.49009 g(F)=  0.733E-05 g(S)=  0.000E+00 ort = 0.182E-06 (trialstep = 0.252E+00)
 search vector abs. value=  0.271E-04
 bond charge predicted
       N       E                     dE             d eps       ncg     rms          rms(c)
DAV:   1    -0.125545282877E+03   -0.43958E-04   -0.20065E-04 21120   0.552E-02    0.218E-03
DAV:   2    -0.125545282762E+03    0.11465E-06   -0.26262E-06 16224   0.783E-03
  78 F= -.12713792E+03 E0= -.12713714E+03  d E =-.156143E-05  mag=     0.0000
 trial-energy change:   -0.000002  1 .order   -0.000002   -0.000002   -0.000001
 step:   0.9350(harm=  0.9350)  dis= 0.00031  next Energy=  -127.137925 (dE=-0.347E-05)
 bond charge predicted
       N       E                     dE             d eps       ncg     rms          rms(c)
DAV:   1    -0.125545399221E+03   -0.11634E-03   -0.13753E-03 14208   0.147E-01    0.694E-03
DAV:   2    -0.125545398730E+03    0.49073E-06   -0.15479E-05 16272   0.170E-02    0.437E-03
DAV:   3    -0.125545398890E+03   -0.16046E-06   -0.24876E-06 14880   0.694E-03
  79 F= -.12713792E+03 E0= -.12713714E+03  d E =-.245656E-05  mag=     0.0000
 curvature:  -1.71 expect dE=-0.279E-04 dE for cont linesearch -0.728E-06
 ZBRENT: interpolating
 opt :   0.6716  next Energy=  -127.137925 (dE=-0.290E-05)
 bond charge predicted
       N       E                     dE             d eps       ncg     rms          rms(c)
DAV:   1    -0.125545354803E+03    0.43927E-04   -0.20122E-04 14496   0.563E-02    0.229E-03
DAV:   2    -0.125545354750E+03    0.52908E-07   -0.30199E-06 14208   0.803E-03
  80 F= -.12713792E+03 E0= -.12713714E+03  d E =-.273638E-05  mag=     0.0000
 curvature:  -1.05 expect dE=-0.754E-05 dE for cont linesearch -0.118E-08
 trial: gam= 1.06546 g(F)=  0.718E-05 g(S)=  0.000E+00 ort = 0.175E-06 (trialstep = 0.237E+00)
 search vector abs. value=  0.383E-04
 bond charge predicted
       N       E                     dE             d eps       ncg     rms          rms(c)
DAV:   1    -0.125545404390E+03   -0.49588E-04   -0.23920E-04 17856   0.599E-02    0.252E-03
DAV:   2    -0.125545404307E+03    0.83003E-07   -0.29411E-06 16128   0.772E-03
  81 F= -.12713793E+03 E0= -.12713715E+03  d E =-.146526E-05  mag=    -0.0000
 trial-energy change:   -0.000001  1 .order   -0.000002   -0.000002   -0.000001
 step:   0.8597(harm=  0.8597)  dis= 0.00032  next Energy=  -127.137928 (dE=-0.317E-05)
 bond charge predicted
       N       E                     dE             d eps       ncg     rms          rms(c)
DAV:   1    -0.125545531428E+03   -0.12704E-03   -0.15669E-03 14208   0.155E-01    0.765E-03
DAV:   2    -0.125545530846E+03    0.58195E-06   -0.17845E-05 14496   0.181E-02    0.476E-03
DAV:   3    -0.125545530954E+03   -0.10814E-06   -0.27841E-06 14496   0.704E-03
  82 F= -.12713793E+03 E0= -.12713715E+03  d E =-.211014E-05  mag=     0.0000
 curvature:  -2.23 expect dE=-0.267E-04 dE for cont linesearch -0.950E-06
 ZBRENT: interpolating
 opt :   0.5917  next Energy=  -127.137927 (dE=-0.265E-05)
 bond charge predicted
       N       E                     dE             d eps       ncg     rms          rms(c)
DAV:   1    -0.125545477103E+03    0.53743E-04   -0.28681E-04 14304   0.663E-02    0.281E-03
DAV:   2    -0.125545477044E+03    0.58357E-07   -0.41421E-06 14736   0.905E-03
  83 F= -.12713793E+03 E0= -.12713715E+03  d E =-.247077E-05  mag=    -0.0000
 curvature:  -1.27 expect dE=-0.626E-05 dE for cont linesearch -0.621E-10
 trial: gam= 0.70631 g(F)=  0.492E-05 g(S)=  0.000E+00 ort = 0.432E-07 (trialstep = 0.308E+00)
 search vector abs. value=  0.241E-04
 bond charge predicted
       N       E                     dE             d eps       ncg     rms          rms(c)
DAV:   1    -0.125545529188E+03   -0.52085E-04   -0.25748E-04 19056   0.615E-02    0.260E-03
DAV:   2    -0.125545529101E+03    0.86816E-07   -0.30378E-06 16560   0.789E-03
  84 F= -.12713793E+03 E0= -.12713715E+03  d E =-.125743E-05  mag=    -0.0000
 trial-energy change:   -0.000001  1 .order   -0.000001   -0.000002   -0.000001
 step:   1.0555(harm=  1.0555)  dis= 0.00032  next Energy=  -127.137930 (dE=-0.261E-05)
 bond charge predicted
       N       E                     dE             d eps       ncg     rms          rms(c)
DAV:   1    -0.125545652876E+03   -0.12369E-03   -0.14293E-03 14208   0.147E-01    0.723E-03
DAV:   2    -0.125545652438E+03    0.43803E-06   -0.15841E-05 15216   0.172E-02    0.458E-03
DAV:   3    -0.125545652570E+03   -0.13271E-06   -0.26345E-06 14496   0.707E-03
  85 F= -.12713793E+03 E0= -.12713715E+03  d E =-.162128E-05  mag=    -0.0000
 curvature:  -2.57 expect dE=-0.519E-04 dE for cont linesearch -0.107E-05
 ZBRENT: interpolating
 opt :   0.7010  next Energy=  -127.137929 (dE=-0.218E-05)
 bond charge predicted
       N       E                     dE             d eps       ncg     rms          rms(c)
DAV:   1    -0.125545594584E+03    0.57854E-04   -0.31849E-04 14208   0.694E-02    0.298E-03
DAV:   2    -0.125545594511E+03    0.73072E-07   -0.44650E-06 15072   0.949E-03
  86 F= -.12713793E+03 E0= -.12713715E+03  d E =-.195790E-05  mag=    -0.0000
 curvature:  -1.35 expect dE=-0.113E-04 dE for cont linesearch -0.376E-09
 trial: gam= 1.71727 g(F)=  0.834E-05 g(S)=  0.000E+00 ort =-0.818E-07 (trialstep = 0.118E+00)
 search vector abs. value=  0.791E-04
 bond charge predicted
       N       E                     dE             d eps       ncg     rms          rms(c)
DAV:   1    -0.125545630977E+03   -0.36393E-04   -0.12620E-04 19632   0.428E-02    0.168E-03
DAV:   2    -0.125545630919E+03    0.58367E-07   -0.16966E-06 16464   0.621E-03
  87 F= -.12713793E+03 E0= -.12713715E+03  d E =-.958071E-06  mag=    -0.0000
 ZBRENT: can't locate minimum, use default step
 trial-energy change:   -0.000001  1 .order   -0.000001   -0.000001   -0.000001
 step:   0.4712(harm=  5.8752)  dis= 0.00028  next Energy=  -127.137953 (dE=-0.241E-04)
 bond charge predicted
       N       E                     dE             d eps       ncg     rms          rms(c)
DAV:   1    -0.125545739523E+03   -0.10855E-03   -0.10490E-03 14208   0.125E-01    0.610E-03
DAV:   2    -0.125545739134E+03    0.38858E-06   -0.11356E-05 16800   0.145E-02    0.379E-03
DAV:   3    -0.125545739252E+03   -0.11776E-06   -0.18190E-06 14880   0.583E-03
  88 F= -.12713793E+03 E0= -.12713715E+03  d E =-.295288E-05  mag=     0.0000
 curvature:  -3.37 expect dE=-0.111E-04 dE for cont linesearch -0.262E-06
 ZBRENT: extrapolating
 opt :   0.6287  next Energy=  -127.137932 (dE=-0.315E-05)
 bond charge predicted
       N       E                     dE             d eps       ncg     rms          rms(c)
DAV:   1    -0.125545787126E+03   -0.47991E-04   -0.21645E-04 14208   0.568E-02    0.287E-03
DAV:   2    -0.125545787019E+03    0.10636E-06   -0.26124E-06 14208   0.760E-03
  89 F= -.12713793E+03 E0= -.12713715E+03  d E =-.333792E-05  mag=     0.0000
 curvature:  -2.51 expect dE=-0.105E-04 dE for cont linesearch -0.216E-06
 ZBRENT: increasing intervall
 opt :   0.9437  next Energy=  -127.137933 (dE=-0.420E-05)
 bond charge predicted
       N       E                     dE             d eps       ncg     rms          rms(c)
DAV:   1    -0.125545882157E+03   -0.95032E-04   -0.82674E-04 14208   0.111E-01    0.552E-03
DAV:   2    -0.125545881851E+03    0.30630E-06   -0.90482E-06 14496   0.134E-02
  90 F= -.12713793E+03 E0= -.12713715E+03  d E =-.341642E-05  mag=    -0.0000
 curvature: -10.03 expect dE=-0.896E-04 dE for cont linesearch -0.407E-08
 trial: gam= 1.25035 g(F)=  0.893E-05 g(S)=  0.000E+00 ort =-0.179E-06 (trialstep = 0.169E+00)
 search vector abs. value=  0.132E-03
 bond charge predicted
       N       E                     dE             d eps       ncg     rms          rms(c)
DAV:   1    -0.125545949933E+03   -0.67776E-04   -0.40885E-04 14352   0.786E-02    0.418E-03
DAV:   2    -0.125545949672E+03    0.26110E-06   -0.47569E-06 14208   0.103E-02
  91 F= -.12713793E+03 E0= -.12713715E+03  d E =-.111550E-05  mag=    -0.0000
 ZBRENT: can't locate minimum, use default step
 trial-energy change:   -0.000001  1 .order   -0.000001   -0.000001   -0.000001
 step:   0.6776(harm=  0.7169)  dis= 0.00042  next Energy=  -127.137935 (dE=-0.312E-05)
 bond charge predicted
       N       E                     dE             d eps       ncg     rms          rms(c)
DAV:   1    -0.125546152623E+03   -0.20269E-03   -0.38375E-03 14208   0.238E-01    0.114E-02
DAV:   2    -0.125546151413E+03    0.12101E-05   -0.39967E-05 15360   0.273E-02    0.717E-03
DAV:   3    -0.125546151846E+03   -0.43355E-06   -0.66417E-06 14592   0.112E-02
  92 F= -.12713794E+03 E0= -.12713716E+03  d E =-.325052E-05  mag=    -0.0000
 curvature:  -5.41 expect dE=-0.772E-04 dE for cont linesearch -0.298E-06
 ZBRENT: interpolating
 opt :   0.5309  next Energy=  -127.137936 (dE=-0.345E-05)
 bond charge predicted
       N       E                     dE             d eps       ncg     rms          rms(c)
DAV:   1    -0.125546094002E+03    0.57410E-04   -0.31306E-04 14208   0.685E-02    0.281E-03
DAV:   2    -0.125546093720E+03    0.28229E-06   -0.52793E-06 14208   0.109E-02
  93 F= -.12713794E+03 E0= -.12713716E+03  d E =-.286821E-05  mag=    -0.0000
 curvature:  -3.59 expect dE=-0.385E-04 dE for cont linesearch -0.537E-07
 trial: gam= 0.60345 g(F)=  0.107E-04 g(S)=  0.000E+00 ort = 0.141E-05 (trialstep = 0.242E+00)
 search vector abs. value=  0.605E-04
 bond charge predicted
       N       E                     dE             d eps       ncg     rms          rms(c)
DAV:   1    -0.125546156378E+03   -0.62376E-04   -0.43020E-04 15504   0.806E-02    0.326E-03
DAV:   2    -0.125546156185E+03    0.19239E-06   -0.53305E-06 15312   0.107E-02
  94 F= -.12713794E+03 E0= -.12713716E+03  d E =-.224924E-05  mag=    -0.0000
 trial-energy change:   -0.000002  1 .order   -0.000002   -0.000003   -0.000002
 step:   0.8658(harm=  0.8658)  dis= 0.00050  next Energy=  -127.137940 (dE=-0.501E-05)
 bond charge predicted
       N       E                     dE             d eps       ncg     rms          rms(c)
DAV:   1    -0.125546313694E+03   -0.15732E-03   -0.27423E-03 14208   0.205E-01    0.986E-03
DAV:   2    -0.125546312526E+03    0.11681E-05   -0.29106E-05 15408   0.232E-02    0.612E-03
DAV:   3    -0.125546312753E+03   -0.22622E-06   -0.50072E-06 14976   0.966E-03
  95 F= -.12713794E+03 E0= -.12713716E+03  d E =-.333659E-05  mag=    -0.0000
 curvature:  -2.26 expect dE=-0.409E-04 dE for cont linesearch -0.160E-05
 ZBRENT: interpolating
 opt :   0.5915  next Energy=  -127.137939 (dE=-0.423E-05)
 bond charge predicted
       N       E                     dE             d eps       ncg     rms          rms(c)
DAV:   1    -0.125546245124E+03    0.67403E-04   -0.52444E-04 14208   0.899E-02    0.376E-03
DAV:   2    -0.125546244899E+03    0.22469E-06   -0.72078E-06 15504   0.121E-02
  96 F= -.12713794E+03 E0= -.12713716E+03  d E =-.381480E-05  mag=     0.0000
 curvature:  -1.27 expect dE=-0.757E-05 dE for cont linesearch -0.777E-09
 trial: gam= 0.78530 g(F)=  0.597E-05 g(S)=  0.000E+00 ort =-0.193E-06 (trialstep = 0.312E+00)
 search vector abs. value=  0.430E-04
 bond charge predicted
       N       E                     dE             d eps       ncg     rms          rms(c)
DAV:   1    -0.125546311650E+03   -0.66526E-04   -0.50967E-04 20688   0.873E-02    0.360E-03
DAV:   2    -0.125546311345E+03    0.30422E-06   -0.53260E-06 16320   0.105E-02
  97 F= -.12713794E+03 E0= -.12713716E+03  d E =-.150290E-05  mag=     0.0000
 trial-energy change:   -0.000002  1 .order   -0.000002   -0.000002   -0.000001
 step:   1.0127(harm=  1.0127)  dis= 0.00055  next Energy=  -127.137942 (dE=-0.294E-05)
 bond charge predicted
       N       E                     dE             d eps       ncg     rms          rms(c)
DAV:   1    -0.125546458005E+03   -0.14636E-03   -0.24342E-03 14208   0.193E-01    0.919E-03
DAV:   2    -0.125546456932E+03    0.10731E-05   -0.24768E-05 15360   0.215E-02    0.567E-03
DAV:   3    -0.125546457232E+03   -0.29974E-06   -0.44242E-06 14976   0.926E-03
  98 F= -.12713794E+03 E0= -.12713716E+03  d E =-.124343E-05  mag=     0.0000
 curvature:  -3.74 expect dE=-0.415E-04 dE for cont linesearch -0.309E-05
 ZBRENT: interpolating
 opt :   0.5945  next Energy=  -127.137941 (dE=-0.207E-05)
 bond charge predicted
       N       E                     dE             d eps       ncg     rms          rms(c)
DAV:   1    -0.125546371238E+03    0.85694E-04   -0.86738E-04 14208   0.115E-01    0.488E-03
DAV:   2    -0.125546370859E+03    0.37861E-06   -0.10636E-05 17088   0.144E-02    0.304E-03
DAV:   3    -0.125546370930E+03   -0.70811E-07   -0.20485E-06 20160   0.682E-03
  99 F= -.12713794E+03 E0= -.12713716E+03  d E =-.212199E-05  mag=     0.0000
 curvature:  -0.69 expect dE=-0.197E-05 dE for cont linesearch -0.722E-08
 ZBRENT: interpolating
 opt :   0.6453  next Energy=  -127.137941 (dE=-0.214E-05)
 bond charge predicted
       N       E                     dE             d eps       ncg     rms          rms(c)
DAV:   1    -0.125546381385E+03   -0.10526E-04   -0.13731E-05 15408   0.153E-02    0.669E-04
DAV:   2    -0.125546381321E+03    0.63471E-07   -0.61971E-07 19056   0.403E-03
 100 F= -.12713794E+03 E0= -.12713716E+03  d E =-.192671E-05  mag=    -0.0000
 curvature:  -1.79 expect dE=-0.591E-05 dE for cont linesearch -0.270E-08
 trial: gam= 0.64413 g(F)=  0.329E-05 g(S)=  0.000E+00 ort =-0.255E-06 (trialstep = 0.378E+00)
 search vector abs. value=  0.208E-04
 bond charge predicted
       N       E                     dE             d eps       ncg     rms          rms(c)
DAV:   1    -0.125546438504E+03   -0.57119E-04   -0.34816E-04 19728   0.723E-02    0.346E-03
DAV:   2    -0.125546438252E+03    0.25232E-06   -0.33972E-06 19296   0.755E-03
 101 F= -.12713794E+03 E0= -.12713716E+03  d E =-.773616E-06  mag=     0.0000
 trial-energy change:   -0.000001  1 .order   -0.000001   -0.000001   -0.000001
 step:   1.1734(harm=  1.1734)  dis= 0.00037  next Energy=  -127.137943 (dE=-0.184E-05)
 bond charge predicted
       N       E                     dE             d eps       ncg     rms          rms(c)
DAV:   1    -0.125546556696E+03   -0.11819E-03   -0.15089E-03 14208   0.151E-01    0.725E-03
DAV:   2    -0.125546556039E+03    0.65710E-06   -0.15049E-05 15456   0.162E-02    0.445E-03
DAV:   3    -0.125546556103E+03   -0.63925E-07   -0.24359E-06 19536   0.591E-03
 102 F= -.12713794E+03 E0= -.12713716E+03  d E =-.641387E-06  mag=     0.0000
 curvature:  -3.90 expect dE=-0.335E-04 dE for cont linesearch -0.129E-05
 ZBRENT: interpolating
 opt :   0.7336  next Energy=  -127.137942 (dE=-0.115E-05)
 bond charge predicted
       N       E                     dE             d eps       ncg     rms          rms(c)
DAV:   1    -0.125546491486E+03    0.64553E-04   -0.46159E-04 16656   0.834E-02    0.353E-03
DAV:   2    -0.125546491330E+03    0.15559E-06   -0.50270E-06 19920   0.926E-03
 103 F= -.12713794E+03 E0= -.12713716E+03  d E =-.112752E-05  mag=     0.0000
 curvature:  -1.14 expect dE=-0.401E-05 dE for cont linesearch -0.192E-07
 trial: gam= 0.86096 g(F)=  0.353E-05 g(S)=  0.000E+00 ort =-0.593E-06 (trialstep = 0.449E+00)
 search vector abs. value=  0.179E-04
 bond charge predicted
       N       E                     dE             d eps       ncg     rms          rms(c)
DAV:   1    -0.125546551966E+03   -0.60481E-04   -0.41188E-04 17376   0.784E-02    0.327E-03
DAV:   2    -0.125546551861E+03    0.10513E-06   -0.45070E-06 16560   0.906E-03
 104 F= -.12713794E+03 E0= -.12713716E+03  d E =-.983109E-06  mag=     0.0000
 trial-energy change:   -0.000001  1 .order   -0.000001   -0.000001   -0.000001
 step:   0.9014(harm=  0.9014)  dis= 0.00028  next Energy=  -127.137943 (dE=-0.136E-05)
 bond charge predicted
       N       E                     dE             d eps       ncg     rms          rms(c)
DAV:   1    -0.125546611759E+03   -0.59793E-04   -0.38318E-04 14208   0.772E-02    0.391E-03
DAV:   2    -0.125546611597E+03    0.16211E-06   -0.40408E-06 15264   0.881E-03
 105 F= -.12713794E+03 E0= -.12713716E+03  d E =-.863532E-06  mag=     0.0000
 curvature:  -2.68 expect dE=-0.138E-04 dE for cont linesearch -0.117E-06
 ZBRENT: interpolating
 opt :   0.7345  next Energy=  -127.137943 (dE=-0.938E-06)
 bond charge predicted
       N       E                     dE             d eps       ncg     rms          rms(c)
DAV:   1    -0.125546589742E+03    0.22017E-04   -0.61125E-05 15456   0.300E-02    0.119E-03
DAV:   2    -0.125546589748E+03   -0.55434E-08   -0.10853E-06 14208   0.489E-03
 106 F= -.12713794E+03 E0= -.12713716E+03  d E =-.113722E-05  mag=     0.0000
 curvature:  -1.69 expect dE=-0.517E-05 dE for cont linesearch -0.298E-07
 trial: gam= 1.03849 g(F)=  0.306E-05 g(S)=  0.000E+00 ort =-0.562E-06 (trialstep = 0.428E+00)
 search vector abs. value=  0.212E-04
 bond charge predicted
       N       E                     dE             d eps       ncg     rms          rms(c)
DAV:   1    -0.125546653575E+03   -0.63832E-04   -0.40410E-04 14832   0.772E-02    0.347E-03
DAV:   2    -0.125546653483E+03    0.91864E-07   -0.44785E-06 15504   0.907E-03
 107 F= -.12713794E+03 E0= -.12713716E+03  d E =-.683488E-06  mag=     0.0000
 trial-energy change:   -0.000001  1 .order   -0.000001   -0.000001   -0.000001
 step:   0.8797(harm=  0.8797)  dis= 0.00026  next Energy=  -127.137944 (dE=-0.109E-05)
 bond charge predicted
       N       E                     dE             d eps       ncg     rms          rms(c)
DAV:   1    -0.125546720147E+03   -0.66572E-04   -0.42848E-04 14208   0.806E-02    0.421E-03
DAV:   2    -0.125546719985E+03    0.16212E-06   -0.46463E-06 14256   0.938E-03
 108 F= -.12713794E+03 E0= -.12713716E+03  d E =-.572165E-06  mag=     0.0000
 curvature:  -3.77 expect dE=-0.173E-04 dE for cont linesearch -0.589E-07
 trial: gam= 1.53711 g(F)=  0.458E-05 g(S)=  0.000E+00 ort =-0.576E-06 (trialstep = 0.208E+00)
 search vector abs. value=  0.530E-04
 bond charge predicted
       N       E                     dE             d eps       ncg     rms          rms(c)
DAV:   1    -0.125546770725E+03   -0.50578E-04   -0.22488E-04 14256   0.583E-02    0.309E-03
DAV:   2    -0.125546770639E+03    0.86208E-07   -0.24295E-06 14256   0.718E-03
 109 F= -.12713794E+03 E0= -.12713716E+03  d E =-.572284E-06  mag=     0.0000
 trial-energy change:   -0.000001  1 .order   -0.000001   -0.000001   -0.000001
 step:   0.6732(harm=  0.6732)  dis= 0.00028  next Energy=  -127.137945 (dE=-0.124E-05)
 bond charge predicted
       N       E                     dE             d eps       ncg     rms          rms(c)
DAV:   1    -0.125546883705E+03   -0.11298E-03   -0.11719E-03 14208   0.132E-01    0.643E-03
DAV:   2    -0.125546883396E+03    0.30957E-06   -0.12296E-05 14784   0.153E-02    0.406E-03
DAV:   3    -0.125546883608E+03   -0.21259E-06   -0.20903E-06 14928   0.649E-03
 110 F= -.12713795E+03 E0= -.12713717E+03  d E =-.130818E-05  mag=     0.0000
 curvature:  -4.83 expect dE=-0.261E-04 dE for cont linesearch -0.909E-07
 trial: gam= 0.60736 g(F)=  0.540E-05 g(S)=  0.000E+00 ort =-0.999E-06 (trialstep = 0.301E+00)
 search vector abs. value=  0.237E-04
 bond charge predicted
       N       E                     dE             d eps       ncg     rms          rms(c)
DAV:   1    -0.125546929349E+03   -0.45953E-04   -0.23171E-04 14208   0.601E-02    0.301E-03
DAV:   2    -0.125546929220E+03    0.12843E-06   -0.30712E-06 14496   0.835E-03
 111 F= -.12713795E+03 E0= -.12713717E+03  d E =-.101287E-05  mag=     0.0000
 trial-energy change:   -0.000001  1 .order   -0.000001   -0.000001   -0.000001
 step:   0.6043(harm=  0.6043)  dis= 0.00020  next Energy=  -127.137947 (dE=-0.145E-05)
 bond charge predicted
       N       E                     dE             d eps       ncg     rms          rms(c)
DAV:   1    -0.125546974532E+03   -0.45183E-04   -0.22245E-04 14352   0.594E-02    0.323E-03
DAV:   2    -0.125546974346E+03    0.18559E-06   -0.29895E-06 14352   0.836E-03
 112 F= -.12713795E+03 E0= -.12713717E+03  d E =-.113621E-05  mag=    -0.0000
 curvature:  -1.49 expect dE=-0.539E-05 dE for cont linesearch -0.664E-07
 ZBRENT: interpolating
 opt :   0.5136  next Energy=  -127.137946 (dE=-0.118E-05)
 bond charge predicted
       N       E                     dE             d eps       ncg     rms          rms(c)
DAV:   1    -0.125546961196E+03    0.13335E-04   -0.23997E-05 14544   0.195E-02    0.829E-04
DAV:   2    -0.125546961072E+03    0.12476E-06   -0.11463E-06 14208   0.553E-03
 113 F= -.12713795E+03 E0= -.12713717E+03  d E =-.131325E-05  mag=     0.0000
 curvature:  -1.05 expect dE=-0.240E-05 dE for cont linesearch -0.889E-08
 trial: gam= 0.60095 g(F)=  0.229E-05 g(S)=  0.000E+00 ort =-0.449E-06 (trialstep = 0.343E+00)
 search vector abs. value=  0.103E-04
 bond charge predicted
       N       E                     dE             d eps       ncg     rms          rms(c)
DAV:   1    -0.125546993391E+03   -0.32195E-04   -0.13315E-04 18144   0.457E-02    0.200E-03
DAV:   2    -0.125546993338E+03    0.53401E-07   -0.14263E-06 16992   0.517E-03
 114 F= -.12713795E+03 E0= -.12713717E+03  d E =-.305063E-06  mag=     0.0000
 trial-energy change:   -0.000000  1 .order   -0.000000   -0.000001   -0.000000
 step:   0.4899(harm=  0.4899)  dis= 0.00010  next Energy=  -127.137947 (dE=-0.496E-06)
 bond charge predicted
       N       E                     dE             d eps       ncg     rms          rms(c)
DAV:   1    -0.125547007027E+03   -0.13636E-04   -0.22187E-05 14256   0.191E-02    0.115E-03
DAV:   2    -0.125547007001E+03    0.26073E-07   -0.29311E-07 14208   0.267E-03
 115 F= -.12713795E+03 E0= -.12713717E+03  d E =-.322377E-06  mag=     0.0000
 curvature:  -1.25 expect dE=-0.157E-05 dE for cont linesearch -0.761E-08
 trial: gam= 0.50598 g(F)=  0.126E-05 g(S)=  0.000E+00 ort =-0.251E-06 (trialstep = 0.373E+00)
 search vector abs. value=  0.365E-05
 bond charge predicted
       N       E                     dE             d eps       ncg     rms          rms(c)
DAV:   1    -0.125547026566E+03   -0.19539E-04   -0.57982E-05 18528   0.302E-02    0.148E-03
DAV:   2    -0.125547026506E+03    0.59782E-07   -0.67185E-07 14400   0.378E-03
 116 F= -.12713795E+03 E0= -.12713717E+03  d E =-.303012E-06  mag=     0.0000
 trial-energy change:   -0.000000  1 .order   -0.000000   -0.000000   -0.000000
 step:   0.6782(harm=  0.6782)  dis= 0.00009  next Energy=  -127.137947 (dE=-0.384E-06)
 bond charge predicted
       N       E                     dE             d eps       ncg     rms          rms(c)
DAV:   1    -0.125547042338E+03   -0.15772E-04   -0.37960E-05 14976   0.247E-02    0.131E-03
DAV:   2    -0.125547042294E+03    0.44427E-07   -0.51287E-07 14400   0.345E-03
 117 F= -.12713795E+03 E0= -.12713717E+03  d E =-.348850E-06  mag=     0.0000
 curvature:  -1.09 expect dE=-0.135E-05 dE for cont linesearch -0.253E-08
 trial: gam= 0.93371 g(F)=  0.124E-05 g(S)=  0.000E+00 ort =-0.920E-07 (trialstep = 0.372E+00)
 search vector abs. value=  0.425E-05
 bond charge predicted
       N       E                     dE             d eps       ncg     rms          rms(c)
DAV:   1    -0.125547062750E+03   -0.20412E-04   -0.65229E-05 16848   0.326E-02    0.161E-03
DAV:   2    -0.125547062689E+03    0.60815E-07   -0.79635E-07 14496   0.425E-03
 118 F= -.12713795E+03 E0= -.12713717E+03  d E =-.227878E-06  mag=     0.0000
 trial-energy change:   -0.000000  1 .order   -0.000000   -0.000000   -0.000000
 step:   0.4738(harm=  0.4738)  dis= 0.00008  next Energy=  -127.137947 (dE=-0.273E-06)
 bond charge predicted
       N       E                     dE             d eps       ncg     rms          rms(c)
DAV:   1    -0.125547068221E+03   -0.54707E-05   -0.45252E-06 15024   0.905E-03    0.666E-04
DAV:   2    -0.125547068198E+03    0.23137E-07   -0.21275E-07 14208   0.242E-03
 119 F= -.12713795E+03 E0= -.12713717E+03  d E =-.250453E-06  mag=     0.0000
 curvature:  -0.87 expect dE=-0.455E-06 dE for cont linesearch -0.165E-08
 trial: gam= 0.38106 g(F)=  0.522E-06 g(S)=  0.000E+00 ort =-0.896E-07 (trialstep = 0.393E+00)
 search vector abs. value=  0.107E-05
 bond charge predicted
       N       E                     dE             d eps       ncg     rms          rms(c)
DAV:   1    -0.125547078788E+03   -0.10567E-04   -0.16105E-05 14208   0.161E-02    0.906E-04
DAV:   2    -0.125547078769E+03    0.18422E-07   -0.26993E-07 15360   0.244E-03
 120 F= -.12713795E+03 E0= -.12713717E+03  d E =-.127714E-06  mag=     0.0000
 trial-energy change:   -0.000000  1 .order   -0.000000   -0.000000   -0.000000
 step:   0.7590(harm=  0.7590)  dis= 0.00005  next Energy=  -127.137948 (dE=-0.185E-06)
 bond charge predicted
       N       E                     dE             d eps       ncg     rms          rms(c)
DAV:   1    -0.125547088556E+03   -0.97683E-05   -0.13595E-05 15360   0.149E-02    0.874E-04
DAV:   2    -0.125547088540E+03    0.15794E-07   -0.21349E-07 14208   0.219E-03
 121 F= -.12713795E+03 E0= -.12713717E+03  d E =-.124223E-06  mag=     0.0000
 curvature:  -0.83 expect dE=-0.298E-06 dE for cont linesearch -0.377E-09
 trial: gam= 0.66854 g(F)=  0.357E-06 g(S)=  0.000E+00 ort =-0.220E-07 (trialstep = 0.466E+00)
 search vector abs. value=  0.806E-06
 reached required accuracy - stopping structural energy minimisation
