Lattice                                 
           1
     4.198491    2.424000    0.000000
    -4.198491    2.424000    0.000000
     0.000000    0.000000   15.000000
   B    C 
     4    11
Direct configuration=     1
   0.00415361  0.00267210  0.12034134
   0.35695335  0.00285503  0.09748893
   0.00423858  0.35550699  0.09749256
   0.65142295  0.65006557  0.09747688
   0.32808646  0.32671938  0.10030508
   0.68027775  0.00278085  0.10027562
   0.00416530  0.67883808  0.10026559
   0.99999933  0.49999967  0.33373333
   0.16666633  0.33333267  0.33373333
   0.99999933  0.99999967  0.33373333
   0.16666633  0.83333267  0.33373333
   0.49999933  0.49999967  0.33373333
   0.66666633  0.33333267  0.33373333
   0.49999933  0.99999967  0.33373333
   0.66666633  0.83333267  0.33373333
Direct configuration=     2
   0.00418034  0.00275199  0.11921580
   0.35583238  0.00303400  0.09783576
   0.00395830  0.35416102  0.09783784
   0.65276216  0.65114354  0.09782718
   0.32467012  0.32295783  0.10029641
   0.68400059  0.00310691  0.10027496
   0.00388437  0.68227655  0.10026767
   0.00012690  0.49997513  0.33374243
   0.16687143  0.33394340  0.33380214
   0.99999924  0.99999369  0.33363315
   0.16706455  0.83312621  0.33380502
   0.50004004  0.50016428  0.33374531
   0.66666627  0.33333787  0.33368523
   0.49984988  0.99987117  0.33374196
   0.66605409  0.83292373  0.33380181
Direct configuration=     3
   0.00416610  0.00270945  0.11981521
   0.35642936  0.00293869  0.09765106
   0.00410756  0.35487782  0.09765396
   0.65204896  0.65056947  0.09764063
   0.32648950  0.32496105  0.10030102
   0.68201798  0.00293327  0.10027531
   0.00403398  0.68044539  0.10026656
   0.00005896  0.49998820  0.33373758
   0.16676221  0.33361815  0.33376550
   0.99999929  0.99999687  0.33368650
   0.16685248  0.83323616  0.33376684
   0.50001836  0.50007661  0.33373893
   0.66666631  0.33333510  0.33371085
   0.49992947  0.99993960  0.33373736
   0.66638014  0.83314151  0.33376534
Direct configuration=     4
   0.00418004  0.00276527  0.11889145
   0.35687079  0.00305568  0.09795846
   0.00390854  0.35517635  0.09795983
   0.65176511  0.65009791  0.09795137
   0.32659603  0.32484909  0.10026277
   0.68210903  0.00312703  0.10024481
   0.00385348  0.68035711  0.10023816
  -0.00008013  0.50001064  0.33375763
   0.16662166  0.33315200  0.33381004
   0.99999997  0.00000277  0.33363017
   0.16653944  0.83338411  0.33381354
   0.49998481  0.49990716  0.33376110
   0.66666941  0.33333224  0.33366680
   0.50008847  0.00008042  0.33375698
   0.66685401  0.83346956  0.33380954
Direct configuration=     5
   0.00419957  0.00284348  0.11759734
   0.35748920  0.00321956  0.09838911
   0.00362972  0.35559456  0.09838832
   0.65136746  0.64943728  0.09838670
   0.32674527  0.32469225  0.10020918
   0.68223658  0.00339849  0.10020208
   0.00360062  0.68023344  0.10019838
  -0.00027498  0.50004208  0.33378571
   0.16642477  0.33249895  0.33387244
   0.00000091  0.00001104  0.33355126
   0.16610089  0.83359138  0.33387896
   0.49993782  0.49966975  0.33379217
   0.66667376  0.33332823  0.33360508
   0.50031121  0.00027770  0.33378446
   0.66751787  0.83392913  0.33387147
Direct configuration=     6
   0.00420192  0.00285370  0.11735226
   0.35759775  0.00323896  0.09846057
   0.00359479  0.35567972  0.09845943
   0.65128698  0.64932285  0.09845890
   0.32681164  0.32472474  0.10020893
   0.68220033  0.00342627  0.10020371
   0.00357219  0.68017101  0.10020047
  -0.00024174  0.50003883  0.33379153
   0.16644227  0.33257759  0.33388072
   0.00000223  0.00001052  0.33354371
   0.16615934  0.83357279  0.33388764
   0.49994469  0.49970751  0.33379837
   0.66667325  0.33332905  0.33359660
   0.50027687  0.00024565  0.33379018
   0.66743816  0.83386813  0.33387966
Direct configuration=     7
   0.00420897  0.00288437  0.11661703
   0.35792339  0.00329715  0.09867494
   0.00348999  0.35593520  0.09867277
   0.65104554  0.64897956  0.09867548
   0.32701072  0.32482222  0.10020815
   0.68209159  0.00350960  0.10020858
   0.00348689  0.67998373  0.10020673
  -0.00014201  0.50002906  0.33380898
   0.16649478  0.33281352  0.33390554
   0.00000618  0.00000896  0.33352108
   0.16633469  0.83351699  0.33391365
   0.49996533  0.49982079  0.33381698
   0.66667171  0.33333153  0.33357118
   0.50017385  0.00014953  0.33380733
   0.66719904  0.83368512  0.33390425
Direct configuration=     8
   0.00422307  0.00294570  0.11514656
   0.35857468  0.00341354  0.09910367
   0.00328041  0.35644617  0.09909944
   0.65056267  0.64829298  0.09910865
   0.32740889  0.32501717  0.10020661
   0.68187410  0.00367626  0.10021833
   0.00331631  0.67960915  0.10021925
   0.00005746  0.50000954  0.33384388
   0.16659978  0.33328539  0.33395518
   0.00001408  0.00000584  0.33347581
   0.16668539  0.83340539  0.33396568
   0.50000660  0.50004734  0.33385420
   0.66666864  0.33333648  0.33352032
   0.49996782 -0.00004273  0.33384162
   0.66672078  0.83331910  0.33395343
Direct configuration=     9
   0.00425126  0.00306837  0.11220564
   0.35987725  0.00364630  0.09996115
   0.00286125  0.35746811  0.09995279
   0.64959692  0.64691982  0.09997499
   0.32820523  0.32540708  0.10020353
   0.68143911  0.00400959  0.10023783
   0.00297514  0.67886000  0.10024429
   0.00045638  0.49997049  0.33391369
   0.16680978  0.33422911  0.33405447
   0.00002987 -0.00000039  0.33338527
   0.16738679  0.83318220  0.33406975
   0.50008914  0.50050043  0.33392864
   0.66666250  0.33334639  0.33341862
   0.49955575 -0.00042724  0.33391022
   0.66576428  0.83258707  0.33405180
Direct configuration=    10
   0.00423338  0.00299059  0.11407032
   0.35905136  0.00349872  0.09941747
   0.00312702  0.35682015  0.09941173
   0.65020925  0.64779047  0.09942569
   0.32770032  0.32515986  0.10020548
   0.68171491  0.00379825  0.10022547
   0.00319146  0.67933500  0.10022841
   0.00020345  0.49999525  0.33386943
   0.16667663  0.33363075  0.33399152
   0.00001986  0.00000356  0.33344267
   0.16694207  0.83332371  0.33400377
   0.50003681  0.50021315  0.33388144
   0.66666639  0.33334010  0.33348310
   0.49981702 -0.00018344  0.33386672
   0.66637075  0.83305121  0.33398943
Direct configuration=    11
   0.00423078  0.00298238  0.11352470
   0.35904661  0.00346826  0.09950296
   0.00316720  0.35685493  0.09949708
   0.65018153  0.64779487  0.09951156
   0.32772718  0.32526392  0.10027856
   0.68161373  0.00371510  0.10030096
   0.00325410  0.67930944  0.10030427
   0.00013348  0.50000607  0.33388090
   0.16672938  0.33363152  0.33398787
   0.00001228  0.00000295  0.33347476
   0.16690534  0.83328095  0.33399979
   0.50001880  0.50013642  0.33389247
   0.66667329  0.33334104  0.33349295
   0.49988673 -0.00011968  0.33387807
   0.66638022  0.83309918  0.33398576
Direct configuration=    12
   0.00422297  0.00295773  0.11188785
   0.35903236  0.00337687  0.09975944
   0.00328774  0.35695924  0.09975313
   0.65009836  0.64780807  0.09976917
   0.32780776  0.32557610  0.10049777
   0.68131020  0.00346564  0.10052743
   0.00344203  0.67923276  0.10053183
  -0.00007640  0.50003852  0.33391531
   0.16688765  0.33363383  0.33397695
  -0.00001045  0.00000112  0.33357104
   0.16679516  0.83315268  0.33398786
   0.49996477  0.49990623  0.33392555
   0.66669399  0.33334386  0.33352248
   0.50009587  0.00007159  0.33391211
   0.66640865  0.83324310  0.33397476
Direct configuration=    13
   0.00420734  0.00290843  0.10861416
   0.35900386  0.00319410  0.10027240
   0.00352884  0.35716788  0.10026523
   0.64993202  0.64783446  0.10028439
   0.32796893  0.32620046  0.10093621
   0.68070314  0.00296674  0.10098037
   0.00381788  0.67907939  0.10098695
  -0.00049617  0.50010344  0.33398412
   0.16720418  0.33363844  0.33395509
  -0.00005590 -0.00000254  0.33376358
   0.16657479  0.83289612  0.33396399
   0.49985670  0.49944586  0.33399171
   0.66673539  0.33334950  0.33358155
   0.50051414  0.00045413  0.33398019
   0.66646551  0.83353092  0.33395275
Direct configuration=    14
   0.00420558  0.00289425  0.10767343
   0.35898220  0.00312337  0.10040116
   0.00364491  0.35722561  0.10039451
   0.64985491  0.64786815  0.10041262
   0.32791935  0.32628914  0.10107805
   0.68061208  0.00284583  0.10112368
   0.00393086  0.67909751  0.10113021
  -0.00018422  0.50000972  0.33398687
   0.16684437  0.33347316  0.33395667
   0.00000425  0.00000858  0.33382694
   0.16667470  0.83319755  0.33396429
   0.50001193  0.49981892  0.33399290
   0.66669023  0.33334450  0.33363395
   0.50020091  0.00020192  0.33398286
   0.66656861  0.83336913  0.33395453
Direct configuration=    15
   0.00420414  0.00288270  0.10690721
   0.35896455  0.00306577  0.10050604
   0.00373945  0.35727263  0.10049981
   0.64979210  0.64789559  0.10051706
   0.32787897  0.32636137  0.10119358
   0.68053791  0.00274735  0.10124040
   0.00402288  0.67911226  0.10124690
   0.00006987  0.49993340  0.33398910
   0.16655132  0.33333853  0.33395796
   0.00005324  0.00001763  0.33387855
   0.16675607  0.83344307  0.33396454
   0.50013836  0.50012278  0.33399388
   0.66665344  0.33334042  0.33367663
   0.49994579 -0.00000351  0.33398503
   0.66665258  0.83323736  0.33395597
Direct configuration=    16
   0.00420296  0.00287489  0.10667172
   0.35900410  0.00304743  0.10054102
   0.00378452  0.35732380  0.10053561
   0.64970736  0.64786848  0.10055075
   0.32781924  0.32629046  0.10122236
   0.68060453  0.00278775  0.10126648
   0.00401323  0.67914233  0.10127228
   0.00010833  0.49998698  0.33397385
   0.16661655  0.33336665  0.33397174
   0.00002689  0.00001262  0.33389101
   0.16676618  0.83340911  0.33397765
   0.50005386  0.50012582  0.33397787
   0.66668198  0.33334591  0.33372031
   0.49991289 -0.00007167  0.33397002
   0.66665805  0.83325677  0.33397001
Direct configuration=    17
   0.00420089  0.00286124  0.10625976
   0.35907329  0.00301536  0.10060220
   0.00386338  0.35741332  0.10059825
   0.64955911  0.64782105  0.10060969
   0.32771474  0.32616641  0.10127271
   0.68072108  0.00285843  0.10131209
   0.00399636  0.67919493  0.10131667
   0.00017561  0.50008072  0.33394716
   0.16673067  0.33341584  0.33399585
  -0.00001922  0.00000386  0.33391282
   0.16678386  0.83334970  0.33400058
   0.49990603  0.50013114  0.33394987
   0.66673192  0.33335551  0.33379672
   0.49985534 -0.00019093  0.33394375
   0.66666761  0.83329073  0.33399455
Direct configuration=    18
   0.00418680  0.00282309  0.10596080
   0.35916841  0.00299886  0.10065848
   0.00391136  0.35751952  0.10065604
   0.64940754  0.64774416  0.10066332
   0.32770083  0.32608909  0.10129141
   0.68080612  0.00296285  0.10132420
   0.00394132  0.67918927  0.10132728
   0.00007276  0.50005393  0.33393025
   0.16674361  0.33342819  0.33401613
   0.00001479  0.00001099  0.33393065
   0.16672272  0.83329745  0.33401994
   0.49997539  0.50003056  0.33393193
   0.66669547  0.33334932  0.33385964
   0.49999832 -0.00004549  0.33392732
   0.66661523  0.83331555  0.33401528
Direct configuration=    19
   0.00418033  0.00280557  0.10582348
   0.35921210  0.00299128  0.10068434
   0.00393340  0.35756831  0.10068259
   0.64933791  0.64770885  0.10068795
   0.32769444  0.32605357  0.10129999
   0.68084519  0.00301081  0.10132975
   0.00391604  0.67918667  0.10133215
   0.00002552  0.50004162  0.33392248
   0.16674955  0.33343386  0.33402544
   0.00003041  0.00001426  0.33393884
   0.16669463  0.83327345  0.33402884
   0.50000725  0.49998435  0.33392369
   0.66667873  0.33334647  0.33388854
   0.50006400  0.00002132  0.33391978
   0.66659117  0.83332695  0.33402481
Direct configuration=    20
   0.00416062  0.00275908  0.10565724
   0.35926480  0.00299677  0.10072776
   0.00393418  0.35762200  0.10072701
   0.64927629  0.64766388  0.10072930
   0.32777160  0.32607496  0.10129147
   0.68084171  0.00307659  0.10131519
   0.00386482  0.67912852  0.10131631
  -0.00000572  0.49996826  0.33393292
   0.16667860  0.33340654  0.33402867
   0.00003256  0.00001523  0.33395586
   0.16674125  0.83334663  0.33403190
   0.50008256  0.50002684  0.33393394
   0.66667826  0.33334611  0.33390613
   0.50002224  0.00005301  0.33393063
   0.66661691  0.83328292  0.33402835
Direct configuration=    21
   0.00414721  0.00272746  0.10554416
   0.35930065  0.00300051  0.10075729
   0.00393471  0.35765852  0.10075724
   0.64923437  0.64763329  0.10075743
   0.32782409  0.32608952  0.10128567
   0.68083935  0.00312133  0.10130528
   0.00382998  0.67908896  0.10130554
  -0.00002698  0.49991835  0.33394001
   0.16663033  0.33338796  0.33403086
   0.00003402  0.00001589  0.33396744
   0.16677296  0.83339640  0.33403398
   0.50013378  0.50005573  0.33394092
   0.66667794  0.33334586  0.33391809
   0.49999383  0.00007456  0.33393802
   0.66663442  0.83325297  0.33403075
Direct configuration=    22
   0.00413246  0.00269271  0.10537436
   0.35931700  0.00302344  0.10080436
   0.00391663  0.35765835  0.10080530
   0.64923216  0.64762289  0.10080225
   0.32788689  0.32611033  0.10126833
   0.68083023  0.00316750  0.10128068
   0.00378839  0.67904038  0.10127944
   0.00003164  0.49996804  0.33396600
   0.16666204  0.33339190  0.33403034
   0.00001816  0.00001275  0.33398612
   0.16677531  0.83338519  0.33403365
   0.50006565  0.50007669  0.33396715
   0.66669661  0.33334959  0.33391971
   0.49995483 -0.00000192  0.33396444
   0.66665266  0.83326949  0.33403054
Direct configuration=    23
   0.00411875  0.00266041  0.10521650
   0.35933220  0.00304477  0.10084812
   0.00389983  0.35765820  0.10084999
   0.64923010  0.64761322  0.10084392
   0.32794526  0.32612968  0.10125221
   0.68082174  0.00321042  0.10125780
   0.00374972  0.67899520  0.10125517
   0.00008613  0.50001423  0.33399017
   0.16669151  0.33339557  0.33402986
   0.00000341  0.00000983  0.33400349
   0.16677750  0.83337477  0.33403335
   0.50000232  0.50009617  0.33399154
   0.66671398  0.33335305  0.33392121
   0.49991858 -0.00007302  0.33398901
   0.66666962  0.83328485  0.33403034
Direct configuration=    24
   0.00412683  0.00267783  0.10505570
   0.35930021  0.00307887  0.10088157
   0.00387590  0.35758780  0.10088410
   0.64929092  0.64764725  0.10087563
   0.32790316  0.32609803  0.10124068
   0.68084017  0.00320475  0.10123975
   0.00375354  0.67901303  0.10123580
   0.00008016  0.50004641  0.33401694
   0.16671521  0.33340758  0.33403791
   0.00003301  0.00001604  0.33401135
   0.16671142  0.83331637  0.33404183
   0.50000581  0.50003643  0.33401899
   0.66668432  0.33334916  0.33391790
   0.50001468 -0.00002993  0.33401601
   0.66662533  0.83331772  0.33403851
Direct configuration=    25
   0.00412926  0.00268308  0.10500718
   0.35929055  0.00308916  0.10089167
   0.00386868  0.35756656  0.10089439
   0.64930927  0.64765752  0.10088521
   0.32789046  0.32608849  0.10123720
   0.68084574  0.00320304  0.10123430
   0.00375469  0.67901841  0.10122995
   0.00007836  0.50005612  0.33402501
   0.16672236  0.33341120  0.33404034
   0.00004195  0.00001792  0.33401373
   0.16669148  0.83329875  0.33404439
   0.50000687  0.50001840  0.33402727
   0.66667536  0.33334798  0.33391690
   0.50004367 -0.00001693  0.33402416
   0.66661197  0.83332763  0.33404098
Direct configuration=    26
   0.00414719  0.00272499  0.10486242
   0.35925840  0.00311404  0.10090535
   0.00384665  0.35750253  0.10090825
   0.64936836  0.64768366  0.10089804
   0.32782529  0.32607092  0.10123614
   0.68084283  0.00315267  0.10122858
   0.00379258  0.67905276  0.10122331
   0.00001440  0.49999460  0.33404341
   0.16670028  0.33341258  0.33406072
   0.00003176  0.00001713  0.33401049
   0.16673905  0.83333669  0.33406527
   0.50005637  0.50002428  0.33404646
   0.66668766  0.33335007  0.33392026
   0.50002577  0.00003415  0.33404261
   0.66662408  0.83329626  0.33406136
Direct configuration=    27
   0.00415615  0.00274594  0.10479009
   0.35924233  0.00312647  0.10091218
   0.00383564  0.35747053  0.10091518
   0.64939789  0.64769672  0.10090446
   0.32779272  0.32606215  0.10123561
   0.68084137  0.00312750  0.10122573
   0.00381152  0.67906993  0.10121999
  -0.00001756  0.49996385  0.33405260
   0.16668924  0.33341328  0.33407090
   0.00002667  0.00001673  0.33400887
   0.16676283  0.83335564  0.33407571
   0.50008111  0.50002723  0.33405605
   0.66669380  0.33335112  0.33392194
   0.50001682  0.00005967  0.33405183
   0.66663014  0.83328058  0.33407154
Direct configuration=    28
   0.00416515  0.00277154  0.10463882
   0.35924523  0.00312950  0.10091384
   0.00381585  0.35747043  0.10091663
   0.64941175  0.64767939  0.10090599
   0.32779230  0.32611347  0.10124115
   0.68078297  0.00305771  0.10122803
   0.00385586  0.67907169  0.10122171
   0.00002287  0.49997781  0.33406671
   0.16668591  0.33340881  0.33409944
   0.00001875  0.00001495  0.33400487
   0.16678013  0.83337220  0.33410462
   0.50005861  0.50006153  0.33407081
   0.66670460  0.33335301  0.33393425
   0.49997330  0.00000989  0.33406583
   0.66664739  0.83327539  0.33409997
Direct configuration=    29
   0.00417773  0.00280737  0.10442719
   0.35924929  0.00313373  0.10091617
   0.00378816  0.35747029  0.10091866
   0.64943115  0.64765516  0.10090814
   0.32779172  0.32618527  0.10124889
   0.68070126  0.00296008  0.10123125
   0.00391789  0.67907415  0.10122411
   0.00007943  0.49999733  0.33408646
   0.16668125  0.33340257  0.33413937
   0.00000767  0.00001246  0.33399928
   0.16680433  0.83339535  0.33414506
   0.50002714  0.50010953  0.33409146
   0.66671970  0.33335566  0.33395148
   0.49991242 -0.00005977  0.33408542
   0.66667153  0.83326814  0.33413974
Direct configuration=    30
   0.00417564  0.00280930  0.10429049
   0.35926731  0.00311965  0.10091497
   0.00377808  0.35750576  0.10091710
   0.64941578  0.64762516  0.10090723
   0.32781582  0.32622924  0.10125241
   0.68065938  0.00292105  0.10123316
   0.00393684  0.67907053  0.10122578
   0.00009277  0.50002760  0.33410108
   0.16669222  0.33339993  0.33416167
   0.00002886  0.00001713  0.33400685
   0.16675315  0.83336077  0.33416738
   0.50002237  0.50007761  0.33410632
   0.66669981  0.33335346  0.33396651
   0.49997011 -0.00004660  0.33409985
   0.66665252  0.83329673  0.33416189
Direct configuration=    31
   0.00417378  0.00281102  0.10416839
   0.35928341  0.00310707  0.10091389
   0.00376908  0.35753744  0.10091570
   0.64940205  0.64759838  0.10090643
   0.32783735  0.32626851  0.10125555
   0.68062197  0.00288619  0.10123487
   0.00395376  0.67906729  0.10122727
   0.00010469  0.50005463  0.33411413
   0.16670203  0.33339758  0.33418158
   0.00004778  0.00002130  0.33401361
   0.16670744  0.83332988  0.33418732
   0.50001811  0.50004911  0.33411959
   0.66668204  0.33335150  0.33397995
   0.50002164 -0.00003484  0.33411274
   0.66663554  0.83332227  0.33418167
Direct configuration=    32
   0.00416700  0.00280170  0.10404962
   0.35929854  0.00308363  0.10091396
   0.00377345  0.35757626  0.10091540
   0.64937389  0.64757886  0.10090715
   0.32784515  0.32625569  0.10125241
   0.68063652  0.00289892  0.10123197
   0.00393880  0.67907582  0.10122447
   0.00005196  0.50002701  0.33413132
   0.16671108  0.33340621  0.33419360
   0.00004154  0.00002162  0.33403739
   0.16672232  0.83333094  0.33419899
   0.50003829  0.50002821  0.33413657
   0.66668993  0.33335345  0.33399655
   0.50003569  0.00001107  0.33412974
   0.66663653  0.83331796  0.33419352
Direct configuration=    33
   0.00415486  0.00278501  0.10383708
   0.35932562  0.00304168  0.10091409
   0.00378126  0.35764573  0.10091486
   0.64932349  0.64754393  0.10090843
   0.32785911  0.32623274  0.10124680
   0.68066255  0.00292171  0.10122679
   0.00391203  0.67909108  0.10121948
  -0.00004239  0.49997758  0.33416207
   0.16672727  0.33342165  0.33421512
   0.00003036  0.00002217  0.33407994
   0.16674894  0.83333284  0.33421989
   0.50007439  0.49999081  0.33416695
   0.66670404  0.33335695  0.33402626
   0.50006084  0.00009321  0.33416017
   0.66663831  0.83331024  0.33421475
Direct configuration=    34
   0.00415252  0.00278332  0.10373098
   0.35933032  0.00302427  0.10091676
   0.00379236  0.35766369  0.10091724
   0.64930044  0.64753877  0.10091177
   0.32785226  0.32619666  0.10123823
   0.68069512  0.00295468  0.10121930
   0.00388812  0.67909562  0.10121224
  -0.00002121  0.49997650  0.33417865
   0.16671858  0.33342258  0.33422416
   0.00002885  0.00002163  0.33410754
   0.16676499  0.83334691  0.33422849
   0.50007416  0.50001620  0.33418317
   0.66670802  0.33335768  0.33404387
   0.50003408  0.00007020  0.33417659
   0.66664205  0.83329861  0.33422366
Direct configuration=    35
   0.00414552  0.00277827  0.10341269
   0.35934441  0.00297204  0.10092479
   0.00382567  0.35771758  0.10092440
   0.64923130  0.64752328  0.10092178
   0.32783171  0.32608842  0.10121254
   0.68079284  0.00305359  0.10119684
   0.00381640  0.67910924  0.10119052
   0.00004230  0.49997326  0.33422840
   0.16669252  0.33342538  0.33425127
   0.00002432  0.00002001  0.33419034
   0.16681315  0.83338912  0.33425430
   0.50007349  0.50009237  0.33423184
   0.66671996  0.33335987  0.33409671
   0.49995382  0.00000117  0.33422587
   0.66665326  0.83326372  0.33425039
Direct configuration=    36
   0.00414840  0.00278480  0.10327482
   0.35933546  0.00296780  0.10093320
   0.00384260  0.35770602  0.10093260
   0.64921629  0.64753337  0.10093093
   0.32783456  0.32606698  0.10119169
   0.68080756  0.00309443  0.10117844
   0.00379190  0.67908212  0.10117263
   0.00009069  0.50002229  0.33424740
   0.16669908  0.33340853  0.33426845
   0.00004293  0.00002371  0.33422365
   0.16675816  0.83336280  0.33427102
   0.50004796  0.50007948  0.33425036
   0.66670358  0.33335827  0.33412528
   0.49998901 -0.00002385  0.33424473
   0.66665249  0.83330060  0.33426749
Direct configuration=    37
   0.00415056  0.00278968  0.10317148
   0.35932875  0.00296461  0.10093950
   0.00385529  0.35769736  0.10093874
   0.64920503  0.64754093  0.10093778
   0.32783670  0.32605092  0.10117606
   0.68081859  0.00312504  0.10116464
   0.00377354  0.67906179  0.10115922
   0.00012696  0.50005903  0.33426164
   0.16670399  0.33339590  0.33428132
   0.00005688  0.00002648  0.33424862
   0.16671694  0.83334307  0.33428355
   0.50002884  0.50006981  0.33426424
   0.66669131  0.33335706  0.33414669
   0.50001539 -0.00004261  0.33425888
   0.66665191  0.83332825  0.33428031
Direct configuration=    38
   0.00415076  0.00278625  0.10303289
   0.35930838  0.00297869  0.10095127
   0.00386649  0.35766305  0.10095051
   0.64921242  0.64756420  0.10095009
   0.32786043  0.32607678  0.10114731
   0.68079151  0.00313866  0.10113919
   0.00376617  0.67901495  0.10113446
   0.00008455  0.50004806  0.33427799
   0.16672087  0.33339633  0.33430644
   0.00004914  0.00002695  0.33427395
   0.16671964  0.83333883  0.33430852
   0.50003104  0.50004380  0.33428027
   0.66670186  0.33335989  0.33417908
   0.50003286 -0.00000817  0.33427524
   0.66666456  0.83333904  0.33430546
Direct configuration=    39
   0.00415103  0.00278147  0.10283968
   0.35927999  0.00299832  0.10096769
   0.00388209  0.35761523  0.10096692
   0.64922271  0.64759664  0.10096723
   0.32789352  0.32611283  0.10110724
   0.68075376  0.00315765  0.10110372
   0.00375589  0.67894966  0.10109994
   0.00002542  0.50003276  0.33430079
   0.16674440  0.33339693  0.33434146
   0.00003835  0.00002762  0.33430926
   0.16672341  0.83333293  0.33434332
   0.50003411  0.50000754  0.33430262
   0.66671658  0.33336383  0.33422423
   0.50005721  0.00003984  0.33429804
   0.66668219  0.83335408  0.33434054
Direct configuration=    40
   0.00413609  0.00274390  0.10267875
   0.35926299  0.00302314  0.10097719
   0.00387668  0.35758777  0.10097661
   0.64925278  0.64762164  0.10097695
   0.32790305  0.32615533  0.10107404
   0.68071961  0.00312417  0.10107451
   0.00377232  0.67894619  0.10107156
   0.00004443  0.49999089  0.33432358
   0.16670550  0.33342294  0.33437512
   0.00004306  0.00002756  0.33433001
   0.16678765  0.83337504  0.33437733
   0.50008158  0.50007012  0.33432537
   0.66671696  0.33336367  0.33425627
   0.50000178  0.00002550  0.33432098
   0.66665620  0.83328947  0.33437438
Direct configuration=    41
   0.00413504  0.00274124  0.10266737
   0.35926179  0.00302490  0.10097787
   0.00387630  0.35758583  0.10097730
   0.64925491  0.64762341  0.10097764
   0.32790372  0.32615833  0.10107170
   0.68071720  0.00312180  0.10107244
   0.00377348  0.67894594  0.10106955
   0.00004577  0.49998793  0.33432519
   0.16670275  0.33342478  0.33437750
   0.00004339  0.00002756  0.33433148
   0.16679219  0.83337801  0.33437974
   0.50008493  0.50007454  0.33432698
   0.66671698  0.33336366  0.33425853
   0.49999787  0.00002449  0.33432260
   0.66665436  0.83328491  0.33437677
Direct configuration=    42
   0.00411950  0.00270597  0.10255532
   0.35927166  0.00304534  0.10097683
   0.00385742  0.35758918  0.10097656
   0.64927293  0.64761994  0.10097633
   0.32787681  0.32617360  0.10105294
   0.68070822  0.00306839  0.10105615
   0.00380399  0.67899161  0.10105377
   0.00009223  0.50001637  0.33434808
   0.16670101  0.33342252  0.33440143
   0.00005375  0.00002907  0.33434160
   0.16677697  0.83337176  0.33440436
   0.50007043  0.50008761  0.33435018
   0.66670929  0.33336284  0.33427247
   0.49999770 -0.00000908  0.33434571
   0.66664875  0.83329220  0.33440094
Direct configuration=    43
   0.00410885  0.00268179  0.10247849
   0.35927843  0.00305936  0.10097613
   0.00384447  0.35759148  0.10097605
   0.64928529  0.64761757  0.10097543
   0.32785837  0.32618407  0.10104008
   0.68070207  0.00303177  0.10104497
   0.00382491  0.67902291  0.10104294
   0.00012409  0.50003587  0.33436377
   0.16669981  0.33342097  0.33441784
   0.00006085  0.00003010  0.33434853
   0.16676653  0.83336748  0.33442125
   0.50006048  0.50009657  0.33436608
   0.66670401  0.33336227  0.33428203
   0.49999759 -0.00003209  0.33436156
   0.66664491  0.83329720  0.33441751
Direct configuration=    44
   0.00410884  0.00268407  0.10236014
   0.35931677  0.00308101  0.10096720
   0.00382161  0.35760828  0.10096755
   0.64926818  0.64757679  0.10096587
   0.32781752  0.32618353  0.10102624
   0.68069692  0.00299059  0.10103295
   0.00385896  0.67905633  0.10103130
   0.00006996  0.50004060  0.33439379
   0.16673329  0.33340393  0.33444101
   0.00004598  0.00003037  0.33436040
   0.16674838  0.83335410  0.33444529
   0.50003867  0.50004679  0.33439662
   0.66672179  0.33336680  0.33429144
   0.50003003  0.00000636  0.33439190
   0.66668376  0.83333778  0.33444098
Direct configuration=    45
   0.00410883  0.00268440  0.10234327
   0.35932223  0.00308410  0.10096593
   0.00381836  0.35761067  0.10096634
   0.64926575  0.64757098  0.10096451
   0.32781170  0.32618345  0.10102426
   0.68069619  0.00298472  0.10103123
   0.00386382  0.67906109  0.10102964
   0.00006224  0.50004127  0.33439807
   0.16673806  0.33340150  0.33444431
   0.00004386  0.00003041  0.33436209
   0.16674580  0.83335220  0.33444872
   0.50003556  0.50003970  0.33440098
   0.66672432  0.33336744  0.33429278
   0.50003465  0.00001183  0.33439622
   0.66668930  0.83334357  0.33444432
Direct configuration=    46
   0.00412316  0.00272157  0.10225441
   0.35935717  0.00309077  0.10095309
   0.00380580  0.35762519  0.10095385
   0.64922816  0.64752379  0.10095098
   0.32779381  0.32617444  0.10101712
   0.68069204  0.00298436  0.10102449
   0.00387538  0.67905229  0.10102299
   0.00004305  0.50001039  0.33442335
   0.16672057  0.33341107  0.33446088
   0.00004991  0.00003233  0.33437496
   0.16676705  0.83336757  0.33446583
   0.50007256  0.50004872  0.33442662
   0.66672173  0.33336769  0.33430126
   0.50003334  0.00003808  0.33442173
   0.66667693  0.83331906  0.33446112
Direct configuration=    47
   0.00412756  0.00273300  0.10222709
   0.35936791  0.00309282  0.10094914
   0.00380194  0.35762965  0.10095001
   0.64921661  0.64750929  0.10094682
   0.32778831  0.32617167  0.10101493
   0.68069077  0.00298425  0.10102242
   0.00387894  0.67904959  0.10102094
   0.00003716  0.50000089  0.33443112
   0.16671520  0.33341401  0.33446597
   0.00005177  0.00003292  0.33437891
   0.16677358  0.83337230  0.33447109
   0.50008394  0.50005150  0.33443450
   0.66672093  0.33336777  0.33430387
   0.50003294  0.00004615  0.33442957
   0.66667312  0.83331153  0.33446628
Direct configuration=    48
   0.00413395  0.00275444  0.10216047
   0.35936643  0.00307825  0.10093676
   0.00379853  0.35763355  0.10093784
   0.64920495  0.64749868  0.10093388
   0.32780082  0.32616135  0.10100874
   0.68069435  0.00300586  0.10101554
   0.00386321  0.67903201  0.10101391
   0.00008863  0.50002284  0.33444877
   0.16671351  0.33342506  0.33448017
   0.00005932  0.00003309  0.33439303
   0.16677576  0.83336896  0.33448541
   0.50007301  0.50007871  0.33445221
   0.66671566  0.33336690  0.33431801
   0.50001585  0.00000401  0.33444733
   0.66665671  0.83330363  0.33448060
Direct configuration=    49
   0.00413491  0.00275766  0.10215047
   0.35936621  0.00307606  0.10093491
   0.00379801  0.35763413  0.10093601
   0.64920320  0.64749709  0.10093194
   0.32780269  0.32615981  0.10100781
   0.68069488  0.00300910  0.10101450
   0.00386085  0.67902937  0.10101286
   0.00009635  0.50002613  0.33445142
   0.16671325  0.33342672  0.33448230
   0.00006046  0.00003311  0.33439514
   0.16677608  0.83336846  0.33448756
   0.50007138  0.50008280  0.33445487
   0.66671487  0.33336677  0.33432013
   0.50001328 -0.00000232  0.33445000
   0.66665424  0.83330244  0.33448275
Direct configuration=    50
   0.00412935  0.00275358  0.10208912
   0.35933319  0.00304652  0.10092329
   0.00380055  0.35762982  0.10092450
   0.64922183  0.64752223  0.10091988
   0.32783083  0.32614868  0.10099827
   0.68070574  0.00303505  0.10100348
   0.00382869  0.67902075  0.10100151
   0.00009452  0.50004416  0.33446543
   0.16673293  0.33341572  0.33449814
   0.00005255  0.00003273  0.33441237
   0.16676399  0.83336070  0.33450323
   0.50004565  0.50006901  0.33446872