Lattice                                 
           1
     4.198491    2.424000    0.000000
    -4.198491    2.424000    0.000000
     0.000000    0.000000   15.000000
   B    C 
     4    11
Direct configuration=     1
   0.00415361  0.00267210  0.12034134
   0.35695335  0.00285503  0.09748893
   0.00423858  0.35550699  0.09749256
   0.65142295  0.65006557  0.09747688
   0.32808646  0.32671938  0.10030508
   0.68027775  0.00278085  0.10027562
   0.00416530  0.67883808  0.10026559
   0.99999933  0.49999967  0.33373333
   0.16666633  0.33333267  0.33373333
   0.99999933  0.99999967  0.33373333
   0.16666633  0.83333267  0.33373333
   0.49999933  0.49999967  0.33373333
   0.66666633  0.33333267  0.33373333
   0.49999933  0.99999967  0.33373333
   0.66666633  0.83333267  0.33373333
Direct configuration=     2
   0.00418034  0.00275199  0.11921580
   0.35583238  0.00303400  0.09783576
   0.00395830  0.35416102  0.09783784
   0.65276216  0.65114354  0.09782718
   0.32467012  0.32295783  0.10029641
   0.68400059  0.00310691  0.10027496
   0.00388437  0.68227655  0.10026767
   0.00012690  0.49997513  0.33374243
   0.16687143  0.33394340  0.33380214
   0.99999924  0.99999369  0.33363315
   0.16706455  0.83312621  0.33380502
   0.50004004  0.50016428  0.33374531
   0.66666627  0.33333787  0.33368523
   0.49984988  0.99987117  0.33374196
   0.66605409  0.83292373  0.33380181
Direct configuration=     3
   0.00416610  0.00270945  0.11981521
   0.35642936  0.00293869  0.09765106
   0.00410756  0.35487782  0.09765396
   0.65204896  0.65056947  0.09764063
   0.32648950  0.32496105  0.10030102
   0.68201798  0.00293327  0.10027531
   0.00403398  0.68044539  0.10026656
   0.00005896  0.49998820  0.33373758
   0.16676221  0.33361815  0.33376550
   0.99999929  0.99999687  0.33368650
   0.16685248  0.83323616  0.33376684
   0.50001836  0.50007661  0.33373893
   0.66666631  0.33333510  0.33371085
   0.49992947  0.99993960  0.33373736
   0.66638014  0.83314151  0.33376534
Direct configuration=     4
   0.00418004  0.00276527  0.11889145
   0.35687079  0.00305568  0.09795846
   0.00390854  0.35517635  0.09795983
   0.65176511  0.65009791  0.09795137
   0.32659603  0.32484909  0.10026277
   0.68210903  0.00312703  0.10024481
   0.00385348  0.68035711  0.10023816
  -0.00008013  0.50001064  0.33375763
   0.16662166  0.33315200  0.33381004
   0.99999997  0.00000277  0.33363017
   0.16653944  0.83338411  0.33381354
   0.49998481  0.49990716  0.33376110
   0.66666941  0.33333224  0.33366680
   0.50008847  0.00008042  0.33375698
   0.66685401  0.83346956  0.33380954
