 ----------------------------------------------------
    OOO  PPPP  EEEEE N   N M   M PPPP
   O   O P   P E     NN  N MM MM P   P
   O   O PPPP  EEEEE N N N M M M PPPP   -- VERSION
   O   O P     E     N  NN M   M P
    OOO  P     EEEEE N   N M   M P
 ----------------------------------------------------
 running   48 mpi-ranks, with    1 threads/rank
 distrk:  each k-point on   48 cores,    1 groups
 distr:  one band on    1 cores,   48 groups
 vasp.6.3.2 27Jun22 (build Dec 22 2022 13:13:19) complex                        
  
 POSCAR found type information on POSCAR B C 
 POSCAR found :  2 types and      15 ions
 Reading from existing POTCAR
 -----------------------------------------------------------------------------
|                                                                             |
|           W    W    AA    RRRRR   N    N  II  N    N   GGGG   !!!           |
|           W    W   A  A   R    R  NN   N  II  NN   N  G    G  !!!           |
|           W    W  A    A  R    R  N N  N  II  N N  N  G       !!!           |
|           W WW W  AAAAAA  RRRRR   N  N N  II  N  N N  G  GGG   !            |
|           WW  WW  A    A  R   R   N   NN  II  N   NN  G    G                |
|           W    W  A    A  R    R  N    N  II  N    N   GGGG   !!!           |
|                                                                             |
|     You use a magnetic or noncollinear calculation, but did not specify     |
|     the initial magnetic moment with the MAGMOM tag. Note that a            |
|     default of 1 will be used for all atoms. This ferromagnetic setup       |
|     may break the symmetry of the crystal, in particular it may rule        |
|     out finding an antiferromagnetic solution. Thence, we recommend         |
|     setting the initial magnetic moment manually or verifying carefully     |
|     that this magnetic setup is desired.                                    |
|                                                                             |
 -----------------------------------------------------------------------------

 scaLAPACK will be used
 Reading from existing POTCAR
 LDA part: xc-table for Pade appr. of Perdew
 POSCAR found type information on POSCAR B C 
 POSCAR found :  2 types and      15 ions
 POSCAR, INCAR and KPOINTS ok, starting setup
 FFT: planning ... GRIDC
 FFT: planning ... GRID_SOFT
 FFT: planning ... GRID
 WAVECAR not read
 entering main loop
       N       E                     dE             d eps       ncg     rms          rms(c)
DAV:   1     0.202305876480E+03    0.20231E+03   -0.25708E+04 14208   0.859E+02
DAV:   2    -0.116365030424E+03   -0.31867E+03   -0.31712E+03 20304   0.163E+02
DAV:   3    -0.129369013213E+03   -0.13004E+02   -0.12981E+02 26304   0.429E+01
DAV:   4    -0.129395343443E+03   -0.26330E-01   -0.26329E-01 20928   0.188E+00
DAV:   5    -0.129395403818E+03   -0.60376E-04   -0.60376E-04 25104   0.871E-02    0.244E+01
DAV:   6    -0.920060717215E+02    0.37389E+02   -0.72436E+01 26016   0.255E+01    0.139E+01
DAV:   7    -0.100463028086E+03   -0.84570E+01   -0.99545E+00 21936   0.101E+01    0.810E+00
DAV:   8    -0.110409855888E+03   -0.99468E+01   -0.87536E+00 24384   0.894E+00    0.435E+00
DAV:   9    -0.117164162608E+03   -0.67543E+01   -0.39087E+00 19008   0.612E+00    0.277E+00
DAV:  10    -0.123478675495E+03   -0.63145E+01   -0.80898E+00 23664   0.707E+00    0.159E+00
DAV:  11    -0.125275437704E+03   -0.17968E+01   -0.28191E+00 25008   0.384E+00    0.992E-01
DAV:  12    -0.125438856877E+03   -0.16342E+00   -0.23076E-01 19536   0.139E+00    0.464E-01
DAV:  13    -0.125466141390E+03   -0.27285E-01   -0.23151E-02 17712   0.557E-01    0.187E-01
DAV:  14    -0.125488485929E+03   -0.22345E-01   -0.60489E-03 20784   0.285E-01    0.838E-02
DAV:  15    -0.125495952826E+03   -0.74669E-02   -0.31225E-03 19248   0.158E-01    0.438E-02
DAV:  16    -0.125497928093E+03   -0.19753E-02   -0.63360E-04 16752   0.815E-02    0.222E-02
DAV:  17    -0.125499176348E+03   -0.12483E-02   -0.17123E-04 14592   0.522E-02    0.170E-02
DAV:  18    -0.125499901694E+03   -0.72535E-03   -0.84667E-05 16032   0.383E-02    0.123E-02
DAV:  19    -0.125500329534E+03   -0.42784E-03   -0.40793E-05 19632   0.247E-02    0.720E-03
DAV:  20    -0.125500382278E+03   -0.52744E-04   -0.21285E-05 22080   0.178E-02    0.433E-03
DAV:  21    -0.125500403457E+03   -0.21179E-04   -0.57869E-06 20688   0.955E-03    0.216E-03
DAV:  22    -0.125500425107E+03   -0.21649E-04   -0.22110E-06 22176   0.553E-03    0.136E-03
DAV:  23    -0.125500439819E+03   -0.14712E-04   -0.16571E-06 21408   0.395E-03    0.712E-04
DAV:  24    -0.125500442757E+03   -0.29379E-05   -0.31125E-07 23520   0.209E-03    0.375E-04
DAV:  25    -0.125500443704E+03   -0.94758E-06   -0.11419E-07 22464   0.112E-03
   1 F= -.12709141E+03 E0= -.12709063E+03  d E =-.127091E+03  mag=    -0.0000
 curvature:   0.00 expect dE= 0.000E+00 dE for cont linesearch  0.000E+00
 trial: gam= 0.00000 g(F)=  0.285E-01 g(S)=  0.000E+00 ort = 0.000E+00 (trialstep = 0.100E+01)
 search vector abs. value=  0.285E-01
 bond charge predicted
       N       E                     dE             d eps       ncg     rms          rms(c)
DAV:   1    -0.125509737001E+03   -0.92942E-02   -0.31434E+00 14208   0.548E+00    0.483E-01
DAV:   2    -0.125501386041E+03    0.83510E-02   -0.63095E-02 26016   0.713E-01    0.213E-01
DAV:   3    -0.125500447461E+03    0.93858E-03   -0.52656E-03 21456   0.203E-01    0.832E-02
DAV:   4    -0.125500405924E+03    0.41537E-04   -0.59908E-04 26496   0.698E-02    0.221E-02
DAV:   5    -0.125500408986E+03   -0.30622E-05   -0.17858E-05 25008   0.134E-02    0.723E-03
DAV:   6    -0.125500408969E+03    0.16603E-07   -0.38701E-06 22848   0.577E-03
   2 F= -.12709081E+03 E0= -.12709004E+03  d E =0.592082E-03  mag=    -0.0000
 trial-energy change:    0.000592  1 .order    0.000534   -0.028538    0.029606
 step:   0.4893(harm=  0.4908)  dis= 0.00741  next Energy=  -127.098381 (dE=-0.698E-02)
 bond charge predicted
       N       E                     dE             d eps       ncg     rms          rms(c)
DAV:   1    -0.125510166217E+03   -0.97572E-02   -0.82000E-01 14208   0.280E+00    0.247E-01
DAV:   2    -0.125507937024E+03    0.22292E-02   -0.16393E-02 26208   0.363E-01    0.108E-01
DAV:   3    -0.125507699628E+03    0.23740E-03   -0.13447E-03 23568   0.104E-01    0.430E-02
DAV:   4    -0.125507689197E+03    0.10430E-04   -0.15145E-04 22752   0.351E-02    0.110E-02
DAV:   5    -0.125507689930E+03   -0.73254E-06   -0.50491E-06 23040   0.710E-03
   3 F= -.12709838E+03 E0= -.12709760E+03  d E =-.697025E-02  mag=    -0.0000
 curvature:  -0.25 expect dE=-0.180E-02 dE for cont linesearch -0.532E-07
 trial: gam= 0.25365 g(F)=  0.732E-02 g(S)=  0.000E+00 ort = 0.787E-04 (trialstep = 0.898E+00)
 search vector abs. value=  0.919E-02
 bond charge predicted
       N       E                     dE             d eps       ncg     rms          rms(c)
DAV:   1    -0.125513429072E+03   -0.57399E-02   -0.28336E-01 14304   0.189E+00    0.112E-01
DAV:   2    -0.125513474215E+03   -0.45142E-04   -0.18798E-03 27744   0.177E-01    0.651E-02
DAV:   3    -0.125513470707E+03    0.35077E-05   -0.18572E-04 22752   0.491E-02    0.171E-02
DAV:   4    -0.125513471598E+03   -0.89157E-06   -0.29599E-05 26784   0.199E-02    0.645E-03
DAV:   5    -0.125513472044E+03   -0.44601E-06   -0.11309E-06 21840   0.447E-03
   4 F= -.12710405E+03 E0= -.12710327E+03  d E =-.567538E-02  mag=    -0.0000
 trial-energy change:   -0.005675  1 .order   -0.005680   -0.006588   -0.004772
 step:   3.2578(harm=  3.2578)  dis= 0.01961  next Energy=  -127.110328 (dE=-0.120E-01)
 bond charge predicted
       N       E                     dE             d eps       ncg     rms          rms(c)
DAV:   1    -0.125519966763E+03   -0.64952E-02   -0.19677E+00 14208   0.498E+00    0.293E-01
DAV:   2    -0.125520366601E+03   -0.39984E-03   -0.13206E-02 26832   0.468E-01    0.171E-01
DAV:   3    -0.125520334757E+03    0.31845E-04   -0.13065E-03 21504   0.130E-01    0.444E-02
DAV:   4    -0.125520341218E+03   -0.64619E-05   -0.20563E-04 26928   0.522E-02    0.171E-02
DAV:   5    -0.125520344313E+03   -0.30948E-05   -0.75604E-06 23088   0.115E-02    0.736E-03
DAV:   6    -0.125520344475E+03   -0.16152E-06   -0.39954E-06 24144   0.711E-03
   5 F= -.12711062E+03 E0= -.12710984E+03  d E =-.122426E-01  mag=     0.0000
 curvature:  -2.04 expect dE=-0.744E-01 dE for cont linesearch -0.250E-04
 trial: gam= 4.98730 g(F)=  0.364E-01 g(S)=  0.000E+00 ort = 0.336E-03 (trialstep = 0.469E-01)
 search vector abs. value=  0.268E+00
 bond charge predicted
       N       E                     dE             d eps       ncg     rms          rms(c)
DAV:   1    -0.125522063165E+03   -0.17189E-02   -0.25069E-02 14304   0.589E-01    0.344E-02
DAV:   2    -0.125522066713E+03   -0.35478E-05   -0.20595E-04 26928   0.612E-02    0.195E-02
DAV:   3    -0.125522065323E+03    0.13890E-05   -0.20922E-05 21792   0.173E-02    0.576E-03
DAV:   4    -0.125522065764E+03   -0.44016E-06   -0.35157E-06 25680   0.696E-03
   6 F= -.12711231E+03 E0= -.12711153E+03  d E =-.169536E-02  mag=     0.0000
 ZBRENT: can't locate minimum, use default step
 trial-energy change:   -0.001695  1 .order   -0.001695   -0.001788   -0.001601
 step:   0.1876(harm=  0.4502)  dis= 0.00526  next Energy=  -127.119197 (dE=-0.858E-02)
 bond charge predicted
       N       E                     dE             d eps       ncg     rms          rms(c)
DAV:   1    -0.125526111552E+03   -0.40462E-02   -0.22587E-01 14208   0.177E+00    0.103E-01
DAV:   2    -0.125526139343E+03   -0.27792E-04   -0.17938E-03 26112   0.181E-01    0.583E-02
DAV:   3    -0.125526126310E+03    0.13033E-04   -0.18252E-04 19920   0.510E-02    0.171E-02
DAV:   4    -0.125526127084E+03   -0.77434E-06   -0.30435E-05 26400   0.202E-02    0.700E-03
DAV:   5    -0.125526127814E+03   -0.72912E-06   -0.10492E-06 21120   0.430E-03
   7 F= -.12711629E+03 E0= -.12711551E+03  d E =-.567236E-02  mag=     0.0000
 curvature:  -0.91 expect dE=-0.112E-01 dE for cont linesearch -0.170E-02
 ZBRENT: increasing intervall
 opt :   0.4691  next Energy=  -127.119279 (dE=-0.866E-02)
 bond charge predicted
       N       E                     dE             d eps       ncg     rms          rms(c)
DAV:   1    -0.125529324409E+03   -0.31973E-02   -0.90695E-01 14208   0.354E+00    0.206E-01
DAV:   2    -0.125529435073E+03   -0.11066E-03   -0.72740E-03 26592   0.364E-01    0.116E-01
DAV:   3    -0.125529380133E+03    0.54939E-04   -0.73149E-04 21504   0.102E-01    0.340E-02
DAV:   4    -0.125529383000E+03   -0.28670E-05   -0.11901E-04 26544   0.398E-02    0.139E-02
DAV:   5    -0.125529385177E+03   -0.21767E-05   -0.38525E-06 22368   0.834E-03    0.572E-03
DAV:   6    -0.125529384846E+03    0.33114E-06   -0.20010E-06 25104   0.543E-03
   8 F= -.12711935E+03 E0= -.12711858E+03  d E =-.872780E-02  mag=     0.0000
 curvature:  -1.60 expect dE=-0.209E-01 dE for cont linesearch -0.216E-05
 trial: gam= 0.52001 g(F)=  0.130E-01 g(S)=  0.000E+00 ort =-0.601E-03 (trialstep = 0.131E+00)
 search vector abs. value=  0.850E-01
 bond charge predicted
       N       E                     dE             d eps       ncg     rms          rms(c)
DAV:   1    -0.125531031571E+03   -0.16464E-02   -0.60626E-02 14208   0.825E-01    0.471E-02
DAV:   2    -0.125531043677E+03   -0.12105E-04   -0.34110E-04 23808   0.687E-02    0.281E-02
DAV:   3    -0.125531041428E+03    0.22484E-05   -0.40912E-05 21360   0.204E-02    0.467E-03
DAV:   4    -0.125531041574E+03   -0.14594E-06   -0.28526E-06 25200   0.665E-03
   9 F= -.12712091E+03 E0= -.12712013E+03  d E =-.156156E-02  mag=     0.0000
 ZBRENT: can't locate minimum, use default step
 trial-energy change:   -0.001562  1 .order   -0.001563   -0.001669   -0.001458
 step:   0.5254(harm=  1.0388)  dis= 0.00518  next Energy=  -127.125946 (dE=-0.660E-02)
 bond charge predicted
       N       E                     dE             d eps       ncg     rms          rms(c)
DAV:   1    -0.125534698939E+03   -0.36575E-02   -0.54623E-01 14208   0.248E+00    0.141E-01
DAV:   2    -0.125534819036E+03   -0.12010E-03   -0.29823E-03 25728   0.204E-01    0.839E-02
DAV:   3    -0.125534797475E+03    0.21560E-04   -0.36026E-04 21024   0.603E-02    0.133E-02
DAV:   4    -0.125534798117E+03   -0.64148E-06   -0.23172E-05 24096   0.191E-02    0.686E-03
DAV:   5    -0.125534796818E+03    0.12984E-05   -0.30261E-06 22176   0.675E-03    0.248E-03
DAV:   6    -0.125534796406E+03    0.41225E-06   -0.10079E-06 24480   0.372E-03
  10 F= -.12712438E+03 E0= -.12712360E+03  d E =-.503329E-02  mag=    -0.0000
 curvature:  -2.36 expect dE=-0.194E-01 dE for cont linesearch -0.122E-02
 ZBRENT: increasing intervall
 opt :   1.3135  next Energy=  -127.126081 (dE=-0.673E-02)
 bond charge predicted
       N       E                     dE             d eps       ncg     rms          rms(c)
DAV:   1    -0.125536983146E+03   -0.21863E-02   -0.21861E+00 14208   0.494E+00    0.277E-01
DAV:   2    -0.125537487923E+03   -0.50478E-03   -0.11477E-02 27264   0.402E-01    0.166E-01
DAV:   3    -0.125537402817E+03    0.85106E-04   -0.14559E-03 21504   0.120E-01    0.244E-02
DAV:   4    -0.125537403449E+03   -0.63267E-06   -0.85802E-05 23904   0.370E-02    0.135E-02
DAV:   5    -0.125537399227E+03    0.42228E-05   -0.11464E-05 23760   0.131E-02    0.430E-03
DAV:   6    -0.125537398245E+03    0.98192E-06   -0.35847E-06 25056   0.689E-03
  11 F= -.12712643E+03 E0= -.12712568E+03  d E =-.707977E-02  mag=     0.0000
 curvature:  -3.29 expect dE=-0.944E-01 dE for cont linesearch -0.511E-04
 trial: gam= 2.31689 g(F)=  0.287E-01 g(S)=  0.000E+00 ort =-0.115E-02 (trialstep = 0.652E-01)
 search vector abs. value=  0.480E+00
 bond charge predicted
       N       E                     dE             d eps       ncg     rms          rms(c)
DAV:   1    -0.125539003290E+03   -0.16041E-02   -0.88139E-02 14208   0.105E+00    0.561E-02
DAV:   2    -0.125539024325E+03   -0.21035E-04   -0.55065E-04 26016   0.937E-02    0.339E-02
DAV:   3    -0.125539019635E+03    0.46896E-05   -0.67565E-05 18000   0.286E-02    0.657E-03
DAV:   4    -0.125539020611E+03   -0.97587E-06   -0.67703E-06 22656   0.106E-02
  12 F= -.12712794E+03 E0= -.12712718E+03  d E =-.151573E-02  mag=     0.0000
 ZBRENT: can't locate minimum, use default step
 trial-energy change:   -0.001516  1 .order   -0.001515   -0.001697   -0.001333
 step:   0.2607(harm=  0.3036)  dis= 0.00574  next Energy=  -127.130380 (dE=-0.395E-02)
 bond charge predicted
       N       E                     dE             d eps       ncg     rms          rms(c)
DAV:   1    -0.125541605449E+03   -0.25858E-02   -0.79360E-01 14208   0.315E+00    0.169E-01
DAV:   2    -0.125541793659E+03   -0.18821E-03   -0.47104E-03 25920   0.276E-01    0.102E-01
DAV:   3    -0.125541751071E+03    0.42588E-04   -0.59969E-04 21744   0.846E-02    0.187E-02
DAV:   4    -0.125541750789E+03    0.28126E-06   -0.56940E-05 23808   0.301E-02    0.962E-03
DAV:   5    -0.125541750922E+03   -0.13278E-06   -0.33554E-06 24912   0.810E-03
  13 F= -.12713035E+03 E0= -.12712957E+03  d E =-.392478E-02  mag=    -0.0000
 curvature:  -2.70 expect dE=-0.629E-02 dE for cont linesearch -0.109E-03
 ZBRENT: extrapolating
 opt :   0.3141  next Energy=  -127.130468 (dE=-0.404E-02)
 bond charge predicted
       N       E                     dE             d eps       ncg     rms          rms(c)
DAV:   1    -0.125541945302E+03   -0.19451E-03   -0.59439E-02 14208   0.863E-01    0.458E-02
DAV:   2    -0.125541961690E+03   -0.16388E-04   -0.37134E-04 25824   0.774E-02    0.279E-02
DAV:   3    -0.125541959816E+03    0.18745E-05   -0.46624E-05 18720   0.241E-02    0.566E-03
DAV:   4    -0.125541960348E+03   -0.53239E-06   -0.50217E-06 23472   0.100E-02
  14 F= -.12713047E+03 E0= -.12712969E+03  d E =-.404584E-02  mag=    -0.0000
 curvature:  -2.92 expect dE=-0.612E-02 dE for cont linesearch -0.510E-07
 trial: gam= 0.06423 g(F)=  0.210E-02 g(S)=  0.000E+00 ort = 0.915E-04 (trialstep = 0.115E+00)
 search vector abs. value=  0.409E-02
 bond charge predicted
       N       E                     dE             d eps       ncg     rms          rms(c)
DAV:   1    -0.125542186133E+03   -0.22632E-03   -0.38739E-03 16080   0.262E-01    0.153E-02
DAV:   2    -0.125542184737E+03    0.13961E-05   -0.51573E-05 26208   0.304E-02    0.818E-03
DAV:   3    -0.125542185081E+03   -0.34400E-06   -0.55365E-06 19728   0.944E-03
  15 F= -.12713068E+03 E0= -.12712990E+03  d E =-.206771E-03  mag=    -0.0000
 trial-energy change:   -0.000207  1 .order   -0.000204   -0.000242   -0.000167
 step:   0.3698(harm=  0.3698)  dis= 0.00141  next Energy=  -127.130861 (dE=-0.389E-03)
 bond charge predicted
       N       E                     dE             d eps       ncg     rms          rms(c)
DAV:   1    -0.125542429630E+03   -0.24489E-03   -0.19050E-02 15072   0.581E-01    0.342E-02
DAV:   2    -0.125542420042E+03    0.95886E-05   -0.25186E-04 27312   0.672E-02    0.181E-02
DAV:   3    -0.125542416665E+03    0.33769E-05   -0.26664E-05 20112   0.200E-02    0.624E-03
DAV:   4    -0.125542417302E+03   -0.63737E-06   -0.40828E-06 23328   0.811E-03
  16 F= -.12713087E+03 E0= -.12713009E+03  d E =-.397593E-03  mag=    -0.0000
 curvature:  -0.36 expect dE=-0.318E-03 dE for cont linesearch -0.646E-07
 trial: gam= 0.42228 g(F)=  0.885E-03 g(S)=  0.000E+00 ort = 0.271E-04 (trialstep = 0.166E+00)
 search vector abs. value=  0.164E-02
 bond charge predicted
       N       E                     dE             d eps       ncg     rms          rms(c)
DAV:   1    -0.125542560613E+03   -0.14395E-03   -0.27382E-03 14352   0.214E-01    0.114E-02
DAV:   2    -0.125542559632E+03    0.98178E-06   -0.26549E-05 28272   0.206E-02    0.611E-03
DAV:   3    -0.125542559737E+03   -0.10484E-06   -0.21338E-06 20784   0.585E-03
  17 F= -.12713100E+03 E0= -.12713022E+03  d E =-.128245E-03  mag=    -0.0000
 trial-energy change:   -0.000128  1 .order   -0.000127   -0.000149   -0.000106
 step:   0.5720(harm=  0.5720)  dis= 0.00211  next Energy=  -127.131126 (dE=-0.256E-03)
 bond charge predicted
       N       E                     dE             d eps       ncg     rms          rms(c)
DAV:   1    -0.125542733355E+03   -0.17372E-03   -0.16375E-02 14208   0.522E-01    0.279E-02
DAV:   2    -0.125542726201E+03    0.71533E-05   -0.15472E-04 27744   0.492E-02    0.147E-02
DAV:   3    -0.125542724690E+03    0.15115E-05   -0.12009E-05 20064   0.131E-02    0.553E-03
DAV:   4    -0.125542725266E+03   -0.57582E-06   -0.19408E-06 20784   0.625E-03
  18 F= -.12713113E+03 E0= -.12713035E+03  d E =-.259039E-03  mag=    -0.0000
 curvature:  -0.52 expect dE=-0.185E-03 dE for cont linesearch -0.264E-09
 trial: gam= 0.42092 g(F)=  0.354E-03 g(S)=  0.000E+00 ort =-0.910E-06 (trialstep = 0.247E+00)
 search vector abs. value=  0.643E-03
 bond charge predicted
       N       E                     dE             d eps       ncg     rms          rms(c)
DAV:   1    -0.125542802346E+03   -0.77656E-04   -0.29535E-03 14496   0.220E-01    0.125E-02
DAV:   2    -0.125542800726E+03    0.16199E-05   -0.39802E-05 27312   0.260E-02    0.699E-03
DAV:   3    -0.125542800122E+03    0.60424E-06   -0.42203E-06 20352   0.828E-03
  19 F= -.12713119E+03 E0= -.12713041E+03  d E =-.616837E-04  mag=     0.0000
 trial-energy change:   -0.000062  1 .order   -0.000061   -0.000087   -0.000035
 step:   0.4082(harm=  0.4082)  dis= 0.00107  next Energy=  -127.131201 (dE=-0.722E-04)
 bond charge predicted
       N       E                     dE             d eps       ncg     rms          rms(c)
DAV:   1    -0.125542821646E+03   -0.20920E-04   -0.12598E-03 19392   0.144E-01    0.872E-03
DAV:   2    -0.125542820626E+03    0.10199E-05   -0.14951E-05 19536   0.161E-02    0.477E-03
DAV:   3    -0.125542820415E+03    0.21080E-06   -0.21686E-06 22560   0.625E-03
  20 F= -.12713120E+03 E0= -.12713042E+03  d E =-.733174E-04  mag=    -0.0000
 curvature:  -0.37 expect dE=-0.674E-04 dE for cont linesearch -0.181E-08
 trial: gam= 0.50357 g(F)=  0.182E-03 g(S)=  0.000E+00 ort = 0.177E-05 (trialstep = 0.279E+00)
 search vector abs. value=  0.347E-03
 bond charge predicted
       N       E                     dE             d eps       ncg     rms          rms(c)
DAV:   1    -0.125542881196E+03   -0.60570E-04   -0.20271E-03 14256   0.182E-01    0.950E-03
DAV:   2    -0.125542880229E+03    0.96697E-06   -0.22967E-05 17952   0.196E-02    0.518E-03
DAV:   3    -0.125542879990E+03    0.23902E-06   -0.25933E-06 20448   0.647E-03
  21 F= -.12713124E+03 E0= -.12713046E+03  d E =-.368485E-04  mag=     0.0000
 trial-energy change:   -0.000037  1 .order   -0.000037   -0.000051   -0.000022
 step:   0.4971(harm=  0.4971)  dis= 0.00092  next Energy=  -127.131247 (dE=-0.454E-04)
 bond charge predicted
       N       E                     dE             d eps       ncg     rms          rms(c)
DAV:   1    -0.125542907549E+03   -0.27320E-04   -0.12328E-03 15552   0.142E-01    0.781E-03
DAV:   2    -0.125542906898E+03    0.65160E-06   -0.13544E-05 14976   0.152E-02    0.426E-03
DAV:   3    -0.125542906780E+03    0.11798E-06   -0.18181E-06 16560   0.565E-03
  22 F= -.12713125E+03 E0= -.12713047E+03  d E =-.458707E-04  mag=    -0.0000
 curvature:  -0.47 expect dE=-0.579E-04 dE for cont linesearch -0.201E-09
 trial: gam= 0.68729 g(F)=  0.123E-03 g(S)=  0.000E+00 ort = 0.384E-06 (trialstep = 0.323E+00)
 search vector abs. value=  0.287E-03
 bond charge predicted
       N       E                     dE             d eps       ncg     rms          rms(c)
DAV:   1    -0.125542981906E+03   -0.75009E-04   -0.18693E-03 14208   0.171E-01    0.885E-03
DAV:   2    -0.125542981876E+03    0.30342E-07   -0.18093E-05 15456   0.179E-02    0.509E-03
DAV:   3    -0.125542981735E+03    0.14141E-06   -0.19177E-06 14592   0.591E-03
  23 F= -.12713128E+03 E0= -.12713050E+03  d E =-.315370E-04  mag=     0.0000
 trial-energy change:   -0.000032  1 .order   -0.000031   -0.000040   -0.000023
 step:   0.7559(harm=  0.7559)  dis= 0.00103  next Energy=  -127.131294 (dE=-0.465E-04)
 bond charge predicted
       N       E                     dE             d eps       ncg     rms          rms(c)
DAV:   1    -0.125543056264E+03   -0.74388E-04   -0.33601E-03 14208   0.229E-01    0.119E-02
DAV:   2    -0.125543056179E+03    0.85008E-07   -0.31796E-05 19824   0.236E-02    0.682E-03
DAV:   3    -0.125543055875E+03    0.30444E-06   -0.30629E-06 16608   0.730E-03
  24 F= -.12713130E+03 E0= -.12713051E+03  d E =-.474609E-04  mag=     0.0000
 curvature:  -0.88 expect dE=-0.106E-03 dE for cont linesearch -0.190E-08
 trial: gam= 0.97806 g(F)=  0.120E-03 g(S)=  0.000E+00 ort = 0.787E-06 (trialstep = 0.297E+00)
 search vector abs. value=  0.396E-03
 bond charge predicted
       N       E                     dE             d eps       ncg     rms          rms(c)
DAV:   1    -0.125543138906E+03   -0.82727E-04   -0.23727E-03 14208   0.196E-01    0.102E-02
DAV:   2    -0.125543138718E+03    0.18868E-06   -0.25371E-05 18576   0.218E-02    0.594E-03
DAV:   3    -0.125543138494E+03    0.22375E-06   -0.31362E-06 15456   0.774E-03
  25 F= -.12713132E+03 E0= -.12713054E+03  d E =-.262213E-04  mag=     0.0000
 trial-energy change:   -0.000026  1 .order   -0.000026   -0.000036   -0.000016
 step:   0.5288(harm=  0.5288)  dis= 0.00056  next Energy=  -127.131327 (dE=-0.319E-04)
 bond charge predicted
       N       E                     dE             d eps       ncg     rms          rms(c)
DAV:   1    -0.125543189557E+03   -0.50839E-04   -0.14530E-03 14208   0.153E-01    0.823E-03
DAV:   2    -0.125543189470E+03    0.87416E-07   -0.15484E-05 20832   0.172E-02    0.478E-03
DAV:   3    -0.125543189384E+03    0.85651E-07   -0.20464E-06 15360   0.647E-03
  26 F= -.12713133E+03 E0= -.12713055E+03  d E =-.329719E-04  mag=    -0.0000
 curvature:  -0.87 expect dE=-0.882E-04 dE for cont linesearch -0.575E-08
 trial: gam= 0.85540 g(F)=  0.102E-03 g(S)=  0.000E+00 ort = 0.162E-05 (trialstep = 0.343E+00)
 search vector abs. value=  0.394E-03
 bond charge predicted
       N       E                     dE             d eps       ncg     rms          rms(c)
DAV:   1    -0.125543289940E+03   -0.10047E-03   -0.26459E-03 14208   0.203E-01    0.938E-03
DAV:   2    -0.125543290513E+03   -0.57305E-06   -0.20993E-05 19584   0.194E-02    0.589E-03
DAV:   3    -0.125543290584E+03   -0.71124E-07   -0.20381E-06 15216   0.615E-03
  27 F= -.12713136E+03 E0= -.12713058E+03  d E =-.315612E-04  mag=     0.0000
 ZBRENT: can't locate minimum, use default step
 trial-energy change:   -0.000032  1 .order   -0.000031   -0.000035   -0.000027
 step:   1.3729(harm=  1.5413)  dis= 0.00138  next Energy=  -127.131408 (dE=-0.794E-04)
 bond charge predicted
       N       E                     dE             d eps       ncg     rms          rms(c)
DAV:   1    -0.125543542954E+03   -0.25244E-03   -0.23841E-02 14208   0.609E-01    0.276E-02
DAV:   2    -0.125543548910E+03   -0.59570E-05   -0.18022E-04 24384   0.565E-02    0.173E-02
DAV:   3    -0.125543547641E+03    0.12694E-05   -0.14628E-05 17472   0.143E-02    0.375E-03
DAV:   4    -0.125543547726E+03   -0.84957E-07   -0.26628E-06 15840   0.779E-03
  28 F= -.12713141E+03 E0= -.12713063E+03  d E =-.798360E-04  mag=    -0.0000
 curvature:  -2.89 expect dE=-0.425E-03 dE for cont linesearch -0.128E-05
 trial: gam= 1.35604 g(F)=  0.147E-03 g(S)=  0.000E+00 ort = 0.132E-04 (trialstep = 0.238E+00)
 search vector abs. value=  0.908E-03
 bond charge predicted
       N       E                     dE             d eps       ncg     rms          rms(c)
DAV:   1    -0.125543648450E+03   -0.10081E-03   -0.31024E-03 14208   0.227E-01    0.112E-02
DAV:   2    -0.125543649226E+03   -0.77591E-06   -0.31508E-05 23136   0.244E-02    0.706E-03
DAV:   3    -0.125543649098E+03    0.12787E-06   -0.30246E-06 15120   0.813E-03
  29 F= -.12713143E+03 E0= -.12713065E+03  d E =-.269114E-04  mag=     0.0000
 trial-energy change:   -0.000027  1 .order   -0.000027   -0.000039   -0.000015
 step:   0.3790(harm=  0.3790)  dis= 0.00053  next Energy=  -127.131439 (dE=-0.313E-04)
 bond charge predicted
       N       E                     dE             d eps       ncg     rms          rms(c)
DAV:   1    -0.125543697033E+03   -0.47807E-04   -0.10753E-03 14208   0.134E-01    0.669E-03
DAV:   2    -0.125543697234E+03   -0.20132E-06   -0.10938E-05 17616   0.149E-02    0.419E-03
DAV:   3    -0.125543697549E+03   -0.31448E-06   -0.15943E-06 15552   0.652E-03
  30 F= -.12713144E+03 E0= -.12713066E+03  d E =-.314815E-04  mag=    -0.0000
 curvature:  -1.04 expect dE=-0.113E-03 dE for cont linesearch -0.258E-10
 trial: gam= 0.89808 g(F)=  0.109E-03 g(S)=  0.000E+00 ort = 0.150E-06 (trialstep = 0.267E+00)
 search vector abs. value=  0.841E-03
 bond charge predicted
       N       E                     dE             d eps       ncg     rms          rms(c)
DAV:   1    -0.125543808672E+03   -0.11144E-03   -0.31459E-03 14208   0.222E-01    0.101E-02
DAV:   2    -0.125543810208E+03   -0.15356E-05   -0.30890E-05 15264   0.236E-02    0.653E-03
DAV:   3    -0.125543810614E+03   -0.40669E-06   -0.23310E-06 14304   0.707E-03
  31 F= -.12713147E+03 E0= -.12713069E+03  d E =-.271743E-04  mag=     0.0000
 ZBRENT: can't locate minimum, use default step
 trial-energy change:   -0.000027  1 .order   -0.000027   -0.000029   -0.000025
 step:   1.0661(harm=  2.1253)  dis= 0.00129  next Energy=  -127.131555 (dE=-0.116E-03)
 bond charge predicted
       N       E                     dE             d eps       ncg     rms          rms(c)
DAV:   1    -0.125544116246E+03   -0.30604E-03   -0.28336E-02 14208   0.667E-01    0.303E-02
DAV:   2    -0.125544129917E+03   -0.13671E-04   -0.26104E-04 18720   0.679E-02    0.194E-02
DAV:   3    -0.125544130175E+03   -0.25852E-06   -0.15713E-05 14496   0.159E-02    0.468E-03
DAV:   4    -0.125544130547E+03   -0.37145E-06   -0.37359E-06 14592   0.940E-03
  32 F= -.12713153E+03 E0= -.12713075E+03  d E =-.895932E-04  mag=     0.0000
 curvature:  -5.55 expect dE=-0.101E-02 dE for cont linesearch -0.225E-04
 ZBRENT: increasing intervall
 opt :   2.6654  next Energy=  -127.131564 (dE=-0.124E-03)
 bond charge predicted
       N       E                     dE             d eps       ncg     rms          rms(c)
DAV:   1    -0.125544625007E+03   -0.49483E-03   -0.11341E-01 14208   0.133E+00    0.605E-02
DAV:   2    -0.125544680982E+03   -0.55975E-04   -0.10360E-03 21216   0.135E-01    0.387E-02
DAV:   3    -0.125544677996E+03    0.29852E-05   -0.59202E-05 20880   0.290E-02    0.915E-03
DAV:   4    -0.125544679033E+03   -0.10370E-05   -0.93655E-06 15072   0.139E-02    0.310E-03
DAV:   5    -0.125544679320E+03   -0.28678E-06   -0.31791E-06 14880   0.894E-03
  33 F= -.12713156E+03 E0= -.12713078E+03  d E =-.123844E-03  mag=     0.0000
 curvature:  -8.55 expect dE=-0.553E-02 dE for cont linesearch -0.283E-05
 trial: gam= 5.17584 g(F)=  0.647E-03 g(S)=  0.000E+00 ort =-0.167E-04 (trialstep = 0.273E-01)
 search vector abs. value=  0.230E-01
 bond charge predicted
       N       E                     dE             d eps       ncg     rms          rms(c)
DAV:   1    -0.125544740066E+03   -0.61032E-04   -0.92747E-04 19680   0.121E-01    0.551E-03
DAV:   2    -0.125544740303E+03   -0.23761E-06   -0.76639E-06 22800   0.120E-02
  34 F= -.12713158E+03 E0= -.12713080E+03  d E =-.138187E-04  mag=     0.0000
 ZBRENT: can't locate minimum, use default step
 trial-energy change:   -0.000014  1 .order   -0.000015   -0.000015   -0.000015
 step:   0.1091(harm=  0.8188)  dis= 0.00055  next Energy=  -127.131793 (dE=-0.230E-03)
 bond charge predicted
       N       E                     dE             d eps       ncg     rms          rms(c)
DAV:   1    -0.125544916985E+03   -0.17692E-03   -0.82281E-03 14208   0.361E-01    0.167E-02
DAV:   2    -0.125544920872E+03   -0.38873E-05   -0.76733E-05 16128   0.373E-02    0.108E-02
DAV:   3    -0.125544921734E+03   -0.86188E-06   -0.61003E-06 17088   0.112E-02
  35 F= -.12713162E+03 E0= -.12713084E+03  d E =-.537933E-04  mag=    -0.0000
 curvature:  -3.29 expect dE=-0.152E-02 dE for cont linesearch -0.247E-04
 ZBRENT: increasing intervall
 opt :   0.2728  next Energy=  -127.131664 (dE=-0.101E-03)
 bond charge predicted
       N       E                     dE             d eps       ncg     rms          rms(c)
DAV:   1    -0.125545241450E+03   -0.32058E-03   -0.33179E-02 14208   0.724E-01    0.327E-02
DAV:   2    -0.125545257960E+03   -0.16511E-04   -0.30316E-04 18864   0.740E-02    0.210E-02
DAV:   3    -0.125545258662E+03   -0.70160E-06   -0.20136E-05 14208   0.189E-02    0.500E-03
DAV:   4    -0.125545258944E+03   -0.28217E-06   -0.60976E-06 14304   0.124E-02
  36 F= -.12713167E+03 E0= -.12713089E+03  d E =-.108277E-03  mag=     0.0000
 curvature:  -6.30 expect dE=-0.224E-02 dE for cont linesearch -0.142E-04
 ZBRENT: increasing intervall
 opt :   0.6002  next Energy=  -127.131685 (dE=-0.121E-03)
 bond charge predicted
       N       E                     dE             d eps       ncg     rms          rms(c)
DAV:   1    -0.125545770221E+03   -0.51156E-03   -0.13269E-01 14208   0.145E+00    0.650E-02
DAV:   2    -0.125545838132E+03   -0.67911E-04   -0.12077E-03 22704   0.147E-01    0.418E-02
DAV:   3    -0.125545833708E+03    0.44249E-05   -0.70874E-05 18240   0.318E-02    0.954E-03
DAV:   4    -0.125545834750E+03   -0.10427E-05   -0.12296E-05 15936   0.158E-02    0.349E-03
DAV:   5    -0.125545834999E+03   -0.24833E-06   -0.37966E-06 14496   0.978E-03
  37 F= -.12713168E+03 E0= -.12713090E+03  d E =-.119782E-03  mag=     0.0000
 curvature:  -5.82 expect dE=-0.414E-02 dE for cont linesearch -0.608E-05
 ZBRENT: bracketing found
 ZBRENT: interpolating
 opt :   0.4677  next Energy=  -127.131693 (dE=-0.130E-03)
 bond charge predicted
       N       E                     dE             d eps       ncg     rms          rms(c)
DAV:   1    -0.125545605990E+03    0.22876E-03   -0.21718E-02 14208   0.586E-01    0.261E-02
DAV:   2    -0.125545617053E+03   -0.11064E-04   -0.20653E-04 21360   0.606E-02    0.169E-02
DAV:   3    -0.125545617133E+03   -0.79379E-07   -0.12529E-05 16896   0.144E-02    0.406E-03
DAV:   4    -0.125545617435E+03   -0.30268E-06   -0.34142E-06 14208   0.922E-03
  38 F= -.12713169E+03 E0= -.12713091E+03  d E =-.130689E-03  mag=    -0.0000
 curvature:  -9.84 expect dE=-0.467E-02 dE for cont linesearch -0.639E-08
 trial: gam= 0.46147 g(F)=  0.474E-03 g(S)=  0.000E+00 ort = 0.386E-05 (trialstep = 0.115E+00)
 search vector abs. value=  0.538E-02
 bond charge predicted
       N       E                     dE             d eps       ncg     rms          rms(c)
DAV:   1    -0.125545762168E+03   -0.14504E-03   -0.40898E-03 14208   0.257E-01    0.117E-02
DAV:   2    -0.125545763305E+03   -0.11372E-05   -0.42347E-05 16896   0.277E-02    0.727E-03
DAV:   3    -0.125545763490E+03   -0.18494E-06   -0.37296E-06 19344   0.877E-03
  39 F= -.12713174E+03 E0= -.12713096E+03  d E =-.481544E-04  mag=    -0.0000
 trial-energy change:   -0.000048  1 .order   -0.000048   -0.000055   -0.000041
 step:   0.4588(harm=  0.4588)  dis= 0.00146  next Energy=  -127.131803 (dE=-0.109E-03)
 bond charge predicted
       N       E                     dE             d eps       ncg     rms          rms(c)
DAV:   1    -0.125546108271E+03   -0.34497E-03   -0.36331E-02 14208   0.767E-01    0.359E-02
DAV:   2    -0.125546121184E+03   -0.12912E-04   -0.35463E-04 19968   0.795E-02    0.224E-02
DAV:   3    -0.125546119496E+03    0.16880E-05   -0.25023E-05 14400   0.202E-02    0.577E-03
DAV:   4    -0.125546119980E+03   -0.48398E-06   -0.57263E-06 14400   0.114E-02
  40 F= -.12713181E+03 E0= -.12713103E+03  d E =-.113324E-03  mag=    -0.0000
 curvature:  -2.59 expect dE=-0.602E-03 dE for cont linesearch -0.145E-06
 trial: gam= 0.50105 g(F)=  0.232E-03 g(S)=  0.000E+00 ort = 0.173E-04 (trialstep = 0.184E+00)
 search vector abs. value=  0.160E-02
 bond charge predicted
       N       E                     dE             d eps       ncg     rms          rms(c)
DAV:   1    -0.125546234054E+03   -0.11456E-03   -0.32334E-03 14208   0.236E-01    0.110E-02
DAV:   2    -0.125546234893E+03   -0.83890E-06   -0.33458E-05 16176   0.255E-02    0.682E-03
DAV:   3    -0.125546235459E+03   -0.56551E-06   -0.37187E-06 15072   0.965E-03
  41 F= -.12713184E+03 E0= -.12713106E+03  d E =-.350885E-04  mag=     0.0000
 trial-energy change:   -0.000035  1 .order   -0.000035   -0.000044   -0.000026
 step:   0.4416(harm=  0.4416)  dis= 0.00095  next Energy=  -127.131861 (dE=-0.532E-04)
 bond charge predicted
       N       E                     dE             d eps       ncg     rms          rms(c)
DAV:   1    -0.125546365042E+03   -0.13015E-03   -0.63180E-03 14208   0.330E-01    0.154E-02
DAV:   2    -0.125546366562E+03   -0.15205E-05   -0.62057E-05 16128   0.346E-02    0.947E-03
DAV:   3    -0.125546367198E+03   -0.63611E-06   -0.64166E-06 15072   0.122E-02
  42 F= -.12713186E+03 E0= -.12713108E+03  d E =-.543167E-04  mag=    -0.0000
 curvature:  -1.47 expect dE=-0.134E-03 dE for cont linesearch -0.181E-08
 trial: gam= 0.44540 g(F)=  0.917E-04 g(S)=  0.000E+00 ort = 0.141E-05 (trialstep = 0.236E+00)
 search vector abs. value=  0.410E-03
 bond charge predicted
       N       E                     dE             d eps       ncg     rms          rms(c)
DAV:   1    -0.125546430995E+03   -0.64433E-04   -0.14820E-03 14208   0.159E-01    0.782E-03
DAV:   2    -0.125546430551E+03    0.44399E-06   -0.17485E-05 14208   0.191E-02    0.480E-03
DAV:   3    -0.125546431278E+03   -0.72674E-06   -0.37951E-06 15216   0.976E-03
  43 F= -.12713188E+03 E0= -.12713110E+03  d E =-.177871E-04  mag=    -0.0000
 trial-energy change:   -0.000018  1 .order   -0.000017   -0.000022   -0.000013
 step:   0.5750(harm=  0.5750)  dis= 0.00075  next Energy=  -127.131888 (dE=-0.265E-04)
 bond charge predicted
       N       E                     dE             d eps       ncg     rms          rms(c)
DAV:   1    -0.125546507330E+03   -0.76779E-04   -0.30708E-03 14208   0.228E-01    0.109E-02
DAV:   2    -0.125546507168E+03    0.16216E-06   -0.32981E-05 15600   0.249E-02    0.665E-03
DAV:   3    -0.125546507562E+03   -0.39334E-06   -0.44955E-06 15120   0.100E-02
  44 F= -.12713189E+03 E0= -.12713111E+03  d E =-.273754E-04  mag=    -0.0000
 curvature:  -1.28 expect dE=-0.657E-04 dE for cont linesearch -0.359E-08
 trial: gam= 0.57834 g(F)=  0.514E-04 g(S)=  0.000E+00 ort =-0.107E-05 (trialstep = 0.303E+00)
 search vector abs. value=  0.187E-03
 bond charge predicted
       N       E                     dE             d eps       ncg     rms          rms(c)
DAV:   1    -0.125546558636E+03   -0.51468E-04   -0.12699E-03 14688   0.149E-01    0.652E-03
DAV:   2    -0.125546558443E+03    0.19364E-06   -0.12207E-05 14208   0.167E-02    0.417E-03
DAV:   3    -0.125546559313E+03   -0.87066E-06   -0.34482E-06 17424   0.960E-03
  45 F= -.12713190E+03 E0= -.12713112E+03  d E =-.134816E-04  mag=    -0.0000
 trial-energy change:   -0.000013  1 .order   -0.000013   -0.000015   -0.000010
 step:   0.8915(harm=  0.8915)  dis= 0.00097  next Energy=  -127.131912 (dE=-0.226E-04)
 bond charge predicted
       N       E                     dE             d eps       ncg     rms          rms(c)
DAV:   1    -0.125546641854E+03   -0.83411E-04   -0.47557E-03 14208   0.288E-01    0.119E-02
DAV:   2    -0.125546642844E+03   -0.98973E-06   -0.40477E-05 19248   0.279E-02    0.765E-03
DAV:   3    -0.125546642978E+03   -0.13421E-06   -0.43642E-06 15840   0.977E-03
  46 F= -.12713191E+03 E0= -.12713113E+03  d E =-.229146E-04  mag=    -0.0000
 curvature:  -1.64 expect dE=-0.102E-03 dE for cont linesearch -0.308E-08
 trial: gam= 1.19238 g(F)=  0.621E-04 g(S)=  0.000E+00 ort =-0.593E-06 (trialstep = 0.241E+00)
 search vector abs. value=  0.327E-03
 bond charge predicted
       N       E                     dE             d eps       ncg     rms          rms(c)
DAV:   1    -0.125546693038E+03   -0.50195E-04   -0.15894E-03 14784   0.167E-01    0.729E-03
DAV:   2    -0.125546692887E+03    0.15073E-06   -0.14159E-05 14640   0.175E-02    0.455E-03
DAV:   3    -0.125546693294E+03   -0.40665E-06   -0.28577E-06 15072   0.855E-03
  47 F= -.12713192E+03 E0= -.12713114E+03  d E =-.110892E-04  mag=    -0.0000
 trial-energy change:   -0.000011  1 .order   -0.000011   -0.000015   -0.000007
 step:   0.4322(harm=  0.4322)  dis= 0.00059  next Energy=  -127.131925 (dE=-0.133E-04)
 bond charge predicted
       N       E                     dE             d eps       ncg     rms          rms(c)
DAV:   1    -0.125546726887E+03   -0.34000E-04   -0.99856E-04 14208   0.133E-01    0.579E-03
DAV:   2    -0.125546726764E+03    0.12270E-06   -0.93949E-06 15312   0.145E-02
  48 F= -.12713193E+03 E0= -.12713114E+03  d E =-.134773E-04  mag=    -0.0000
 curvature:  -1.15 expect dE=-0.169E-04 dE for cont linesearch -0.184E-07
 trial: gam= 0.20523 g(F)=  0.147E-04 g(S)=  0.000E+00 ort = 0.229E-05 (trialstep = 0.279E+00)
 search vector abs. value=  0.294E-04
 bond charge predicted
       N       E                     dE             d eps       ncg     rms          rms(c)
DAV:   1    -0.125546743235E+03   -0.16348E-04   -0.22245E-04 16272   0.631E-02    0.346E-03
DAV:   2    -0.125546742850E+03    0.38429E-06   -0.35011E-06 14304   0.973E-03
  49 F= -.12713193E+03 E0= -.12713115E+03  d E =-.384413E-05  mag=    -0.0000
 ZBRENT: can't locate minimum, use default step
 trial-energy change:   -0.000004  1 .order   -0.000004   -0.000004   -0.000003
 step:   1.1175(harm=  1.3559)  dis= 0.00061  next Energy=  -127.131936 (dE=-0.103E-04)
 bond charge predicted
       N       E                     dE             d eps       ncg     rms          rms(c)
DAV:   1    -0.125546786215E+03   -0.42981E-04   -0.20175E-03 15696   0.188E-01    0.893E-03
DAV:   2    -0.125546785277E+03    0.93792E-06   -0.18188E-05 14208   0.198E-02    0.535E-03
DAV:   3    -0.125546785965E+03   -0.68785E-06   -0.51292E-06 17280   0.109E-02
  50 F= -.12713194E+03 E0= -.12713115E+03  d E =-.102298E-04  mag=     0.0000
 curvature:  -1.25 expect dE=-0.255E-04 dE for cont linesearch -0.139E-07
 trial: gam= 1.36925 g(F)=  0.204E-04 g(S)=  0.000E+00 ort = 0.572E-06 (trialstep = 0.171E+00)
 search vector abs. value=  0.771E-04
 bond charge predicted
       N       E                     dE             d eps       ncg     rms          rms(c)
DAV:   1    -0.125546799290E+03   -0.14013E-04   -0.20252E-04 14208   0.616E-02    0.298E-03
DAV:   2    -0.125546799005E+03    0.28573E-06   -0.34379E-06 15456   0.979E-03
  51 F= -.12713194E+03 E0= -.12713116E+03  d E =-.220145E-05  mag=     0.0000
 ZBRENT: can't locate minimum, use default step
 trial-energy change:   -0.000002  1 .order   -0.000003   -0.000004   -0.000003
 step:   0.6824(harm=  0.7013)  dis= 0.00055  next Energy=  -127.131943 (dE=-0.742E-05)
 bond charge predicted
       N       E                     dE             d eps       ncg     rms          rms(c)
DAV:   1    -0.125546835752E+03   -0.36461E-04   -0.17824E-03 14880   0.180E-01    0.844E-03
DAV:   2    -0.125546835480E+03    0.27194E-06   -0.17202E-05 14208   0.192E-02    0.531E-03
DAV:   3    -0.125546835733E+03   -0.25339E-06   -0.33283E-06 15744   0.918E-03
  52 F= -.12713194E+03 E0= -.12713116E+03  d E =-.639017E-05  mag=     0.0000
 curvature:  -1.28 expect dE=-0.269E-04 dE for cont linesearch -0.492E-07
 trial: gam= 1.19038 g(F)=  0.211E-04 g(S)=  0.000E+00 ort =-0.172E-05 (trialstep = 0.167E+00)
 search vector abs. value=  0.126E-03
 bond charge predicted
       N       E                     dE             d eps       ncg     rms          rms(c)
DAV:   1    -0.125546852629E+03   -0.17149E-04   -0.28761E-04 14208   0.729E-02    0.335E-03
DAV:   2    -0.125546852488E+03    0.14085E-06   -0.36494E-06 14208   0.991E-03
  53 F= -.12713194E+03 E0= -.12713116E+03  d E =-.261156E-05  mag=     0.0000
 ZBRENT: can't locate minimum, use default step
 trial-energy change:   -0.000003  1 .order   -0.000003   -0.000003   -0.000003
 step:   0.6669(harm=  1.0185)  dis= 0.00056  next Energy=  -127.131952 (dE=-0.968E-05)
 bond charge predicted
       N       E                     dE             d eps       ncg     rms          rms(c)
DAV:   1    -0.125546900981E+03   -0.48352E-04   -0.25660E-03 14976   0.216E-01    0.956E-03
DAV:   2    -0.125546901261E+03   -0.27985E-06   -0.20859E-05 14208   0.210E-02    0.639E-03
DAV:   3    -0.125546901793E+03   -0.53282E-06   -0.39355E-06 17088   0.102E-02
  54 F= -.12713195E+03 E0= -.12713117E+03  d E =-.948514E-05  mag=     0.0000
 curvature:  -2.80 expect dE=-0.680E-04 dE for cont linesearch -0.118E-05
 ZBRENT: increasing intervall
 opt :   1.6673  next Energy=  -127.131950 (dE=-0.814E-05)
 bond charge predicted
       N       E                     dE             d eps       ncg     rms          rms(c)
DAV:   1    -0.125546983169E+03   -0.81908E-04   -0.10282E-02 14208   0.431E-01    0.178E-02
DAV:   2    -0.125546986021E+03   -0.28523E-05   -0.83828E-05 16224   0.398E-02    0.121E-02
DAV:   3    -0.125546985856E+03    0.16556E-06   -0.78664E-06 15984   0.133E-02
  55 F= -.12713195E+03 E0= -.12713117E+03  d E =-.872656E-05  mag=    -0.0000
 curvature:   3.21 expect dE= 0.327E-03 dE for cont linesearch  0.271E-05
 ZBRENT: bracketing found
 ZBRENT: interpolating
 opt :   1.0805  next Energy=  -127.131953 (dE=-0.110E-04)
 bond charge predicted
       N       E                     dE             d eps       ncg     rms          rms(c)
DAV:   1    -0.125546937868E+03    0.48153E-04   -0.35418E-03 14208   0.253E-01    0.997E-03
DAV:   2    -0.125546938219E+03   -0.35072E-06   -0.31552E-05 14256   0.258E-02    0.674E-03
DAV:   3    -0.125546938579E+03   -0.36005E-06   -0.48863E-06 20064   0.113E-02
  56 F= -.12713195E+03 E0= -.12713117E+03  d E =-.112260E-04  mag=     0.0000
 curvature:  -1.78 expect dE=-0.805E-04 dE for cont linesearch -0.236E-07
 trial: gam= 1.75069 g(F)=  0.452E-04 g(S)=  0.000E+00 ort = 0.129E-05 (trialstep = 0.101E+00)
 search vector abs. value=  0.437E-03
 bond charge predicted
       N       E                     dE             d eps       ncg     rms          rms(c)
DAV:   1    -0.125546959561E+03   -0.21342E-04   -0.38999E-04 14256   0.852E-02    0.316E-03
DAV:   2    -0.125546959253E+03    0.30773E-06   -0.56797E-06 18384   0.125E-02
  57 F= -.12713196E+03 E0= -.12713117E+03  d E =-.395875E-05  mag=     0.0000
 ZBRENT: can't locate minimum, use default step
 trial-energy change:   -0.000004  1 .order   -0.000005   -0.000005   -0.000004
 step:   0.4042(harm=  1.3458)  dis= 0.00062  next Energy=  -127.131985 (dE=-0.319E-04)
 bond charge predicted
       N       E                     dE             d eps       ncg     rms          rms(c)
DAV:   1    -0.125547021009E+03   -0.61448E-04   -0.34453E-03 14208   0.250E-01    0.109E-02
DAV:   2    -0.125547021664E+03   -0.65507E-06   -0.28496E-05 14592   0.242E-02    0.739E-03
DAV:   3    -0.125547021982E+03   -0.31835E-06   -0.44965E-06 14496   0.106E-02
  58 F= -.12713197E+03 E0= -.12713119E+03  d E =-.165452E-04  mag=    -0.0000
 curvature:  -2.65 expect dE=-0.791E-04 dE for cont linesearch -0.693E-05
 ZBRENT: increasing intervall
 opt :   1.0104  next Energy=  -127.131984 (dE=-0.309E-04)
 bond charge predicted
       N       E                     dE             d eps       ncg     rms          rms(c)
DAV:   1    -0.125547134989E+03   -0.11333E-03   -0.13820E-02 14208   0.501E-01    0.204E-02
DAV:   2    -0.125547139285E+03   -0.42956E-05   -0.11001E-04 18672   0.454E-02    0.140E-02
DAV:   3    -0.125547138697E+03    0.58762E-06   -0.10339E-05 15648   0.145E-02    0.348E-03
DAV:   4    -0.125547138416E+03    0.28139E-06   -0.47709E-06 14208   0.109E-02
  59 F= -.12713199E+03 E0= -.12713120E+03  d E =-.326693E-04  mag=    -0.0000
 curvature:  -5.49 expect dE=-0.322E-03 dE for cont linesearch -0.386E-05
 ZBRENT: increasing intervall
 opt :   2.2230  next Energy=  -127.131987 (dE=-0.341E-04)
 bond charge predicted
       N       E                     dE             d eps       ncg     rms          rms(c)
DAV:   1    -0.125547328764E+03   -0.19007E-03   -0.55299E-02 14208   0.100E+00    0.407E-02
DAV:   2    -0.125547345961E+03   -0.17197E-04   -0.43186E-04 21936   0.881E-02    0.278E-02
DAV:   3    -0.125547340153E+03    0.58086E-05   -0.32804E-05 14544   0.223E-02    0.632E-03
DAV:   4    -0.125547340065E+03    0.87394E-07   -0.63339E-06 14208   0.113E-02
  60 F= -.12713199E+03 E0= -.12713121E+03  d E =-.338209E-04  mag=    -0.0000
 curvature:  -2.11 expect dE=-0.632E-03 dE for cont linesearch -0.137E-05
 ZBRENT: bracketing found
 ZBRENT: interpolating
 opt :   1.6287  next Energy=  -127.131992 (dE=-0.388E-04)
 bond charge predicted
       N       E                     dE             d eps       ncg     rms          rms(c)
DAV:   1    -0.125547244132E+03    0.96021E-04   -0.13264E-02 14208   0.491E-01    0.196E-02
DAV:   2    -0.125547247535E+03   -0.34027E-05   -0.10374E-04 17328   0.438E-02    0.133E-02
DAV:   3    -0.125547246387E+03    0.11476E-05   -0.93588E-06 20688   0.132E-02    0.344E-03
DAV:   4    -0.125547246318E+03    0.69416E-07   -0.30746E-06 14208   0.875E-03
  61 F= -.12713199E+03 E0= -.12713121E+03  d E =-.383312E-04  mag=     0.0000
 curvature:  -7.71 expect dE=-0.115E-02 dE for cont linesearch -0.421E-07
 trial: gam= 3.59518 g(F)=  0.149E-03 g(S)=  0.000E+00 ort = 0.154E-05 (trialstep = 0.306E-01)
 search vector abs. value=  0.580E-02
 bond charge predicted
       N       E                     dE             d eps       ncg     rms          rms(c)
DAV:   1    -0.125547268839E+03   -0.22451E-04   -0.45839E-04 15888   0.917E-02    0.351E-03
DAV:   2    -0.125547268854E+03   -0.15211E-07   -0.38737E-06 19584   0.951E-03
  62 F= -.12713200E+03 E0= -.12713121E+03  d E =-.438620E-05  mag=    -0.0000
 ZBRENT: can't locate minimum, use default step
 trial-energy change:   -0.000004  1 .order   -0.000005   -0.000005   -0.000004
 step:   0.1223(harm=  0.5253)  dis= 0.00065  next Energy=  -127.132032 (dE=-0.407E-04)
 bond charge predicted
       N       E                     dE             d eps       ncg     rms          rms(c)
DAV:   1    -0.125547335206E+03   -0.66367E-04   -0.41095E-03 15264   0.274E-01    0.116E-02
DAV:   2    -0.125547336084E+03   -0.87766E-06   -0.29422E-05 14208   0.241E-02    0.778E-03
DAV:   3    -0.125547336253E+03   -0.16910E-06   -0.40667E-06 16608   0.100E-02
  63 F= -.12713201E+03 E0= -.12713123E+03  d E =-.172002E-04  mag=    -0.0000
 curvature:  -3.31 expect dE=-0.360E-03 dE for cont linesearch -0.794E-05
 ZBRENT: increasing intervall
 opt :   0.3059  next Energy=  -127.132025 (dE=-0.337E-04)
 bond charge predicted
       N       E                     dE             d eps       ncg     rms          rms(c)
DAV:   1    -0.125547459132E+03   -0.12305E-03   -0.16503E-02 14208   0.549E-01    0.219E-02
DAV:   2    -0.125547465138E+03   -0.60059E-05   -0.12834E-04 17472   0.486E-02    0.152E-02
DAV:   3    -0.125547464138E+03    0.10001E-05   -0.98485E-06 15408   0.141E-02    0.380E-03
DAV:   4    -0.125547463999E+03    0.13877E-06   -0.35582E-06 14208   0.955E-03
  64 F= -.12713203E+03 E0= -.12713125E+03  d E =-.358151E-04  mag=    -0.0000
 curvature:  -6.89 expect dE=-0.666E-03 dE for cont linesearch -0.707E-05
 ZBRENT: increasing intervall
 opt :   0.6729  next Energy=  -127.132041 (dE=-0.492E-04)
 bond charge predicted
       N       E                     dE             d eps       ncg     rms          rms(c)
DAV:   1    -0.125547679013E+03   -0.21488E-03   -0.66031E-02 14208   0.110E+00    0.438E-02
DAV:   2    -0.125547702309E+03   -0.23296E-04   -0.50245E-04 20640   0.949E-02    0.303E-02
DAV:   3    -0.125547695850E+03    0.64583E-05   -0.33895E-05 14736   0.231E-02    0.683E-03
DAV:   4    -0.125547695830E+03    0.20267E-07   -0.58981E-06 14592   0.111E-02
  65 F= -.12713204E+03 E0= -.12713126E+03  d E =-.494619E-04  mag=    -0.0000
 curvature: -13.00 expect dE=-0.334E-02 dE for cont linesearch -0.199E-06
 trial: gam= 1.73723 g(F)=  0.257E-03 g(S)=  0.000E+00 ort =-0.943E-05 (trialstep = 0.520E-01)
 search vector abs. value=  0.177E-01
 bond charge predicted
       N       E                     dE             d eps       ncg     rms          rms(c)
DAV:   1    -0.125547759880E+03   -0.64029E-04   -0.39306E-03 14208   0.268E-01    0.108E-02
DAV:   2    -0.125547761434E+03   -0.15548E-05   -0.30663E-05 14784   0.246E-02    0.756E-03
DAV:   3    -0.125547761665E+03   -0.23075E-06   -0.30210E-06 14352   0.890E-03
  66 F= -.12713205E+03 E0= -.12713127E+03  d E =-.128914E-04  mag=    -0.0000
 ZBRENT: can't locate minimum, use default step
 trial-energy change:   -0.000013  1 .order   -0.000012   -0.000013   -0.000012
 step:   0.2081(harm=  1.9247)  dis= 0.00173  next Energy=  -127.132273 (dE=-0.231E-03)
 bond charge predicted
       N       E                     dE             d eps       ncg     rms          rms(c)
DAV:   1    -0.125547945131E+03   -0.18370E-03   -0.35253E-02 14208   0.803E-01    0.315E-02
DAV:   2    -0.125547958729E+03   -0.13598E-04   -0.25967E-04 15216   0.686E-02    0.219E-02
DAV:   3    -0.125547956436E+03    0.22933E-05   -0.16157E-05 14688   0.178E-02    0.560E-03
DAV:   4    -0.125547956396E+03    0.40305E-07   -0.39769E-06 14208   0.101E-02
  67 F= -.12713209E+03 E0= -.12713131E+03  d E =-.489210E-04  mag=     0.0000
 curvature: -11.34 expect dE=-0.260E-02 dE for cont linesearch -0.278E-04
 ZBRENT: increasing intervall
 opt :   0.5203  next Energy=  -127.132147 (dE=-0.106E-03)
 bond charge predicted
       N       E                     dE             d eps       ncg     rms          rms(c)
DAV:   1    -0.125548294931E+03   -0.33849E-03   -0.14116E-01 14208   0.161E+00    0.631E-02
DAV:   2    -0.125548348508E+03   -0.53577E-04   -0.10210E-03 15456   0.136E-01    0.439E-02
DAV:   3    -0.125548336623E+03    0.11885E-04   -0.61025E-05 14784   0.324E-02    0.107E-02
DAV:   4    -0.125548336788E+03   -0.16548E-06   -0.91747E-06 14304   0.142E-02
  68 F= -.12713215E+03 E0= -.12713137E+03  d E =-.112143E-03  mag=     0.0000
 curvature: -23.32 expect dE=-0.533E-02 dE for cont linesearch -0.332E-04
 ZBRENT: increasing intervall
 opt :   1.1448  next Energy=  -127.132222 (dE=-0.181E-03)
 bond charge predicted
       N       E                     dE             d eps       ncg     rms          rms(c)
DAV:   1    -0.125548897578E+03   -0.56096E-03   -0.56466E-01 14208   0.321E+00    0.126E-01
DAV:   2    -0.125549113033E+03   -0.21545E-03   -0.40634E-03 16944   0.271E-01    0.878E-02
DAV:   3    -0.125549059766E+03    0.53268E-04   -0.23801E-04 15504   0.620E-02    0.205E-02
DAV:   4    -0.125549060331E+03   -0.56517E-06   -0.31296E-05 15072   0.247E-02    0.634E-03
DAV:   5    -0.125549060724E+03   -0.39301E-06   -0.82200E-06 14208   0.141E-02
  69 F= -.12713224E+03 E0= -.12713146E+03  d E =-.202014E-03  mag=     0.0000
 curvature: -48.00 expect dE=-0.172E-01 dE for cont linesearch -0.289E-04
 ZBRENT: increasing intervall
 opt :   2.3936  next Energy=  -127.132303 (dE=-0.261E-03)
 bond charge predicted
       N       E                     dE             d eps       ncg     rms          rms(c)
DAV:   1    -0.125549730941E+03   -0.67061E-03   -0.22571E+00 14208   0.643E+00    0.252E-01
DAV:   2    -0.125550579531E+03   -0.84859E-03   -0.16139E-02 17712   0.539E-01    0.175E-01
DAV:   3    -0.125550355867E+03    0.22366E-03   -0.94385E-04 19632   0.120E-01    0.406E-02
DAV:   4    -0.125550356717E+03   -0.84987E-06   -0.10611E-04 16896   0.427E-02    0.123E-02
DAV:   5    -0.125550356882E+03   -0.16483E-06   -0.18030E-05 14592   0.198E-02    0.512E-03
DAV:   6    -0.125550357887E+03   -0.10055E-05   -0.11828E-05 14304   0.173E-02    0.227E-03
DAV:   7    -0.125550353248E+03    0.46392E-05   -0.39253E-06 20640   0.973E-03    0.670E-04
DAV:   8    -0.125550353272E+03   -0.23823E-07   -0.13525E-07 21888   0.171E-03
  70 F= -.12713227E+03 E0= -.12713149E+03  d E =-.228431E-03  mag=    -0.0000
 curvature: -98.79 expect dE=-0.115E+00 dE for cont linesearch -0.161E-04
 ZBRENT: bracketing found
 ZBRENT: interpolating
 opt :   1.9662  next Energy=  -127.132281 (dE=-0.240E-03)
 bond charge predicted
       N       E                     dE             d eps       ncg     rms          rms(c)
DAV:   1    -0.125549861239E+03    0.49201E-03   -0.26440E-01 14208   0.220E+00    0.863E-02
DAV:   2    -0.125549960417E+03   -0.99178E-04   -0.19003E-03 21984   0.183E-01    0.603E-02
DAV:   3    -0.125549933463E+03    0.26955E-04   -0.10286E-04 16512   0.383E-02    0.127E-02
DAV:   4    -0.125549933773E+03   -0.31076E-06   -0.13147E-05 18192   0.135E-02    0.411E-03
DAV:   5    -0.125549933771E+03    0.29922E-08   -0.11015E-06 23184   0.391E-03
  71 F= -.12713228E+03 E0= -.12713150E+03  d E =-.241969E-03  mag=     0.0000
 curvature: -70.56 expect dE=-0.569E-01 dE for cont linesearch -0.645E-08
 trial: gam= 2.80675 g(F)=  0.807E-03 g(S)=  0.000E+00 ort = 0.127E-05 (trialstep = 0.549E-01)
 search vector abs. value=  0.141E+00
 bond charge predicted
       N       E                     dE             d eps       ncg     rms          rms(c)
DAV:   1    -0.125550122607E+03   -0.18883E-03   -0.34855E-02 14208   0.800E-01    0.312E-02
DAV:   2    -0.125550135008E+03   -0.12402E-04   -0.25085E-04 27264   0.668E-02    0.219E-02
DAV:   3    -0.125550131672E+03    0.33361E-05   -0.14275E-05 15024   0.142E-02    0.445E-03
DAV:   4    -0.125550131752E+03   -0.80169E-07   -0.19432E-06 15936   0.559E-03
  72 F= -.12713233E+03 E0= -.12713154E+03  d E =-.425967E-04  mag=     0.0000
 ZBRENT: can't locate minimum, use default step
 trial-energy change:   -0.000043  1 .order   -0.000042   -0.000044   -0.000040
 step:   0.2195(harm=  0.5857)  dis= 0.00498  next Energy=  -127.132520 (dE=-0.237E-03)
 bond charge predicted
       N       E                     dE             d eps       ncg     rms          rms(c)
DAV:   1    -0.125550618655E+03   -0.48698E-03   -0.31394E-01 14208   0.240E+00    0.940E-02
DAV:   2    -0.125550732527E+03   -0.11387E-03   -0.22131E-03 14304   0.200E-01    0.649E-02
DAV:   3    -0.125550703544E+03    0.28984E-04   -0.13692E-04 19056   0.466E-02    0.161E-02
DAV:   4    -0.125550704121E+03   -0.57684E-06   -0.13797E-05 19728   0.146E-02    0.489E-03
DAV:   5    -0.125550703995E+03    0.12598E-06   -0.18096E-06 15360   0.537E-03
  73 F= -.12713243E+03 E0= -.12713165E+03  d E =-.149076E-03  mag=    -0.0000
 curvature: -26.63 expect dE=-0.128E-01 dE for cont linesearch -0.581E-04
 ZBRENT: increasing intervall
 opt :   0.5488  next Energy=  -127.132555 (dE=-0.272E-03)
 bond charge predicted
       N       E                     dE             d eps       ncg     rms          rms(c)
DAV:   1    -0.125551422047E+03   -0.71793E-03   -0.12555E+00 14208   0.480E+00    0.187E-01
DAV:   2    -0.125551878281E+03   -0.45623E-03   -0.88390E-03 14784   0.400E-01    0.129E-01
DAV:   3    -0.125551756803E+03    0.12148E-03   -0.54747E-04 21696   0.926E-02    0.320E-02
DAV:   4    -0.125551757980E+03   -0.11776E-05   -0.53023E-05 22320   0.289E-02    0.965E-03
DAV:   5    -0.125551757480E+03    0.50001E-06   -0.67326E-06 15456   0.106E-02
  74 F= -.12713255E+03 E0= -.12713177E+03  d E =-.271179E-03  mag=    -0.0000
 curvature: -56.34 expect dE=-0.386E-01 dE for cont linesearch -0.128E-04
 ZBRENT: extrapolating
 opt :   0.7062  next Energy=  -127.132568 (dE=-0.285E-03)
 bond charge predicted
       N       E                     dE             d eps       ncg     rms          rms(c)
DAV:   1    -0.125552137817E+03   -0.37984E-03   -0.28687E-01 14208   0.229E+00    0.893E-02
DAV:   2    -0.125552244656E+03   -0.10684E-03   -0.20534E-03 14880   0.193E-01    0.618E-02
DAV:   3    -0.125552219022E+03    0.25634E-04   -0.12600E-04 14976   0.463E-02    0.155E-02
DAV:   4    -0.125552219415E+03   -0.39334E-06   -0.17180E-05 14400   0.191E-02    0.483E-03
DAV:   5    -0.125552219872E+03   -0.45606E-06   -0.58790E-06 16512   0.121E-02
  75 F= -.12713257E+03 E0= -.12713179E+03  d E =-.288807E-03  mag=     0.0000
 curvature: -61.78 expect dE=-0.667E-01 dE for cont linesearch -0.476E-07
 trial: gam= 1.35821 g(F)=  0.108E-02 g(S)=  0.000E+00 ort = 0.104E-04 (trialstep = 0.999E-01)
 search vector abs. value=  0.260E+00
 bond charge predicted
       N       E                     dE             d eps       ncg     rms          rms(c)
DAV:   1    -0.125552639624E+03   -0.42021E-03   -0.21622E-01 14208   0.199E+00    0.775E-02
DAV:   2    -0.125552720148E+03   -0.80525E-04   -0.15651E-03 16128   0.168E-01    0.538E-02
DAV:   3    -0.125552700188E+03    0.19960E-04   -0.95597E-05 15648   0.395E-02    0.133E-02
DAV:   4    -0.125552700562E+03   -0.37416E-06   -0.12404E-05 14544   0.157E-02    0.410E-03
DAV:   5    -0.125552700881E+03   -0.31871E-06   -0.36513E-06 16944   0.936E-03
  76 F= -.12713268E+03 E0= -.12713189E+03  d E =-.103148E-03  mag=     0.0000
 ZBRENT: can't locate minimum, use default step
 trial-energy change:   -0.000103  1 .order   -0.000103   -0.000109   -0.000097
 step:   0.3997(harm=  0.9094)  dis= 0.01273  next Energy=  -127.133069 (dE=-0.497E-03)
 bond charge predicted
       N       E                     dE             d eps       ncg     rms          rms(c)
DAV:   1    -0.125553573338E+03   -0.87278E-03   -0.19458E+00 14208   0.598E+00    0.233E-01
DAV:   2    -0.125554265169E+03   -0.69183E-03   -0.13682E-02 16176   0.498E-01    0.161E-01
DAV:   3    -0.125554069494E+03    0.19567E-03   -0.86116E-04 21264   0.115E-01    0.389E-02
DAV:   4    -0.125554071013E+03   -0.15187E-05   -0.84668E-05 20064   0.366E-02    0.118E-02
DAV:   5    -0.125554070534E+03    0.47852E-06   -0.11199E-05 16464   0.141E-02    0.452E-03
DAV:   6    -0.125554071497E+03   -0.96261E-06   -0.54477E-06 18336   0.118E-02
  77 F= -.12713291E+03 E0= -.12713213E+03  d E =-.341878E-03  mag=     0.0000
 curvature: -65.36 expect dE=-0.366E-01 dE for cont linesearch -0.954E-04
 ZBRENT: increasing intervall
 opt :   0.9994  next Energy=  -127.133069 (dE=-0.497E-03)
 bond charge predicted
       N       E                     dE             d eps       ncg     rms          rms(c)
DAV:   1    -0.125554469474E+03   -0.39894E-03   -0.77785E+00 14208   0.119E+01    0.466E-01
DAV:   2    -0.125557277641E+03   -0.28082E-02   -0.55001E-02 16176   0.996E-01    0.322E-01
DAV:   3    -0.125556479040E+03    0.79860E-03   -0.34420E-03 25488   0.227E-01    0.797E-02
DAV:   4    -0.125556478331E+03    0.70912E-06   -0.31130E-04 22800   0.680E-02    0.232E-02
DAV:   5    -0.125556473976E+03    0.43553E-05   -0.32272E-05 19248   0.204E-02    0.882E-03
DAV:   6    -0.125556474518E+03   -0.54255E-06   -0.53479E-06 19152   0.980E-03
  78 F= -.12713306E+03 E0= -.12713228E+03  d E =-.488295E-03  mag=     0.0000
 curvature: ****** expect dE=-0.167E+00 dE for cont linesearch -0.387E-05
 trial: gam= 1.61034 g(F)=  0.157E-02 g(S)=  0.000E+00 ort =-0.972E-04 (trialstep = 0.108E+00)
 search vector abs. value=  0.677E+00
 bond charge predicted
       N       E                     dE             d eps       ncg     rms          rms(c)
DAV:   1    -0.125557069230E+03   -0.59525E-03   -0.64902E-01 14208   0.345E+00    0.135E-01
DAV:   2    -0.125557300170E+03   -0.23094E-03   -0.45285E-03 19200   0.286E-01    0.932E-02
DAV:   3    -0.125557234787E+03    0.65383E-04   -0.27805E-04 20736   0.642E-02    0.211E-02
DAV:   4    -0.125557235588E+03   -0.80129E-06   -0.28871E-05 15504   0.216E-02    0.663E-03
DAV:   5    -0.125557235976E+03   -0.38767E-06   -0.41823E-06 21408   0.895E-03
  79 F= -.12713319E+03 E0= -.12713240E+03  d E =-.126633E-03  mag=     0.0000
 trial-energy change:   -0.000127  1 .order   -0.000127   -0.000152   -0.000101
 step:   0.3228(harm=  0.3228)  dis= 0.01642  next Energy=  -127.133288 (dE=-0.228E-03)
 bond charge predicted
       N       E                     dE             d eps       ncg     rms          rms(c)
DAV:   1    -0.125557956260E+03   -0.72067E-03   -0.25875E+00 14208   0.689E+00    0.269E-01
DAV:   2    -0.125558871915E+03   -0.91565E-03   -0.17983E-02 15552   0.571E-01    0.186E-01
DAV:   3    -0.125558614942E+03    0.25697E-03   -0.11069E-03 19248   0.131E-01    0.451E-02
DAV:   4    -0.125558617609E+03   -0.26677E-05   -0.11080E-04 16464   0.421E-02    0.136E-02
DAV:   5    -0.125558617287E+03    0.32258E-06   -0.16458E-05 18576   0.172E-02    0.525E-03
DAV:   6    -0.125558618183E+03   -0.89642E-06   -0.69420E-06 18336   0.133E-02
  80 F= -.12713330E+03 E0= -.12713252E+03  d E =-.243898E-03  mag=    -0.0000
 curvature: -77.26 expect dE=-0.512E-01 dE for cont linesearch -0.103E-05
 trial: gam= 0.16707 g(F)=  0.663E-03 g(S)=  0.000E+00 ort = 0.948E-04 (trialstep = 0.151E+00)
 search vector abs. value=  0.196E-01
 bond charge predicted
       N       E                     dE             d eps       ncg     rms          rms(c)
DAV:   1    -0.125558818527E+03   -0.20124E-03   -0.35562E-02 14208   0.808E-01    0.320E-02
DAV:   2    -0.125558831365E+03   -0.12838E-04   -0.26736E-04 17568   0.688E-02    0.221E-02
DAV:   3    -0.125558828587E+03    0.27783E-05   -0.15182E-05 17952   0.158E-02    0.597E-03
DAV:   4    -0.125558828943E+03   -0.35592E-06   -0.20048E-06 24336   0.636E-03
  81 F= -.12713339E+03 E0= -.12713261E+03  d E =-.880009E-04  mag=     0.0000
 trial-energy change:   -0.000088  1 .order   -0.000088   -0.000102   -0.000074
 step:   0.5380(harm=  0.5380)  dis= 0.00540  next Energy=  -127.133487 (dE=-0.183E-03)
 bond charge predicted
       N       E                     dE             d eps       ncg     rms          rms(c)
DAV:   1    -0.125559192241E+03   -0.36365E-03   -0.23489E-01 14208   0.207E+00    0.832E-02
DAV:   2    -0.125559270765E+03   -0.78525E-04   -0.17065E-03 27648   0.173E-01    0.578E-02
DAV:   3    -0.125559246427E+03    0.24338E-04   -0.91071E-05 16944   0.359E-02    0.126E-02
DAV:   4    -0.125559246881E+03   -0.45415E-06   -0.12079E-05 15696   0.142E-02    0.406E-03
DAV:   5    -0.125559247060E+03   -0.17839E-06   -0.15776E-06 19536   0.601E-03
  82 F= -.12713349E+03 E0= -.12713271E+03  d E =-.190630E-03  mag=     0.0000
 curvature:  -7.76 expect dE=-0.234E-02 dE for cont linesearch -0.277E-06
 trial: gam= 0.45958 g(F)=  0.302E-03 g(S)=  0.000E+00 ort = 0.264E-04 (trialstep = 0.228E+00)
 search vector abs. value=  0.446E-02
 bond charge predicted
       N       E                     dE             d eps       ncg     rms          rms(c)
DAV:   1    -0.125559358447E+03   -0.11157E-03   -0.19051E-02 14208   0.590E-01    0.242E-02
DAV:   2    -0.125559363963E+03   -0.55160E-05   -0.14173E-04 23808   0.511E-02    0.165E-02
DAV:   3    -0.125559362416E+03    0.15474E-05   -0.10719E-05 18576   0.138E-02    0.386E-03
DAV:   4    -0.125559362398E+03    0.17885E-07   -0.28745E-06 15024   0.847E-03
  83 F= -.12713355E+03 E0= -.12713277E+03  d E =-.586449E-04  mag=     0.0000
 trial-energy change:   -0.000059  1 .order   -0.000058   -0.000072   -0.000044
 step:   0.5896(harm=  0.5896)  dis= 0.00275  next Energy=  -127.133587 (dE=-0.925E-04)
 bond charge predicted
       N       E                     dE             d eps       ncg     rms          rms(c)
DAV:   1    -0.125559479104E+03   -0.11669E-03   -0.47800E-02 14208   0.934E-01    0.385E-02
DAV:   2    -0.125559493252E+03   -0.14149E-04   -0.35467E-04 24912   0.800E-02    0.263E-02
DAV:   3    -0.125559488205E+03    0.50470E-05   -0.24770E-05 15312   0.194E-02    0.592E-03
DAV:   4    -0.125559488254E+03   -0.48711E-07   -0.40107E-06 15696   0.894E-03
  84 F= -.12713359E+03 E0= -.12713281E+03  d E =-.946740E-04  mag=    -0.0000
 curvature:  -4.19 expect dE=-0.112E-02 dE for cont linesearch -0.284E-08
 trial: gam= 0.92249 g(F)=  0.267E-03 g(S)=  0.000E+00 ort = 0.174E-05 (trialstep = 0.300E+00)
 search vector abs. value=  0.407E-02
 bond charge predicted
       N       E                     dE             d eps       ncg     rms          rms(c)
DAV:   1    -0.125559573373E+03   -0.85168E-04   -0.30774E-02 14208   0.747E-01    0.314E-02
DAV:   2    -0.125559580356E+03   -0.69833E-05   -0.22613E-04 23904   0.640E-02    0.210E-02
DAV:   3    -0.125559576948E+03    0.34087E-05   -0.19220E-05 17280   0.165E-02    0.485E-03
DAV:   4    -0.125559576901E+03    0.46769E-07   -0.33024E-06 14208   0.781E-03
  85 F= -.12713365E+03 E0= -.12713286E+03  d E =-.570033E-04  mag=    -0.0000
 trial-energy change:   -0.000057  1 .order   -0.000056   -0.000081   -0.000032
 step:   0.4957(harm=  0.4957)  dis= 0.00255  next Energy=  -127.133656 (dE=-0.665E-04)
 bond charge predicted
       N       E                     dE             d eps       ncg     rms          rms(c)
DAV:   1    -0.125559606476E+03   -0.29529E-04   -0.12990E-02 14208   0.486E-01    0.205E-02
DAV:   2    -0.125559609482E+03   -0.30057E-05   -0.95611E-05 18192   0.418E-02    0.136E-02
DAV:   3    -0.125559608218E+03    0.12641E-05   -0.83467E-06 16416   0.114E-02    0.340E-03
DAV:   4    -0.125559608221E+03   -0.29804E-08   -0.15091E-06 14400   0.552E-03
  86 F= -.12713366E+03 E0= -.12713288E+03  d E =-.678361E-04  mag=    -0.0000
 curvature:  -3.76 expect dE=-0.402E-03 dE for cont linesearch -0.480E-10
 trial: gam= 0.38648 g(F)=  0.107E-03 g(S)=  0.000E+00 ort =-0.228E-06 (trialstep = 0.340E+00)
 search vector abs. value=  0.714E-03
 bond charge predicted
       N       E                     dE             d eps       ncg     rms          rms(c)
DAV:   1    -0.125559599836E+03    0.83822E-05   -0.69792E-03 14208   0.358E-01    0.150E-02
DAV:   2    -0.125559601809E+03   -0.19737E-05   -0.55144E-05 22320   0.321E-02    0.100E-02
DAV:   3    -0.125559601187E+03    0.62244E-06   -0.44031E-06 17568   0.862E-03
  87 F= -.12713368E+03 E0= -.12713290E+03  d E =-.263934E-04  mag=     0.0000
 trial-energy change:   -0.000026  1 .order   -0.000026   -0.000036   -0.000016
 step:   0.5976(harm=  0.5976)  dis= 0.00103  next Energy=  -127.133689 (dE=-0.320E-04)
 bond charge predicted
       N       E                     dE             d eps       ncg     rms          rms(c)
DAV:   1    -0.125559581648E+03    0.20161E-04   -0.40334E-03 14208   0.272E-01    0.117E-02
DAV:   2    -0.125559582839E+03   -0.11912E-05   -0.31772E-05 15840   0.247E-02    0.779E-03
DAV:   3    -0.125559582554E+03    0.28546E-06   -0.29432E-06 18864   0.756E-03
  88 F= -.12713369E+03 E0= -.12713291E+03  d E =-.331168E-04  mag=    -0.0000
 curvature:  -1.99 expect dE=-0.267E-03 dE for cont linesearch -0.961E-08
 trial: gam= 1.22739 g(F)=  0.134E-03 g(S)=  0.000E+00 ort = 0.186E-05 (trialstep = 0.230E+00)
 search vector abs. value=  0.121E-02
 bond charge predicted
       N       E                     dE             d eps       ncg     rms          rms(c)
DAV:   1    -0.125559548078E+03    0.34761E-04   -0.54309E-03 14208   0.315E-01    0.131E-02
DAV:   2    -0.125559549411E+03   -0.13330E-05   -0.43951E-05 15168   0.287E-02    0.875E-03
DAV:   3    -0.125559548991E+03    0.42016E-06   -0.36125E-06 20880   0.820E-03
  89 F= -.12713372E+03 E0= -.12713293E+03  d E =-.262111E-04  mag=     0.0000
 trial-energy change:   -0.000026  1 .order   -0.000026   -0.000031   -0.000020
 step:   0.6636(harm=  0.6636)  dis= 0.00161  next Energy=  -127.133735 (dE=-0.451E-04)
 bond charge predicted
       N       E                     dE             d eps       ncg     rms          rms(c)
DAV:   1    -0.125559453514E+03    0.95897E-04   -0.19294E-02 14208   0.594E-01    0.246E-02
DAV:   2    -0.125559458446E+03   -0.49322E-05   -0.15389E-04 15840   0.533E-02    0.163E-02
DAV:   3    -0.125559456748E+03    0.16977E-05   -0.12027E-05 20448   0.142E-02    0.440E-03
DAV:   4    -0.125559456879E+03   -0.13092E-06   -0.20041E-06 14400   0.686E-03
  90 F= -.12713374E+03 E0= -.12713296E+03  d E =-.467939E-04  mag=    -0.0000
 curvature:  -2.96 expect dE=-0.265E-03 dE for cont linesearch -0.882E-08
 trial: gam= 0.72217 g(F)=  0.896E-04 g(S)=  0.000E+00 ort = 0.190E-05 (trialstep = 0.317E+00)
 search vector abs. value=  0.726E-03
 bond charge predicted
       N       E                     dE             d eps       ncg     rms          rms(c)
DAV:   1    -0.125559380089E+03    0.76659E-04   -0.63180E-03 14688   0.339E-01    0.138E-02
DAV:   2    -0.125559382087E+03   -0.19977E-05   -0.56673E-05 14304   0.326E-02    0.927E-03
DAV:   3    -0.125559381547E+03    0.53969E-06   -0.47419E-06 18288   0.972E-03
  91 F= -.12713376E+03 E0= -.12713298E+03  d E =-.250698E-04  mag=    -0.0000
 trial-energy change:   -0.000025  1 .order   -0.000025   -0.000029   -0.000020
 step:   1.0699(harm=  1.0699)  dis= 0.00192  next Energy=  -127.133786 (dE=-0.487E-04)
 bond charge predicted
       N       E                     dE             d eps       ncg     rms          rms(c)
DAV:   1    -0.125559162506E+03    0.21958E-03   -0.35670E-02 14208   0.805E-01    0.328E-02
DAV:   2    -0.125559174352E+03   -0.11846E-04   -0.31749E-04 15936   0.765E-02    0.221E-02
DAV:   3    -0.125559170855E+03    0.34970E-05   -0.23511E-05 18960   0.200E-02    0.601E-03
DAV:   4    -0.125559170989E+03   -0.13357E-06   -0.39509E-06 14592   0.972E-03
  92 F= -.12713379E+03 E0= -.12713301E+03  d E =-.531613E-04  mag=    -0.0000
 curvature:  -4.27 expect dE=-0.890E-03 dE for cont linesearch -0.143E-06
 trial: gam= 2.28550 g(F)=  0.209E-03 g(S)=  0.000E+00 ort = 0.493E-05 (trialstep = 0.843E-01)
 search vector abs. value=  0.402E-02
 bond charge predicted
       N       E                     dE             d eps       ncg     rms          rms(c)
DAV:   1    -0.125559116013E+03    0.54842E-04   -0.24896E-03 14832   0.213E-01    0.857E-03
DAV:   2    -0.125559117045E+03   -0.10325E-05   -0.24515E-05 15408   0.222E-02    0.587E-03
DAV:   3    -0.125559117002E+03    0.42901E-07   -0.27977E-06 16128   0.853E-03
  93 F= -.12713381E+03 E0= -.12713303E+03  d E =-.182391E-04  mag=     0.0000
 ZBRENT: can't locate minimum, use default step
 trial-energy change:   -0.000018  1 .order   -0.000018   -0.000019   -0.000017
 step:   0.3373(harm=  1.0517)  dis= 0.00128  next Energy=  -127.133906 (dE=-0.116E-03)
 bond charge predicted
       N       E                     dE             d eps       ncg     rms          rms(c)
DAV:   1    -0.125558938494E+03    0.17855E-03   -0.22301E-02 14208   0.637E-01    0.252E-02
DAV:   2    -0.125558947377E+03   -0.88833E-05   -0.20767E-04 18432   0.617E-02    0.173E-02
DAV:   3    -0.125558945472E+03    0.19051E-05   -0.13622E-05 18816   0.159E-02    0.480E-03
DAV:   4    -0.125558945606E+03   -0.13345E-06   -0.39612E-06 14496   0.101E-02
  94 F= -.12713385E+03 E0= -.12713307E+03  d E =-.635481E-04  mag=     0.0000
 curvature:  -4.37 expect dE=-0.492E-03 dE for cont linesearch -0.239E-04
 ZBRENT: increasing intervall
 opt :   0.8434  next Energy=  -127.133902 (dE=-0.111E-03)
 bond charge predicted
       N       E                     dE             d eps       ncg     rms          rms(c)
DAV:   1    -0.125558535676E+03    0.40980E-03   -0.89283E-02 14352   0.127E+00    0.505E-02
DAV:   2    -0.125558569130E+03   -0.33454E-04   -0.81072E-04 19104   0.121E-01    0.345E-02
DAV:   3    -0.125558560564E+03    0.85653E-05   -0.50450E-05 19152   0.279E-02    0.904E-03
DAV:   4    -0.125558560683E+03   -0.11873E-06   -0.78081E-06 18000   0.125E-02
  95 F= -.12713390E+03 E0= -.12713312E+03  d E =-.112264E-03  mag=     0.0000
 curvature:  -8.73 expect dE=-0.182E-02 dE for cont linesearch -0.315E-05
 trial: gam= 0.95142 g(F)=  0.208E-03 g(S)=  0.000E+00 ort = 0.381E-04 (trialstep = 0.236E+00)
 search vector abs. value=  0.392E-02
 bond charge predicted
       N       E                     dE             d eps       ncg     rms          rms(c)
DAV:   1    -0.125558382512E+03    0.17805E-03   -0.18515E-02 14688   0.578E-01    0.232E-02
DAV:   2    -0.125558391347E+03   -0.88350E-05   -0.18232E-04 18576   0.577E-02    0.160E-02
DAV:   3    -0.125558389745E+03    0.16013E-05   -0.11824E-05 19632   0.151E-02    0.443E-03
DAV:   4    -0.125558389718E+03    0.27441E-07   -0.40385E-06 14688   0.102E-02
  96 F= -.12713396E+03 E0= -.12713318E+03  d E =-.550701E-04  mag=    -0.0000
 ZBRENT: can't locate minimum, use default step
 trial-energy change:   -0.000055  1 .order   -0.000054   -0.000058   -0.000051
 step:   0.9446(harm=  1.9726)  dis= 0.00373  next Energy=  -127.134144 (dE=-0.241E-03)
 bond charge predicted
       N       E                     dE             d eps       ncg     rms          rms(c)
DAV:   1    -0.125557776796E+03    0.61295E-03   -0.16631E-01 14208   0.173E+00    0.690E-02
DAV:   2    -0.125557848926E+03   -0.72131E-04   -0.15913E-03 19872   0.169E-01    0.474E-02
DAV:   3    -0.125557832617E+03    0.16310E-04   -0.94364E-05 19632   0.377E-02    0.128E-02
DAV:   4    -0.125557832586E+03    0.30041E-07   -0.14477E-05 22896   0.154E-02    0.428E-03
DAV:   5    -0.125557832399E+03    0.18789E-06   -0.19279E-06 16368   0.659E-03
  97 F= -.12713408E+03 E0= -.12713330E+03  d E =-.176392E-03  mag=     0.0000
 curvature: -10.28 expect dE=-0.302E-02 dE for cont linesearch -0.408E-04
 ZBRENT: increasing intervall
 opt :   2.3614  next Energy=  -127.134128 (dE=-0.225E-03)
 bond charge predicted
       N       E                     dE             d eps       ncg     rms          rms(c)
DAV:   1    -0.125556305456E+03    0.15271E-02   -0.66515E-01 14208   0.346E+00    0.138E-01
DAV:   2    -0.125556591060E+03   -0.28560E-03   -0.62951E-03 20592   0.334E-01    0.944E-02
DAV:   3    -0.125556518113E+03    0.72947E-04   -0.37379E-04 20640   0.737E-02    0.250E-02
DAV:   4    -0.125556517985E+03    0.12780E-06   -0.53860E-05 25488   0.280E-02    0.838E-03
DAV:   5    -0.125556517671E+03    0.31400E-06   -0.44226E-06 18864   0.902E-03
  98 F= -.12713412E+03 E0= -.12713335E+03  d E =-.220808E-03  mag=     0.0000
 curvature: -12.31 expect dE=-0.231E-01 dE for cont linesearch -0.118E-04
 ZBRENT: bracketing found
 ZBRENT: interpolating
 opt :   1.8947  next Energy=  -127.134138 (dE=-0.235E-03)
 bond charge predicted
       N       E                     dE             d eps       ncg     rms          rms(c)
DAV:   1    -0.125556956192E+03   -0.43821E-03   -0.72088E-02 14208   0.114E+00    0.453E-02
DAV:   2    -0.125556988250E+03   -0.32058E-04   -0.70346E-04 21312   0.112E-01    0.313E-02
DAV:   3    -0.125556980670E+03    0.75805E-05   -0.41379E-05 19248   0.255E-02    0.855E-03
DAV:   4    -0.125556981083E+03   -0.41340E-06   -0.80350E-06 14880   0.132E-02
  99 F= -.12713414E+03 E0= -.12713336E+03  d E =-.236141E-03  mag=     0.0000
 curvature: -14.92 expect dE=-0.174E-01 dE for cont linesearch -0.150E-06
 trial: gam= 6.04741 g(F)=  0.116E-02 g(S)=  0.000E+00 ort = 0.627E-05 (trialstep = 0.154E-01)
 search vector abs. value=  0.145E+00
 bond charge predicted
       N       E                     dE             d eps       ncg     rms          rms(c)
DAV:   1    -0.125556907680E+03    0.72990E-04   -0.28685E-03 14784   0.228E-01    0.855E-03
DAV:   2    -0.125556909055E+03   -0.13753E-05   -0.29507E-05 25296   0.236E-02    0.592E-03
DAV:   3    -0.125556908722E+03    0.33367E-06   -0.21334E-06 14448   0.704E-03
 100 F= -.12713416E+03 E0= -.12713338E+03  d E =-.185314E-04  mag=     0.0000
 ZBRENT: can't locate minimum, use default step
 trial-energy change:   -0.000019  1 .order   -0.000018   -0.000018   -0.000018
 step:   0.0616(harm=  0.3166)  dis= 0.00147  next Energy=  -127.134329 (dE=-0.190E-03)
 bond charge predicted
       N       E                     dE             d eps       ncg     rms          rms(c)
DAV:   1    -0.125556676962E+03    0.23209E-03   -0.25935E-02 14208   0.683E-01    0.272E-02
DAV:   2    -0.125556688974E+03   -0.12011E-04   -0.25110E-04 20928   0.674E-02    0.189E-02
DAV:   3    -0.125556686596E+03    0.23782E-05   -0.14539E-05 19440   0.159E-02    0.514E-03
DAV:   4    -0.125556686633E+03   -0.36951E-07   -0.37657E-06 14208   0.965E-03
 101 F= -.12713421E+03 E0= -.12713343E+03  d E =-.692154E-04  mag=    -0.0000
 curvature:  -5.40 expect dE=-0.569E-02 dE for cont linesearch -0.405E-04
 ZBRENT: increasing intervall
 opt :   0.1539  next Energy=  -127.134295 (dE=-0.156E-03)
 bond charge predicted
       N       E                     dE             d eps       ncg     rms          rms(c)
DAV:   1    -0.125556194674E+03    0.49192E-03   -0.10389E-01 14208   0.137E+00    0.544E-02
DAV:   2    -0.125556240621E+03   -0.45948E-04   -0.99133E-04 19488   0.133E-01    0.375E-02
DAV:   3    -0.125556231017E+03    0.96041E-05   -0.56543E-05 19392   0.293E-02    0.991E-03
DAV:   4    -0.125556230980E+03    0.37346E-07   -0.87618E-06 21312   0.124E-02
 102 F= -.12713430E+03 E0= -.12713352E+03  d E =-.159484E-03  mag=    -0.0000
 curvature: -11.58 expect dE=-0.109E-01 dE for cont linesearch -0.605E-04
 ZBRENT: increasing intervall
 opt :   0.3387  next Energy=  -127.134427 (dE=-0.288E-03)
 bond charge predicted
       N       E                     dE             d eps       ncg     rms          rms(c)
DAV:   1    -0.125555131932E+03    0.10991E-02   -0.41558E-01 14208   0.273E+00    0.109E-01
DAV:   2    -0.125555316241E+03   -0.18431E-03   -0.39331E-03 19440   0.264E-01    0.748E-02
DAV:   3    -0.125555273616E+03    0.42625E-04   -0.22690E-04 20448   0.580E-02    0.195E-02
DAV:   4    -0.125555273918E+03   -0.30163E-06   -0.31937E-05 23280   0.224E-02    0.633E-03
DAV:   5    -0.125555273479E+03    0.43909E-06   -0.39250E-06 19536   0.894E-03
 103 F= -.12713443E+03 E0= -.12713365E+03  d E =-.295834E-03  mag=     0.0000
 curvature: -24.65 expect dE=-0.217E-01 dE for cont linesearch -0.561E-04
 ZBRENT: increasing intervall
 opt :   0.7081  next Energy=  -127.134537 (dE=-0.399E-03)
 bond charge predicted
       N       E                     dE             d eps       ncg     rms          rms(c)
DAV:   1    -0.125552625680E+03    0.26482E-02   -0.16614E+00 14208   0.547E+00    0.217E-01
DAV:   2    -0.125553359647E+03   -0.73397E-03   -0.15645E-02 21072   0.524E-01    0.149E-01
DAV:   3    -0.125553173306E+03    0.18634E-03   -0.89496E-04 21072   0.113E-01    0.385E-02
DAV:   4    -0.125553172049E+03    0.12566E-05   -0.12384E-04 26784   0.424E-02    0.125E-02
DAV:   5    -0.125553171000E+03    0.10496E-05   -0.11016E-05 16800   0.138E-02    0.456E-03
DAV:   6    -0.125553171476E+03   -0.47573E-06   -0.50625E-06 17616   0.114E-02
 104 F= -.12713453E+03 E0= -.12713374E+03  d E =-.388261E-03  mag=    -0.0000
 curvature: -45.22 expect dE=-0.655E-01 dE for cont linesearch -0.948E-06
 trial: gam= 0.84262 g(F)=  0.145E-02 g(S)=  0.000E+00 ort =-0.551E-04 (trialstep = 0.154E+00)
 search vector abs. value=  0.104E+00
 bond charge predicted
       N       E                     dE             d eps       ncg     rms          rms(c)
DAV:   1    -0.125552518028E+03    0.65297E-03   -0.21022E-01 14208   0.194E+00    0.774E-02
DAV:   2    -0.125552606202E+03   -0.88174E-04   -0.20178E-03 22896   0.188E-01    0.532E-02
DAV:   3    -0.125552582844E+03    0.23358E-04   -0.10854E-04 20256   0.392E-02    0.141E-02
DAV:   4    -0.125552583454E+03   -0.60954E-06   -0.15237E-05 16032   0.149E-02    0.450E-03
DAV:   5    -0.125552583836E+03   -0.38232E-06   -0.16293E-06 22080   0.525E-03
 105 F= -.12713471E+03 E0= -.12713393E+03  d E =-.185713E-03  mag=    -0.0000
 trial-energy change:   -0.000186  1 .order   -0.000186   -0.000216   -0.000155
 step:   0.5499(harm=  0.5499)  dis= 0.01106  next Energy=  -127.134912 (dE=-0.385E-03)
 bond charge predicted
       N       E                     dE             d eps       ncg     rms          rms(c)
DAV:   1    -0.125550398255E+03    0.21852E-02   -0.13910E+00 14208   0.500E+00    0.200E-01
DAV:   2    -0.125550956785E+03   -0.55853E-03   -0.13044E-02 22176   0.477E-01    0.137E-01
DAV:   3    -0.125550794602E+03    0.16218E-03   -0.75410E-04 20688   0.103E-01    0.352E-02
DAV:   4    -0.125550794400E+03    0.20209E-06   -0.99340E-05 26880   0.370E-02    0.115E-02
DAV:   5    -0.125550794036E+03    0.36414E-06   -0.69916E-06 17856   0.974E-03
 106 F= -.12713492E+03 E0= -.12713413E+03  d E =-.388914E-03  mag=    -0.0000
 curvature: -20.41 expect dE=-0.244E-01 dE for cont linesearch -0.586E-07
 trial: gam= 0.74166 g(F)=  0.119E-02 g(S)=  0.000E+00 ort = 0.173E-04 (trialstep = 0.233E+00)
 search vector abs. value=  0.584E-01
 bond charge predicted
       N       E                     dE             d eps       ncg     rms          rms(c)
DAV:   1    -0.125550073859E+03    0.72054E-03   -0.27918E-01 14208   0.224E+00    0.898E-02
DAV:   2    -0.125550177381E+03   -0.10352E-03   -0.26359E-03 22272   0.215E-01    0.610E-02
DAV:   3    -0.125550144252E+03    0.33129E-04   -0.16112E-04 20160   0.479E-02    0.158E-02
DAV:   4    -0.125550144799E+03   -0.54739E-06   -0.22821E-05 19008   0.190E-02    0.570E-03
DAV:   5    -0.125550145066E+03   -0.26635E-06   -0.24299E-06 16320   0.729E-03
 107 F= -.12713515E+03 E0= -.12713437E+03  d E =-.233061E-03  mag=     0.0000
 trial-energy change:   -0.000233  1 .order   -0.000231   -0.000281   -0.000180
 step:   0.6498(harm=  0.6498)  dis= 0.00958  next Energy=  -127.135308 (dE=-0.392E-03)
 bond charge predicted
       N       E                     dE             d eps       ncg     rms          rms(c)
DAV:   1    -0.125548514214E+03    0.16306E-02   -0.89150E-01 14208   0.399E+00    0.161E-01
DAV:   2    -0.125548837367E+03   -0.32315E-03   -0.83603E-03 23760   0.382E-01    0.110E-01
DAV:   3    -0.125548724956E+03    0.11241E-03   -0.50508E-04 20640   0.833E-02    0.276E-02
DAV:   4    -0.125548724957E+03   -0.10477E-08   -0.69211E-05 26064   0.308E-02    0.963E-03
DAV:   5    -0.125548725049E+03   -0.91602E-07   -0.40478E-06 16032   0.769E-03
 108 F= -.12713531E+03 E0= -.12713453E+03  d E =-.392082E-03  mag=    -0.0000
 curvature: -15.75 expect dE=-0.137E-01 dE for cont linesearch -0.708E-07
 trial: gam= 0.79609 g(F)=  0.870E-03 g(S)=  0.000E+00 ort =-0.162E-04 (trialstep = 0.316E+00)
 search vector abs. value=  0.379E-01
 bond charge predicted
       N       E                     dE             d eps       ncg     rms          rms(c)
DAV:   1    -0.125547887471E+03    0.83749E-03   -0.34350E-01 14208   0.247E+00    0.999E-02
DAV:   2    -0.125547995138E+03   -0.10767E-03   -0.32342E-03 22656   0.238E-01    0.671E-02
DAV:   3    -0.125547952391E+03    0.42746E-04   -0.21512E-04 20208   0.543E-02    0.178E-02
DAV:   4    -0.125547952622E+03   -0.23083E-06   -0.30446E-05 21408   0.206E-02    0.650E-03
DAV:   5    -0.125547952843E+03   -0.22106E-06   -0.19898E-06 18240   0.592E-03
 109 F= -.12713551E+03 E0= -.12713473E+03  d E =-.202134E-03  mag=     0.0000
 trial-energy change:   -0.000202  1 .order   -0.000200   -0.000271   -0.000130
 step:   0.6063(harm=  0.6063)  dis= 0.00783  next Energy=  -127.135568 (dE=-0.260E-03)
 bond charge predicted
       N       E                     dE             d eps       ncg     rms          rms(c)
DAV:   1    -0.125547065195E+03    0.88743E-03   -0.28809E-01 14208   0.227E+00    0.916E-02
DAV:   2    -0.125547154579E+03   -0.89383E-04   -0.27064E-03 22416   0.218E-01    0.615E-02
DAV:   3    -0.125547119261E+03    0.35318E-04   -0.18144E-04 19872   0.499E-02    0.163E-02
DAV:   4    -0.125547119607E+03   -0.34576E-06   -0.25469E-05 20160   0.187E-02    0.592E-03
DAV:   5    -0.125547119739E+03   -0.13210E-06   -0.16273E-06 20352   0.519E-03
 110 F= -.12713557E+03 E0= -.12713479E+03  d E =-.263100E-03  mag=     0.0000
 curvature: -13.41 expect dE=-0.494E-02 dE for cont linesearch -0.214E-09
 trial: gam= 0.37975 g(F)=  0.369E-03 g(S)=  0.000E+00 ort =-0.778E-06 (trialstep = 0.374E+00)
 search vector abs. value=  0.583E-02
 bond charge predicted
       N       E                     dE             d eps       ncg     rms          rms(c)
DAV:   1    -0.125546723752E+03    0.39585E-03   -0.73588E-02 14208   0.115E+00    0.478E-02
DAV:   2    -0.125546747875E+03   -0.24123E-04   -0.72539E-04 23712   0.114E-01    0.319E-02
DAV:   3    -0.125546738704E+03    0.91708E-05   -0.51002E-05 18528   0.272E-02    0.880E-03
DAV:   4    -0.125546738810E+03   -0.10638E-06   -0.83857E-06 19968   0.109E-02
 111 F= -.12713563E+03 E0= -.12713485E+03  d E =-.593868E-04  mag=    -0.0000
 trial-energy change:   -0.000059  1 .order   -0.000058   -0.000138    0.000022
 step:   0.3221(harm=  0.3221)  dis= 0.00159  next Energy=  -127.135630 (dE=-0.593E-04)
 bond charge predicted
       N       E                     dE             d eps       ncg     rms          rms(c)
DAV:   1    -0.125546801705E+03   -0.63001E-04   -0.14287E-03 14208   0.160E-01    0.628E-03
DAV:   2    -0.125546802219E+03   -0.51342E-06   -0.15310E-05 20400   0.165E-02    0.420E-03
DAV:   3    -0.125546802245E+03   -0.26466E-07   -0.11173E-06 23520   0.429E-03
 112 F= -.12713563E+03 E0= -.12713485E+03  d E =-.612800E-04  mag=    -0.0000
 curvature:  -2.55 expect dE=-0.470E-03 dE for cont linesearch -0.917E-08
 trial: gam= 0.49767 g(F)=  0.184E-03 g(S)=  0.000E+00 ort = 0.458E-05 (trialstep = 0.364E+00)
 search vector abs. value=  0.163E-02
 bond charge predicted
       N       E                     dE             d eps       ncg     rms          rms(c)
DAV:   1    -0.125546643692E+03    0.15853E-03   -0.18059E-02 14208   0.568E-01    0.232E-02
DAV:   2    -0.125546649100E+03   -0.54077E-05   -0.17262E-04 22368   0.548E-02    0.155E-02
DAV:   3    -0.125546647264E+03    0.18362E-05   -0.10962E-05 16176   0.124E-02    0.463E-03
DAV:   4    -0.125546647376E+03   -0.11217E-06   -0.18425E-06 18144   0.529E-03
 113 F= -.12713569E+03 E0= -.12713491E+03  d E =-.558877E-04  mag=    -0.0000
 trial-energy change:   -0.000056  1 .order   -0.000055   -0.000068   -0.000042
 step:   0.9443(harm=  0.9443)  dis= 0.00282  next Energy=  -127.135721 (dE=-0.882E-04)
 bond charge predicted
       N       E                     dE             d eps       ncg     rms          rms(c)
DAV:   1    -0.125546337225E+03    0.31004E-03   -0.45906E-02 14208   0.906E-01    0.377E-02
DAV:   2    -0.125546350552E+03   -0.13327E-04   -0.43110E-04 20544   0.869E-02    0.252E-02
DAV:   3    -0.125546346018E+03    0.45334E-05   -0.28921E-05 18768   0.201E-02    0.728E-03
DAV:   4    -0.125546346090E+03   -0.71334E-07   -0.45161E-06 18816   0.786E-03
 114 F= -.12713572E+03 E0= -.12713494E+03  d E =-.908664E-04  mag=     0.0000
 curvature:  -4.13 expect dE=-0.248E-03 dE for cont linesearch -0.163E-07
 trial: gam= 0.32132 g(F)=  0.601E-04 g(S)=  0.000E+00 ort = 0.254E-05 (trialstep = 0.480E+00)
 search vector abs. value=  0.230E-03
 bond charge predicted
       N       E                     dE             d eps       ncg     rms          rms(c)
DAV:   1    -0.125546284174E+03    0.61844E-04   -0.46356E-03 14208   0.289E-01    0.131E-02
DAV:   2    -0.125546284446E+03   -0.27213E-06   -0.48463E-05 19824   0.293E-02    0.820E-03
DAV:   3    -0.125546283937E+03    0.50967E-06   -0.35431E-06 17184   0.720E-03
 115 F= -.12713574E+03 E0= -.12713496E+03  d E =-.198137E-04  mag=     0.0000
 trial-energy change:   -0.000020  1 .order   -0.000019   -0.000029   -0.000009
 step:   0.7061(harm=  0.7061)  dis= 0.00086  next Energy=  -127.135745 (dE=-0.215E-04)
 bond charge predicted
       N       E                     dE             d eps       ncg     rms          rms(c)
DAV:   1    -0.125546247966E+03    0.36480E-04   -0.10287E-03 14880   0.136E-01    0.665E-03
DAV:   2    -0.125546248064E+03   -0.97539E-07   -0.10594E-05 19776   0.139E-02    0.416E-03
DAV:   3    -0.125546247963E+03    0.10062E-06   -0.94626E-07 14688   0.410E-03
 116 F= -.12713575E+03 E0= -.12713496E+03  d E =-.224714E-04  mag=     0.0000
 curvature:  -1.34 expect dE=-0.497E-04 dE for cont linesearch -0.426E-08
 trial: gam= 0.62459 g(F)=  0.372E-04 g(S)=  0.000E+00 ort = 0.857E-06 (trialstep = 0.525E+00)
 search vector abs. value=  0.128E-03
 bond charge predicted
       N       E                     dE             d eps       ncg     rms          rms(c)
DAV:   1    -0.125546210510E+03    0.37553E-04   -0.28766E-03 14208   0.231E-01    0.103E-02
DAV:   2    -0.125546211067E+03   -0.55664E-06   -0.27959E-05 21168   0.228E-02    0.642E-03
DAV:   3    -0.125546210802E+03    0.26474E-06   -0.19072E-06 15360   0.590E-03
 117 F= -.12713576E+03 E0= -.12713498E+03  d E =-.113943E-04  mag=    -0.0000
 trial-energy change:   -0.000011  1 .order   -0.000011   -0.000020   -0.000002
 step:   0.5820(harm=  0.5820)  dis= 0.00052  next Energy=  -127.135757 (dE=-0.110E-04)
 bond charge predicted
       N       E                     dE             d eps       ncg     rms          rms(c)
DAV:   1    -0.125546205720E+03    0.53469E-05   -0.33997E-05 14304   0.254E-02    0.174E-03
DAV:   2    -0.125546205807E+03   -0.87143E-07   -0.52971E-07 16800   0.388E-03
 118 F= -.12713576E+03 E0= -.12713498E+03  d E =-.116397E-04  mag=    -0.0000
 curvature:  -0.99 expect dE=-0.311E-04 dE for cont linesearch -0.303E-08
 trial: gam= 0.85159 g(F)=  0.314E-04 g(S)=  0.000E+00 ort = 0.627E-06 (trialstep = 0.537E+00)
 search vector abs. value=  0.125E-03
 bond charge predicted
       N       E                     dE             d eps       ncg     rms          rms(c)
DAV:   1    -0.125546179479E+03    0.26241E-04   -0.28450E-03 14208   0.227E-01    0.105E-02
DAV:   2    -0.125546179616E+03   -0.13722E-06   -0.31373E-05 20400   0.235E-02    0.652E-03
DAV:   3    -0.125546179225E+03    0.39135E-06   -0.22299E-06 14976   0.597E-03
 119 F= -.12713577E+03 E0= -.12713499E+03  d E =-.892933E-05  mag=     0.0000
 trial-energy change:   -0.000009  1 .order   -0.000009   -0.000017   -0.000000
 step:   0.5489(harm=  0.5489)  dis= 0.00063  next Energy=  -127.135766 (dE=-0.877E-05)
 bond charge predicted
       N       E                     dE             d eps       ncg     rms          rms(c)
DAV:   1    -0.125546178437E+03    0.11793E-05   -0.19876E-06 14304   0.654E-03    0.992E-04
DAV:   2    -0.125546178497E+03   -0.60454E-07   -0.20959E-07 15552   0.236E-03
 120 F= -.12713577E+03 E0= -.12713499E+03  d E =-.901892E-05  mag=     0.0000
 curvature:  -1.08 expect dE=-0.180E-04 dE for cont linesearch -0.180E-08
 trial: gam= 0.53739 g(F)=  0.167E-04 g(S)=  0.000E+00 ort = 0.458E-06 (trialstep = 0.539E+00)
 search vector abs. value=  0.534E-04
 bond charge predicted
       N       E                     dE             d eps       ncg     rms          rms(c)
DAV:   1    -0.125546172456E+03    0.59812E-05   -0.12554E-03 15408   0.153E-01    0.683E-03
DAV:   2    -0.125546172608E+03   -0.15220E-06   -0.10912E-05 21408   0.142E-02    0.428E-03
DAV:   3    -0.125546172469E+03    0.13909E-06   -0.85075E-07 14832   0.399E-03
 121 F= -.12713577E+03 E0= -.12713499E+03  d E =-.549790E-05  mag=     0.0000
 trial-energy change:   -0.000005  1 .order   -0.000005   -0.000009   -0.000002
 step:   0.6636(harm=  0.6636)  dis= 0.00038  next Energy=  -127.135772 (dE=-0.562E-05)
 bond charge predicted
       N       E                     dE             d eps       ncg     rms          rms(c)
DAV:   1    -0.125546170051E+03    0.25572E-05   -0.67090E-05 15552   0.355E-02    0.184E-03
DAV:   2    -0.125546170099E+03   -0.48434E-07   -0.65083E-07 19968   0.390E-03
 122 F= -.12713577E+03 E0= -.12713499E+03  d E =-.579586E-05  mag=     0.0000
 curvature:  -1.05 expect dE=-0.277E-04 dE for cont linesearch -0.388E-08
 trial: gam= 1.57137 g(F)=  0.265E-04 g(S)=  0.000E+00 ort = 0.445E-06 (trialstep = 0.189E+00)
 search vector abs. value=  0.160E-03
 bond charge predicted
       N       E                     dE             d eps       ncg     rms          rms(c)
DAV:   1    -0.125546170826E+03   -0.77584E-06   -0.43212E-04 14208   0.902E-02    0.396E-03
DAV:   2    -0.125546170913E+03   -0.86396E-07   -0.31088E-06 16704   0.783E-03
 123 F= -.12713578E+03 E0= -.12713500E+03  d E =-.461368E-05  mag=     0.0000
 ZBRENT: can't locate minimum, use default step
 trial-energy change:   -0.000005  1 .order   -0.000005   -0.000005   -0.000004
 step:   0.7542(harm=  0.8511)  dis= 0.00078  next Energy=  -127.135784 (dE=-0.116E-04)
 bond charge predicted
       N       E                     dE             d eps       ncg     rms          rms(c)
DAV:   1    -0.125546166236E+03    0.45902E-05   -0.38841E-03 14208   0.270E-01    0.116E-02
DAV:   2    -0.125546166927E+03   -0.69024E-06   -0.26360E-05 14208   0.222E-02    0.753E-03
DAV:   3    -0.125546166661E+03    0.26531E-06   -0.20979E-06 14208   0.631E-03
 124 F= -.12713578E+03 E0= -.12713500E+03  d E =-.117582E-04  mag=    -0.0000
 curvature:  -2.45 expect dE=-0.467E-04 dE for cont linesearch -0.183E-06
 trial: gam= 0.61443 g(F)=  0.191E-04 g(S)=  0.000E+00 ort = 0.346E-05 (trialstep = 0.302E+00)
 search vector abs. value=  0.836E-04
 bond charge predicted
       N       E                     dE             d eps       ncg     rms          rms(c)
DAV:   1    -0.125546173130E+03   -0.62036E-05   -0.57202E-04 14400   0.103E-01    0.455E-03
DAV:   2    -0.125546173261E+03   -0.13040E-06   -0.43376E-06 17616   0.937E-03
 125 F= -.12713579E+03 E0= -.12713501E+03  d E =-.607794E-05  mag=    -0.0000
 ZBRENT: can't locate minimum, use default step
 trial-energy change:   -0.000006  1 .order   -0.000006   -0.000006   -0.000005
 step:   1.2067(harm=  2.1551)  dis= 0.00069  next Energy=  -127.135807 (dE=-0.228E-04)
 bond charge predicted
       N       E                     dE             d eps       ncg     rms          rms(c)
DAV:   1    -0.125546186689E+03   -0.13559E-04   -0.51455E-03 14208   0.308E-01    0.134E-02
DAV:   2    -0.125546187673E+03   -0.98351E-06   -0.37381E-05 14208   0.264E-02    0.881E-03
DAV:   3    -0.125546187357E+03    0.31531E-06   -0.35046E-06 15024   0.842E-03
 126 F= -.12713580E+03 E0= -.12713502E+03  d E =-.185669E-04  mag=    -0.0000
 curvature:  -3.14 expect dE=-0.895E-04 dE for cont linesearch -0.285E-05
 ZBRENT: increasing intervall
 opt :   3.0167  next Energy=  -127.135801 (dE=-0.171E-04)
 bond charge predicted
       N       E                     dE             d eps       ncg     rms          rms(c)
DAV:   1    -0.125546187519E+03    0.15403E-06   -0.20653E-02 14208   0.617E-01    0.258E-02
DAV:   2    -0.125546191964E+03   -0.44451E-05   -0.14874E-04 14976   0.522E-02    0.169E-02
DAV:   3    -0.125546190486E+03    0.14780E-05   -0.11818E-05 14640   0.144E-02    0.461E-03
DAV:   4    -0.125546190558E+03   -0.72443E-07   -0.25709E-06 14208   0.796E-03
 127 F= -.12713580E+03 E0= -.12713502E+03  d E =-.185682E-04  mag=     0.0000
 curvature:   1.58 expect dE= 0.286E-03 dE for cont linesearch  0.161E-05
 ZBRENT: bracketing found
 ZBRENT: interpolating
 opt :   2.0854  next Energy=  -127.135806 (dE=-0.224E-04)
 bond charge predicted
       N       E                     dE             d eps       ncg     rms          rms(c)
DAV:   1    -0.125546192499E+03   -0.20133E-05   -0.54633E-03 14208   0.317E-01    0.130E-02
DAV:   2    -0.125546193434E+03   -0.93511E-06   -0.40512E-05 17568   0.275E-02    0.856E-03
DAV:   3    -0.125546193084E+03    0.35051E-06   -0.37144E-06 14640   0.873E-03
 128 F= -.12713581E+03 E0= -.12713503E+03  d E =-.227605E-04  mag=     0.0000
 curvature:  -3.75 expect dE=-0.297E-03 dE for cont linesearch -0.405E-07
 trial: gam= 4.39980 g(F)=  0.792E-04 g(S)=  0.000E+00 ort = 0.950E-06 (trialstep = 0.323E-01)
 search vector abs. value=  0.171E-02
