Lattice                                 
           1
     4.196759    2.423000    0.000000
    -4.196759    2.423000    0.000000
     0.000000    0.000000   15.000000
   B    C 
     4    11
Direct configuration=     1
   0.00415361  0.00267210  0.12034134
   0.35695335  0.00285503  0.09748893
   0.00423858  0.35550699  0.09749256
   0.65142295  0.65006557  0.09747688
   0.32808646  0.32671938  0.10030508
   0.68027775  0.00278085  0.10027562
   0.00416530  0.67883808  0.10026559
   0.08333267  0.41666633  0.33646667
   0.24999967  0.24999933  0.33646667
   0.08333267  0.91666633  0.33646667
   0.24999967  0.74999933  0.33646667
   0.58333267  0.41666633  0.33646667
   0.74999967  0.24999933  0.33646667
   0.58333267  0.91666633  0.33646667
   0.74999967  0.74999933  0.33646667
Direct configuration=     2
   0.00414265  0.00267065  0.11912115
   0.35569348  0.00282998  0.09781498
   0.00413899  0.35445208  0.09787618
   0.65260177  0.65108462  0.09784697
   0.32478246  0.32318217  0.10030058
   0.68395941  0.00285634  0.10032557
   0.00417231  0.68218731  0.10027712
   0.08331732  0.41677891  0.33646319
   0.25017644  0.25026273  0.33656017
   0.08349752  0.91679577  0.33645162
   0.25029830  0.74995689  0.33643642
   0.58328515  0.41664558  0.33642162
   0.74993334  0.25000294  0.33646145
   0.58309084  0.91661591  0.33653680
   0.74953737  0.74977879  0.33648554
Direct configuration=     3
   0.00414825  0.00267139  0.11974428
   0.35633687  0.00284278  0.09764847
   0.00418985  0.35499080  0.09768027
   0.65199977  0.65056421  0.09765797
   0.32646975  0.32498856  0.10030287
   0.68207925  0.00281779  0.10030006
   0.00416873  0.68047692  0.10027123
   0.08332516  0.41672142  0.33646496
   0.25008617  0.25012822  0.33651242
   0.08341333  0.91672967  0.33645931
   0.25014579  0.74997857  0.33645186
   0.58330942  0.41665618  0.33644462
   0.74996721  0.25000110  0.33646411
   0.58321434  0.91664166  0.33650099
   0.74977346  0.74989142  0.33647590
Direct configuration=     4
   0.00414799  0.00269684  0.11868239
   0.35680996  0.00280884  0.09795129
   0.00415752  0.35543097  0.09804052
   0.65162737  0.65002055  0.09800385
   0.32662065  0.32496906  0.10026710
   0.68206370  0.00285404  0.10031567
   0.00418147  0.68037532  0.10025051
   0.08328618  0.41665762  0.33646801
   0.24988845  0.24998622  0.33658627
   0.08321683  0.91664326  0.33645764
   0.24983639  0.75006257  0.33642769
   0.58331646  0.41667936  0.33641615
   0.74996831  0.25002932  0.33645898
   0.58339945  0.91675168  0.33656174
   0.75010662  0.75013501  0.33649152
Direct configuration=     5
   0.00414733  0.00276373  0.11589132
   0.35805345  0.00271966  0.09874722
   0.00407254  0.35658790  0.09898739
   0.65064856  0.64859158  0.09891295
   0.32701726  0.32491781  0.10017306
   0.68202280  0.00294932  0.10035671
   0.00421495  0.68010828  0.10019606
   0.08318375  0.41648993  0.33647601
   0.24936878  0.24961299  0.33678038
   0.08270033  0.91641613  0.33645327
   0.24902313  0.75028338  0.33636414
   0.58333496  0.41674031  0.33634132
   0.74997120  0.25010349  0.33644550
   0.58388599  0.91704086  0.33672142
   0.75098230  0.75077529  0.33653257
Direct configuration=     6
   0.00415095  0.00276791  0.11558349
   0.35816712  0.00270937  0.09882161
   0.00407501  0.35668369  0.09907503
   0.65056409  0.64846835  0.09899722
   0.32709220  0.32496052  0.10017882
   0.68196942  0.00294638  0.10037502
   0.00422177  0.68004403  0.10020566
   0.08318295  0.41654175  0.33647804
   0.24943132  0.24967289  0.33679376
   0.08276699  0.91648813  0.33645587
   0.24913822  0.75026761  0.33636127
   0.58330779  0.41675808  0.33633893
   0.74995807  0.25010801  0.33644523
   0.58377890  0.91700432  0.33673322
   0.75082255  0.75067964  0.33653617
Direct configuration=     7
   0.00416181  0.00278045  0.11465999
   0.35850814  0.00267850  0.09904476
   0.00408242  0.35697105  0.09933793
   0.65031066  0.64809865  0.09925003
   0.32731702  0.32508865  0.10019610
   0.68180925  0.00293754  0.10042995
   0.00424221  0.67985128  0.10023445
   0.08318055  0.41669719  0.33648415
   0.24961893  0.24985257  0.33683391
   0.08296697  0.91670412  0.33646364
   0.24948347  0.75022031  0.33635265
   0.58322627  0.41681140  0.33633173
   0.74991871  0.25012157  0.33644443
   0.58345765  0.91689469  0.33676859
   0.75034328  0.75039270  0.33654699
Direct configuration=     8
   0.00418353  0.00280554  0.11281301
   0.35919018  0.00261676  0.09949108
   0.00409724  0.35754578  0.09986373
   0.64980381  0.64735925  0.09975565
   0.32776666  0.32534490  0.10023067
   0.68148891  0.00291985  0.10053982
   0.00428309  0.67946578  0.10029203
   0.08317576  0.41700809  0.33649637
   0.24999416  0.25021193  0.33691421
   0.08336693  0.91713610  0.33647919
   0.25017397  0.75012571  0.33633542
   0.58306323  0.41691804  0.33631735
   0.74983997  0.25014868  0.33644282
   0.58281513  0.91667543  0.33683935
   0.74938476  0.74981882  0.33656862
Direct configuration=     9
   0.00420323  0.00279277  0.11229267
   0.35920265  0.00259850  0.09956981
   0.00413704  0.35752376  0.09995012
   0.64982278  0.64735703  0.09983989
   0.32783465  0.32541482  0.10030020
   0.68141699  0.00287145  0.10061999
   0.00430644  0.67939795  0.10036503
   0.08316975  0.41698602  0.33650330
   0.24999137  0.25032238  0.33690746
   0.08334669  0.91706991  0.33649295
   0.25014929  0.75015158  0.33634708
   0.58306655  0.41686347  0.33633409
   0.74978897  0.25016709  0.33644801
   0.58283953  0.91670494  0.33683648
   0.74935140  0.74987900  0.33657226
Direct configuration=    10
   0.00426232  0.00275445  0.11073167
   0.35924006  0.00254372  0.09980600
   0.00425646  0.35745771  0.10020927
   0.64987966  0.64735035  0.10009262
   0.32803860  0.32562456  0.10050881
   0.68120123  0.00272625  0.10086048
   0.00437652  0.67919445  0.10058401
   0.08315172  0.41691982  0.33652406
   0.24998301  0.25065371  0.33688723
   0.08328595  0.91687135  0.33653422
   0.25007526  0.75022921  0.33638203
   0.58307650  0.41669978  0.33638432
   0.74963597  0.25022229  0.33646358
   0.58291274  0.91679346  0.33682788
   0.74925133  0.75005956  0.33658316
Direct configuration=    11
   0.00438050  0.00267783  0.10760966
   0.35931487  0.00243416  0.10027838
   0.00449530  0.35732561  0.10072757
   0.64999344  0.64733698  0.10059809
   0.32844651  0.32604405  0.10092602
   0.68076971  0.00243585  0.10134148
   0.00451666  0.67878745  0.10102197
   0.08311566  0.41678742  0.33656560
   0.24996629  0.25131638  0.33684676
   0.08316447  0.91647422  0.33661675
   0.24992721  0.75038447  0.33645195
   0.58309642  0.41637238  0.33648477
   0.74932998  0.25033271  0.33649471
   0.58305914  0.91697050  0.33681067
   0.74905118  0.75042067  0.33660495
Direct configuration=    12
   0.00440796  0.00265172  0.10699982
   0.35931447  0.00241386  0.10036920
   0.00454238  0.35729908  0.10081923
   0.65001710  0.64735227  0.10068954
   0.32848658  0.32608838  0.10101558
   0.68073671  0.00238151  0.10143706
   0.00454588  0.67873128  0.10111404
   0.08305828  0.41683848  0.33657300
   0.24989139  0.25113361  0.33683355
   0.08309763  0.91657690  0.33663305
   0.24985474  0.75036852  0.33647212
   0.58306774  0.41650042  0.33650768
   0.74938087  0.25031784  0.33650470
   0.58305292  0.91702818  0.33680017
   0.74917267  0.75041863  0.33661057
Direct configuration=    13
   0.00449036  0.00257339  0.10517030
   0.35931327  0.00235295  0.10064165
   0.00468362  0.35721949  0.10109418
   0.65008808  0.64739811  0.10096389
   0.32860680  0.32622137  0.10128425
   0.68063770  0.00221848  0.10172382
   0.00463353  0.67856278  0.10139027
   0.08288616  0.41699166  0.33659523
   0.24966669  0.25058529  0.33679393
   0.08289712  0.91688493  0.33668195
   0.24963735  0.75032068  0.33653265
   0.58298172  0.41688454  0.33657643
   0.74953355  0.25027323  0.33653468
   0.58303425  0.91720123  0.33676868
   0.74953712  0.75041253  0.33662742
Direct configuration=    14
   0.00451287  0.00255198  0.10467031
   0.35931295  0.00233631  0.10071611
   0.00472222  0.35719774  0.10116933
   0.65010748  0.64741064  0.10103886
   0.32863965  0.32625772  0.10135768
   0.68061064  0.00217393  0.10180219
   0.00465748  0.67851673  0.10146576
   0.08283912  0.41703353  0.33660130
   0.24960529  0.25043544  0.33678310
   0.08284233  0.91696911  0.33669532
   0.24957794  0.75030761  0.33654919
   0.58295821  0.41698951  0.33659522
   0.74957528  0.25026104  0.33654287
   0.58302915  0.91724852  0.33676007
   0.74963672  0.75041086  0.33663202
Direct configuration=    15
   0.00452002  0.00253289  0.10459766
   0.35934219  0.00233642  0.10074528
   0.00471420  0.35723368  0.10118431
   0.65006807  0.64738790  0.10105799
   0.32857853  0.32617847  0.10136140
   0.68070864  0.00219297  0.10179429
   0.00465877  0.67855763  0.10146725
   0.08287466  0.41703966  0.33660029
   0.24959076  0.25038876  0.33678125
   0.08289632  0.91703640  0.33669342
   0.24960679  0.75035222  0.33655905
   0.58293473  0.41702329  0.33659719
   0.74958341  0.25031906  0.33655042
   0.58295640  0.91713850  0.33675279
   0.74959385  0.75038282  0.33663672
Direct configuration=    16
   0.00453588  0.00249058  0.10443661
   0.35940703  0.00233666  0.10080996
   0.00469643  0.35731335  0.10121751
   0.64998068  0.64733749  0.10110040
   0.32844302  0.32600278  0.10136967
   0.68092589  0.00223517  0.10177678
   0.00466162  0.67864830  0.10147057
   0.08295344  0.41705326  0.33659805
   0.24955855  0.25028528  0.33677713
   0.08301602  0.91718558  0.33668923
   0.24967076  0.75045112  0.33658091
   0.58288270  0.41709818  0.33660156
   0.74960143  0.25044769  0.33656715
   0.58279511  0.91689460  0.33673666
   0.74949879  0.75032064  0.33664715
Direct configuration=    17
   0.00454500  0.00246371  0.10438741
   0.35947813  0.00233819  0.10085069
   0.00467941  0.35736463  0.10123203
   0.64990527  0.64728529  0.10112246
   0.32839220  0.32592262  0.10136469
   0.68102448  0.00227166  0.10174856
   0.00465986  0.67868688  0.10146099
   0.08295518  0.41705761  0.33659740
   0.24957286  0.25033920  0.33677507
   0.08299079  0.91714807  0.33668535
   0.24965355  0.75044217  0.33659295
   0.58287521  0.41707494  0.33660321
   0.74957568  0.25042723  0.33657713
   0.58281753  0.91693717  0.33672863
   0.74950217  0.75034129  0.33665277
