    8    8    1    1
  0.4142730E+02  0.5051000E-09  0.5051000E-09  0.1500000E-08  0.5000000E-15
  1.000000000000000E-004
  CAR 
 BS                                      
     24    384     48
 
  0.0000000E+00  0.0000000E+00  0.0000000E+00  0.2604167E-02
      1        -17.888877   1.000000
      2        -13.732210   1.000000
      3        -13.648373   1.000000
      4        -13.648368   1.000000
      5        -11.483918   1.000000
      6        -11.483909   1.000000
      7         -9.413440   1.000000
      8         -8.730169   1.000000
      9         -3.827328   1.000000
     10         -3.827326   1.000000
     11         -2.297552   0.949081
     12         -1.730067   0.000000
     13         -1.730064   0.000000
     14         -1.513201   0.000000
     15         -1.513192   0.000000
     16         -1.255706   0.000000
     17         -1.255702   0.000000
     18          0.781494   0.000000
     19          1.627678   0.000000
     20          2.378345   0.000000
     21          2.516951   0.000000
     22          4.392498   0.000000
     23          4.952028   0.000000
     24          5.696933   0.000000
     25          6.353885   0.000000
     26          6.353894   0.000000
     27          6.593025   0.000000
     28          7.520882   0.000000
     29          7.520882   0.000000
     30          8.051870   0.000000
     31          8.350648   0.000000
     32          8.607972   0.000000
     33          9.012263   0.000000
     34          9.103807   0.000000
     35          9.317582   0.000000
     36          9.362465   0.000000
     37          9.362498   0.000000
     38          9.385612   0.000000
     39          9.434959   0.000000
     40          9.435069   0.000000
     41          9.500225   0.000000
     42          9.534178   0.000000
     43          9.534235   0.000000
     44          9.570351   0.000000
     45          9.570385   0.000000
     46         10.340746   0.000000
     47         10.346426   0.000000
     48         10.415499   0.000000
 
  0.2622047E-02  0.2622047E-02  0.0000000E+00  0.2604167E-02
      1        -17.888783   1.000000
      2        -13.741210   1.000000
      3        -13.648474   1.000000
      4        -13.639433   1.000000
      5        -11.484097   1.000000
      6        -11.483655   1.000000
      7         -9.412972   1.000000
      8         -8.730025   1.000000
      9         -3.828634   1.000000
     10         -3.828417   1.000000
     11         -2.301144   0.954180
     12         -1.732122   0.000000
     13         -1.728421   0.000000
     14         -1.512020   0.000000
     15         -1.511807   0.000000
     16         -1.253905   0.000000
     17         -1.253360   0.000000
     18          0.781648   0.000000
     19          1.627946   0.000000
     20          2.378504   0.000000
     21          2.517384   0.000000
     22          4.392656   0.000000
     23          4.952179   0.000000
     24          5.695903   0.000000
     25          6.353320   0.000000
     26          6.353529   0.000000
     27          6.592324   0.000000
     28          7.519607   0.000000
     29          7.520564   0.000000
     30          8.051314   0.000000
     31          8.350790   0.000000
     32          8.608159   0.000000
     33          9.011509   0.000000
     34          9.102160   0.000000
     35          9.307872   0.000000
     36          9.359512   0.000000
     37          9.370607   0.000000
     38          9.375192   0.000000
     39          9.438859   0.000000
     40          9.440508   0.000000
     41          9.461148   0.000000
     42          9.516585   0.000000
     43          9.544045   0.000000
     44          9.598533   0.000000
     45          9.600060   0.000000
     46         10.323692   0.000000
     47         10.332160   0.000000
     48         10.410989   0.000000
 
  0.5244094E-02  0.5244094E-02  0.0000000E+00  0.2604167E-02
      1        -17.888501   1.000000
      2        -13.761733   1.000000
      3        -13.648777   1.000000
      4        -13.619105   1.000000
      5        -11.484636   1.000000
      6        -11.482896   1.000000
      7         -9.411570   1.000000
      8         -8.729595   1.000000
      9         -3.832566   1.000000
     10         -3.831693   1.000000
     11         -2.311714   0.966843
     12         -1.738194   0.000000
     13         -1.723682   0.000000
     14         -1.508523   0.000000
     15         -1.507649   0.000000
     16         -1.248594   0.000000
     17         -1.246345   0.000000
     18          0.782113   0.000000
     19          1.628749   0.000000
     20          2.378983   0.000000
     21          2.518684   0.000000
     22          4.393131   0.000000
     23          4.952631   0.000000
     24          5.692814   0.000000
     25          6.351630   0.000000
     26          6.352417   0.000000
     27          6.590243   0.000000
     28          7.515791   0.000000
     29          7.519609   0.000000
     30          8.049646   0.000000
     31          8.351215   0.000000
     32          8.608716   0.000000
     33          9.009236   0.000000
     34          9.097311   0.000000
     35          9.289373   0.000000
     36          9.346189   0.000000
     37          9.352586   0.000000
     38          9.383239   0.000000
     39          9.404432   0.000000
     40          9.451501   0.000000
     41          9.454908   0.000000
     42          9.499744   0.000000
     43          9.546677   0.000000
     44          9.644747   0.000000
     45          9.655479   0.000000
     46         10.282085   0.000000
     47         10.308731   0.000000
     48         10.403481   0.000000
 
  0.7866142E-02  0.7866142E-02  0.0000000E+00  0.2604167E-02
      1        -17.888031   1.000000
      2        -13.786723   1.000000
      3        -13.649281   1.000000
      4        -13.594439   1.000000
      5        -11.485525   1.000000
      6        -11.481625   1.000000
      7         -9.409233   1.000000
      8         -8.728877   1.000000
      9         -3.839045   1.000000
     10         -3.837088   1.000000
     11         -2.328704   0.981079
     12         -1.748031   0.000000
     13         -1.716368   0.000000
     14         -1.502693   0.000000
     15         -1.500705   0.000000
     16         -1.240030   0.000000
     17         -1.234701   0.000000
     18          0.782886   0.000000
     19          1.630085   0.000000
     20          2.379781   0.000000
     21          2.520850   0.000000
     22          4.393923   0.000000
     23          4.953384   0.000000
     24          5.687674   0.000000
     25          6.348825   0.000000
     26          6.350497   0.000000
     27          6.586852   0.000000
     28          7.509457   0.000000
     29          7.518020   0.000000
     30          8.046866   0.000000
     31          8.351923   0.000000
     32          8.609655   0.000000
     33          9.005417   0.000000
     34          9.089509   0.000000
     35          9.269970   0.000000
     36          9.304891   0.000000
     37          9.344585   0.000000
     38          9.345986   0.000000
     39          9.391864   0.000000
     40          9.473516   0.000000
     41          9.474979   0.000000
     42          9.491056   0.000000
     43          9.547962   0.000000
     44          9.695354   0.000000
     45          9.714877   0.000000
     46         10.236855   0.000000
     47         10.276842   0.000000
     48         10.399637   0.000000
 
  0.1048819E-01  0.1048819E-01  0.0000000E+00  0.2604167E-02
      1        -17.887372   1.000000
      2        -13.813522   1.000000
      3        -13.649989   1.000000
      4        -13.568102   1.000000
      5        -11.486766   1.000000
      6        -11.479849   1.000000
      7         -9.405973   1.000000
      8         -8.727873   1.000000
      9         -3.848071   1.000000
     10         -3.844603   1.000000
     11         -2.351327   0.991724
     12         -1.761254   0.000000
     13         -1.707179   0.000000
     14         -1.494602   0.000000
     15         -1.491058   0.000000
     16         -1.228581   0.000000
     17         -1.218508   0.000000
     18          0.783969   0.000000
     19          1.631952   0.000000
     20          2.380898   0.000000
     21          2.523883   0.000000
     22          4.395032   0.000000
     23          4.954439   0.000000
     24          5.680491   0.000000
     25          6.344922   0.000000
     26          6.347679   0.000000
     27          6.582268   0.000000
     28          7.500647   0.000000
     29          7.515799   0.000000
     30          8.042978   0.000000
     31          8.352913   0.000000
     32          8.610964   0.000000
     33          9.000017   0.000000
     34          9.079111   0.000000
     35          9.251699   0.000000
     36          9.257181   0.000000
     37          9.287231   0.000000
     38          9.336957   0.000000
     39          9.396677   0.000000
     40          9.486972   0.000000
     41          9.498855   0.000000
     42          9.502604   0.000000
     43          9.549256   0.000000
     44          9.747926   0.000000
     45          9.775472   0.000000
     46         10.191230   0.000000
     47         10.242103   0.000000
     48         10.398490   0.000000
 
  0.1311024E-01  0.1311024E-01  0.0000000E+00  0.2604167E-02
      1        -17.886526   1.000000
      2        -13.841190   1.000000
      3        -13.650904   1.000000
      4        -13.541027   1.000000
      5        -11.488348   1.000000
      6        -11.477566   1.000000
      7         -9.401796   1.000000
      8         -8.726581   1.000000
      9         -3.859582   1.000000
     10         -3.854168   1.000000
     11         -2.378728   0.997315
     12         -1.777448   0.000000
     13         -1.696838   0.000000
     14         -1.484308   0.000000
     15         -1.478740   0.000000
     16         -1.214667   0.000000
     17         -1.197905   0.000000
     18          0.785362   0.000000
     19          1.634347   0.000000
     20          2.382334   0.000000
     21          2.527780   0.000000
     22          4.396457   0.000000
     23          4.955795   0.000000
     24          5.671279   0.000000
     25          6.339945   0.000000
     26          6.343824   0.000000
     27          6.576654   0.000000
     28          7.489414   0.000000
     29          7.512950   0.000000
     30          8.037981   0.000000
     31          8.354182   0.000000
     32          8.612648   0.000000
     33          8.993010   0.000000
     34          9.066503   0.000000
     35          9.206308   0.000000
     36          9.228496   0.000000
     37          9.235230   0.000000
     38          9.330139   0.000000
     39          9.399437   0.000000
     40          9.485304   0.000000
     41          9.525404   0.000000
     42          9.536220   0.000000
     43          9.550778   0.000000
     44          9.801492   0.000000
     45          9.836704   0.000000
     46         10.146244   0.000000
     47         10.207275   0.000000
     48         10.398329   0.000000
 
  0.1573228E-01  0.1573228E-01  0.0000000E+00  0.2604167E-02
      1        -17.885491   1.000000
      2        -13.869334   1.000000
      3        -13.652016   1.000000
      4        -13.513601   1.000000
      5        -11.490261   1.000000
      6        -11.474771   1.000000
      7         -9.396709   1.000000
      8         -8.725003   1.000000
      9         -3.873502   1.000000
     10         -3.865726   1.000000
     11         -2.410078   0.999375
     12         -1.796186   0.000000
     13         -1.685964   0.000000
     14         -1.471876   0.000000
     15         -1.463831   0.000000
     16         -1.198705   0.000000
     17         -1.173094   0.000000
     18          0.787064   0.000000
     19          1.637263   0.000000
     20          2.384089   0.000000
     21          2.532544   0.000000
     22          4.398199   0.000000
     23          4.957451   0.000000
     24          5.660062   0.000000
     25          6.333926   0.000000
     26          6.338757   0.000000
     27          6.570224   0.000000
     28          7.475831   0.000000
     29          7.509488   0.000000
     30          8.031879   0.000000
     31          8.355729   0.000000
     32          8.614704   0.000000
     33          8.984392   0.000000
     34          9.052042   0.000000
     35          9.153815   0.000000
     36          9.169942   0.000000
     37          9.220752   0.000000
     38          9.324155   0.000000
     39          9.401164   0.000000
     40          9.484894   0.000000
     41          9.552563   0.000000
     42          9.554065   0.000000
     43          9.572954   0.000000
     44          9.855549   0.000000
     45          9.898388   0.000000
     46         10.102423   0.000000
     47         10.173770   0.000000
     48         10.400449   0.000000
 
  0.1835433E-01  0.1835433E-01  0.0000000E+00  0.2604167E-02
      1        -17.884268   1.000000
      2        -13.897771   1.000000
      3        -13.653334   1.000000
      4        -13.486021   1.000000
      5        -11.492495   1.000000
      6        -11.471467   1.000000
      7         -9.390728   1.000000
      8         -8.723138   1.000000
      9         -3.889745   1.000000
     10         -3.879196   1.000000
     11         -2.444648   0.999899
     12         -1.817082   0.000000
     13         -1.675032   0.000000
     14         -1.457389   0.000000
     15         -1.446399   0.000000
     16         -1.181081   0.000000
     17         -1.144337   0.000000
     18          0.789075   0.000000
     19          1.640696   0.000000
     20          2.386163   0.000000
     21          2.538172   0.000000
     22          4.400257   0.000000
     23          4.959408   0.000000
     24          5.646858   0.000000
     25          6.326888   0.000000
     26          6.332260   0.000000
     27          6.563231   0.000000
     28          7.459975   0.000000
     29          7.505419   0.000000
     30          8.024675   0.000000
     31          8.357549   0.000000
     32          8.617134   0.000000
     33          8.974187   0.000000
     34          9.036012   0.000000
     35          9.100462   0.000000
     36          9.111596   0.000000
     37          9.208320   0.000000
     38          9.318878   0.000000
     39          9.402304   0.000000
     40          9.485258   0.000000
     41          9.554666   0.000000
     42          9.584341   0.000000
     43          9.612040   0.000000
     44          9.909787   0.000000
     45          9.960446   0.000000
     46         10.060100   0.000000
     47         10.142390   0.000000
     48         10.400019   0.000000
 
  0.2097638E-01  0.2097638E-01  0.0000000E+00  0.2604167E-02
      1        -17.882857   1.000000
      2        -13.926399   1.000000
      3        -13.654856   1.000000
      4        -13.458380   1.000000
      5        -11.495035   1.000000
      6        -11.467653   1.000000
      7         -9.383865   1.000000
      8         -8.720986   1.000000
      9         -3.908220   1.000000
     10         -3.894492   1.000000
     11         -2.481819   0.999989
     12         -1.839794   0.000001
     13         -1.664349   0.000000
     14         -1.440939   0.000000
     15         -1.426530   0.000000
     16         -1.162129   0.000000
     17         -1.111943   0.000000
     18          0.791396   0.000000
     19          1.644639   0.000000
     20          2.388556   0.000000
     21          2.544664   0.000000
     22          4.402632   0.000000
     23          4.961666   0.000000
     24          5.631702   0.000000
     25          6.318867   0.000000
     26          6.324095   0.000000
     27          6.555967   0.000000
     28          7.441945   0.000000
     29          7.500763   0.000000
     30          8.016373   0.000000
     31          8.359637   0.000000
     32          8.619937   0.000000
     33          8.962446   0.000000
     34          9.018611   0.000000
     35          9.046653   0.000000
     36          9.053497   0.000000
     37          9.197834   0.000000
     38          9.314152   0.000000
     39          9.403036   0.000000
     40          9.486150   0.000000
     41          9.557074   0.000000
     42          9.615789   0.000000
     43          9.653086   0.000000
     44          9.963981   0.000000
     45         10.019562   0.000000
     46         10.022858   0.000000
     47         10.113807   0.000000
     48         10.401455   0.000000
 
  0.2359843E-01  0.2359843E-01  0.0000000E+00  0.2604167E-02
      1        -17.881259   1.000000
      2        -13.955156   1.000000
      3        -13.656585   1.000000
      4        -13.430746   1.000000
      5        -11.497869   1.000000
      6        -11.463328   1.000000
      7         -9.376138   1.000000
      8         -8.718548   1.000000
      9         -3.928843   1.000000
     10         -3.911523   1.000000
     11         -2.521083   0.999999
     12         -1.864035   0.000003
     13         -1.654086   0.000000
     14         -1.422631   0.000000
     15         -1.404317   0.000000
     16         -1.142130   0.000000
     17         -1.076251   0.000000
     18          0.794026   0.000000
     19          1.649084   0.000000
     20          2.391269   0.000000
     21          2.552019   0.000000
     22          4.405323   0.000000
     23          4.964223   0.000000
     24          5.614627   0.000000
     25          6.309894   0.000000
     26          6.314008   0.000000
     27          6.548737   0.000000
     28          7.421841   0.000000
     29          7.495540   0.000000
     30          8.006977   0.000000
     31          8.361987   0.000000
     32          8.623115   0.000000
     33          8.949235   0.000000
     34          8.992547   0.000000
     35          8.995662   0.000000
     36          9.000028   0.000000
     37          9.189126   0.000000
     38          9.309831   0.000000
     39          9.403422   0.000000
     40          9.487441   0.000000
     41          9.559794   0.000000
     42          9.647933   0.000000
     43          9.695812   0.000000
     44          9.981123   0.000000
     45         10.017943   0.000000
     46         10.085549   0.000000
     47         10.088589   0.000000
     48         10.403254   0.000000
 
  0.2622047E-01  0.2622047E-01  0.0000000E+00  0.2604167E-02
      1        -17.879473   1.000000
      2        -13.984004   1.000000
      3        -13.658521   1.000000
      4        -13.403159   1.000000
      5        -11.500978   1.000000
      6        -11.458494   1.000000
      7         -9.367566   1.000000
      8         -8.715824   1.000000
      9         -3.951475   1.000000
     10         -3.930210   1.000000
     11         -2.562030   1.000000
     12         -1.889564   0.000018
     13         -1.644310   0.000000
     14         -1.402559   0.000000
     15         -1.379860   0.000000
     16         -1.121318   0.000000
     17         -1.037606   0.000000
     18          0.796966   0.000000
     19          1.654023   0.000000
     20          2.394300   0.000000
     21          2.560234   0.000000
     22          4.408329   0.000000
     23          4.967080   0.000000
     24          5.595672   0.000000
     25          6.300001   0.000000
     26          6.301756   0.000000
     27          6.541836   0.000000
     28          7.399775   0.000000
     29          7.489781   0.000000
     30          7.996490   0.000000
     31          8.364588   0.000000
     32          8.626659   0.000000
     33          8.934574   0.000000
     34          8.938143   0.000000
     35          8.938469   0.000000
     36          8.980128   0.000000
     37          9.181994   0.000000
     38          9.305808   0.000000
     39          9.403465   0.000000
     40          9.489056   0.000000
     41          9.562829   0.000000
     42          9.680201   0.000000
     43          9.739977   0.000000
     44          9.945035   0.000000
     45         10.067365   0.000000
     46         10.071515   0.000000
     47         10.148554   0.000000
     48         10.405555   0.000000
 
  0.2884252E-01  0.2884252E-01  0.0000000E+00  0.2604167E-02
      1        -17.877499   1.000000
      2        -14.012915   1.000000
      3        -13.660666   1.000000
      4        -13.375648   1.000000
      5        -11.504343   1.000000
      6        -11.453146   1.000000
      7         -9.358165   1.000000
      8         -8.712813   1.000000
      9         -3.976021   1.000000
     10         -3.950416   1.000000
     11         -2.604328   1.000000
     12         -1.916185   0.000086
     13         -1.635017   0.000000
     14         -1.380834   0.000000
     15         -1.353245   0.000000
     16         -1.099880   0.000000
     17         -0.996344   0.000000
     18          0.800215   0.000000
     19          1.659447   0.000000
     20          2.397651   0.000000
     21          2.569308   0.000000
     22          4.411652   0.000000
     23          4.970236   0.000000
     24          5.574885   0.000000
     25          6.287135   0.000000
     26          6.289216   0.000000
     27          6.535530   0.000000
     28          7.375865   0.000000
     29          7.483521   0.000000
     30          7.984918   0.000000
     31          8.367427   0.000000
     32          8.630577   0.000000
     33          8.880813   0.000000
     34          8.884383   0.000000
     35          8.918639   0.000000
     36          8.959040   0.000000
     37          9.176227   0.000000
     38          9.302009   0.000000
     39          9.403146   0.000000
     40          9.490949   0.000000
     41          9.566180   0.000000
     42          9.711846   0.000000
     43          9.785210   0.000000
     44          9.911768   0.000000
     45         10.050996   0.000000
     46         10.124414   0.000000
     47         10.211847   0.000000
     48         10.408120   0.000000
 
  0.3146457E-01  0.3146457E-01  0.0000000E+00  0.2604167E-02
      1        -17.875342   1.000000
      2        -14.041870   1.000000
      3        -13.663024   1.000000
      4        -13.348237   1.000000
      5        -11.507947   1.000000
      6        -11.447288   1.000000
      7         -9.347961   1.000000
      8         -8.709517   1.000000
      9         -4.002369   1.000000
     10         -3.972061   1.000000
     11         -2.647711   1.000000
     12         -1.943736   0.000379
     13         -1.626162   0.000000
     14         -1.357558   0.000000
     15         -1.324581   0.000000
     16         -1.077969   0.000000
     17         -0.952777   0.000000
     18          0.803773   0.000000
     19          1.665346   0.000000
     20          2.401321   0.000000
     21          2.579237   0.000000
     22          4.415289   0.000000
     23          4.973690   0.000000
     24          5.552315   0.000000
     25          6.270005   0.000000
     26          6.277565   0.000000
     27          6.530016   0.000000
     28          7.350231   0.000000
     29          7.476800   0.000000
     30          7.972266   0.000000
     31          8.370481   0.000000
     32          8.634866   0.000000
     33          8.823822   0.000000
     34          8.830405   0.000000
     35          8.901295   0.000000
     36          8.936680   0.000000
     37          9.171627   0.000000
     38          9.298401   0.000000
     39          9.402439   0.000000
     40          9.493091   0.000000
     41          9.569847   0.000000
     42          9.741874   0.000000
     43          9.829793   0.000000
     44          9.883149   0.000000
     45         10.040387   0.000000
     46         10.176500   0.000000
     47         10.275493   0.000000
     48         10.415644   0.000000
 
  0.3408661E-01  0.3408661E-01  0.0000000E+00  0.2604167E-02
      1        -17.872994   1.000000
      2        -14.070852   1.000000
      3        -13.665592   1.000000
      4        -13.320946   1.000000
      5        -11.511774   1.000000
      6        -11.440917   1.000000
      7         -9.336975   1.000000
      8         -8.705933   1.000000
      9         -4.030420   1.000000
     10         -3.995054   1.000000
     11         -2.691964   1.000000
     12         -1.972083   0.001505
     13         -1.617679   0.000000
     14         -1.332870   0.000000
     15         -1.293970   0.000000
     16         -1.055709   0.000000
     17         -0.907186   0.000000
     18          0.807640   0.000000
     19          1.671710   0.000000
     20          2.405309   0.000000
     21          2.590020   0.000000
     22          4.419243   0.000000
     23          4.977442   0.000000
     24          5.528021   0.000000
     25          6.250301   0.000000
     26          6.265071   0.000000
     27          6.525422   0.000000
     28          7.322998   0.000000
     29          7.469668   0.000000
     30          7.958540   0.000000
     31          8.373718   0.000000
     32          8.639519   0.000000
     33          8.767121   0.000000
     34          8.776616   0.000000
     35          8.882575   0.000000
     36          8.912977   0.000000
     37          9.168023   0.000000
     38          9.294979   0.000000
     39          9.401325   0.000000
     40          9.495460   0.000000
     41          9.573831   0.000000
     42          9.769025   0.000000
     43          9.844705   0.000000
     44          9.888236   0.000000
     45         10.036777   0.000000
     46         10.227390   0.000000
     47         10.339265   0.000000
     48         10.412891   0.000000
 
  0.3670866E-01  0.3670866E-01  0.0000000E+00  0.2604167E-02
      1        -17.870458   1.000000
      2        -14.099849   1.000000
      3        -13.668371   1.000000
      4        -13.293779   1.000000
      5        -11.515795   1.000000
      6        -11.434031   1.000000
      7         -9.325228   1.000000
      8         -8.702064   1.000000
      9         -4.060053   1.000000
     10         -4.019273   1.000000
     11         -2.736912   1.000000
     12         -2.001118   0.005291
     13         -1.609495   0.000000
     14         -1.306847   0.000000
     15         -1.261507   0.000000
     16         -1.033197   0.000000
     17         -0.859823   0.000000
     18          0.811817   0.000000
     19          1.678529   0.000000
     20          2.409617   0.000000
     21          2.601652   0.000000
     22          4.423511   0.000000
     23          4.981491   0.000000
     24          5.502062   0.000000
     25          6.228038   0.000000
     26          6.251752   0.000000
     27          6.521798   0.000000
     28          7.294298   0.000000
     29          7.462177   0.000000
     30          7.943746   0.000000
     31          8.377082   0.000000
     32          8.644540   0.000000
     33          8.710713   0.000000
     34          8.723106   0.000000
     35          8.862431   0.000000
     36          8.887865   0.000000
     37          9.165270   0.000000
     38          9.291766   0.000000
     39          9.399809   0.000000
     40          9.498041   0.000000
     41          9.578132   0.000000
     42          9.791977   0.000000
     43          9.822883   0.000000
     44          9.934189   0.000000
     45         10.041415   0.000000
     46         10.276818   0.000000
     47         10.403602   0.000000
     48         10.427170   0.000000
 
  0.3933071E-01  0.3933071E-01  0.0000000E+00  0.2604167E-02
      1        -17.867735   1.000000
      2        -14.128850   1.000000
      3        -13.671366   1.000000
      4        -13.266754   1.000000
      5        -11.519991   1.000000
      6        -11.426631   1.000000
      7         -9.312748   1.000000
      8         -8.697908   1.000000
      9         -4.091165   1.000000
     10         -4.044632   1.000000
     11         -2.782414   1.000000
     12         -2.030750   0.016293
     13         -1.601535   0.000000
     14         -1.279605   0.000000
     15         -1.227291   0.000000
     16         -1.010514   0.000000
     17         -0.810902   0.000000
     18          0.816303   0.000000
     19          1.685792   0.000000
     20          2.414244   0.000000
     21          2.614129   0.000000
     22          4.428094   0.000000
     23          4.985836   0.000000
     24          5.474502   0.000000
     25          6.203284   0.000000
     26          6.237623   0.000000
     27          6.519132   0.000000
     28          7.264255   0.000000
     29          7.454385   0.000000
     30          7.927890   0.000000
     31          8.380473   0.000000
     32          8.649921   0.000000
     33          8.654602   0.000000
     34          8.669999   0.000000
     35          8.840803   0.000000
     36          8.861288   0.000000
     37          9.163258   0.000000
     38          9.288796   0.000000
     39          9.397921   0.000000
     40          9.500819   0.000000
     41          9.582751   0.000000
     42          9.801195   0.000000
     43          9.809828   0.000000
     44          9.984130   0.000000
     45         10.055004   0.000000
     46         10.324381   0.000000
     47         10.419857   0.000000
     48         10.467916   0.000000
 
  0.4195276E-01  0.4195276E-01  0.0000000E+00  0.2604167E-02
      1        -17.864826   1.000000
      2        -14.157848   1.000000
      3        -13.674577   1.000000
      4        -13.239883   1.000000
      5        -11.524341   1.000000
      6        -11.418716   1.000000
      7         -9.299559   1.000000
      8         -8.693467   1.000000