  16  16   0   4
  0.2046017E+02  0.5020000E-09  0.5020000E-09  0.1500000E-08  0.5000000E-15
  1.000000000000000E-004
  CAR 
 Lattice                                 
      9.74105848    -21.39274196  301     -0.93943283      1.00000000
    -21.393  0.0000E+00  0.0000E+00  0.0000E+00  0.0000E+00
    -21.289  0.0000E+00  0.0000E+00  0.0000E+00  0.0000E+00
    -21.185  0.0000E+00  0.0000E+00  0.0000E+00  0.0000E+00
    -21.081  0.0000E+00  0.0000E+00  0.0000E+00  0.0000E+00
    -20.978  0.0000E+00  0.0000E+00  0.0000E+00  0.0000E+00
    -20.874  0.0000E+00  0.0000E+00  0.0000E+00  0.0000E+00
    -20.770  0.0000E+00  0.0000E+00  0.0000E+00  0.0000E+00
    -20.666  0.0000E+00  0.0000E+00  0.0000E+00  0.0000E+00
    -20.563  0.2902E-19  0.2902E-19  0.3012E-20  0.3012E-20
    -20.459  0.2921E-14  0.2921E-14  0.3032E-15  0.3032E-15
    -20.355  0.3042E-10  0.3042E-10  0.3157E-11  0.3157E-11
    -20.251  0.4319E-07  0.4319E-07  0.4485E-08  0.4485E-08
    -20.147  0.9054E-05  0.9054E-05  0.9441E-06  0.9441E-06
    -20.044  0.3094E-03  0.3094E-03  0.3306E-04  0.3306E-04
    -19.940  0.2109E-02  0.2109E-02  0.2519E-03  0.2519E-03
    -19.836  0.4373E-02  0.4373E-02  0.7057E-03  0.7057E-03
    -19.732  0.4857E-02  0.4857E-02  0.1210E-02  0.1210E-02
    -19.628  0.5141E-02  0.5141E-02  0.1743E-02  0.1743E-02
    -19.525  0.4580E-02  0.4580E-02  0.2219E-02  0.2219E-02
    -19.421  0.5649E-02  0.5649E-02  0.2805E-02  0.2805E-02
    -19.317  0.4259E-02  0.4259E-02  0.3247E-02  0.3247E-02
    -19.213  0.5124E-02  0.5124E-02  0.3779E-02  0.3779E-02
    -19.110  0.5956E-02  0.5956E-02  0.4397E-02  0.4397E-02
    -19.006  0.3647E-02  0.3647E-02  0.4775E-02  0.4775E-02
    -18.902  0.5125E-02  0.5125E-02  0.5307E-02  0.5307E-02
    -18.798  0.6368E-02  0.6368E-02  0.5968E-02  0.5968E-02
    -18.694  0.4571E-02  0.4571E-02  0.6442E-02  0.6442E-02
    -18.591  0.3216E-02  0.3216E-02  0.6776E-02  0.6776E-02
    -18.487  0.6498E-02  0.6498E-02  0.7450E-02  0.7450E-02
    -18.383  0.6199E-02  0.6199E-02  0.8094E-02  0.8094E-02
    -18.279  0.4258E-02  0.4258E-02  0.8536E-02  0.8536E-02
    -18.176  0.3367E-02  0.3367E-02  0.8885E-02  0.8885E-02
    -18.072  0.5726E-02  0.5726E-02  0.9479E-02  0.9479E-02
    -17.968  0.1002E-01  0.1002E-01  0.1052E-01  0.1052E-01
    -17.864  0.1045E-01  0.1045E-01  0.1160E-01  0.1160E-01
    -17.760  0.1050E-01  0.1050E-01  0.1269E-01  0.1269E-01
    -17.657  0.1217E-01  0.1217E-01  0.1396E-01  0.1396E-01
    -17.553  0.1503E-01  0.1503E-01  0.1552E-01  0.1552E-01
    -17.449  0.1831E-01  0.1831E-01  0.1742E-01  0.1742E-01
    -17.345  0.2020E-01  0.2020E-01  0.1951E-01  0.1951E-01
    -17.242  0.1552E-01  0.1552E-01  0.2112E-01  0.2112E-01
    -17.138  0.7333E-02  0.7333E-02  0.2188E-01  0.2188E-01
    -17.034  0.7235E-02  0.7235E-02  0.2264E-01  0.2264E-01
    -16.930  0.6915E-02  0.6915E-02  0.2335E-01  0.2335E-01
    -16.826  0.5715E-02  0.5715E-02  0.2395E-01  0.2395E-01
    -16.723  0.4697E-02  0.4697E-02  0.2443E-01  0.2443E-01
    -16.619  0.3133E-02  0.3133E-02  0.2476E-01  0.2476E-01
    -16.515  0.3232E-02  0.3232E-02  0.2509E-01  0.2509E-01
    -16.411  0.8804E-02  0.8804E-02  0.2601E-01  0.2601E-01
    -16.308  0.7122E-02  0.7122E-02  0.2675E-01  0.2675E-01
    -16.204  0.4823E-02  0.4823E-02  0.2725E-01  0.2725E-01
    -16.100  0.4299E-02  0.4299E-02  0.2769E-01  0.2769E-01
    -15.996  0.4333E-02  0.4333E-02  0.2814E-01  0.2814E-01
    -15.892  0.3437E-02  0.3437E-02  0.2850E-01  0.2850E-01
    -15.789  0.7050E-02  0.7050E-02  0.2923E-01  0.2923E-01
    -15.685  0.1063E-01  0.1063E-01  0.3034E-01  0.3034E-01
    -15.581  0.1093E-01  0.1093E-01  0.3147E-01  0.3147E-01
    -15.477  0.1419E-01  0.1419E-01  0.3294E-01  0.3294E-01
    -15.374  0.1595E-01  0.1595E-01  0.3460E-01  0.3460E-01
    -15.270  0.1376E-01  0.1376E-01  0.3602E-01  0.3602E-01
    -15.166  0.1324E-01  0.1324E-01  0.3740E-01  0.3740E-01
    -15.062  0.1673E-01  0.1673E-01  0.3914E-01  0.3914E-01
    -14.958  0.1676E-01  0.1676E-01  0.4087E-01  0.4087E-01
    -14.855  0.1367E-01  0.1367E-01  0.4229E-01  0.4229E-01
    -14.751  0.1061E-01  0.1061E-01  0.4339E-01  0.4339E-01
    -14.647  0.8876E-02  0.8876E-02  0.4432E-01  0.4432E-01
    -14.543  0.1278E-01  0.1278E-01  0.4564E-01  0.4564E-01
    -14.440  0.1838E-01  0.1838E-01  0.4755E-01  0.4755E-01
    -14.336  0.1645E-01  0.1645E-01  0.4926E-01  0.4926E-01
    -14.232  0.1240E-01  0.1240E-01  0.5054E-01  0.5054E-01
    -14.128  0.9327E-02  0.9327E-02  0.5151E-01  0.5151E-01
    -14.024  0.8260E-02  0.8260E-02  0.5237E-01  0.5237E-01
    -13.921  0.8186E-02  0.8186E-02  0.5322E-01  0.5322E-01
    -13.817  0.9094E-02  0.9094E-02  0.5416E-01  0.5416E-01
    -13.713  0.6099E-02  0.6099E-02  0.5479E-01  0.5479E-01
    -13.609  0.4970E-02  0.4970E-02  0.5531E-01  0.5531E-01
    -13.506  0.4314E-02  0.4314E-02  0.5576E-01  0.5576E-01
    -13.402  0.5409E-02  0.5409E-02  0.5632E-01  0.5632E-01
    -13.298  0.5938E-02  0.5938E-02  0.5694E-01  0.5694E-01
    -13.194  0.5907E-02  0.5907E-02  0.5755E-01  0.5755E-01
    -13.090  0.7770E-02  0.7770E-02  0.5835E-01  0.5835E-01
    -12.987  0.6856E-02  0.6856E-02  0.5907E-01  0.5907E-01
    -12.883  0.8506E-02  0.8506E-02  0.5995E-01  0.5995E-01
    -12.779  0.6940E-02  0.6940E-02  0.6067E-01  0.6067E-01
    -12.675  0.5799E-02  0.5799E-02  0.6127E-01  0.6127E-01
    -12.571  0.6518E-02  0.6518E-02  0.6195E-01  0.6195E-01
    -12.468  0.3216E-02  0.3216E-02  0.6228E-01  0.6228E-01
    -12.364  0.7419E-02  0.7419E-02  0.6305E-01  0.6305E-01
    -12.260  0.7784E-02  0.7784E-02  0.6386E-01  0.6386E-01
    -12.156  0.4496E-02  0.4496E-02  0.6433E-01  0.6433E-01
    -12.053  0.7953E-02  0.7953E-02  0.6515E-01  0.6515E-01
    -11.949  0.1307E-01  0.1307E-01  0.6651E-01  0.6651E-01
    -11.845  0.1688E-01  0.1688E-01  0.6826E-01  0.6826E-01
    -11.741  0.1420E-01  0.1420E-01  0.6973E-01  0.6973E-01
    -11.637  0.1377E-01  0.1377E-01  0.7116E-01  0.7116E-01
    -11.534  0.1569E-01  0.1569E-01  0.7279E-01  0.7279E-01
    -11.430  0.1521E-01  0.1521E-01  0.7437E-01  0.7437E-01
    -11.326  0.9874E-02  0.9874E-02  0.7539E-01  0.7539E-01
    -11.222  0.8791E-02  0.8791E-02  0.7630E-01  0.7630E-01
    -11.119  0.1055E-01  0.1055E-01  0.7740E-01  0.7740E-01
    -11.015  0.1072E-01  0.1072E-01  0.7851E-01  0.7851E-01
    -10.911  0.7394E-02  0.7394E-02  0.7928E-01  0.7928E-01
    -10.807  0.1029E-01  0.1029E-01  0.8035E-01  0.8035E-01
    -10.703  0.1444E-01  0.1444E-01  0.8184E-01  0.8184E-01
    -10.600  0.1351E-01  0.1351E-01  0.8325E-01  0.8325E-01
    -10.496  0.8908E-02  0.8908E-02  0.8417E-01  0.8417E-01
    -10.392  0.6740E-02  0.6740E-02  0.8487E-01  0.8487E-01
    -10.288  0.1520E-01  0.1520E-01  0.8645E-01  0.8645E-01
    -10.185  0.1847E-01  0.1847E-01  0.8836E-01  0.8836E-01
    -10.081  0.1270E-01  0.1270E-01  0.8968E-01  0.8968E-01
     -9.977  0.9931E-02  0.9931E-02  0.9071E-01  0.9071E-01
     -9.873  0.7800E-02  0.7800E-02  0.9152E-01  0.9152E-01
     -9.769  0.1001E-01  0.1001E-01  0.9256E-01  0.9256E-01
     -9.666  0.1133E-01  0.1133E-01  0.9374E-01  0.9374E-01
     -9.562  0.1157E-01  0.1157E-01  0.9494E-01  0.9494E-01
     -9.458  0.1061E-01  0.1061E-01  0.9604E-01  0.9604E-01
     -9.354  0.9122E-02  0.9122E-02  0.9699E-01  0.9699E-01
     -9.251  0.1130E-01  0.1130E-01  0.9816E-01  0.9816E-01
     -9.147  0.5161E-02  0.5161E-02  0.9869E-01  0.9869E-01
     -9.043  0.1364E-02  0.1364E-02  0.9884E-01  0.9884E-01
     -8.939  0.8078E-02  0.8078E-02  0.9967E-01  0.9967E-01
     -8.835  0.1750E-01  0.1750E-01  0.1015E+00  0.1015E+00
     -8.732  0.1883E-01  0.1883E-01  0.1034E+00  0.1034E+00
     -8.628  0.1215E-01  0.1215E-01  0.1047E+00  0.1047E+00
     -8.524  0.7487E-02  0.7487E-02  0.1055E+00  0.1055E+00
     -8.420  0.9011E-02  0.9011E-02  0.1064E+00  0.1064E+00
     -8.317  0.1015E-01  0.1015E-01  0.1075E+00  0.1075E+00
     -8.213  0.2347E-01  0.2347E-01  0.1099E+00  0.1099E+00
     -8.109  0.2562E-01  0.2562E-01  0.1126E+00  0.1126E+00
     -8.005  0.1856E-01  0.1856E-01  0.1145E+00  0.1145E+00
     -7.901  0.1650E-01  0.1650E-01  0.1162E+00  0.1162E+00
     -7.798  0.1249E-01  0.1249E-01  0.1175E+00  0.1175E+00
     -7.694  0.1923E-01  0.1923E-01  0.1195E+00  0.1195E+00
     -7.590  0.2489E-01  0.2489E-01  0.1221E+00  0.1221E+00
     -7.486  0.2213E-01  0.2213E-01  0.1244E+00  0.1244E+00
     -7.383  0.2219E-01  0.2219E-01  0.1267E+00  0.1267E+00
     -7.279  0.2607E-01  0.2607E-01  0.1294E+00  0.1294E+00
     -7.175  0.2345E-01  0.2345E-01  0.1318E+00  0.1318E+00
     -7.071  0.2356E-01  0.2356E-01  0.1343E+00  0.1343E+00
     -6.967  0.2771E-01  0.2771E-01  0.1371E+00  0.1371E+00
     -6.864  0.1814E-01  0.1814E-01  0.1390E+00  0.1390E+00
     -6.760  0.1870E-01  0.1870E-01  0.1410E+00  0.1410E+00
     -6.656  0.2568E-01  0.2568E-01  0.1436E+00  0.1436E+00
     -6.552  0.2753E-01  0.2753E-01  0.1465E+00  0.1465E+00
     -6.449  0.2513E-01  0.2513E-01  0.1491E+00  0.1491E+00
     -6.345  0.2178E-01  0.2178E-01  0.1514E+00  0.1514E+00
     -6.241  0.2425E-01  0.2425E-01  0.1539E+00  0.1539E+00
     -6.137  0.2219E-01  0.2219E-01  0.1562E+00  0.1562E+00
     -6.033  0.1770E-01  0.1770E-01  0.1580E+00  0.1580E+00
     -5.930  0.1743E-01  0.1743E-01  0.1598E+00  0.1598E+00
     -5.826  0.2375E-01  0.2375E-01  0.1623E+00  0.1623E+00
     -5.722  0.2310E-01  0.2310E-01  0.1647E+00  0.1647E+00
     -5.618  0.1802E-01  0.1802E-01  0.1666E+00  0.1666E+00
     -5.515  0.2166E-01  0.2166E-01  0.1688E+00  0.1688E+00
     -5.411  0.2487E-01  0.2487E-01  0.1714E+00  0.1714E+00
     -5.307  0.2850E-01  0.2850E-01  0.1743E+00  0.1743E+00
     -5.203  0.2296E-01  0.2296E-01  0.1767E+00  0.1767E+00
     -5.099  0.1363E-01  0.1363E-01  0.1781E+00  0.1781E+00
     -4.996  0.1190E-01  0.1190E-01  0.1794E+00  0.1794E+00
     -4.892  0.1832E-01  0.1832E-01  0.1813E+00  0.1813E+00
     -4.788  0.1802E-01  0.1802E-01  0.1831E+00  0.1831E+00
     -4.684  0.1622E-01  0.1622E-01  0.1848E+00  0.1848E+00
     -4.580  0.1615E-01  0.1615E-01  0.1865E+00  0.1865E+00
     -4.477  0.1746E-01  0.1746E-01  0.1883E+00  0.1883E+00
     -4.373  0.1824E-01  0.1824E-01  0.1902E+00  0.1902E+00
     -4.269  0.2256E-01  0.2256E-01  0.1925E+00  0.1925E+00
     -4.165  0.2741E-01  0.2741E-01  0.1954E+00  0.1954E+00
     -4.062  0.3736E-01  0.3736E-01  0.1993E+00  0.1993E+00
     -3.958  0.3659E-01  0.3659E-01  0.2031E+00  0.2031E+00
     -3.854  0.2546E-01  0.2546E-01  0.2057E+00  0.2057E+00
     -3.750  0.1616E-01  0.1616E-01  0.2074E+00  0.2074E+00
     -3.646  0.1664E-01  0.1664E-01  0.2091E+00  0.2091E+00
     -3.543  0.1713E-01  0.1713E-01  0.2109E+00  0.2109E+00
     -3.439  0.1828E-01  0.1828E-01  0.2128E+00  0.2128E+00
     -3.335  0.2070E-01  0.2070E-01  0.2149E+00  0.2149E+00
     -3.231  0.1599E-01  0.1599E-01  0.2166E+00  0.2166E+00
     -3.128  0.1334E-01  0.1334E-01  0.2180E+00  0.2180E+00
     -3.024  0.1603E-01  0.1603E-01  0.2196E+00  0.2196E+00
     -2.920  0.2307E-01  0.2307E-01  0.2220E+00  0.2220E+00
     -2.816  0.2272E-01  0.2272E-01  0.2244E+00  0.2244E+00
     -2.712  0.1101E-01  0.1101E-01  0.2255E+00  0.2255E+00
     -2.609  0.1151E-01  0.1151E-01  0.2267E+00  0.2267E+00
     -2.505  0.1901E-01  0.1901E-01  0.2287E+00  0.2287E+00
     -2.401  0.2215E-01  0.2215E-01  0.2310E+00  0.2310E+00
     -2.297  0.1867E-01  0.1867E-01  0.2329E+00  0.2329E+00
     -2.194  0.1970E-01  0.1970E-01  0.2350E+00  0.2350E+00
     -2.090  0.2067E-01  0.2067E-01  0.2371E+00  0.2371E+00
     -1.986  0.8551E-02  0.8551E-02  0.2380E+00  0.2380E+00
     -1.882  0.3523E-02  0.3523E-02  0.2384E+00  0.2384E+00
     -1.778  0.6446E-02  0.6446E-02  0.2391E+00  0.2391E+00
     -1.675  0.6681E-02  0.6681E-02  0.2397E+00  0.2397E+00
     -1.571  0.6150E-02  0.6150E-02  0.2404E+00  0.2404E+00
     -1.467  0.6503E-02  0.6503E-02  0.2411E+00  0.2411E+00
     -1.363  0.4704E-02  0.4704E-02  0.2415E+00  0.2415E+00
     -1.260  0.3474E-02  0.3474E-02  0.2419E+00  0.2419E+00
     -1.156  0.1446E-02  0.1446E-02  0.2421E+00  0.2421E+00
     -1.052  0.2791E-03  0.2791E-03  0.2421E+00  0.2421E+00
     -0.948  0.8351E-03  0.8351E-03  0.2422E+00  0.2422E+00
     -0.844  0.2468E-02  0.2468E-02  0.2424E+00  0.2424E+00
     -0.741  0.3289E-02  0.3289E-02  0.2428E+00  0.2428E+00
     -0.637  0.3791E-02  0.3791E-02  0.2432E+00  0.2432E+00
     -0.533  0.7764E-02  0.7764E-02  0.2440E+00  0.2440E+00
     -0.429  0.9671E-02  0.9671E-02  0.2450E+00  0.2450E+00
     -0.326  0.8116E-02  0.8116E-02  0.2458E+00  0.2458E+00
     -0.222  0.1019E-01  0.1019E-01  0.2469E+00  0.2469E+00
     -0.118  0.1006E-01  0.1006E-01  0.2479E+00  0.2479E+00
     -0.014  0.1081E-01  0.1081E-01  0.2490E+00  0.2490E+00
      0.090  0.5419E-02  0.5419E-02  0.2496E+00  0.2496E+00
      0.193  0.3233E-02  0.3233E-02  0.2499E+00  0.2499E+00
      0.297  0.7462E-02  0.7462E-02  0.2507E+00  0.2507E+00
      0.401  0.9600E-02  0.9600E-02  0.2517E+00  0.2517E+00
      0.505  0.6944E-02  0.6944E-02  0.2524E+00  0.2524E+00
      0.608  0.6654E-02  0.6654E-02  0.2531E+00  0.2531E+00
      0.712  0.9246E-02  0.9246E-02  0.2541E+00  0.2541E+00
      0.816  0.1003E-01  0.1003E-01  0.2551E+00  0.2551E+00
      0.920  0.9021E-02  0.9021E-02  0.2561E+00  0.2561E+00
      1.024  0.1078E-01  0.1078E-01  0.2572E+00  0.2572E+00
      1.127  0.5849E-02  0.5849E-02  0.2578E+00  0.2578E+00
      1.231  0.4915E-02  0.4915E-02  0.2583E+00  0.2583E+00
      1.335  0.5564E-02  0.5564E-02  0.2589E+00  0.2589E+00
      1.439  0.4104E-02  0.4104E-02  0.2593E+00  0.2593E+00
      1.542  0.3942E-02  0.3942E-02  0.2597E+00  0.2597E+00
      1.646  0.5406E-02  0.5406E-02  0.2603E+00  0.2603E+00
      1.750  0.1237E-01  0.1237E-01  0.2615E+00  0.2615E+00
      1.854  0.7625E-02  0.7625E-02  0.2623E+00  0.2623E+00
      1.958  0.2439E-02  0.2439E-02  0.2626E+00  0.2626E+00
      2.061  0.4461E-02  0.4461E-02  0.2631E+00  0.2631E+00
      2.165  0.5310E-02  0.5310E-02  0.2636E+00  0.2636E+00
      2.269  0.9002E-02  0.9002E-02  0.2645E+00  0.2645E+00
      2.373  0.1589E-01  0.1589E-01  0.2662E+00  0.2662E+00
      2.477  0.1326E-01  0.1326E-01  0.2676E+00  0.2676E+00
      2.580  0.1219E-01  0.1219E-01  0.2688E+00  0.2688E+00
      2.684  0.1317E-01  0.1317E-01  0.2702E+00  0.2702E+00
      2.788  0.9526E-02  0.9526E-02  0.2712E+00  0.2712E+00
      2.892  0.8857E-02  0.8857E-02  0.2721E+00  0.2721E+00
      2.995  0.1039E-01  0.1039E-01  0.2732E+00  0.2732E+00
      3.099  0.1200E-01  0.1200E-01  0.2744E+00  0.2744E+00
      3.203  0.1369E-01  0.1369E-01  0.2758E+00  0.2758E+00
      3.307  0.1525E-01  0.1525E-01  0.2774E+00  0.2774E+00
      3.411  0.1171E-01  0.1171E-01  0.2786E+00  0.2786E+00
      3.514  0.8510E-02  0.8510E-02  0.2795E+00  0.2795E+00
      3.618  0.1022E-01  0.1022E-01  0.2806E+00  0.2806E+00
      3.722  0.1265E-01  0.1265E-01  0.2819E+00  0.2819E+00
      3.826  0.1070E-01  0.1070E-01  0.2830E+00  0.2830E+00
      3.929  0.1175E-01  0.1175E-01  0.2842E+00  0.2842E+00
      4.033  0.1667E-01  0.1667E-01  0.2860E+00  0.2860E+00
      4.137  0.1537E-01  0.1537E-01  0.2876E+00  0.2876E+00
      4.241  0.1291E-01  0.1291E-01  0.2889E+00  0.2889E+00
      4.345  0.1601E-01  0.1601E-01  0.2906E+00  0.2906E+00
      4.448  0.1741E-01  0.1741E-01  0.2924E+00  0.2924E+00
      4.552  0.1471E-01  0.1471E-01  0.2939E+00  0.2939E+00
      4.656  0.8912E-02  0.8912E-02  0.2948E+00  0.2948E+00
      4.760  0.1450E-01  0.1450E-01  0.2963E+00  0.2963E+00
      4.863  0.2188E-01  0.2188E-01  0.2986E+00  0.2986E+00
      4.967  0.1906E-01  0.1906E-01  0.3006E+00  0.3006E+00
      5.071  0.1743E-01  0.1743E-01  0.3024E+00  0.3024E+00
      5.175  0.1590E-01  0.1590E-01  0.3040E+00  0.3040E+00
      5.279  0.1479E-01  0.1479E-01  0.3056E+00  0.3056E+00
      5.382  0.1506E-01  0.1506E-01  0.3071E+00  0.3071E+00
      5.486  0.2117E-01  0.2118E-01  0.3093E+00  0.3093E+00
      5.590  0.2030E-01  0.2030E-01  0.3114E+00  0.3114E+00
      5.694  0.1329E-01  0.1329E-01  0.3128E+00  0.3128E+00
      5.797  0.1222E-01  0.1222E-01  0.3141E+00  0.3141E+00
      5.901  0.1884E-01  0.1884E-01  0.3160E+00  0.3160E+00
      6.005  0.2017E-01  0.2017E-01  0.3181E+00  0.3181E+00
      6.109  0.2209E-01  0.2209E-01  0.3204E+00  0.3204E+00
      6.213  0.2977E-01  0.2977E-01  0.3235E+00  0.3235E+00
      6.316  0.2752E-01  0.2752E-01  0.3264E+00  0.3264E+00
      6.420  0.2428E-01  0.2428E-01  0.3289E+00  0.3289E+00
      6.524  0.1958E-01  0.1958E-01  0.3309E+00  0.3309E+00
      6.628  0.1468E-01  0.1468E-01  0.3324E+00  0.3324E+00
      6.731  0.2616E-01  0.2616E-01  0.3352E+00  0.3352E+00
      6.835  0.3413E-01  0.3413E-01  0.3387E+00  0.3387E+00
      6.939  0.2842E-01  0.2842E-01  0.3416E+00  0.3416E+00
      7.043  0.3079E-01  0.3079E-01  0.3448E+00  0.3448E+00
      7.147  0.3498E-01  0.3498E-01  0.3485E+00  0.3485E+00
      7.250  0.3554E-01  0.3554E-01  0.3522E+00  0.3522E+00
      7.354  0.2763E-01  0.2763E-01  0.3550E+00  0.3550E+00
      7.458  0.3054E-01  0.3054E-01  0.3582E+00  0.3582E+00
      7.562  0.3826E-01  0.3826E-01  0.3622E+00  0.3622E+00
      7.665  0.3090E-01  0.3090E-01  0.3654E+00  0.3654E+00
      7.769  0.3180E-01  0.3180E-01  0.3687E+00  0.3687E+00
      7.873  0.2436E-01  0.2436E-01  0.3712E+00  0.3712E+00
      7.977  0.1646E-01  0.1647E-01  0.3729E+00  0.3729E+00
      8.081  0.1090E-01  0.1091E-01  0.3740E+00  0.3740E+00
      8.184  0.4216E-02  0.4198E-02  0.3745E+00  0.3745E+00
      8.288  0.1741E-02  0.1736E-02  0.3747E+00  0.3747E+00
      8.392  0.2480E-02  0.2480E-02  0.3749E+00  0.3749E+00
      8.496  0.7591E-03  0.7591E-03  0.3750E+00  0.3750E+00
      8.599  0.3579E-04  0.3578E-04  0.3750E+00  0.3750E+00
      8.703  0.2339E-06  0.2339E-06  0.3750E+00  0.3750E+00
      8.807  0.1973E-09  0.1972E-09  0.3750E+00  0.3750E+00
      8.911  0.2062E-13  0.2061E-13  0.3750E+00  0.3750E+00
      9.015  0.0000E+00  0.0000E+00  0.3750E+00  0.3750E+00
      9.118  0.0000E+00  0.0000E+00  0.3750E+00  0.3750E+00
      9.222  0.0000E+00  0.0000E+00  0.3750E+00  0.3750E+00
      9.326  0.0000E+00  0.0000E+00  0.3750E+00  0.3750E+00
      9.430  0.0000E+00  0.0000E+00  0.3750E+00  0.3750E+00
      9.533  0.0000E+00  0.0000E+00  0.3750E+00  0.3750E+00
      9.637  0.0000E+00  0.0000E+00  0.3750E+00  0.3750E+00
      9.741  0.0000E+00  0.0000E+00  0.3750E+00  0.3750E+00
