       N       E                     dE             d eps       ncg     rms          rms(c)
DAV:   1    -0.517317257796E+02   -0.51732E+02   -0.10710E+04 65280   0.325E+01
DAV:   2    -0.565130954554E+02   -0.47814E+01   -0.47814E+01 82080   0.283E+00
DAV:   3    -0.565132001466E+02   -0.10469E-03   -0.10469E-03 47040   0.134E-02
DAV:   4    -0.565132001597E+02   -0.13051E-07   -0.13051E-07 94080   0.118E-04
DAV:   5    -0.565132001597E+02    0.45475E-12    0.40898E-12 47040   0.239E-08    0.108E+01
DAV:   6    -0.529465087696E+02    0.35667E+01   -0.11282E+01 90240   0.540E-01    0.537E+00
DAV:   7    -0.522518290934E+02    0.69468E+00   -0.76962E-01 87360   0.163E-01    0.269E+00
DAV:   8    -0.520176957461E+02    0.23413E+00   -0.56873E-01 92640   0.136E-01    0.461E-01
DAV:   9    -0.520011565517E+02    0.16539E-01   -0.94598E-03 90720   0.229E-02    0.145E-01
DAV:  10    -0.519945691270E+02    0.65874E-02   -0.50128E-03 89760   0.107E-02    0.974E-02
DAV:  11    -0.519931531983E+02    0.14159E-02   -0.48102E-03 90240   0.971E-03    0.509E-02
DAV:  12    -0.519929812414E+02    0.17196E-03   -0.71140E-04 82080   0.361E-03    0.261E-02
DAV:  13    -0.519945349309E+02   -0.15537E-02   -0.18898E-04 87840   0.232E-03    0.165E-02
DAV:  14    -0.519966448410E+02   -0.21099E-02   -0.47482E-04 88800   0.270E-03    0.801E-03
DAV:  15    -0.519970318345E+02   -0.38699E-03   -0.29952E-05 88320   0.707E-04    0.407E-03
DAV:  16    -0.519972701942E+02   -0.23836E-03   -0.29599E-05 85440   0.624E-04    0.168E-03
DAV:  17    -0.519973263031E+02   -0.56109E-04   -0.31627E-06 85440   0.212E-04    0.457E-04
DAV:  18    -0.519973295551E+02   -0.32520E-05   -0.84822E-08 80640   0.466E-05    0.155E-04
DAV:  19    -0.519973310137E+02   -0.14586E-05   -0.36580E-08 80640   0.238E-05    0.386E-05
DAV:  20    -0.519973312630E+02   -0.24934E-06   -0.71303E-09 71040   0.989E-06
   1 F= -.52491573E+02 E0= -.52491573E+02  d E =-.150170E-11
