    8    8  128    1
  0.4338553E+02  0.5169000E-09  0.5169000E-09  0.1500000E-08  0.5000000E-15
  1.000000000000000E-004
  CAR 
 Lattice                                 
     30      1     24
 
  0.0000000E+00  0.0000000E+00  0.0000000E+00  0.1000000E+01
      1        -19.384992   1.000000
      2        -15.411624   1.000000
      3        -15.411486   1.000000
      4        -13.095824   1.000000
      5        -13.095796   1.000000
      6        -12.224359   1.000000
      7        -10.804744   1.000000
      8         -8.290367   1.000000
      9         -7.904586   1.000000
     10         -5.789499   1.000000
     11         -5.789379   1.000000
     12         -3.974056   1.000000
     13         -3.973979   1.000000
     14         -3.234016   1.000000
     15         -3.233890   1.000000
     16         -1.655985   0.000000
     17          0.374710   0.000000
     18          0.374762   0.000000
     19          0.482409   0.000000
     20          0.866926   0.000000
     21          1.850344   0.000000
     22          2.213555   0.000000
     23          4.220777   0.000000
     24          4.852961   0.000000
