Lattice                                 
           1
     4.361304    2.518000    0.000000
    -4.361304    2.518000    0.000000
     0.000000    0.000000   15.000000
   B    C 
     2    14
Direct configuration=     1
   0.33833034  0.66916432  0.10000000
   0.67165522  0.33584146  0.10000000
   0.16373946  0.31999962  0.10000000
   0.32250218  0.16126397  0.10000000
   0.16376430  0.84376384  0.10000000
   0.84623863  0.16123684  0.10000000
   0.68749850  0.84373000  0.10000000
   0.84626736  0.68499594  0.10000000
   0.16666600  0.33333300  0.32880000
   0.33333300  0.16666600  0.32880000
   0.16666600  0.83333300  0.32880000
   0.33333300  0.66666600  0.32880000
   0.66666600  0.33333300  0.32880000
   0.83333300  0.16666600  0.32880000
   0.66666600  0.83333300  0.32880000
   0.83333300  0.66666600  0.32880000
Direct configuration=     2
   0.33832838  0.66916302  0.10014639
   0.67167643  0.33581235  0.10014638
   0.16719395  0.32691895  0.09994745
   0.32941483  0.16471645  0.09994710
   0.16722466  0.84029322  0.09994747
   0.84276988  0.16469406  0.09994784
   0.68060330  0.84030191  0.09994803
   0.84279487  0.67810106  0.09994783
   0.16636115  0.33271965  0.32887055
   0.33271910  0.16636013  0.32887115
   0.16636120  0.83363941  0.32887055
   0.33332698  0.66666409  0.32860119
   0.66666154  0.33332975  0.32860120
   0.83363907  0.16636199  0.32886920
   0.66727762  0.83363778  0.32886845
   0.83363904  0.66727818  0.32886921
Direct configuration=     3
   0.33832982  0.66916397  0.10003929
   0.67166091  0.33583365  0.10003929
   0.16466660  0.32185668  0.09998590
   0.32435744  0.16219057  0.09998580
   0.16469301  0.84283238  0.09998590
   0.84530767  0.16216471  0.09998600
   0.68564792  0.84280995  0.09998605
   0.84533539  0.68314545  0.09998600
   0.16658418  0.33316839  0.32881894
   0.33316824  0.16658391  0.32881910
   0.16658419  0.83341524  0.32881893
   0.33333139  0.66666549  0.32874664
   0.66666480  0.33333213  0.32874664
   0.83341514  0.16658441  0.32881857
   0.66683015  0.83341480  0.32881837
   0.83341514  0.66683030  0.32881858
Direct configuration=     4
   0.33833487  0.66916456  0.10013875
   0.67166491  0.33583046  0.10013874
   0.16466080  0.32184382  0.09995024
   0.32434664  0.16217940  0.09994990
   0.16467907  0.84283497  0.09995024
   0.84532476  0.16216670  0.09995071
   0.68565577  0.84282393  0.09995085
   0.84534103  0.68315797  0.09995070
   0.16654845  0.33309866  0.32886450
   0.33309790  0.16654864  0.32886507
   0.16654844  0.83344947  0.32886450
   0.33333013  0.66666475  0.32861844
   0.66666343  0.33333154  0.32861844
   0.83344879  0.16654926  0.32886321
   0.66689819  0.83344893  0.32886249
   0.83344880  0.66689893  0.32886321
Direct configuration=     5
   0.33833667  0.66916477  0.10017409
   0.67166634  0.33582932  0.10017408
   0.16465874  0.32183926  0.09993757
   0.32434280  0.16217543  0.09993715
   0.16467412  0.84283589  0.09993757
   0.84533084  0.16216741  0.09993817
   0.68565856  0.84282890  0.09993834
   0.84534304  0.68316242  0.09993816
   0.16653575  0.33307389  0.32888069
   0.33307291  0.16653611  0.32888141
   0.16653574  0.83346164  0.32888069
   0.33332968  0.66666449  0.32857289
   0.66666295  0.33333134  0.32857289
   0.83346074  0.16653677  0.32887907
   0.66692237  0.83346106  0.32887817
   0.83346077  0.66692332  0.32887907
Direct configuration=     6
   0.33831969  0.66916571  0.10024037
   0.67166733  0.33583699  0.10024035
   0.16469890  0.32185421  0.09991347
   0.32434612  0.16218196  0.09991272
   0.16469265  0.84282846  0.09991347
   0.84531087  0.16216257  0.09991457
   0.68567830  0.84282325  0.09991487
   0.84530953  0.68315623  0.09991452
   0.16662655  0.33325748  0.32889422
   0.33325578  0.16662798  0.32889527
   0.16662657  0.83336805  0.32889422
   0.33332845  0.66666432  0.32853873
   0.66666215  0.33333058  0.32853873
   0.83336638  0.16662837  0.32889192
   0.66673638  0.83336768  0.32889066
   0.83336636  0.66673814  0.32889191
Direct configuration=     7
   0.33832985  0.66916515  0.10020071
   0.67166673  0.33583240  0.10020069
   0.16467486  0.32184526  0.09992789
   0.32434413  0.16217805  0.09992734
   0.16468156  0.84283291  0.09992790
   0.84532282  0.16216546  0.09992869
   0.68566649  0.84282663  0.09992891
   0.84532958  0.68315993  0.09992867
   0.16657222  0.33314762  0.32888612
   0.33314635  0.16657300  0.32888698
   0.16657221  0.83342405  0.32888612
   0.33332919  0.66666442  0.32855917
   0.66666263  0.33333103  0.32855917
   0.83342285  0.16657356  0.32888423
   0.66684768  0.83342356  0.32888318
   0.83342285  0.66684895  0.32888423
Direct configuration=     8
   0.33833001  0.66916514  0.10020011
   0.67166672  0.33583233  0.10020009
   0.16467450  0.32184513  0.09992811
   0.32434410  0.16217799  0.09992756
   0.16468139  0.84283298  0.09992811
   0.84532300  0.16216551  0.09992890
   0.68566631  0.84282668  0.09992912
   0.84532988  0.68315999  0.09992888
   0.16657140  0.33314596  0.32888600
   0.33314469  0.16657217  0.32888685
   0.16657139  0.83342490  0.32888600
   0.33332920  0.66666442  0.32855948
   0.66666263  0.33333104  0.32855948
   0.83342370  0.16657273  0.32888411
   0.66684936  0.83342440  0.32888307
   0.83342371  0.66685063  0.32888411
Direct configuration=     9
   0.33832994  0.66916514  0.10020038
   0.67166673  0.33583236  0.10020037
   0.16467467  0.32184519  0.09992801
   0.32434412  0.16217802  0.09992746
   0.16468147  0.84283294  0.09992801
   0.84532292  0.16216549  0.09992880
   0.68566639  0.84282666  0.09992903
   0.84532975  0.68315996  0.09992878
   0.16657177  0.33314672  0.32888606
   0.33314545  0.16657255  0.32888691
   0.16657177  0.83342451  0.32888606
   0.33332919  0.66666442  0.32855934
   0.66666263  0.33333104  0.32855934
   0.83342331  0.16657311  0.32888417
   0.66684859  0.83342402  0.32888312
   0.83342332  0.66684986  0.32888416
Direct configuration=    10
   0.33834045  0.66916791  0.10022250
   0.67166016  0.33583360  0.10022249
   0.16465801  0.32184342  0.09991926
   0.32435644  0.16217230  0.09991851
   0.16466435  0.84282957  0.09991926
   0.84534467  0.16217505  0.09992041
   0.68564957  0.84282944  0.09992082
   0.84535148  0.68315896  0.09992040
   0.16657067  0.33314647  0.32888295
   0.33314461  0.16657202  0.32888395
   0.16657068  0.83342393  0.32888295
   0.33332806  0.66666375  0.32857269
   0.66666137  0.33333055  0.32857269
   0.83342215  0.16657256  0.32888077
   0.66684720  0.83342346  0.32887958
   0.83342214  0.66684900  0.32888077
Direct configuration=    11
   0.33833992  0.66916777  0.10022138
   0.67166049  0.33583353  0.10022137
   0.16465885  0.32184351  0.09991971
   0.32435581  0.16217259  0.09991897
   0.16466522  0.84282974  0.09991970
   0.84534356  0.16217457  0.09992083
   0.68565042  0.84282930  0.09992124
   0.84535037  0.68315901  0.09992082
   0.16657073  0.33314648  0.32888311
   0.33314465  0.16657205  0.32888410
   0.16657074  0.83342396  0.32888311
   0.33332812  0.66666378  0.32857202
   0.66666143  0.33333058  0.32857202
   0.83342221  0.16657258  0.32888094
   0.66684727  0.83342349  0.32887976
   0.83342220  0.66684904  0.32888094
Direct configuration=    12
   0.33833658  0.66916782  0.10023219
   0.67166490  0.33583380  0.10023218
   0.16466937  0.32184430  0.09991525
   0.32435072  0.16217318  0.09991438
   0.16467246  0.84283073  0.09991525
   0.84533744  0.16217348  0.09991660
   0.68565803  0.84283001  0.09991711
   0.84534099  0.68315959  0.09991659
   0.16656816  0.33314244  0.32888147
   0.33314025  0.16656986  0.32888254
   0.16656817  0.83342543  0.32888147
   0.33332738  0.66666343  0.32857938
   0.66666070  0.33333020  0.32857938
   0.83342332  0.16657040  0.32887915
   0.66685021  0.83342496  0.32887790
   0.83342331  0.66685237  0.32887915
Direct configuration=    13
   0.33833473  0.66916785  0.10023817
   0.67166733  0.33583394  0.10023816
   0.16467519  0.32184474  0.09991279
   0.32434790  0.16217350  0.09991184
   0.16467647  0.84283127  0.09991278
   0.84533405  0.16217288  0.09991426
   0.68566225  0.84283040  0.09991483
   0.84533581  0.68315990  0.09991426
   0.16656674  0.33314020  0.32888056
   0.33313781  0.16656865  0.32888168
   0.16656675  0.83342625  0.32888056
   0.33332697  0.66666323  0.32858345
   0.66666029  0.33333000  0.32858345
   0.83342394  0.16656920  0.32887816
   0.66685184  0.83342577  0.32887688
   0.83342393  0.66685420  0.32887816
Direct configuration=    14
   0.33833481  0.66916785  0.10023791
   0.67166722  0.33583394  0.10023790
   0.16467493  0.32184472  0.09991290
   0.32434802  0.16217348  0.09991195
   0.16467629  0.84283125  0.09991289
   0.84533420  0.16217291  0.09991437
   0.68566206  0.84283039  0.09991493
   0.84533604  0.68315989  0.09991436
   0.16656681  0.33314030  0.32888060
   0.33313792  0.16656870  0.32888172
   0.16656682  0.83342621  0.32888060
   0.33332699  0.66666324  0.32858327
   0.66666031  0.33333001  0.32858326
   0.83342391  0.16656925  0.32887821
   0.66685177  0.83342574  0.32887692
   0.83342390  0.66685412  0.32887821
Direct configuration=    15
   0.33833488  0.66916785  0.10023770
   0.67166714  0.33583393  0.10023769
   0.16467473  0.32184471  0.09991298
   0.32434812  0.16217347  0.09991204
   0.16467616  0.84283123  0.09991298
   0.84533432  0.16217293  0.09991445
   0.68566191  0.84283037  0.09991501
   0.84533622  0.68315988  0.09991444
   0.16656686  0.33314038  0.32888064
   0.33313801  0.16656874  0.32888175
   0.16656687  0.83342618  0.32888064
   0.33332700  0.66666325  0.32858313
   0.66666032  0.33333001  0.32858312
   0.83342389  0.16656929  0.32887824
   0.66685171  0.83342571  0.32887696
   0.83342388  0.66685406  0.32887824
Direct configuration=    16
   0.33833485  0.66916785  0.10023780
   0.67166718  0.33583394  0.10023779
   0.16467483  0.32184471  0.09991294
   0.32434807  0.16217348  0.09991200
   0.16467622  0.84283124  0.09991294
   0.84533426  0.16217292  0.09991441
   0.68566198  0.84283038  0.09991497
   0.84533613  0.68315988  0.09991440
   0.16656683  0.33314034  0.32888062
   0.33313796  0.16656872  0.32888173
   0.16656684  0.83342620  0.32888062
   0.33332700  0.66666325  0.32858319
   0.66666031  0.33333001  0.32858319
   0.83342390  0.16656927  0.32887823
   0.66685174  0.83342572  0.32887694
   0.83342389  0.66685409  0.32887823
Direct configuration=    17
   0.33833453  0.66916725  0.10023680
   0.67166750  0.33583362  0.10023679
   0.16467550  0.32184547  0.09991300
   0.32434879  0.16217451  0.09991202
   0.16467668  0.84283073  0.09991300
   0.84533342  0.16217182  0.09991455
   0.68566424  0.84283115  0.09991514
   0.84533483  0.68316080  0.09991454
   0.16656668  0.33314030  0.32888101
   0.33313779  0.16656870  0.32888212
   0.16656668  0.83342598  0.32888100
   0.33332674  0.66666317  0.32858274
   0.66666012  0.33332986  0.32858274
   0.83342355  0.16656925  0.32887861
   0.66685139  0.83342550  0.32887733
   0.83342354  0.66685389  0.32887861
