  16  16   1  16
  0.2065628E+02  0.5044000E-09  0.5044000E-09  0.1500000E-08  0.5000000E-15
  1.000000000000000E-004
  CAR 
 BS_HSE06                                
     21.64490998    -24.50073316  301     -1.07935952      1.00000000
    -24.501  0.0000E+00  0.0000E+00
    -24.347  0.0000E+00  0.0000E+00
    -24.193  0.0000E+00  0.0000E+00
    -24.039  0.0000E+00  0.0000E+00
    -23.885  0.0000E+00  0.0000E+00
    -23.732  0.0000E+00  0.0000E+00
    -23.578  0.0000E+00  0.0000E+00
    -23.424  0.0000E+00  0.0000E+00
    -23.270  0.0000E+00  0.0000E+00
    -23.116  0.0000E+00  0.0000E+00
    -22.963  0.1372E-15  0.2110E-16
    -22.809  0.5578E-09  0.8580E-10
    -22.655  0.2585E-04  0.3977E-05
    -22.501  0.2029E-01  0.3124E-02
    -22.347  0.4685E+00  0.7518E-01
    -22.193  0.1125E+01  0.2482E+00
    -22.040  0.1157E+01  0.4262E+00
    -21.886  0.1134E+01  0.6007E+00
    -21.732  0.1289E+01  0.7990E+00
    -21.578  0.1079E+01  0.9650E+00
    -21.424  0.1115E+01  0.1136E+01
    -21.271  0.1503E+01  0.1368E+01
    -21.117  0.7160E+00  0.1478E+01
    -20.963  0.1496E+01  0.1708E+01
    -20.809  0.1379E+01  0.1920E+01
    -20.655  0.6499E+00  0.2020E+01
    -20.501  0.1814E+01  0.2299E+01
    -20.348  0.2940E+01  0.2751E+01
    -20.194  0.2772E+01  0.3178E+01
    -20.040  0.2719E+01  0.3596E+01
    -19.886  0.4558E+01  0.4297E+01
    -19.732  0.4933E+01  0.5056E+01
    -19.579  0.1819E+01  0.5336E+01
    -19.425  0.1050E+01  0.5497E+01
    -19.271  0.1512E+01  0.5730E+01
    -19.117  0.1709E+01  0.5992E+01
    -18.963  0.1079E+01  0.6158E+01
    -18.809  0.4749E+00  0.6231E+01
    -18.656  0.1569E+01  0.6473E+01
    -18.502  0.1711E+01  0.6736E+01
    -18.348  0.1387E+01  0.6949E+01
    -18.194  0.1127E+01  0.7123E+01
    -18.040  0.6395E+00  0.7221E+01
    -17.887  0.3377E+01  0.7741E+01
    -17.733  0.4638E+01  0.8454E+01
    -17.579  0.3539E+01  0.8998E+01
    -17.425  0.2702E+01  0.9414E+01
    -17.271  0.2493E+01  0.9797E+01
    -17.117  0.3253E+01  0.1030E+02
    -16.964  0.4857E+01  0.1104E+02
    -16.810  0.3565E+01  0.1159E+02
    -16.656  0.2854E+01  0.1203E+02
    -16.502  0.3229E+01  0.1253E+02
    -16.348  0.3682E+01  0.1310E+02
    -16.195  0.2885E+01  0.1354E+02
    -16.041  0.1308E+01  0.1374E+02
    -15.887  0.4650E+00  0.1381E+02
    -15.733  0.5013E+00  0.1389E+02
    -15.579  0.6271E+00  0.1399E+02
    -15.425  0.1026E+01  0.1414E+02
    -15.272  0.1222E+01  0.1433E+02
    -15.118  0.1258E+01  0.1452E+02
    -14.964  0.1335E+01  0.1473E+02
    -14.810  0.2558E+01  0.1512E+02
    -14.656  0.1478E+01  0.1535E+02
    -14.503  0.1234E+01  0.1554E+02
    -14.349  0.1975E+01  0.1584E+02
    -14.195  0.1727E+01  0.1611E+02
    -14.041  0.1589E+01  0.1635E+02
    -13.887  0.3661E+01  0.1692E+02
    -13.733  0.3871E+01  0.1751E+02
    -13.580  0.3499E+01  0.1805E+02
    -13.426  0.3349E+01  0.1857E+02
    -13.272  0.2945E+01  0.1902E+02
    -13.118  0.1939E+01  0.1932E+02
    -12.964  0.2572E+01  0.1971E+02
    -12.811  0.2166E+01  0.2005E+02
    -12.657  0.1725E+01  0.2031E+02
    -12.503  0.2091E+01  0.2063E+02
    -12.349  0.3576E+01  0.2118E+02
    -12.195  0.2539E+01  0.2157E+02
    -12.041  0.2495E+01  0.2196E+02
    -11.888  0.3875E+01  0.2255E+02
    -11.734  0.2422E+01  0.2293E+02
    -11.580  0.1175E+01  0.2311E+02
    -11.426  0.3509E+01  0.2365E+02
    -11.272  0.2384E+01  0.2401E+02
    -11.118  0.2038E+01  0.2433E+02
    -10.965  0.1064E+01  0.2449E+02
    -10.811  0.2717E+01  0.2491E+02
    -10.657  0.1713E+01  0.2517E+02
    -10.503  0.1924E+01  0.2547E+02
    -10.349  0.3165E+01  0.2596E+02
    -10.196  0.4138E+01  0.2659E+02
    -10.042  0.3213E+01  0.2709E+02
     -9.888  0.1866E+01  0.2737E+02
     -9.734  0.2269E+01  0.2772E+02
     -9.580  0.5308E+01  0.2854E+02
     -9.426  0.4116E+01  0.2917E+02
     -9.273  0.4485E+01  0.2986E+02
     -9.119  0.3168E+01  0.3035E+02
     -8.965  0.4891E+01  0.3110E+02
     -8.811  0.5570E+01  0.3196E+02
     -8.657  0.5796E+01  0.3285E+02
     -8.504  0.5094E+01  0.3363E+02
     -8.350  0.5227E+01  0.3444E+02
     -8.196  0.6561E+01  0.3545E+02
     -8.042  0.5218E+01  0.3625E+02
     -7.888  0.5461E+01  0.3709E+02
     -7.734  0.5210E+01  0.3789E+02
     -7.581  0.4702E+01  0.3861E+02
     -7.427  0.4098E+01  0.3924E+02
     -7.273  0.4024E+01  0.3986E+02
     -7.119  0.6414E+01  0.4085E+02
     -6.965  0.5087E+01  0.4163E+02
     -6.812  0.5846E+01  0.4253E+02
     -6.658  0.4873E+01  0.4328E+02
     -6.504  0.4966E+01  0.4404E+02
     -6.350  0.4027E+01  0.4466E+02
     -6.196  0.5732E+01  0.4555E+02
     -6.042  0.5296E+01  0.4636E+02
     -5.889  0.3414E+01  0.4689E+02
     -5.735  0.2783E+01  0.4731E+02
     -5.581  0.5336E+01  0.4813E+02
     -5.427  0.6058E+01  0.4907E+02
     -5.273  0.6675E+01  0.5009E+02
     -5.120  0.5228E+01  0.5090E+02
     -4.966  0.4770E+01  0.5163E+02
     -4.812  0.5757E+01  0.5252E+02
     -4.658  0.3183E+01  0.5301E+02
     -4.504  0.2786E+01  0.5343E+02
     -4.350  0.3130E+01  0.5392E+02
     -4.197  0.3683E+01  0.5448E+02
     -4.043  0.3684E+01  0.5505E+02
     -3.889  0.5131E+01  0.5584E+02
     -3.735  0.5434E+01  0.5667E+02
     -3.581  0.3919E+01  0.5728E+02
     -3.428  0.4147E+01  0.5791E+02
     -3.274  0.5146E+01  0.5871E+02
     -3.120  0.2273E+01  0.5906E+02
     -2.966  0.5217E+01  0.5986E+02
     -2.812  0.5125E+01  0.6065E+02
     -2.658  0.2857E+01  0.6109E+02
     -2.505  0.1792E+01  0.6136E+02
     -2.351  0.1761E+01  0.6163E+02
     -2.197  0.1024E+01  0.6179E+02
     -2.043  0.7451E-01  0.6180E+02
     -1.889  0.1334E+00  0.6182E+02
     -1.736  0.4548E+00  0.6189E+02
     -1.582  0.7641E-01  0.6190E+02
     -1.428  0.3840E+00  0.6196E+02
     -1.274  0.2361E+00  0.6200E+02
     -1.120  0.3993E-02  0.6200E+02
     -0.966  0.8376E-04  0.6200E+02
     -0.813  0.4581E-01  0.6201E+02
     -0.659  0.5914E+00  0.6210E+02
     -0.505  0.9520E+00  0.6224E+02
     -0.351  0.2953E+01  0.6270E+02
     -0.197  0.2432E+01  0.6307E+02
     -0.044  0.2420E+01  0.6345E+02
      0.110  0.2031E+01  0.6376E+02
      0.264  0.1025E+01  0.6392E+02
      0.418  0.5831E+00  0.6400E+02
      0.572  0.1153E+01  0.6418E+02
      0.726  0.1582E+01  0.6443E+02
      0.879  0.9422E+00  0.6457E+02
      1.033  0.9253E+00  0.6471E+02
      1.187  0.2598E+01  0.6511E+02
      1.341  0.3277E+01  0.6562E+02
      1.495  0.1689E+01  0.6588E+02
      1.648  0.1047E+01  0.6604E+02
      1.802  0.1259E+01  0.6623E+02
      1.956  0.1715E+01  0.6649E+02
      2.110  0.1733E+01  0.6676E+02
      2.264  0.1454E+01  0.6698E+02
      2.418  0.1624E+01  0.6723E+02
      2.571  0.2262E+01  0.6758E+02
      2.725  0.2631E+01  0.6799E+02
      2.879  0.2642E+01  0.6839E+02
      3.033  0.2794E+01  0.6882E+02
      3.187  0.3734E+01  0.6940E+02
      3.340  0.3482E+01  0.6993E+02
      3.494  0.2429E+01  0.7031E+02
      3.648  0.3422E+01  0.7083E+02
      3.802  0.2423E+01  0.7121E+02
      3.956  0.2961E+01  0.7166E+02
      4.110  0.3834E+01  0.7225E+02
      4.263  0.3094E+01  0.7273E+02
      4.417  0.3832E+01  0.7332E+02
      4.571  0.3927E+01  0.7392E+02
      4.725  0.2034E+01  0.7423E+02
      4.879  0.3890E+01  0.7483E+02
      5.032  0.5742E+01  0.7572E+02
      5.186  0.3908E+01  0.7632E+02
      5.340  0.3408E+01  0.7684E+02
      5.494  0.6121E+01  0.7778E+02
      5.648  0.4619E+01  0.7849E+02
      5.802  0.3490E+01  0.7903E+02
      5.955  0.2560E+01  0.7942E+02
      6.109  0.4786E+01  0.8016E+02
      6.263  0.5505E+01  0.8101E+02
      6.417  0.4169E+01  0.8165E+02
      6.571  0.4160E+01  0.8229E+02
      6.724  0.4639E+01  0.8300E+02
      6.878  0.6886E+01  0.8406E+02
      7.032  0.5793E+01  0.8495E+02
      7.186  0.5489E+01  0.8580E+02
      7.340  0.6089E+01  0.8673E+02
      7.494  0.6703E+01  0.8776E+02
      7.647  0.8299E+01  0.8904E+02
      7.801  0.8414E+01  0.9033E+02
      7.955  0.1026E+02  0.9191E+02
      8.109  0.9065E+01  0.9331E+02
      8.263  0.7805E+01  0.9451E+02
      8.416  0.9169E+01  0.9592E+02
      8.570  0.9073E+01  0.9731E+02
      8.724  0.8156E+01  0.9857E+02
      8.878  0.9430E+01  0.1000E+03
      9.032  0.8699E+01  0.1014E+03
      9.186  0.8749E+01  0.1027E+03
      9.339  0.8771E+01  0.1041E+03
      9.493  0.9429E+01  0.1055E+03
      9.647  0.7705E+01  0.1067E+03
      9.801  0.9179E+01  0.1081E+03
      9.955  0.9633E+01  0.1096E+03
     10.108  0.1012E+02  0.1111E+03
     10.262  0.1157E+02  0.1129E+03
     10.416  0.8760E+01  0.1143E+03
     10.570  0.1078E+02  0.1159E+03
     10.724  0.1228E+02  0.1178E+03
     10.878  0.1240E+02  0.1197E+03
     11.031  0.1151E+02  0.1215E+03
     11.185  0.1135E+02  0.1232E+03
     11.339  0.1069E+02  0.1249E+03
     11.493  0.1111E+02  0.1266E+03
     11.647  0.9353E+01  0.1280E+03
     11.801  0.1048E+02  0.1296E+03
     11.954  0.9372E+01  0.1311E+03
     12.108  0.9359E+01  0.1325E+03
     12.262  0.1182E+02  0.1343E+03
     12.416  0.1271E+02  0.1363E+03
     12.570  0.9748E+01  0.1378E+03
     12.723  0.1007E+02  0.1393E+03
     12.877  0.1062E+02  0.1410E+03
     13.031  0.1152E+02  0.1427E+03
     13.185  0.8304E+01  0.1440E+03
     13.339  0.5554E+01  0.1449E+03
     13.493  0.8388E+01  0.1462E+03
     13.646  0.1015E+02  0.1477E+03
     13.800  0.1010E+02  0.1493E+03
     13.954  0.1226E+02  0.1512E+03
     14.108  0.1091E+02  0.1529E+03
     14.262  0.1276E+02  0.1548E+03
     14.415  0.1122E+02  0.1565E+03
     14.569  0.7656E+01  0.1577E+03
     14.723  0.8222E+01  0.1590E+03
     14.877  0.9347E+01  0.1604E+03
     15.031  0.1067E+02  0.1621E+03
     15.185  0.1073E+02  0.1637E+03
     15.338  0.7496E+01  0.1649E+03
     15.492  0.1078E+02  0.1665E+03
     15.646  0.1230E+02  0.1684E+03
     15.800  0.1016E+02  0.1700E+03
     15.954  0.9911E+01  0.1715E+03
     16.107  0.8537E+01  0.1728E+03
     16.261  0.8683E+01  0.1741E+03
     16.415  0.8644E+01  0.1755E+03
     16.569  0.6609E+01  0.1765E+03
     16.723  0.7018E+01  0.1776E+03
     16.877  0.7105E+01  0.1787E+03
     17.030  0.8347E+01  0.1800E+03
     17.184  0.7313E+01  0.1811E+03
     17.338  0.7487E+01  0.1822E+03
     17.492  0.8685E+01  0.1836E+03
     17.646  0.7709E+01  0.1848E+03
     17.799  0.7261E+01  0.1859E+03
     17.953  0.6056E+01  0.1868E+03
     18.107  0.5993E+01  0.1877E+03
     18.261  0.5955E+01  0.1886E+03
     18.415  0.7078E+01  0.1897E+03
     18.569  0.4778E+01  0.1905E+03
     18.722  0.4015E+01  0.1911E+03
     18.876  0.2450E+01  0.1915E+03
     19.030  0.1529E+01  0.1917E+03
     19.184  0.1014E+01  0.1918E+03
     19.338  0.5326E+00  0.1919E+03
     19.491  0.2219E+00  0.1920E+03
     19.645  0.2277E+00  0.1920E+03
     19.799  0.1906E-01  0.1920E+03
     19.953  0.4018E-04  0.1920E+03
     20.107  0.1049E-08  0.1920E+03
     20.261  0.2863E-15  0.1920E+03
     20.414  0.0000E+00  0.1920E+03
     20.568  0.0000E+00  0.1920E+03
     20.722  0.0000E+00  0.1920E+03
     20.876  0.0000E+00  0.1920E+03
     21.030  0.0000E+00  0.1920E+03
     21.183  0.0000E+00  0.1920E+03
     21.337  0.0000E+00  0.1920E+03
     21.491  0.0000E+00  0.1920E+03
     21.645  0.0000E+00  0.1920E+03
     21.64490998    -24.50073316  301     -1.07935952      1.00000000
    -24.501  0.0000E+00  0.0000E+00  0.0000E+00  0.0000E+00  0.0000E+00  0.0000E+00  0.0000E+00  0.0000E+00  0.0000E+00
    -24.347  0.0000E+00  0.0000E+00  0.0000E+00  0.0000E+00  0.0000E+00  0.0000E+00  0.0000E+00  0.0000E+00  0.0000E+00
    -24.193  0.0000E+00  0.0000E+00  0.0000E+00  0.0000E+00  0.0000E+00  0.0000E+00  0.0000E+00  0.0000E+00  0.0000E+00
    -24.039  0.0000E+00  0.0000E+00  0.0000E+00  0.0000E+00  0.0000E+00  0.0000E+00  0.0000E+00  0.0000E+00  0.0000E+00
    -23.885  0.0000E+00  0.0000E+00  0.0000E+00  0.0000E+00  0.0000E+00  0.0000E+00  0.0000E+00  0.0000E+00  0.0000E+00
    -23.732  0.0000E+00  0.0000E+00  0.0000E+00  0.0000E+00  0.0000E+00  0.0000E+00  0.0000E+00  0.0000E+00  0.0000E+00
    -23.578  0.0000E+00  0.0000E+00  0.0000E+00  0.0000E+00  0.0000E+00  0.0000E+00  0.0000E+00  0.0000E+00  0.0000E+00
    -23.424  0.0000E+00  0.0000E+00  0.0000E+00  0.0000E+00  0.0000E+00  0.0000E+00  0.0000E+00  0.0000E+00  0.0000E+00
    -23.270  0.0000E+00  0.0000E+00  0.0000E+00  0.0000E+00  0.0000E+00  0.0000E+00  0.0000E+00  0.0000E+00  0.0000E+00
    -23.116  0.0000E+00  0.0000E+00  0.0000E+00  0.0000E+00  0.0000E+00  0.0000E+00  0.0000E+00  0.0000E+00  0.0000E+00
    -22.963  0.9206E-20  0.1125E-27  0.4277E-21  0.3694E-28  0.0000E+00  0.0000E+00  0.0000E+00  0.0000E+00  0.0000E+00
    -22.809  0.3740E-13  0.9167E-17  0.1738E-14  0.9172E-17  0.0000E+00  0.0000E+00  0.0000E+00  0.0000E+00  0.0000E+00
    -22.655  0.1730E-08  0.1605E-11  0.8052E-10  0.1606E-11  0.0000E+00  0.0000E+00  0.0000E+00  0.0000E+00  0.0000E+00
    -22.501  0.1352E-05  0.3161E-08  0.6309E-07  0.3163E-08  0.0000E+00  0.0000E+00  0.0000E+00  0.0000E+00  0.0000E+00
    -22.347  0.3099E-04  0.1452E-06  0.1453E-05  0.1453E-06  0.0000E+00  0.0000E+00  0.0000E+00  0.0000E+00  0.0000E+00
    -22.193  0.7289E-04  0.8518E-06  0.3450E-05  0.8523E-06  0.0000E+00  0.0000E+00  0.0000E+00  0.0000E+00  0.0000E+00
    -22.040  0.7206E-04  0.1839E-05  0.3472E-05  0.1839E-05  0.0000E+00  0.0000E+00  0.0000E+00  0.0000E+00  0.0000E+00
    -21.886  0.6841E-04  0.2545E-05  0.3343E-05  0.2546E-05  0.0000E+00  0.0000E+00  0.0000E+00  0.0000E+00  0.0000E+00
    -21.732  0.7337E-04  0.4390E-05  0.3688E-05  0.4392E-05  0.0000E+00  0.0000E+00  0.0000E+00  0.0000E+00  0.0000E+00
    -21.578  0.5981E-04  0.4261E-05  0.3049E-05  0.4263E-05  0.0000E+00  0.0000E+00  0.0000E+00  0.0000E+00  0.0000E+00
    -21.424  0.5754E-04  0.5976E-05  0.3049E-05  0.5979E-05  0.0000E+00  0.0000E+00  0.0000E+00  0.0000E+00  0.0000E+00
    -21.271  0.7510E-04  0.9054E-05  0.4054E-05  0.9058E-05  0.0000E+00  0.0000E+00  0.0000E+00  0.0000E+00  0.0000E+00
    -21.117  0.3350E-04  0.5357E-05  0.1879E-05  0.5359E-05  0.0000E+00  0.0000E+00  0.0000E+00  0.0000E+00  0.0000E+00
    -20.963  0.6509E-04  0.1336E-04  0.3832E-05  0.1337E-04  0.0000E+00  0.0000E+00  0.0000E+00  0.0000E+00  0.0000E+00
    -20.809  0.5741E-04  0.1425E-04  0.3477E-05  0.1426E-04  0.0000E+00  0.0000E+00  0.0000E+00  0.0000E+00  0.0000E+00
    -20.655  0.2386E-03  0.8976E-05  0.1586E-05  0.8979E-05  0.0000E+00  0.0000E+00  0.0000E+00  0.0000E+00  0.0000E+00
    -20.501  0.1142E-01  0.1237E-03  0.3465E-05  0.1237E-03  0.0000E+00  0.0000E+00  0.0000E+00  0.0000E+00  0.0000E+00
    -20.348  0.4110E-01  0.9389E-03  0.3683E-05  0.9390E-03  0.0000E+00  0.0000E+00  0.0000E+00  0.0000E+00  0.0000E+00
    -20.194  0.4462E-01  0.2607E-02  0.2376E-05  0.2608E-02  0.0000E+00  0.0000E+00  0.0000E+00  0.0000E+00  0.0000E+00
    -20.040  0.4024E-01  0.5172E-02  0.1571E-05  0.5173E-02  0.0000E+00  0.0000E+00  0.0000E+00  0.0000E+00  0.0000E+00
    -19.886  0.3392E-01  0.1009E-01  0.4128E-05  0.1010E-01  0.0000E+00  0.0000E+00  0.0000E+00  0.0000E+00  0.0000E+00
    -19.732  0.2339E-01  0.1597E-01  0.3156E-05  0.1597E-01  0.0000E+00  0.0000E+00  0.0000E+00  0.0000E+00  0.0000E+00
    -19.579  0.4054E-02  0.5651E-02  0.1428E-05  0.5651E-02  0.0000E+00  0.0000E+00  0.0000E+00  0.0000E+00  0.0000E+00
    -19.425  0.1625E-03  0.1668E-03  0.2069E-05  0.1668E-03  0.0000E+00  0.0000E+00  0.0000E+00  0.0000E+00  0.0000E+00
    -19.271  0.1203E-03  0.1956E-04  0.2965E-05  0.1957E-04  0.0000E+00  0.0000E+00  0.0000E+00  0.0000E+00  0.0000E+00
    -19.117  0.1243E-03  0.1198E-04  0.3331E-05  0.1200E-04  0.0000E+00  0.0000E+00  0.0000E+00  0.0000E+00  0.0000E+00
    -18.963  0.6817E-04  0.5162E-05  0.2064E-05  0.5174E-05  0.0000E+00  0.0000E+00  0.0000E+00  0.0000E+00  0.0000E+00
    -18.809  0.2553E-04  0.2509E-05  0.8783E-06  0.2515E-05  0.0000E+00  0.0000E+00  0.0000E+00  0.0000E+00  0.0000E+00
    -18.656  0.7044E-04  0.1092E-04  0.2856E-05  0.1095E-04  0.0000E+00  0.0000E+00  0.0000E+00  0.0000E+00  0.0000E+00
    -18.502  0.7201E-04  0.1429E-04  0.3054E-05  0.1432E-04  0.0000E+00  0.0000E+00  0.0000E+00  0.0000E+00  0.0000E+00
    -18.348  0.5845E-04  0.1036E-04  0.2438E-05  0.1038E-04  0.0000E+00  0.0000E+00  0.0000E+00  0.0000E+00  0.0000E+00
    -18.194  0.9499E-04  0.1095E-04  0.1940E-05  0.1097E-04  0.0000E+00  0.0000E+00  0.0000E+00  0.0000E+00  0.0000E+00
    -18.040  0.1136E-01  0.5572E-03  0.7576E-06  0.5571E-03  0.0000E+00  0.0000E+00  0.0000E+00  0.0000E+00  0.0000E+00
    -17.887  0.8470E-01  0.4854E-02  0.3086E-05  0.4853E-02  0.0000E+00  0.0000E+00  0.0000E+00  0.0000E+00  0.0000E+00
    -17.733  0.1358E+00  0.1042E-01  0.3333E-05  0.1042E-01  0.0000E+00  0.0000E+00  0.0000E+00  0.0000E+00  0.0000E+00
    -17.579  0.1006E+00  0.1004E-01  0.2255E-05  0.1004E-01  0.0000E+00  0.0000E+00  0.0000E+00  0.0000E+00  0.0000E+00
    -17.425  0.6188E-01  0.8569E-02  0.1923E-05  0.8569E-02  0.0000E+00  0.0000E+00  0.0000E+00  0.0000E+00  0.0000E+00
    -17.271  0.5989E-01  0.1055E-01  0.1419E-05  0.1055E-01  0.0000E+00  0.0000E+00  0.0000E+00  0.0000E+00  0.0000E+00
    -17.117  0.4325E-01  0.1049E-01  0.2932E-05  0.1049E-01  0.0000E+00  0.0000E+00  0.0000E+00  0.0000E+00  0.0000E+00
    -16.964  0.5444E-01  0.1935E-01  0.4251E-05  0.1935E-01  0.0000E+00  0.0000E+00  0.0000E+00  0.0000E+00  0.0000E+00
    -16.810  0.3685E-01  0.1561E-01  0.2973E-05  0.1561E-01  0.0000E+00  0.0000E+00  0.0000E+00  0.0000E+00  0.0000E+00
    -16.656  0.3018E-01  0.3053E-01  0.4445E-06  0.3053E-01  0.0000E+00  0.0000E+00  0.0000E+00  0.0000E+00  0.0000E+00
    -16.502  0.2305E-01  0.3510E-01  0.4312E-06  0.3510E-01  0.0000E+00  0.0000E+00  0.0000E+00  0.0000E+00  0.0000E+00
    -16.348  0.1128E-01  0.2553E-01  0.2084E-05  0.2553E-01  0.0000E+00  0.0000E+00  0.0000E+00  0.0000E+00  0.0000E+00
    -16.195  0.4303E-02  0.1592E-01  0.1875E-05  0.1592E-01  0.0000E+00  0.0000E+00  0.0000E+00  0.0000E+00  0.0000E+00
    -16.041  0.2491E-02  0.1185E-01  0.7607E-07  0.1185E-01  0.0000E+00  0.0000E+00  0.0000E+00  0.0000E+00  0.0000E+00
    -15.887  0.6952E-04  0.3344E-02  0.1049E-06  0.3341E-02  0.0000E+00  0.0000E+00  0.0000E+00  0.0000E+00  0.0000E+00
    -15.733  0.2300E-04  0.1194E-03  0.6346E-06  0.1190E-03  0.0000E+00  0.0000E+00  0.0000E+00  0.0000E+00  0.0000E+00
    -15.579  0.2201E-04  0.6255E-05  0.7331E-06  0.6434E-05  0.0000E+00  0.0000E+00  0.0000E+00  0.0000E+00  0.0000E+00
    -15.425  0.2316E-04  0.1830E-04  0.9636E-06  0.1858E-04  0.0000E+00  0.0000E+00  0.0000E+00  0.0000E+00  0.0000E+00
    -15.272  0.1786E-04  0.1851E-04  0.1048E-05  0.1875E-04  0.0000E+00  0.0000E+00  0.0000E+00  0.0000E+00  0.0000E+00
    -15.118  0.4391E-04  0.1237E-04  0.1048E-05  0.1226E-04  0.0000E+00  0.0000E+00  0.0000E+00  0.0000E+00  0.0000E+00
    -14.964  0.3991E-04  0.1100E-04  0.1148E-05  0.1093E-04  0.0000E+00  0.0000E+00  0.0000E+00  0.0000E+00  0.0000E+00
    -14.810  0.7190E-04  0.1517E-04  0.2385E-05  0.1518E-04  0.0000E+00  0.0000E+00  0.0000E+00  0.0000E+00  0.0000E+00
    -14.656  0.5777E-04  0.8304E-05  0.1342E-05  0.8273E-05  0.0000E+00  0.0000E+00  0.0000E+00  0.0000E+00  0.0000E+00
    -14.503  0.5165E-04  0.1063E-04  0.1064E-05  0.1055E-04  0.0000E+00  0.0000E+00  0.0000E+00  0.0000E+00  0.0000E+00
    -14.349  0.2840E-03  0.1809E-04  0.1766E-05  0.1808E-04  0.0000E+00  0.0000E+00  0.0000E+00  0.0000E+00  0.0000E+00
    -14.195  0.2214E-01  0.2899E-03  0.1343E-05  0.2898E-03  0.0000E+00  0.0000E+00  0.0000E+00  0.0000E+00  0.0000E+00
    -14.041  0.9431E-01  0.2318E-02  0.5562E-06  0.2318E-02  0.0000E+00  0.0000E+00  0.0000E+00  0.0000E+00  0.0000E+00
    -13.887  0.1824E+00  0.8830E-02  0.1452E-05  0.8830E-02  0.0000E+00  0.0000E+00  0.0000E+00  0.0000E+00  0.0000E+00
    -13.733  0.1749E+00  0.1849E-01  0.1389E-05  0.1849E-01  0.0000E+00  0.0000E+00  0.0000E+00  0.0000E+00  0.0000E+00
    -13.580  0.1054E+00  0.3415E-01  0.1165E-05  0.3416E-01  0.0000E+00  0.0000E+00  0.0000E+00  0.0000E+00  0.0000E+00
    -13.426  0.1344E+00  0.2941E-01  0.7669E-06  0.2941E-01  0.0000E+00  0.0000E+00  0.0000E+00  0.0000E+00  0.0000E+00
    -13.272  0.1062E+00  0.2347E-01  0.7650E-06  0.2347E-01  0.0000E+00  0.0000E+00  0.0000E+00  0.0000E+00  0.0000E+00
    -13.118  0.8231E-02  0.1187E-01  0.1111E-05  0.1187E-01  0.0000E+00  0.0000E+00  0.0000E+00  0.0000E+00  0.0000E+00
    -12.964  0.3310E-01  0.2072E-01  0.1139E-05  0.2072E-01  0.0000E+00  0.0000E+00  0.0000E+00  0.0000E+00  0.0000E+00
    -12.811  0.6167E-01  0.3234E-01  0.2076E-06  0.3234E-01  0.0000E+00  0.0000E+00  0.0000E+00  0.0000E+00  0.0000E+00
    -12.657  0.2222E-01  0.1060E-01  0.8105E-06  0.1060E-01  0.0000E+00  0.0000E+00  0.0000E+00  0.0000E+00  0.0000E+00
    -12.503  0.8127E-02  0.1025E-01  0.1138E-05  0.1025E-01  0.0000E+00  0.0000E+00  0.0000E+00  0.0000E+00  0.0000E+00
    -12.349  0.7544E-01  0.4415E-01  0.4254E-06  0.4415E-01  0.0000E+00  0.0000E+00  0.0000E+00  0.0000E+00  0.0000E+00
    -12.195  0.9800E-01  0.2123E-01  0.4567E-06  0.2123E-01  0.0000E+00  0.0000E+00  0.0000E+00  0.0000E+00  0.0000E+00
    -12.041  0.3056E-01  0.3951E-02  0.1125E-05  0.3945E-02  0.0000E+00  0.0000E+00  0.0000E+00  0.0000E+00  0.0000E+00
    -11.888  0.5009E-01  0.2335E-01  0.9432E-06  0.2335E-01  0.0000E+00  0.0000E+00  0.0000E+00  0.0000E+00  0.0000E+00
    -11.734  0.8468E-01  0.2710E-01  0.2523E-06  0.2710E-01  0.0000E+00  0.0000E+00  0.0000E+00  0.0000E+00  0.0000E+00
    -11.580  0.4980E-01  0.7708E-02  0.3208E-06  0.7705E-02  0.0000E+00  0.0000E+00  0.0000E+00  0.0000E+00  0.0000E+00
    -11.426  0.8178E-02  0.1392E-01  0.1544E-05  0.1393E-01  0.0000E+00  0.0000E+00  0.0000E+00  0.0000E+00  0.0000E+00
    -11.272  0.8624E-02  0.6264E-02  0.7746E-06  0.6264E-02  0.0000E+00  0.0000E+00  0.0000E+00  0.0000E+00  0.0000E+00
    -11.118  0.7750E-01  0.7783E-02  0.6378E-06  0.7783E-02  0.0000E+00  0.0000E+00  0.0000E+00  0.0000E+00  0.0000E+00
    -10.965  0.6073E-01  0.5310E-02  0.5354E-06  0.5310E-02  0.0000E+00  0.0000E+00  0.0000E+00  0.0000E+00  0.0000E+00
    -10.811  0.4343E-01  0.2277E-02  0.1421E-05  0.2277E-02  0.0000E+00  0.0000E+00  0.0000E+00  0.0000E+00  0.0000E+00
    -10.657  0.5341E-01  0.1298E-02  0.6628E-06  0.1298E-02  0.0000E+00  0.0000E+00  0.0000E+00  0.0000E+00  0.0000E+00
    -10.503  0.8151E-01  0.1035E-01  0.5315E-06  0.1035E-01  0.0000E+00  0.0000E+00  0.0000E+00  0.0000E+00  0.0000E+00
    -10.349  0.1024E+00  0.2866E-01  0.1896E-05  0.2866E-01  0.0000E+00  0.0000E+00  0.0000E+00  0.0000E+00  0.0000E+00
    -10.196  0.1476E+00  0.2320E-01  0.2125E-05  0.2320E-01  0.0000E+00  0.0000E+00  0.0000E+00  0.0000E+00  0.0000E+00
    -10.042  0.1256E+00  0.4307E-01  0.1190E-05  0.4307E-01  0.0000E+00  0.0000E+00  0.0000E+00  0.0000E+00  0.0000E+00
     -9.888  0.4265E-01  0.2118E-01  0.1717E-06  0.2118E-01  0.0000E+00  0.0000E+00  0.0000E+00  0.0000E+00  0.0000E+00
     -9.734  0.1814E-01  0.2054E-01  0.1416E-05  0.2054E-01  0.0000E+00  0.0000E+00  0.0000E+00  0.0000E+00  0.0000E+00
     -9.580  0.1466E+00  0.5908E-01  0.4168E-04  0.5908E-01  0.0000E+00  0.0000E+00  0.0000E+00  0.0000E+00  0.0000E+00
     -9.426  0.1225E+00  0.2413E-01  0.1155E-02  0.2413E-01  0.0000E+00  0.0000E+00  0.0000E+00  0.0000E+00  0.0000E+00
     -9.273  0.1314E+00  0.2511E-01  0.3016E-02  0.2511E-01  0.0000E+00  0.0000E+00  0.0000E+00  0.0000E+00  0.0000E+00
     -9.119  0.1126E+00  0.1862E-01  0.2962E-02  0.1862E-01  0.0000E+00  0.0000E+00  0.0000E+00  0.0000E+00  0.0000E+00
     -8.965  0.5393E-01  0.6957E-02  0.3590E-02  0.6957E-02  0.0000E+00  0.0000E+00  0.0000E+00  0.0000E+00  0.0000E+00
     -8.811  0.1218E+00  0.3015E-01  0.2411E-02  0.3014E-01  0.0000E+00  0.0000E+00  0.0000E+00  0.0000E+00  0.0000E+00
     -8.657  0.1630E+00  0.4348E-01  0.3463E-02  0.4348E-01  0.0000E+00  0.0000E+00  0.0000E+00  0.0000E+00  0.0000E+00
     -8.504  0.1028E+00  0.1698E-01  0.2839E-02  0.1698E-01  0.0000E+00  0.0000E+00  0.0000E+00  0.0000E+00  0.0000E+00
     -8.350  0.5980E-01  0.3385E-01  0.1897E-02  0.3384E-01  0.0000E+00  0.0000E+00  0.0000E+00  0.0000E+00  0.0000E+00
     -8.196  0.4168E-01  0.4598E-01  0.3768E-02  0.4599E-01  0.0000E+00  0.0000E+00  0.0000E+00  0.0000E+00  0.0000E+00
     -8.042  0.1145E+00  0.4649E-01  0.2492E-02  0.4648E-01  0.0000E+00  0.0000E+00  0.0000E+00  0.0000E+00  0.0000E+00
     -7.888  0.9171E-01  0.3288E-01  0.1397E-02  0.3288E-01  0.0000E+00  0.0000E+00  0.0000E+00  0.0000E+00  0.0000E+00
     -7.734  0.5372E-01  0.2061E-01  0.5111E-02  0.2062E-01  0.0000E+00  0.0000E+00  0.0000E+00  0.0000E+00  0.0000E+00
     -7.581  0.3177E-01  0.1762E-01  0.2105E-01  0.1762E-01  0.0000E+00  0.0000E+00  0.0000E+00  0.0000E+00  0.0000E+00
     -7.427  0.5830E-01  0.1874E-01  0.3140E-01  0.1875E-01  0.0000E+00  0.0000E+00  0.0000E+00  0.0000E+00  0.0000E+00
     -7.273  0.5194E-01  0.4193E-01  0.2858E-01  0.4194E-01  0.0000E+00  0.0000E+00  0.0000E+00  0.0000E+00  0.0000E+00
     -7.119  0.5515E-01  0.4868E-01  0.2972E-01  0.4866E-01  0.0000E+00  0.0000E+00  0.0000E+00  0.0000E+00  0.0000E+00
     -6.965  0.6824E-01  0.3500E-01  0.2910E-01  0.3500E-01  0.0000E+00  0.0000E+00  0.0000E+00  0.0000E+00  0.0000E+00
     -6.812  0.1303E+00  0.1017E+00  0.2614E-01  0.1017E+00  0.0000E+00  0.0000E+00  0.0000E+00  0.0000E+00  0.0000E+00
     -6.658  0.6726E-01  0.5851E-01  0.1506E-01  0.5850E-01  0.0000E+00  0.0000E+00  0.0000E+00  0.0000E+00  0.0000E+00
     -6.504  0.5864E-01  0.3767E-01  0.1496E-01  0.3767E-01  0.0000E+00  0.0000E+00  0.0000E+00  0.0000E+00  0.0000E+00
     -6.350  0.1781E-01  0.6304E-01  0.2179E-01  0.6303E-01  0.0000E+00  0.0000E+00  0.0000E+00  0.0000E+00  0.0000E+00
     -6.196  0.1492E-01  0.1041E+00  0.1746E-01  0.1041E+00  0.0000E+00  0.0000E+00  0.0000E+00  0.0000E+00  0.0000E+00
     -6.042  0.2844E-01  0.1099E+00  0.9505E-02  0.1099E+00  0.0000E+00  0.0000E+00  0.0000E+00  0.0000E+00  0.0000E+00
     -5.889  0.3228E-01  0.9686E-01  0.4522E-02  0.9685E-01  0.0000E+00  0.0000E+00  0.0000E+00  0.0000E+00  0.0000E+00
     -5.735  0.1206E-01  0.7835E-01  0.2909E-02  0.7835E-01  0.0000E+00  0.0000E+00  0.0000E+00  0.0000E+00  0.0000E+00
     -5.581  0.9660E-02  0.9923E-01  0.7116E-02  0.9921E-01  0.0000E+00  0.0000E+00  0.0000E+00  0.0000E+00  0.0000E+00
     -5.427  0.3260E-01  0.2393E+00  0.3540E-02  0.2393E+00  0.0000E+00  0.0000E+00  0.0000E+00  0.0000E+00  0.0000E+00
     -5.273  0.3082E-01  0.3306E+00  0.7276E-02  0.3306E+00  0.0000E+00  0.0000E+00  0.0000E+00  0.0000E+00  0.0000E+00
     -5.120  0.1035E-01  0.1371E+00  0.4429E-01  0.1371E+00  0.0000E+00  0.0000E+00  0.0000E+00  0.0000E+00  0.0000E+00
     -4.966  0.1411E-01  0.9156E-01  0.5622E-01  0.9156E-01  0.0000E+00  0.0000E+00  0.0000E+00  0.0000E+00  0.0000E+00
     -4.812  0.3982E-01  0.1143E+00  0.7425E-01  0.1144E+00  0.0000E+00  0.0000E+00  0.0000E+00  0.0000E+00  0.0000E+00
     -4.658  0.6138E-02  0.1810E-01  0.4986E-01  0.1810E-01  0.0000E+00  0.0000E+00  0.0000E+00  0.0000E+00  0.0000E+00
     -4.504  0.7613E-02  0.3452E-01  0.3934E-01  0.3452E-01  0.0000E+00  0.0000E+00  0.0000E+00  0.0000E+00  0.0000E+00
     -4.350  0.2331E-01  0.8303E-01  0.3523E-01  0.8303E-01  0.0000E+00  0.0000E+00  0.0000E+00  0.0000E+00  0.0000E+00
     -4.197  0.1749E-01  0.8730E-01  0.4121E-01  0.8730E-01  0.0000E+00  0.0000E+00  0.0000E+00  0.0000E+00  0.0000E+00
     -4.043  0.8963E-02  0.4460E-01  0.3072E-01  0.4461E-01  0.0000E+00  0.0000E+00  0.0000E+00  0.0000E+00  0.0000E+00
     -3.889  0.1278E-01  0.1238E+00  0.2051E-01  0.1238E+00  0.0000E+00  0.0000E+00  0.0000E+00  0.0000E+00  0.0000E+00
     -3.735  0.8443E-02  0.1300E+00  0.3747E-01  0.1300E+00  0.0000E+00  0.0000E+00  0.0000E+00  0.0000E+00  0.0000E+00
     -3.581  0.5386E-02  0.5663E-01  0.4248E-01  0.5663E-01  0.0000E+00  0.0000E+00  0.0000E+00  0.0000E+00  0.0000E+00
     -3.428  0.1195E-01  0.1397E+00  0.1325E-01  0.1397E+00  0.0000E+00  0.0000E+00  0.0000E+00  0.0000E+00  0.0000E+00
     -3.274  0.2989E-02  0.6557E-01  0.1670E-01  0.6555E-01  0.0000E+00  0.0000E+00  0.0000E+00  0.0000E+00  0.0000E+00
     -3.120  0.1806E-02  0.3142E-01  0.1045E-01  0.3142E-01  0.0000E+00  0.0000E+00  0.0000E+00  0.0000E+00  0.0000E+00
     -2.966  0.4518E-02  0.1008E+00  0.2817E-01  0.1008E+00  0.0000E+00  0.0000E+00  0.0000E+00  0.0000E+00  0.0000E+00
     -2.812  0.3154E-02  0.5685E-01  0.1386E-01  0.5687E-01  0.0000E+00  0.0000E+00  0.0000E+00  0.0000E+00  0.0000E+00
     -2.658  0.5912E-03  0.4917E-01  0.2111E-02  0.4918E-01  0.0000E+00  0.0000E+00  0.0000E+00  0.0000E+00  0.0000E+00
     -2.505  0.9891E-03  0.5956E-01  0.1551E-02  0.5956E-01  0.0000E+00  0.0000E+00  0.0000E+00  0.0000E+00  0.0000E+00
     -2.351  0.4495E-03  0.4188E-01  0.2615E-02  0.4189E-01  0.0000E+00  0.0000E+00  0.0000E+00  0.0000E+00  0.0000E+00
     -2.197  0.9184E-04  0.8232E-02  0.2386E-02  0.8234E-02  0.0000E+00  0.0000E+00  0.0000E+00  0.0000E+00  0.0000E+00
     -2.043  0.7204E-05  0.1498E-03  0.1950E-03  0.1500E-03  0.0000E+00  0.0000E+00  0.0000E+00  0.0000E+00  0.0000E+00
     -1.889  0.1110E-04  0.1446E-05  0.2597E-03  0.1563E-05  0.0000E+00  0.0000E+00  0.0000E+00  0.0000E+00  0.0000E+00
     -1.736  0.3784E-04  0.4727E-05  0.8848E-03  0.5164E-05  0.0000E+00  0.0000E+00  0.0000E+00  0.0000E+00  0.0000E+00
     -1.582  0.6146E-05  0.7837E-06  0.1542E-03  0.8579E-06  0.0000E+00  0.0000E+00  0.0000E+00  0.0000E+00  0.0000E+00
     -1.428  0.2808E-04  0.3820E-05  0.8511E-03  0.4131E-05  0.0000E+00  0.0000E+00  0.0000E+00  0.0000E+00  0.0000E+00
     -1.274  0.1726E-04  0.2345E-05  0.5231E-03  0.2544E-05  0.0000E+00  0.0000E+00  0.0000E+00  0.0000E+00  0.0000E+00
     -1.120  0.2919E-06  0.3960E-07  0.8847E-05  0.4312E-07  0.0000E+00  0.0000E+00  0.0000E+00  0.0000E+00  0.0000E+00
     -0.966  0.6394E-09  0.3799E-10  0.9043E-05  0.3942E-10  0.0000E+00  0.0000E+00  0.0000E+00  0.0000E+00  0.0000E+00
     -0.813  0.3139E-06  0.1598E-07  0.5004E-02  0.1634E-07  0.0000E+00  0.0000E+00  0.0000E+00  0.0000E+00  0.0000E+00
     -0.659  0.3862E-05  0.2320E-06  0.6483E-01  0.2382E-06  0.0000E+00  0.0000E+00  0.0000E+00  0.0000E+00  0.0000E+00
     -0.505  0.8861E-05  0.1915E-05  0.9122E-01  0.2034E-05  0.0000E+00  0.0000E+00  0.0000E+00  0.0000E+00  0.0000E+00