  16  16   1  16
  0.2065628E+02  0.5044000E-09  0.5044000E-09  0.1500000E-08  0.5000000E-15
  1.000000000000000E-004
  CAR 
 BS                                      
      9.83929013    -21.30228899  301     -0.97613862      1.00000000
    -21.302  0.0000E+00  0.0000E+00
    -21.198  0.0000E+00  0.0000E+00
    -21.095  0.0000E+00  0.0000E+00
    -20.991  0.0000E+00  0.0000E+00
    -20.887  0.0000E+00  0.0000E+00
    -20.783  0.0000E+00  0.0000E+00
    -20.679  0.0000E+00  0.0000E+00
    -20.576  0.0000E+00  0.0000E+00
    -20.472  0.5013E-16  0.5204E-17
    -20.368  0.4901E-11  0.5088E-12
    -20.264  0.5079E-07  0.5273E-08
    -20.160  0.6683E-04  0.6943E-05
    -20.057  0.1182E-01  0.1234E-02
    -19.953  0.3125E+00  0.3367E-01
    -19.849  0.1494E+01  0.1888E+00
    -19.745  0.1856E+01  0.3814E+00
    -19.641  0.1279E+01  0.5142E+00
    -19.538  0.9742E+00  0.6153E+00
    -19.434  0.8269E+00  0.7011E+00
    -19.330  0.7335E+00  0.7773E+00
    -19.226  0.6668E+00  0.8465E+00
    -19.122  0.6159E+00  0.9104E+00
    -19.019  0.5755E+00  0.9701E+00
    -18.915  0.5423E+00  0.1026E+01
    -18.811  0.5144E+00  0.1080E+01
    -18.707  0.4922E+00  0.1131E+01
    -18.603  0.5899E+00  0.1192E+01
    -18.500  0.1887E+01  0.1388E+01
    -18.396  0.3970E+01  0.1800E+01
    -18.292  0.3417E+01  0.2155E+01
    -18.188  0.2497E+01  0.2414E+01
    -18.084  0.2270E+01  0.2650E+01
    -17.981  0.3088E+01  0.2970E+01
    -17.877  0.3628E+01  0.3347E+01
    -17.773  0.2896E+01  0.3648E+01
    -17.669  0.2447E+01  0.3902E+01
    -17.565  0.2291E+01  0.4139E+01
    -17.461  0.2480E+01  0.4397E+01
    -17.358  0.3999E+01  0.4812E+01
    -17.254  0.5264E+01  0.5358E+01
    -17.150  0.2961E+01  0.5666E+01
    -17.046  0.1132E+01  0.5783E+01
    -16.942  0.8770E+00  0.5874E+01
    -16.839  0.8509E+00  0.5963E+01
    -16.735  0.8327E+00  0.6049E+01
    -16.631  0.8164E+00  0.6134E+01
    -16.527  0.8017E+00  0.6217E+01
    -16.423  0.7885E+00  0.6299E+01
    -16.320  0.7766E+00  0.6380E+01
    -16.216  0.7660E+00  0.6459E+01
    -16.112  0.7567E+00  0.6538E+01
    -16.008  0.7499E+00  0.6616E+01
    -15.904  0.8235E+00  0.6701E+01
    -15.801  0.1710E+01  0.6879E+01
    -15.697  0.3667E+01  0.7259E+01
    -15.593  0.4958E+01  0.7774E+01
    -15.489  0.4528E+01  0.8244E+01
    -15.385  0.4234E+01  0.8683E+01
    -15.282  0.4306E+01  0.9130E+01
    -15.178  0.3830E+01  0.9528E+01
    -15.074  0.3687E+01  0.9911E+01
    -14.970  0.4287E+01  0.1036E+02
    -14.866  0.4135E+01  0.1078E+02
    -14.763  0.2735E+01  0.1107E+02
    -14.659  0.2180E+01  0.1130E+02
    -14.555  0.2125E+01  0.1152E+02
    -14.451  0.2394E+01  0.1176E+02
    -14.347  0.3133E+01  0.1209E+02
    -14.244  0.2993E+01  0.1240E+02
    -14.140  0.2427E+01  0.1265E+02
    -14.036  0.2361E+01  0.1290E+02
    -13.932  0.2760E+01  0.1318E+02
    -13.828  0.3440E+01  0.1354E+02
    -13.725  0.3147E+01  0.1387E+02
    -13.621  0.3528E+01  0.1423E+02
    -13.517  0.2992E+01  0.1454E+02
    -13.413  0.2336E+01  0.1479E+02
    -13.309  0.2175E+01  0.1501E+02
    -13.205  0.2140E+01  0.1523E+02
    -13.102  0.2178E+01  0.1546E+02
    -12.998  0.2144E+01  0.1568E+02
    -12.894  0.1518E+01  0.1584E+02
    -12.790  0.1170E+01  0.1596E+02
    -12.686  0.1118E+01  0.1608E+02
    -12.583  0.1097E+01  0.1619E+02
    -12.479  0.1079E+01  0.1630E+02
    -12.375  0.1065E+01  0.1641E+02
    -12.271  0.1160E+01  0.1653E+02
    -12.167  0.2027E+01  0.1675E+02
    -12.064  0.3006E+01  0.1706E+02
    -11.960  0.2629E+01  0.1733E+02
    -11.856  0.2299E+01  0.1757E+02
    -11.752  0.2676E+01  0.1785E+02
    -11.648  0.4578E+01  0.1832E+02
    -11.545  0.4734E+01  0.1881E+02
    -11.441  0.3241E+01  0.1915E+02
    -11.337  0.2955E+01  0.1946E+02
    -11.233  0.2841E+01  0.1975E+02
    -11.129  0.2232E+01  0.1998E+02
    -11.026  0.2184E+01  0.2021E+02
    -10.922  0.2838E+01  0.2050E+02
    -10.818  0.2923E+01  0.2081E+02
    -10.714  0.2829E+01  0.2110E+02
    -10.610  0.3372E+01  0.2145E+02
    -10.507  0.3794E+01  0.2185E+02
    -10.403  0.3038E+01  0.2216E+02
    -10.299  0.2394E+01  0.2241E+02
    -10.195  0.2227E+01  0.2264E+02
    -10.091  0.2170E+01  0.2287E+02
     -9.988  0.2146E+01  0.2309E+02
     -9.884  0.2161E+01  0.2331E+02
     -9.780  0.2254E+01  0.2355E+02
     -9.676  0.2546E+01  0.2381E+02
     -9.572  0.2695E+01  0.2409E+02
     -9.468  0.2383E+01  0.2434E+02
     -9.365  0.2128E+01  0.2456E+02
     -9.261  0.1850E+01  0.2475E+02
     -9.157  0.1784E+01  0.2494E+02
     -9.053  0.2238E+01  0.2517E+02
     -8.949  0.3375E+01  0.2552E+02
     -8.846  0.3659E+01  0.2590E+02
     -8.742  0.3191E+01  0.2623E+02
     -8.638  0.3022E+01  0.2654E+02
     -8.534  0.3227E+01  0.2688E+02
     -8.430  0.3540E+01  0.2725E+02
     -8.327  0.4672E+01  0.2773E+02
     -8.223  0.7961E+01  0.2856E+02
     -8.119  0.7685E+01  0.2936E+02
     -8.015  0.4331E+01  0.2980E+02
     -7.911  0.3470E+01  0.3016E+02
     -7.808  0.2916E+01  0.3047E+02
     -7.704  0.2767E+01  0.3075E+02
     -7.600  0.3152E+01  0.3108E+02
     -7.496  0.3648E+01  0.3146E+02
     -7.392  0.4588E+01  0.3194E+02
     -7.289  0.6848E+01  0.3265E+02
     -7.185  0.8052E+01  0.3348E+02
     -7.081  0.8253E+01  0.3434E+02
     -6.977  0.5951E+01  0.3496E+02
     -6.873  0.4480E+01  0.3542E+02
     -6.770  0.4121E+01  0.3585E+02
     -6.666  0.4617E+01  0.3633E+02
     -6.562  0.6962E+01  0.3705E+02
     -6.458  0.8679E+01  0.3795E+02
     -6.354  0.7821E+01  0.3877E+02
     -6.251  0.7407E+01  0.3953E+02
     -6.147  0.6751E+01  0.4024E+02
     -6.043  0.5652E+01  0.4082E+02
     -5.939  0.5492E+01  0.4139E+02
     -5.835  0.5573E+01  0.4197E+02
     -5.731  0.4458E+01  0.4243E+02
     -5.628  0.3577E+01  0.4280E+02
     -5.524  0.3405E+01  0.4316E+02
     -5.420  0.3941E+01  0.4357E+02
     -5.316  0.6027E+01  0.4419E+02
     -5.212  0.6254E+01  0.4484E+02
     -5.109  0.4535E+01  0.4531E+02
     -5.005  0.4947E+01  0.4583E+02
     -4.901  0.5969E+01  0.4645E+02
     -4.797  0.4677E+01  0.4693E+02
     -4.693  0.2946E+01  0.4724E+02
     -4.590  0.2852E+01  0.4753E+02
     -4.486  0.4053E+01  0.4795E+02
     -4.382  0.5075E+01  0.4848E+02
     -4.278  0.5001E+01  0.4900E+02
     -4.174  0.6630E+01  0.4969E+02
     -4.071  0.1048E+02  0.5078E+02
     -3.967  0.1056E+02  0.5187E+02
     -3.863  0.7017E+01  0.5260E+02
     -3.759  0.4935E+01  0.5311E+02
     -3.655  0.3685E+01  0.5349E+02
     -3.552  0.4343E+01  0.5394E+02
     -3.448  0.5640E+01  0.5453E+02
     -3.344  0.5501E+01  0.5510E+02
     -3.240  0.5887E+01  0.5571E+02
     -3.136  0.6203E+01  0.5636E+02
     -3.033  0.4139E+01  0.5679E+02
     -2.929  0.3006E+01  0.5710E+02
     -2.825  0.2866E+01  0.5740E+02
     -2.721  0.2820E+01  0.5769E+02
     -2.617  0.3058E+01  0.5801E+02
     -2.514  0.3521E+01  0.5837E+02
     -2.410  0.4731E+01  0.5886E+02
     -2.306  0.5909E+01  0.5948E+02
     -2.202  0.5280E+01  0.6002E+02
     -2.098  0.2418E+01  0.6027E+02
     -1.995  0.1422E+01  0.6042E+02
     -1.891  0.1402E+01  0.6057E+02
     -1.787  0.1461E+01  0.6072E+02
     -1.683  0.1555E+01  0.6088E+02
     -1.579  0.1719E+01  0.6106E+02
     -1.475  0.2085E+01  0.6128E+02
     -1.372  0.2789E+01  0.6157E+02
     -1.268  0.2283E+01  0.6180E+02
     -1.164  0.8151E+00  0.6189E+02
     -1.060  0.4859E+00  0.6194E+02
     -0.956  0.8289E+00  0.6202E+02
     -0.853  0.1904E+01  0.6222E+02
     -0.749  0.2083E+01  0.6244E+02
     -0.645  0.1586E+01  0.6260E+02
     -0.541  0.1434E+01  0.6275E+02
     -0.437  0.1864E+01  0.6294E+02
     -0.334  0.2349E+01  0.6319E+02
     -0.230  0.2251E+01  0.6342E+02
     -0.126  0.1984E+01  0.6363E+02
     -0.022  0.1654E+01  0.6380E+02
      0.082  0.1372E+01  0.6394E+02
      0.185  0.7937E+00  0.6402E+02
      0.289  0.9316E+00  0.6412E+02
      0.393  0.1353E+01  0.6426E+02
      0.497  0.1338E+01  0.6440E+02
      0.601  0.1342E+01  0.6454E+02
      0.704  0.1892E+01  0.6474E+02
      0.808  0.3504E+01  0.6510E+02
      0.912  0.3781E+01  0.6549E+02
      1.016  0.3580E+01  0.6586E+02
      1.120  0.3009E+01  0.6618E+02
      1.223  0.2360E+01  0.6642E+02
      1.327  0.2151E+01  0.6664E+02
      1.431  0.2110E+01  0.6686E+02
      1.535  0.2177E+01  0.6709E+02
      1.639  0.2474E+01  0.6735E+02
      1.742  0.2763E+01  0.6763E+02
      1.846  0.1911E+01  0.6783E+02
      1.950  0.1252E+01  0.6796E+02
      2.054  0.1334E+01  0.6810E+02
      2.158  0.2426E+01  0.6835E+02
      2.262  0.3950E+01  0.6876E+02
      2.365  0.3163E+01  0.6909E+02
      2.469  0.1930E+01  0.6929E+02
      2.573  0.1621E+01  0.6946E+02
      2.677  0.1543E+01  0.6962E+02
      2.781  0.1769E+01  0.6980E+02
      2.884  0.3238E+01  0.7014E+02
      2.988  0.4415E+01  0.7060E+02
      3.092  0.3873E+01  0.7100E+02
      3.196  0.3574E+01  0.7137E+02
      3.300  0.2824E+01  0.7166E+02
      3.403  0.2073E+01  0.7188E+02
      3.507  0.1903E+01  0.7208E+02
      3.611  0.2047E+01  0.7229E+02
      3.715  0.2912E+01  0.7259E+02
      3.819  0.3276E+01  0.7293E+02
      3.922  0.2824E+01  0.7322E+02
      4.026  0.2663E+01  0.7350E+02
      4.130  0.2845E+01  0.7380E+02
      4.234  0.2717E+01  0.7408E+02
      4.338  0.2263E+01  0.7431E+02
      4.441  0.2088E+01  0.7453E+02
      4.545  0.2033E+01  0.7474E+02
      4.649  0.2375E+01  0.7499E+02
      4.753  0.4536E+01  0.7546E+02
      4.857  0.6556E+01  0.7614E+02
      4.960  0.5577E+01  0.7672E+02
      5.064  0.4729E+01  0.7721E+02
      5.168  0.4405E+01  0.7767E+02
      5.272  0.4126E+01  0.7809E+02
      5.376  0.4553E+01  0.7857E+02
      5.479  0.6251E+01  0.7922E+02
      5.583  0.6678E+01  0.7991E+02
      5.687  0.5274E+01  0.8046E+02
      5.791  0.6611E+01  0.8114E+02
      5.895  0.1038E+02  0.8222E+02
      5.998  0.8990E+01  0.8315E+02
      6.102  0.6072E+01  0.8378E+02
      6.206  0.4831E+01  0.8428E+02
      6.310  0.4531E+01  0.8476E+02
      6.414  0.4605E+01  0.8523E+02
      6.518  0.5163E+01  0.8577E+02
      6.621  0.5985E+01  0.8639E+02
      6.725  0.7573E+01  0.8718E+02
      6.829  0.7632E+01  0.8797E+02
      6.933  0.7448E+01  0.8874E+02
      7.037  0.9338E+01  0.8971E+02
      7.140  0.9204E+01  0.9067E+02
      7.244  0.7509E+01  0.9145E+02
      7.348  0.6512E+01  0.9212E+02
      7.452  0.6686E+01  0.9282E+02
      7.556  0.7042E+01  0.9355E+02
      7.659  0.6402E+01  0.9421E+02
      7.763  0.6136E+01  0.9485E+02
      7.867  0.4387E+01  0.9530E+02
      7.971  0.2002E+01  0.9551E+02
      8.075  0.1348E+01  0.9565E+02
      8.178  0.1072E+01  0.9576E+02
      8.282  0.8771E+00  0.9585E+02
      8.386  0.8024E+00  0.9594E+02
      8.490  0.5090E+00  0.9599E+02
      8.594  0.9045E-01  0.9600E+02
      8.697  0.2896E-02  0.9600E+02
      8.801  0.1400E-04  0.9600E+02
      8.905  0.9355E-08  0.9600E+02
      9.009  0.8211E-12  0.9600E+02
      9.113  0.0000E+00  0.9600E+02
      9.216  0.0000E+00  0.9600E+02
      9.320  0.0000E+00  0.9600E+02
      9.424  0.0000E+00  0.9600E+02
      9.528  0.0000E+00  0.9600E+02
      9.632  0.0000E+00  0.9600E+02
      9.735  0.0000E+00  0.9600E+02
      9.839  0.0000E+00  0.9600E+02
      9.83929013    -21.30228899  301     -0.97613862      1.00000000
    -21.302  0.0000E+00  0.0000E+00  0.0000E+00  0.0000E+00  0.0000E+00  0.0000E+00  0.0000E+00  0.0000E+00  0.0000E+00
    -21.198  0.0000E+00  0.0000E+00  0.0000E+00  0.0000E+00  0.0000E+00  0.0000E+00  0.0000E+00  0.0000E+00  0.0000E+00
    -21.095  0.0000E+00  0.0000E+00  0.0000E+00  0.0000E+00  0.0000E+00  0.0000E+00  0.0000E+00  0.0000E+00  0.0000E+00
    -20.991  0.0000E+00  0.0000E+00  0.0000E+00  0.0000E+00  0.0000E+00  0.0000E+00  0.0000E+00  0.0000E+00  0.0000E+00
    -20.887  0.0000E+00  0.0000E+00  0.0000E+00  0.0000E+00  0.0000E+00  0.0000E+00  0.0000E+00  0.0000E+00  0.0000E+00
    -20.783  0.0000E+00  0.0000E+00  0.0000E+00  0.0000E+00  0.0000E+00  0.0000E+00  0.0000E+00  0.0000E+00  0.0000E+00
    -20.679  0.0000E+00  0.0000E+00  0.0000E+00  0.0000E+00  0.0000E+00  0.0000E+00  0.0000E+00  0.0000E+00  0.0000E+00
    -20.576  0.0000E+00  0.0000E+00  0.0000E+00  0.0000E+00  0.0000E+00  0.0000E+00  0.0000E+00  0.0000E+00  0.0000E+00
    -20.472  0.2862E-20  0.7972E-24  0.1674E-21  0.1459E-24  0.0000E+00  0.0000E+00  0.0000E+00  0.0000E+00  0.0000E+00
    -20.368  0.2796E-15  0.1830E-18  0.1637E-16  0.2843E-19  0.0000E+00  0.0000E+00  0.0000E+00  0.0000E+00  0.0000E+00
    -20.264  0.2897E-11  0.2378E-14  0.1697E-12  0.3695E-15  0.0000E+00  0.0000E+00  0.0000E+00  0.0000E+00  0.0000E+00
    -20.160  0.3810E-08  0.4131E-11  0.2233E-09  0.6420E-12  0.0000E+00  0.0000E+00  0.0000E+00  0.0000E+00  0.0000E+00
    -20.057  0.6732E-06  0.1040E-08  0.3949E-07  0.1618E-09  0.0000E+00  0.0000E+00  0.0000E+00  0.0000E+00  0.0000E+00
    -19.953  0.1777E-04  0.4393E-07  0.1044E-05  0.6836E-08  0.0000E+00  0.0000E+00  0.0000E+00  0.0000E+00  0.0000E+00
    -19.849  0.8461E-04  0.4000E-06  0.4985E-05  0.6234E-07  0.0000E+00  0.0000E+00  0.0000E+00  0.0000E+00  0.0000E+00
    -19.745  0.1038E-03  0.1170E-05  0.6161E-05  0.1831E-06  0.0000E+00  0.0000E+00  0.0000E+00  0.0000E+00  0.0000E+00
    -19.641  0.6959E-04  0.1845E-05  0.4188E-05  0.2911E-06  0.0000E+00  0.0000E+00  0.0000E+00  0.0000E+00  0.0000E+00
    -19.538  0.5129E-04  0.2327E-05  0.3135E-05  0.3713E-06  0.0000E+00  0.0000E+00  0.0000E+00  0.0000E+00  0.0000E+00
    -19.434  0.4215E-04  0.2722E-05  0.2618E-05  0.4394E-06  0.0000E+00  0.0000E+00  0.0000E+00  0.0000E+00  0.0000E+00
    -19.330  0.3616E-04  0.3072E-05  0.2286E-05  0.5026E-06  0.0000E+00  0.0000E+00  0.0000E+00  0.0000E+00  0.0000E+00
    -19.226  0.3176E-04  0.3395E-05  0.2046E-05  0.5642E-06  0.0000E+00  0.0000E+00  0.0000E+00  0.0000E+00  0.0000E+00
    -19.122  0.2831E-04  0.3702E-05  0.1861E-05  0.6262E-06  0.0000E+00  0.0000E+00  0.0000E+00  0.0000E+00  0.0000E+00
    -19.019  0.2549E-04  0.4001E-05  0.1712E-05  0.6906E-06  0.0000E+00  0.0000E+00  0.0000E+00  0.0000E+00  0.0000E+00
    -18.915  0.2309E-04  0.4299E-05  0.1588E-05  0.7595E-06  0.0000E+00  0.0000E+00  0.0000E+00  0.0000E+00  0.0000E+00
    -18.811  0.2102E-04  0.4604E-05  0.1483E-05  0.8354E-06  0.0000E+00  0.0000E+00  0.0000E+00  0.0000E+00  0.0000E+00
    -18.707  0.1924E-04  0.4943E-05  0.1396E-05  0.9280E-06  0.0000E+00  0.0000E+00  0.0000E+00  0.0000E+00  0.0000E+00
    -18.603  0.2162E-04  0.6732E-05  0.1639E-05  0.1523E-05  0.0000E+00  0.0000E+00  0.0000E+00  0.0000E+00  0.0000E+00
    -18.500  0.6478E-04  0.2344E-04  0.5139E-05  0.7352E-05  0.0000E+00  0.0000E+00  0.0000E+00  0.0000E+00  0.0000E+00
    -18.396  0.1333E-03  0.5070E-04  0.1073E-04  0.1774E-04  0.0000E+00  0.0000E+00  0.0000E+00  0.0000E+00  0.0000E+00
    -18.292  0.1100E-03  0.4583E-04  0.9125E-05  0.1809E-04  0.0000E+00  0.0000E+00  0.0000E+00  0.0000E+00  0.0000E+00
    -18.188  0.1938E-03  0.3668E-04  0.6540E-05  0.1680E-04  0.0000E+00  0.0000E+00  0.0000E+00  0.0000E+00  0.0000E+00
    -18.084  0.5373E-02  0.5930E-04  0.5405E-05  0.2250E-04  0.0000E+00  0.0000E+00  0.0000E+00  0.0000E+00  0.0000E+00
    -17.981  0.3986E-01  0.3893E-03  0.4536E-05  0.7992E-04  0.0000E+00  0.0000E+00  0.0000E+00  0.0000E+00  0.0000E+00
    -17.877  0.6711E-01  0.1441E-02  0.3415E-05  0.2561E-03  0.0000E+00  0.0000E+00  0.0000E+00  0.0000E+00  0.0000E+00
    -17.773  0.4692E-01  0.2680E-02  0.2854E-05  0.4816E-03  0.0000E+00  0.0000E+00  0.0000E+00  0.0000E+00  0.0000E+00
    -17.669  0.3124E-01  0.3809E-02  0.2652E-05  0.7307E-03  0.0000E+00  0.0000E+00  0.0000E+00  0.0000E+00  0.0000E+00
    -17.565  0.2329E-01  0.5085E-02  0.2501E-05  0.1074E-02  0.0000E+00  0.0000E+00  0.0000E+00  0.0000E+00  0.0000E+00
    -17.461  0.1866E-01  0.8149E-02  0.2371E-05  0.2161E-02  0.0000E+00  0.0000E+00  0.0000E+00  0.0000E+00  0.0000E+00
    -17.358  0.1929E-01  0.1979E-01  0.2257E-05  0.7332E-02  0.0000E+00  0.0000E+00  0.0000E+00  0.0000E+00  0.0000E+00
    -17.254  0.1542E-01  0.2821E-01  0.2134E-05  0.1380E-01  0.0000E+00  0.0000E+00  0.0000E+00  0.0000E+00  0.0000E+00
    -17.150  0.4106E-02  0.1279E-01  0.2018E-05  0.7908E-02  0.0000E+00  0.0000E+00  0.0000E+00  0.0000E+00  0.0000E+00
    -17.046  0.3629E-03  0.1455E-02  0.1940E-05  0.1023E-02  0.0000E+00  0.0000E+00  0.0000E+00  0.0000E+00  0.0000E+00
    -16.942  0.7795E-04  0.4755E-04  0.1867E-05  0.2876E-04  0.0000E+00  0.0000E+00  0.0000E+00  0.0000E+00  0.0000E+00
    -16.839  0.5713E-04  0.9953E-05  0.1799E-05  0.4590E-05  0.0000E+00  0.0000E+00  0.0000E+00  0.0000E+00  0.0000E+00
    -16.735  0.4730E-04  0.6813E-05  0.1736E-05  0.4238E-05  0.0000E+00  0.0000E+00  0.0000E+00  0.0000E+00  0.0000E+00
    -16.631  0.4071E-04  0.5539E-05  0.1678E-05  0.4358E-05  0.0000E+00  0.0000E+00  0.0000E+00  0.0000E+00  0.0000E+00
    -16.527  0.3582E-04  0.4971E-05  0.1625E-05  0.4574E-05  0.0000E+00  0.0000E+00  0.0000E+00  0.0000E+00  0.0000E+00
    -16.423  0.3196E-04  0.4733E-05  0.1575E-05  0.4807E-05  0.0000E+00  0.0000E+00  0.0000E+00  0.0000E+00  0.0000E+00
    -16.320  0.2877E-04  0.4664E-05  0.1530E-05  0.5037E-05  0.0000E+00  0.0000E+00  0.0000E+00  0.0000E+00  0.0000E+00
    -16.216  0.2601E-04  0.4688E-05  0.1488E-05  0.5261E-05  0.0000E+00  0.0000E+00  0.0000E+00  0.0000E+00  0.0000E+00
    -16.112  0.2354E-04  0.4766E-05  0.1451E-05  0.5484E-05  0.0000E+00  0.0000E+00  0.0000E+00  0.0000E+00  0.0000E+00
    -16.008  0.2129E-04  0.4889E-05  0.1419E-05  0.5734E-05  0.0000E+00  0.0000E+00  0.0000E+00  0.0000E+00  0.0000E+00
    -15.904  0.4189E-04  0.7057E-05  0.1532E-05  0.7826E-05  0.0000E+00  0.0000E+00  0.0000E+00  0.0000E+00  0.0000E+00
    -15.801  0.2382E-02  0.1714E-03  0.3033E-05  0.7937E-04  0.0000E+00  0.0000E+00  0.0000E+00  0.0000E+00  0.0000E+00
    -15.697  0.3980E-01  0.2772E-02  0.5330E-05  0.1087E-02  0.0000E+00  0.0000E+00  0.0000E+00  0.0000E+00  0.0000E+00
    -15.593  0.1297E+00  0.9414E-02  0.4681E-05  0.4031E-02  0.0000E+00  0.0000E+00  0.0000E+00  0.0000E+00  0.0000E+00
    -15.489  0.1298E+00  0.1042E-01  0.3701E-05  0.6332E-02  0.0000E+00  0.0000E+00  0.0000E+00  0.0000E+00  0.0000E+00
    -15.385  0.1142E+00  0.9598E-02  0.3317E-05  0.1154E-01  0.0000E+00  0.0000E+00  0.0000E+00  0.0000E+00  0.0000E+00
    -15.282  0.1134E+00  0.1044E-01  0.3171E-05  0.1548E-01  0.0000E+00  0.0000E+00  0.0000E+00  0.0000E+00  0.0000E+00
    -15.178  0.8555E-01  0.9963E-02  0.3185E-05  0.1338E-01  0.0000E+00  0.0000E+00  0.0000E+00  0.0000E+00  0.0000E+00
    -15.074  0.6378E-01  0.9439E-02  0.3587E-05  0.1209E-01  0.0000E+00  0.0000E+00  0.0000E+00  0.0000E+00  0.0000E+00
    -14.970  0.5201E-01  0.9583E-02  0.4981E-05  0.1201E-01  0.0000E+00  0.0000E+00  0.0000E+00  0.0000E+00  0.0000E+00
    -14.866  0.4386E-01  0.9975E-02  0.4888E-05  0.1237E-01  0.0000E+00  0.0000E+00  0.0000E+00  0.0000E+00  0.0000E+00
    -14.763  0.3729E-01  0.1051E-01  0.2383E-05  0.1306E-01  0.0000E+00  0.0000E+00  0.0000E+00  0.0000E+00  0.0000E+00
    -14.659  0.3138E-01  0.1107E-01  0.1381E-05  0.1391E-01  0.0000E+00  0.0000E+00  0.0000E+00  0.0000E+00  0.0000E+00
    -14.555  0.2647E-01  0.1211E-01  0.1137E-05  0.1618E-01  0.0000E+00  0.0000E+00  0.0000E+00  0.0000E+00  0.0000E+00
    -14.451  0.2140E-01  0.1503E-01  0.1015E-05  0.2430E-01  0.0000E+00  0.0000E+00  0.0000E+00  0.0000E+00  0.0000E+00
    -14.347  0.1588E-01  0.2113E-01  0.9274E-06  0.4193E-01  0.0000E+00  0.0000E+00  0.0000E+00  0.0000E+00  0.0000E+00
    -14.244  0.1150E-01  0.2041E-01  0.8772E-06  0.3890E-01  0.0000E+00  0.0000E+00  0.0000E+00  0.0000E+00  0.0000E+00
    -14.140  0.8930E-02  0.1628E-01  0.8348E-06  0.2545E-01  0.0000E+00  0.0000E+00  0.0000E+00  0.0000E+00  0.0000E+00
    -14.036  0.6869E-02  0.1548E-01  0.8017E-06  0.2158E-01  0.0000E+00  0.0000E+00  0.0000E+00  0.0000E+00  0.0000E+00
    -13.932  0.4781E-02  0.1725E-01  0.7820E-06  0.2340E-01  0.0000E+00  0.0000E+00  0.0000E+00  0.0000E+00  0.0000E+00
    -13.828  0.2468E-02  0.1928E-01  0.8967E-06  0.2659E-01  0.0000E+00  0.0000E+00  0.0000E+00  0.0000E+00  0.0000E+00
    -13.725  0.6196E-03  0.9911E-02  0.2052E-05  0.1385E-01  0.0000E+00  0.0000E+00  0.0000E+00  0.0000E+00  0.0000E+00
    -13.621  0.1072E-03  0.1817E-02  0.3555E-05  0.2594E-02  0.0000E+00  0.0000E+00  0.0000E+00  0.0000E+00  0.0000E+00
    -13.517  0.8147E-04  0.3815E-03  0.3066E-05  0.4921E-03  0.0000E+00  0.0000E+00  0.0000E+00  0.0000E+00  0.0000E+00
    -13.413  0.7130E-04  0.8417E-04  0.2514E-05  0.8208E-04  0.0000E+00  0.0000E+00  0.0000E+00  0.0000E+00  0.0000E+00
    -13.309  0.6528E-04  0.3042E-04  0.2406E-05  0.2777E-04  0.0000E+00  0.0000E+00  0.0000E+00  0.0000E+00  0.0000E+00
    -13.205  0.6230E-04  0.1697E-04  0.2391E-05  0.1780E-04  0.0000E+00  0.0000E+00  0.0000E+00  0.0000E+00  0.0000E+00
    -13.102  0.6213E-04  0.1184E-04  0.2440E-05  0.1475E-04  0.0000E+00  0.0000E+00  0.0000E+00  0.0000E+00  0.0000E+00
    -12.998  0.5913E-04  0.9439E-05  0.2412E-05  0.1320E-04  0.0000E+00  0.0000E+00  0.0000E+00  0.0000E+00  0.0000E+00
    -12.894  0.3399E-04  0.7672E-05  0.1673E-05  0.1032E-04  0.0000E+00  0.0000E+00  0.0000E+00  0.0000E+00  0.0000E+00
    -12.790  0.2025E-04  0.7144E-05  0.1254E-05  0.8656E-05  0.0000E+00  0.0000E+00  0.0000E+00  0.0000E+00  0.0000E+00
    -12.686  0.1822E-04  0.7336E-05  0.1185E-05  0.8167E-05  0.0000E+00  0.0000E+00  0.0000E+00  0.0000E+00  0.0000E+00
    -12.583  0.1766E-04  0.7730E-05  0.1151E-05  0.7915E-05  0.0000E+00  0.0000E+00  0.0000E+00  0.0000E+00  0.0000E+00
    -12.479  0.1832E-04  0.8316E-05  0.1122E-05  0.7783E-05  0.0000E+00  0.0000E+00  0.0000E+00  0.0000E+00  0.0000E+00
    -12.375  0.2095E-03  0.1201E-04  0.1095E-05  0.8796E-05  0.0000E+00  0.0000E+00  0.0000E+00  0.0000E+00  0.0000E+00
    -12.271  0.1035E-01  0.1809E-03  0.1072E-05  0.7200E-04  0.0000E+00  0.0000E+00  0.0000E+00  0.0000E+00  0.0000E+00
    -12.167  0.9290E-01  0.1884E-02  0.1055E-05  0.7485E-03  0.0000E+00  0.0000E+00  0.0000E+00  0.0000E+00  0.0000E+00
    -12.064  0.1810E+00  0.5618E-02  0.1041E-05  0.2373E-02  0.0000E+00  0.0000E+00  0.0000E+00  0.0000E+00  0.0000E+00
    -11.960  0.1357E+00  0.8903E-02  0.1030E-05  0.3893E-02  0.0000E+00  0.0000E+00  0.0000E+00  0.0000E+00  0.0000E+00
    -11.856  0.9200E-01  0.1350E-01  0.1023E-05  0.5682E-02  0.0000E+00  0.0000E+00  0.0000E+00  0.0000E+00  0.0000E+00
    -11.752  0.7743E-01  0.3543E-01  0.1017E-05  0.1367E-01  0.0000E+00  0.0000E+00  0.0000E+00  0.0000E+00  0.0000E+00
    -11.648  0.9022E-01  0.9991E-01  0.1023E-05  0.5056E-01  0.0000E+00  0.0000E+00  0.0000E+00  0.0000E+00  0.0000E+00
    -11.545  0.8553E-01  0.8093E-01  0.1046E-05  0.7629E-01  0.0000E+00  0.0000E+00  0.0000E+00  0.0000E+00  0.0000E+00
    -11.441  0.6420E-01  0.1951E-01  0.1117E-05  0.5619E-01  0.0000E+00  0.0000E+00  0.0000E+00  0.0000E+00  0.0000E+00
    -11.337  0.5613E-01  0.7003E-02  0.1328E-05  0.4364E-01  0.0000E+00  0.0000E+00  0.0000E+00  0.0000E+00  0.0000E+00
    -11.233  0.5320E-01  0.5202E-02  0.1349E-05  0.3857E-01  0.0000E+00  0.0000E+00  0.0000E+00  0.0000E+00  0.0000E+00
    -11.129  0.5165E-01  0.4555E-02  0.8014E-06  0.3515E-01  0.0000E+00  0.0000E+00  0.0000E+00  0.0000E+00  0.0000E+00
    -11.026  0.5061E-01  0.4436E-02  0.5643E-06  0.3244E-01  0.0000E+00  0.0000E+00  0.0000E+00  0.0000E+00  0.0000E+00
    -10.922  0.4902E-01  0.4626E-02  0.5494E-06  0.3019E-01  0.0000E+00  0.0000E+00  0.0000E+00  0.0000E+00  0.0000E+00
    -10.818  0.4982E-01  0.4783E-02  0.5557E-06  0.2798E-01  0.0000E+00  0.0000E+00  0.0000E+00  0.0000E+00  0.0000E+00
    -10.714  0.6471E-01  0.5597E-02  0.6022E-06  0.2704E-01  0.0000E+00  0.0000E+00  0.0000E+00  0.0000E+00  0.0000E+00
    -10.610  0.1335E+00  0.7088E-02  0.9147E-06  0.2824E-01  0.0000E+00  0.0000E+00  0.0000E+00  0.0000E+00  0.0000E+00
    -10.507  0.1866E+00  0.7752E-02  0.1207E-05  0.2902E-01  0.0000E+00  0.0000E+00  0.0000E+00  0.0000E+00  0.0000E+00
    -10.403  0.1312E+00  0.7445E-02  0.1068E-05  0.2079E-01  0.0000E+00  0.0000E+00  0.0000E+00  0.0000E+00  0.0000E+00
    -10.299  0.8517E-01  0.7370E-02  0.9649E-06  0.1354E-01  0.0000E+00  0.0000E+00  0.0000E+00  0.0000E+00  0.0000E+00
    -10.195  0.6924E-01  0.7713E-02  0.9385E-06  0.1318E-01  0.0000E+00  0.0000E+00  0.0000E+00  0.0000E+00  0.0000E+00
    -10.091  0.6049E-01  0.8142E-02  0.9332E-06  0.1417E-01  0.0000E+00  0.0000E+00  0.0000E+00  0.0000E+00  0.0000E+00
     -9.988  0.5385E-01  0.8645E-02  0.9431E-06  0.1551E-01  0.0000E+00  0.0000E+00  0.0000E+00  0.0000E+00  0.0000E+00
     -9.884  0.4835E-01  0.9352E-02  0.9689E-06  0.1755E-01  0.0000E+00  0.0000E+00  0.0000E+00  0.0000E+00  0.0000E+00
     -9.780  0.4333E-01  0.1064E-01  0.9937E-06  0.2141E-01  0.0000E+00  0.0000E+00  0.0000E+00  0.0000E+00  0.0000E+00
     -9.676  0.3808E-01  0.1352E-01  0.1022E-05  0.3019E-01  0.0000E+00  0.0000E+00  0.0000E+00  0.0000E+00  0.0000E+00
     -9.572  0.3227E-01  0.1402E-01  0.1065E-05  0.3201E-01  0.0000E+00  0.0000E+00  0.0000E+00  0.0000E+00  0.0000E+00
     -9.468  0.2816E-01  0.7345E-02  0.1138E-05  0.1200E-01  0.0000E+00  0.0000E+00  0.0000E+00  0.0000E+00  0.0000E+00
     -9.365  0.2651E-01  0.4209E-02  0.1205E-05  0.2182E-02  0.0000E+00  0.0000E+00  0.0000E+00  0.0000E+00  0.0000E+00
     -9.261  0.2567E-01  0.4029E-02  0.1267E-05  0.1117E-02  0.0000E+00  0.0000E+00  0.0000E+00  0.0000E+00  0.0000E+00
     -9.157  0.3324E-01  0.4300E-02  0.1348E-05  0.1131E-02  0.0000E+00  0.0000E+00  0.0000E+00  0.0000E+00  0.0000E+00
     -9.053  0.1145E+00  0.8450E-02  0.1477E-05  0.4520E-02  0.0000E+00  0.0000E+00  0.0000E+00  0.0000E+00  0.0000E+00
     -8.949  0.2242E+00  0.3184E-01  0.1642E-05  0.2429E-01  0.0000E+00  0.0000E+00  0.0000E+00  0.0000E+00  0.0000E+00
     -8.846  0.1827E+00  0.5044E-01  0.1769E-05  0.3747E-01  0.0000E+00  0.0000E+00  0.0000E+00  0.0000E+00  0.0000E+00
     -8.742  0.1322E+00  0.4274E-01  0.1911E-05  0.2731E-01  0.0000E+00  0.0000E+00  0.0000E+00  0.0000E+00  0.0000E+00
     -8.638  0.1101E+00  0.3708E-01  0.2135E-05  0.2076E-01  0.0000E+00  0.0000E+00  0.0000E+00  0.0000E+00  0.0000E+00
     -8.534  0.9729E-01  0.3509E-01  0.2637E-05  0.1804E-01  0.0000E+00  0.0000E+00  0.0000E+00  0.0000E+00  0.0000E+00
     -8.430  0.8825E-01  0.3434E-01  0.8323E-05  0.1653E-01  0.0000E+00  0.0000E+00  0.0000E+00  0.0000E+00  0.0000E+00
     -8.327  0.8147E-01  0.3459E-01  0.3075E-03  0.1562E-01  0.0000E+00  0.0000E+00  0.0000E+00  0.0000E+00  0.0000E+00
     -8.223  0.7671E-01  0.3683E-01  0.2959E-02  0.1519E-01  0.0000E+00  0.0000E+00  0.0000E+00  0.0000E+00  0.0000E+00
     -8.119  0.7223E-01  0.3801E-01  0.6159E-02  0.1556E-01  0.0000E+00  0.0000E+00  0.0000E+00  0.0000E+00  0.0000E+00
     -8.015  0.6526E-01  0.2878E-01  0.4811E-02  0.1924E-01  0.0000E+00  0.0000E+00  0.0000E+00  0.0000E+00  0.0000E+00
     -7.911  0.6071E-01  0.2136E-01  0.3344E-02  0.2212E-01  0.0000E+00  0.0000E+00  0.0000E+00  0.0000E+00  0.0000E+00
     -7.808  0.5998E-01  0.1688E-01  0.2697E-02  0.1381E-01  0.0000E+00  0.0000E+00  0.0000E+00  0.0000E+00  0.0000E+00
     -7.704  0.6923E-01  0.1561E-01  0.2320E-02  0.9813E-02  0.0000E+00  0.0000E+00  0.0000E+00  0.0000E+00  0.0000E+00
     -7.600  0.1110E+00  0.1729E-01  0.2066E-02  0.1046E-01  0.0000E+00  0.0000E+00  0.0000E+00  0.0000E+00  0.0000E+00
     -7.496  0.1644E+00  0.1932E-01  0.1864E-02  0.1011E-01  0.0000E+00  0.0000E+00  0.0000E+00  0.0000E+00  0.0000E+00
     -7.392  0.1371E+00  0.1879E-01  0.1670E-02  0.9543E-02  0.0000E+00  0.0000E+00  0.0000E+00  0.0000E+00  0.0000E+00
     -7.289  0.1023E+00  0.1834E-01  0.1557E-02  0.9344E-02  0.0000E+00  0.0000E+00  0.0000E+00  0.0000E+00  0.0000E+00
     -7.185  0.8790E-01  0.1965E-01  0.1447E-02  0.9647E-02  0.0000E+00  0.0000E+00  0.0000E+00  0.0000E+00  0.0000E+00
     -7.081  0.8047E-01  0.3760E-01  0.1346E-02  0.1557E-01  0.0000E+00  0.0000E+00  0.0000E+00  0.0000E+00  0.0000E+00
     -6.977  0.7712E-01  0.7785E-01  0.1264E-02  0.2906E-01  0.0000E+00  0.0000E+00  0.0000E+00  0.0000E+00  0.0000E+00
     -6.873  0.7649E-01  0.7681E-01  0.1189E-02  0.2885E-01  0.0000E+00  0.0000E+00  0.0000E+00  0.0000E+00  0.0000E+00
     -6.770  0.7848E-01  0.6322E-01  0.1295E-02  0.2431E-01  0.0000E+00  0.0000E+00  0.0000E+00  0.0000E+00  0.0000E+00
     -6.666  0.8139E-01  0.5956E-01  0.7319E-02  0.2299E-01  0.0000E+00  0.0000E+00  0.0000E+00  0.0000E+00  0.0000E+00
     -6.562  0.6960E-01  0.4636E-01  0.4147E-01  0.1844E-01  0.0000E+00  0.0000E+00  0.0000E+00  0.0000E+00  0.0000E+00
     -6.458  0.5938E-01  0.3315E-01  0.6444E-01  0.1391E-01  0.0000E+00  0.0000E+00  0.0000E+00  0.0000E+00  0.0000E+00
     -6.354  0.6005E-01  0.2924E-01  0.4627E-01  0.1252E-01  0.0000E+00  0.0000E+00  0.0000E+00  0.0000E+00  0.0000E+00
     -6.251  0.6637E-01  0.2754E-01  0.3302E-01  0.1198E-01  0.0000E+00  0.0000E+00  0.0000E+00  0.0000E+00  0.0000E+00
     -6.147  0.7880E-01  0.2686E-01  0.2659E-01  0.1253E-01  0.0000E+00  0.0000E+00  0.0000E+00  0.0000E+00  0.0000E+00
     -6.043  0.8772E-01  0.2784E-01  0.2228E-01  0.1519E-01  0.0000E+00  0.0000E+00  0.0000E+00  0.0000E+00  0.0000E+00
     -5.939  0.9396E-01  0.3398E-01  0.1973E-01  0.1956E-01  0.0000E+00  0.0000E+00  0.0000E+00  0.0000E+00  0.0000E+00
     -5.835  0.7056E-01  0.3948E-01  0.1701E-01  0.2113E-01  0.0000E+00  0.0000E+00  0.0000E+00  0.0000E+00  0.0000E+00
     -5.731  0.4464E-01  0.4078E-01  0.1155E-01  0.2543E-01  0.0000E+00  0.0000E+00  0.0000E+00  0.0000E+00  0.0000E+00
     -5.628  0.4489E-01  0.3948E-01  0.9780E-02  0.2430E-01  0.0000E+00  0.0000E+00  0.0000E+00  0.0000E+00  0.0000E+00
     -5.524  0.5227E-01  0.3865E-01  0.1131E-01  0.1938E-01  0.0000E+00  0.0000E+00  0.0000E+00  0.0000E+00  0.0000E+00
     -5.420  0.7420E-01  0.4418E-01  0.1231E-01  0.1772E-01  0.0000E+00  0.0000E+00  0.0000E+00  0.0000E+00  0.0000E+00
     -5.316  0.1700E+00  0.6035E-01  0.1780E-01  0.1996E-01  0.0000E+00  0.0000E+00  0.0000E+00  0.0000E+00  0.0000E+00
     -5.212  0.2485E+00  0.7066E-01  0.1577E-01  0.2056E-01  0.0000E+00  0.0000E+00  0.0000E+00  0.0000E+00  0.0000E+00
     -5.109  0.9471E-01  0.6320E-01  0.1065E-01  0.1655E-01  0.0000E+00  0.0000E+00  0.0000E+00  0.0000E+00  0.0000E+00