<?xml version="1.0" encoding="ISO-8859-1"?>
<modeling>
 <generator>
  <i name="program" type="string">vasp </i>
  <i name="version" type="string">6.3.2  </i>
  <i name="subversion" type="string">27Jun22 (build Dec 22 2022 13:13:19) complex                          parallel </i>
  <i name="platform" type="string">LinuxIFC </i>
  <i name="date" type="string">2023 08 23 </i>
  <i name="time" type="string">04:30:49 </i>
 </generator>
 <incar>
  <i type="string" name="SYSTEM">Lattice</i>
  <i type="int" name="ISTART">     0</i>
  <i type="string" name="PREC">Accurate</i>
  <i type="string" name="ALGO">Normal</i>
  <i type="int" name="ISPIN">     2</i>
  <i type="int" name="ICHARG">     2</i>
  <i type="int" name="NELM">    64</i>
  <i type="int" name="IBRION">     2</i>
  <i name="EDIFF">      0.00000100</i>
  <i name="EDIFFG">     -0.00100000</i>
  <i type="int" name="NSW">   128</i>
  <i type="int" name="ISIF">     2</i>
  <i name="ENCUT">    450.00000000</i>
  <i name="POTIM">      0.50000000</i>
  <i type="int" name="ISMEAR">     0</i>
  <i name="SIGMA">      0.10000000</i>
  <i type="logical" name="LWAVE"> F  </i>
  <i type="logical" name="LCHARG"> F  </i>
  <i type="string" name="GGA">PE</i>
  <i type="int" name="IVDW">    12</i>
 </incar>
 <primitive_cell>
  <structure name="primitive_cell" >
   <crystal>
    <varray name="basis" >
     <v>       4.19069693       2.41950000       0.00000000 </v>
     <v>      -4.19069693       2.41950000       0.00000000 </v>
     <v>       0.00000000       0.00000000      15.00000000 </v>
    </varray>
    <i name="volume">    304.18173659 </i>
    <varray name="rec_basis" >
     <v>       0.11931190       0.20665427       0.00000000 </v>
     <v>      -0.11931190       0.20665427       0.00000000 </v>
     <v>       0.00000000       0.00000000       0.06666667 </v>
    </varray>
   </crystal>
   <varray name="positions" >
    <v>       0.00415361       0.00267210       0.12034134 </v>
    <v>       0.35695335       0.00285503       0.09748893 </v>
    <v>       0.00423858       0.35550699       0.09749256 </v>
    <v>       0.65142295       0.65006557       0.09747688 </v>
    <v>       0.32808646       0.32671938       0.10030508 </v>
    <v>       0.68027775       0.00278085       0.10027562 </v>
    <v>       0.00416530       0.67883808       0.10026559 </v>
    <v>       0.08333267       0.41666633       0.33646667 </v>
    <v>       0.24999967       0.24999933       0.33646667 </v>
    <v>       0.08333267       0.91666633       0.33646667 </v>
    <v>       0.24999967       0.74999933       0.33646667 </v>
    <v>       0.58333267       0.41666633       0.33646667 </v>
    <v>       0.74999967       0.24999933       0.33646667 </v>
    <v>       0.58333267       0.91666633       0.33646667 </v>
    <v>       0.74999967       0.74999933       0.33646667 </v>
   </varray>
  </structure>
  <varray name="primitive_index" >
   <v type="int" >        1 </v>
   <v type="int" >        2 </v>
   <v type="int" >        3 </v>
   <v type="int" >        4 </v>
   <v type="int" >        5 </v>
   <v type="int" >        6 </v>
   <v type="int" >        7 </v>
   <v type="int" >        8 </v>
   <v type="int" >        9 </v>
   <v type="int" >       10 </v>
   <v type="int" >       11 </v>
   <v type="int" >       12 </v>
   <v type="int" >       13 </v>
   <v type="int" >       14 </v>
   <v type="int" >       15 </v>
  </varray>
 </primitive_cell>
 <kpoints>
  <generation param="Gamma">
   <v type="int" name="divisions">      12       12        1 </v>
   <v name="usershift">      0.00000000       0.00000000       0.00000000 </v>
   <v name="genvec1">      0.08333333       0.00000000       0.00000000 </v>
   <v name="genvec2">      0.00000000       0.08333333       0.00000000 </v>
   <v name="genvec3">      0.00000000       0.00000000       1.00000000 </v>
   <v name="shift">      0.00000000       0.00000000       0.00000000 </v>
  </generation>
  <varray name="kpointlist" >
   <v>       0.00000000       0.00000000       0.00000000 </v>
   <v>       0.08333333       0.00000000       0.00000000 </v>
   <v>       0.00000000       0.08333333       0.00000000 </v>
   <v>      -0.08333333       0.08333333       0.00000000 </v>
   <v>       0.16666667       0.00000000       0.00000000 </v>
   <v>       0.00000000       0.16666667       0.00000000 </v>
   <v>      -0.16666667       0.16666667       0.00000000 </v>
   <v>       0.25000000      -0.00000000       0.00000000 </v>
   <v>      -0.00000000       0.25000000       0.00000000 </v>
   <v>      -0.25000000       0.25000000       0.00000000 </v>
   <v>       0.33333333       0.00000000       0.00000000 </v>
   <v>       0.00000000       0.33333333       0.00000000 </v>
   <v>      -0.33333333       0.33333333       0.00000000 </v>
   <v>       0.41666667       0.00000000       0.00000000 </v>
   <v>      -0.00000000       0.41666667       0.00000000 </v>
   <v>      -0.41666667       0.41666667       0.00000000 </v>
   <v>       0.50000000      -0.00000000       0.00000000 </v>
   <v>      -0.00000000       0.50000000       0.00000000 </v>
   <v>       0.50000000       0.50000000       0.00000000 </v>
   <v>       0.08333333       0.08333333       0.00000000 </v>
   <v>      -0.08333333       0.16666667       0.00000000 </v>
   <v>      -0.16666667       0.08333333       0.00000000 </v>
   <v>       0.16666667       0.08333333       0.00000000 </v>
   <v>      -0.08333333       0.25000000       0.00000000 </v>
   <v>      -0.25000000       0.16666667       0.00000000 </v>
   <v>      -0.16666667       0.25000000       0.00000000 </v>
   <v>       0.08333333       0.16666667       0.00000000 </v>
   <v>       0.25000000      -0.08333333       0.00000000 </v>
   <v>       0.25000000       0.08333333       0.00000000 </v>
   <v>      -0.08333333       0.33333333       0.00000000 </v>
   <v>      -0.33333333       0.25000000       0.00000000 </v>
   <v>      -0.25000000       0.33333333       0.00000000 </v>
   <v>       0.08333333       0.25000000       0.00000000 </v>
   <v>       0.33333333      -0.08333333       0.00000000 </v>
   <v>       0.33333333       0.08333333       0.00000000 </v>
   <v>      -0.08333333       0.41666667       0.00000000 </v>
   <v>      -0.41666667       0.33333333       0.00000000 </v>
   <v>      -0.33333333       0.41666667       0.00000000 </v>
   <v>       0.08333333       0.33333333       0.00000000 </v>
   <v>       0.41666667      -0.08333333       0.00000000 </v>
   <v>       0.41666667       0.08333333       0.00000000 </v>
   <v>      -0.08333333       0.50000000       0.00000000 </v>
   <v>       0.50000000       0.41666667       0.00000000 </v>
   <v>      -0.41666667       0.50000000       0.00000000 </v>
   <v>       0.08333333       0.41666667       0.00000000 </v>
   <v>       0.50000000      -0.08333333       0.00000000 </v>
   <v>       0.16666667       0.16666667       0.00000000 </v>
   <v>      -0.16666667       0.33333333       0.00000000 </v>
   <v>      -0.33333333       0.16666667       0.00000000 </v>
   <v>       0.25000000       0.16666667       0.00000000 </v>
   <v>      -0.16666667       0.41666667       0.00000000 </v>
   <v>      -0.41666667       0.25000000       0.00000000 </v>
   <v>      -0.25000000       0.41666667       0.00000000 </v>
   <v>       0.16666667       0.25000000       0.00000000 </v>
   <v>       0.41666667      -0.16666667       0.00000000 </v>
   <v>       0.33333333       0.16666667       0.00000000 </v>
   <v>      -0.16666667       0.50000000       0.00000000 </v>
   <v>       0.50000000       0.33333333       0.00000000 </v>
   <v>      -0.33333333       0.50000000       0.00000000 </v>
   <v>       0.16666667       0.33333333       0.00000000 </v>
   <v>       0.50000000      -0.16666667       0.00000000 </v>
   <v>       0.41666667       0.16666667       0.00000000 </v>
   <v>      -0.16666667      -0.41666667       0.00000000 </v>
   <v>       0.41666667       0.41666667       0.00000000 </v>
   <v>       0.25000000       0.25000000       0.00000000 </v>
   <v>      -0.25000000       0.50000000       0.00000000 </v>
   <v>       0.50000000       0.25000000       0.00000000 </v>
   <v>       0.33333333       0.25000000       0.00000000 </v>
   <v>      -0.25000000      -0.41666667       0.00000000 </v>
   <v>       0.41666667       0.33333333       0.00000000 </v>
   <v>      -0.33333333      -0.41666667       0.00000000 </v>
   <v>       0.25000000       0.33333333       0.00000000 </v>
   <v>      -0.41666667      -0.25000000       0.00000000 </v>
   <v>       0.33333333       0.33333333       0.00000000 </v>
  </varray>
  <varray name="weights" >
   <v>       0.00694444 </v>
   <v>       0.01388889 </v>
   <v>       0.01388889 </v>
   <v>       0.01388889 </v>
   <v>       0.01388889 </v>
   <v>       0.01388889 </v>
   <v>       0.01388889 </v>
   <v>       0.01388889 </v>
   <v>       0.01388889 </v>
   <v>       0.01388889 </v>
   <v>       0.01388889 </v>
   <v>       0.01388889 </v>
   <v>       0.01388889 </v>
   <v>       0.01388889 </v>
   <v>       0.01388889 </v>
   <v>       0.01388889 </v>
   <v>       0.00694444 </v>
   <v>       0.00694444 </v>
   <v>       0.00694444 </v>
   <v>       0.01388889 </v>
   <v>       0.01388889 </v>
   <v>       0.01388889 </v>
   <v>       0.01388889 </v>
   <v>       0.01388889 </v>
   <v>       0.01388889 </v>
   <v>       0.01388889 </v>
   <v>       0.01388889 </v>
   <v>       0.01388889 </v>
   <v>       0.01388889 </v>
   <v>       0.01388889 </v>
   <v>       0.01388889 </v>
   <v>       0.01388889 </v>
   <v>       0.01388889 </v>
   <v>       0.01388889 </v>
   <v>       0.01388889 </v>
   <v>       0.01388889 </v>
   <v>       0.01388889 </v>
   <v>       0.01388889 </v>
   <v>       0.01388889 </v>
   <v>       0.01388889 </v>
   <v>       0.01388889 </v>
   <v>       0.01388889 </v>
   <v>       0.01388889 </v>
   <v>       0.01388889 </v>
   <v>       0.01388889 </v>
   <v>       0.01388889 </v>
   <v>       0.01388889 </v>
   <v>       0.01388889 </v>
   <v>       0.01388889 </v>
   <v>       0.01388889 </v>
   <v>       0.01388889 </v>
   <v>       0.01388889 </v>
   <v>       0.01388889 </v>
   <v>       0.01388889 </v>
   <v>       0.01388889 </v>
   <v>       0.01388889 </v>
   <v>       0.01388889 </v>
   <v>       0.01388889 </v>
   <v>       0.01388889 </v>
   <v>       0.01388889 </v>
   <v>       0.01388889 </v>
   <v>       0.01388889 </v>
   <v>       0.01388889 </v>
   <v>       0.01388889 </v>
   <v>       0.01388889 </v>
   <v>       0.01388889 </v>
   <v>       0.01388889 </v>
   <v>       0.01388889 </v>
   <v>       0.01388889 </v>
   <v>       0.01388889 </v>
   <v>       0.01388889 </v>
   <v>       0.01388889 </v>
   <v>       0.01388889 </v>
   <v>       0.01388889 </v>
  </varray>
 </kpoints>
 <parameters>
  <separator name="general" >
   <i type="string" name="SYSTEM">Lattice</i>
   <i type="logical" name="LCOMPAT"> F  </i>
  </separator>
  <separator name="electronic" >
   <i type="string" name="PREC">accura</i>
   <i name="ENMAX">    450.00000000</i>
   <i name="ENAUG">    644.87300000</i>
   <i name="EDIFF">      0.00000100</i>
   <i type="int" name="IALGO">    38</i>
   <i type="int" name="IWAVPR">    11</i>
   <i type="int" name="NBANDS">    48</i>
   <i type="int" name="NBANDSLOW">    -1</i>
   <i type="int" name="NBANDSHIGH">    -1</i>
   <i name="NELECT">     56.00000000</i>
   <i type="int" name="TURBO">     0</i>
   <i type="int" name="IRESTART">     0</i>
   <i type="int" name="NREBOOT">     0</i>
   <i type="int" name="NMIN">     0</i>
   <i name="EREF">      0.00000000</i>
   <separator name="electronic smearing" >
    <i type="int" name="ISMEAR">     0</i>
    <i name="SIGMA">      0.10000000</i>
    <i name="KSPACING">      0.50000000</i>
    <i type="logical" name="KGAMMA"> T  </i>
    <i type="logical" name="KBLOWUP"> T  </i>
   </separator>
   <separator name="electronic projectors" >
    <i type="logical" name="LREAL"> F  </i>
    <v name="ROPT">      0.00000000      0.00000000</v>
    <i type="int" name="LMAXPAW">  -100</i>
    <i type="int" name="LMAXMIX">     2</i>
    <i type="logical" name="NLSPLINE"> F  </i>
   </separator>
   <separator name="electronic startup" >
    <i type="int" name="ISTART">     0</i>
    <i type="int" name="ICHARG">     2</i>
    <i type="int" name="INIWAV">     1</i>
   </separator>
   <separator name="electronic spin" >
    <i type="int" name="ISPIN">     2</i>
    <i type="logical" name="LNONCOLLINEAR"> F  </i>
    <v name="MAGMOM">      1.00000000      1.00000000      1.00000000      1.00000000      1.00000000      1.00000000      1.00000000      1.00000000      1.00000000      1.00000000      1.00000000      1.00000000      1.00000000      1.00000000      1.00000000</v>
    <i name="NUPDOWN">     -1.00000000</i>
    <i type="logical" name="LSORBIT"> F  </i>
    <v name="SAXIS">      0.00000000      0.00000000      1.00000000</v>
    <i type="logical" name="LSPIRAL"> F  </i>
    <v name="QSPIRAL">      0.00000000      0.00000000      0.00000000</v>
    <i type="logical" name="LZEROZ"> F  </i>
   </separator>
   <separator name="electronic exchange-correlation" >
    <i type="logical" name="LASPH"> F  </i>
    <i type="logical" name="LMETAGGA"> F  </i>
   </separator>
   <separator name="electronic convergence" >
    <i type="int" name="NELM">    64</i>
    <i type="int" name="NELMDL">    -5</i>
    <i type="int" name="NELMIN">     2</i>
    <i name="ENINI">    450.00000000</i>
    <separator name="electronic convergence detail" >
     <i type="logical" name="LDIAG"> T  </i>
     <i type="logical" name="LSUBROT"> F  </i>
     <i name="WEIMIN">      0.00100000</i>
     <i name="EBREAK">      0.00000001</i>
     <i name="DEPER">      0.30000000</i>
     <i type="int" name="NRMM">     4</i>
     <i name="TIME">      0.40000000</i>
    </separator>
   </separator>
   <separator name="electronic mixer" >
    <i name="AMIX">      0.40000000</i>
    <i name="BMIX">      1.00000000</i>
    <i name="AMIN">      0.10000000</i>
    <i name="AMIX_MAG">      1.60000000</i>
    <i name="BMIX_MAG">      1.00000000</i>
    <separator name="electronic mixer details" >
     <i type="int" name="IMIX">     4</i>
     <i type="logical" name="MIXFIRST"> F  </i>
     <i type="int" name="MAXMIX">   -45</i>
     <i name="WC">    100.00000000</i>
     <i type="int" name="INIMIX">     1</i>
     <i type="int" name="MIXPRE">     1</i>
     <i type="int" name="MREMOVE">     5</i>
    </separator>
   </separator>
   <separator name="electronic dipolcorrection" >
    <i type="logical" name="LDIPOL"> F  </i>
    <i type="logical" name="LMONO"> F  </i>
    <i type="int" name="IDIPOL">     0</i>
    <i name="EPSILON">      1.00000000</i>
    <v name="DIPOL">   -100.00000000   -100.00000000   -100.00000000</v>
    <i name="EFIELD">      0.00000000</i>
   </separator>
  </separator>
  <separator name="grids" >
   <i type="int" name="NGX">    36</i>
   <i type="int" name="NGY">    36</i>
   <i type="int" name="NGZ">   108</i>
   <i type="int" name="NGXF">    72</i>
   <i type="int" name="NGYF">    72</i>
   <i type="int" name="NGZF">   216</i>
   <i type="logical" name="ADDGRID"> F  </i>
  </separator>
  <separator name="ionic" >
   <i type="int" name="NSW">   128</i>
   <i type="int" name="IBRION">     2</i>
   <i type="int" name="MDALGO">     0</i>
   <i type="int" name="ISIF">     2</i>
   <i name="PSTRESS">      0.00000000</i>
   <i name="EDIFFG">     -0.00100000</i>
   <i type="int" name="NFREE">     1</i>
   <i name="POTIM">      0.50000000</i>
   <i name="SMASS">     -3.00000000</i>
   <i name="SCALEE">      1.00000000</i>
  </separator>
  <separator name="ionic md" >
   <i name="TEBEG">      0.00010000</i>
   <i name="TEEND">      0.00010000</i>
   <i type="int" name="NBLOCK">     1</i>
   <i type="int" name="KBLOCK">   128</i>
   <i type="int" name="NPACO">   256</i>
   <i name="APACO">     10.00000000</i>
  </separator>
  <separator name="symmetry" >
   <i type="int" name="ISYM">     2</i>
   <i name="SYMPREC">      0.00001000</i>
  </separator>
  <separator name="dos" >
   <i type="int" name="LORBIT">     0</i>
   <v name="RWIGS">     -1.00000000     -1.00000000</v>
   <i type="int" name="NEDOS">   301</i>
   <i name="EMIN">     10.00000000</i>
   <i name="EMAX">    -10.00000000</i>
   <i name="EFERMI">      0.00000000</i>
  </separator>
  <separator name="writing" >
   <i type="int" name="NWRITE">     2</i>
   <i type="logical" name="LWAVE"> F  </i>
   <i type="logical" name="LDOWNSAMPLE"> F  </i>
   <i type="logical" name="LCHARG"> F  </i>
   <i type="logical" name="LPARD"> F  </i>
   <i type="logical" name="LVTOT"> F  </i>
   <i type="logical" name="LVHAR"> F  </i>
   <i type="logical" name="LELF"> F  </i>
   <i type="logical" name="LOPTICS"> F  </i>
   <v name="STM">      0.00000000      0.00000000      0.00000000      0.00000000      0.00000000      0.00000000      0.00000000</v>
  </separator>
  <separator name="performance" >
   <i type="int" name="NPAR">    48</i>
   <i type="int" name="NSIM">     4</i>
   <i type="int" name="NBLK">    -1</i>
   <i type="logical" name="LPLANE"> T  </i>
   <i type="logical" name="LSCALAPACK"> T  </i>
   <i type="logical" name="LSCAAWARE"> F  </i>
   <i type="logical" name="LSCALU"> F  </i>
   <i type="logical" name="LASYNC"> F  </i>
   <i type="logical" name="LORBITALREAL"> F  </i>
  </separator>
  <separator name="miscellaneous" >
   <i type="int" name="IDIOT">     3</i>
   <i type="int" name="PHON_NSTRUCT">    -1</i>
   <i type="logical" name="LMUSIC"> F  </i>
   <v name="POMASS">     10.81100000     12.01100000</v>
   <v name="DARWINR">      0.00000000      0.00000000</v>
   <v name="DARWINV">      1.00000000      1.00000000</v>
   <i type="logical" name="LCORR"> T  </i>
  </separator>
  <i type="logical" name="GGA_COMPAT"> T  </i>
  <i type="logical" name="LBERRY"> F  </i>
  <i type="int" name="ICORELEVEL">     0</i>
  <i type="logical" name="LDAU"> F  </i>
  <i type="int" name="I_CONSTRAINED_M">     0</i>
  <separator name="electronic exchange-correlation" >
   <i type="string" name="GGA">PE</i>
   <i type="int" name="VOSKOWN">     0</i>
   <i type="logical" name="LHFCALC"> F  </i>
   <i type="string" name="PRECFOCK"></i>
   <i type="logical" name="LSYMGRAD"> F  </i>
   <i type="logical" name="LHFONE"> F  </i>
   <i type="logical" name="LRHFCALC"> F  </i>
   <i type="logical" name="LTHOMAS"> F  </i>
   <i type="logical" name="LMODELHF"> F  </i>
   <i type="logical" name="LFOCKACE"> F  </i>
   <i name="ENCUT4O">     -1.00000000</i>
   <i type="int" name="EXXOEP">     0</i>
   <i type="int" name="FOURORBIT">     0</i>
   <i name="AEXX">      0.00000000</i>
   <i name="HFALPHA">      0.00000000</i>
   <i name="MCALPHA">      0.00000000</i>
   <i name="ALDAX">      1.00000000</i>
   <i name="AGGAX">      1.00000000</i>
   <i name="ALDAC">      1.00000000</i>
   <i name="AGGAC">      1.00000000</i>
   <i type="int" name="NKREDX">     1</i>
   <i type="int" name="NKREDY">     1</i>
   <i type="int" name="NKREDZ">     1</i>
   <i type="logical" name="SHIFTRED"> F  </i>
   <i type="logical" name="ODDONLY"> F  </i>
   <i type="logical" name="EVENONLY"> F  </i>
   <i type="int" name="LMAXFOCK">     0</i>
   <i type="int" name="NMAXFOCKAE">     0</i>
   <i type="logical" name="LFOCKAEDFT"> F  </i>
   <i name="HFSCREEN">      0.00000000</i>
   <i name="HFSCREENC">      0.00000000</i>
   <i type="int" name="NBANDSGWLOW">     0</i>
  </separator>
  <separator name="vdW DFT" >
   <i type="logical" name="LUSE_VDW"> F  </i>
   <i name="Zab_VDW">     -0.84910000</i>
   <i name="PARAM1">      0.12340000</i>
   <i name="PARAM2">      1.00000000</i>
   <i name="PARAM3">      0.00000000</i>
  </separator>
  <separator name="model GW" >
   <i type="int" name="MODEL_GW">     0</i>
   <i name="MODEL_EPS0">     12.16726946</i>
   <i name="MODEL_ALPHA">      1.00000000</i>
  </separator>
  <separator name="linear response parameters" >
   <i type="logical" name="LEPSILON"> F  </i>
   <i type="logical" name="LRPA"> F  </i>
   <i type="logical" name="LNABLA"> F  </i>
   <i type="logical" name="LVEL"> F  </i>
   <i name="CSHIFT">      0.10000000</i>
   <i name="OMEGAMAX">     -1.00000000</i>
   <i name="DEG_THRESHOLD">      0.00200000</i>
   <i name="RTIME">     -0.10000000</i>
   <i name="WPLASMAI">      0.00000000</i>
   <v name="DFIELD">      0.00000000      0.00000000      0.00000000</v>
   <v name="WPLASMA">      0.00000000      0.00000000      0.00000000      0.00000000      0.00000000      0.00000000      0.00000000      0.00000000      0.00000000</v>
  </separator>
  <separator name="orbital magnetization" >
   <i type="logical" name="NUCIND"> F  </i>
   <v name="MAGPOS">      0.00000000      0.00000000      0.00000000</v>
   <i type="logical" name="LNICSALL"> T  </i>
   <i type="logical" name="ORBITALMAG"> F  </i>
   <i type="logical" name="LMAGBLOCH"> F  </i>
   <i type="logical" name="LCHIMAG"> F  </i>
   <i type="logical" name="LGAUGE"> T  </i>
   <i type="int" name="MAGATOM">     0</i>
   <v name="MAGDIPOL">      0.00000000      0.00000000      0.00000000</v>
   <v name="AVECCONST">      0.00000000      0.00000000      0.00000000</v>
  </separator>
  <separator name="response functions" >
   <i type="logical" name="LFINITE_TEMPERATURE"> F  </i>
   <i type="logical" name="LADDER"> F  </i>
   <i type="logical" name="LRPAFORCE"> F  </i>
   <i type="logical" name="LFXC"> F  </i>
   <i type="logical" name="LHARTREE"> T  </i>
   <i type="int" name="IBSE">     0</i>
   <v type="int" name="KPOINT">    -1     0     0     0</v>
   <i type="logical" name="LTCTC"> F  </i>
   <i type="logical" name="LTCTE"> F  </i>
   <i type="logical" name="LTETE"> F  </i>
   <i type="logical" name="LTRIPLET"> F  </i>
   <i type="logical" name="LFXCEPS"> F  </i>
   <i type="logical" name="LFXHEG"> F  </i>
   <i type="int" name="NATURALO">     2</i>
   <i type="logical" name="LHOLEGF"> F  </i>
   <i type="logical" name="L2ORDER"> F  </i>
   <i type="logical" name="LDMP1"> F  </i>
   <i type="logical" name="LMP2LT"> F  </i>
   <i type="logical" name="LSMP2LT"> F  </i>
   <i type="logical" name="LGWLF"> F  </i>
   <i name="ENCUTGW">     -2.00000000</i>
   <i name="ENCUTGWSOFT">     -2.00000000</i>
   <i name="ENCUTLF">     -1.00000000</i>
   <i type="logical" name="LESF_SPLINES"> F  </i>
   <i type="int" name="LMAXMP2">    -1</i>
   <i name="SCISSOR">      0.00000000</i>
   <i type="int" name="NOMEGA">     0</i>
   <i type="int" name="NOMEGAR">     0</i>
   <i type="int" name="NBANDSGW">    -1</i>
   <i type="int" name="NBANDSO">    -1</i>
   <i type="int" name="NBANDSV">    -1</i>
   <i type="int" name="NELMGW">     1</i>
   <i type="int" name="NELMHF">     1</i>
   <i type="int" name="DIM">     3</i>
   <i type="int" name="IESPILON">     4</i>
   <i type="int" name="ANTIRES">     0</i>
   <i name="OMEGAMAX">    -30.00000000</i>
   <i name="OMEGAMIN">    -30.00000000</i>
   <i name="OMEGATL">   -200.00000000</i>
   <i type="int" name="OMEGAGRID">     0</i>
   <i name="CSHIFT">     -0.10000000</i>
   <i type="logical" name="LSELFENERGY"> F  </i>
   <i type="logical" name="LSPECTRAL"> F  </i>
   <i type="logical" name="LSPECTRALGW"> F  </i>
   <i type="logical" name="LSINGLES"> F  </i>
   <i type="logical" name="LFERMIGW"> F  </i>
   <i type="logical" name="ODDONLYGW"> F  </i>
   <i type="logical" name="EVENONLYGW"> F  </i>
   <i type="int" name="NKREDLFX">     1</i>
   <i type="int" name="NKREDLFY">     1</i>
   <i type="int" name="NKREDLFZ">     1</i>
   <i type="int" name="MAXMEM">  2800</i>
   <i type="int" name="TELESCOPE">     0</i>
   <i type="int" name="NTAUPAR">    -1</i>
   <i type="int" name="NOMEGAPAR">    -1</i>
   <i name="DAMP_NEWTON">      0.80000001</i>
   <i name="LAMBDA">      1.00000000</i>
  </separator>
  <separator name="External order field" >
   <i name="OFIELD_KAPPA">      0.00000000</i>
   <v name="OFIELD_K">      0.00000000      0.00000000      0.00000000</v>
   <i name="OFIELD_Q6_NEAR">      0.00000000</i>
   <i name="OFIELD_Q6_FAR">      0.00000000</i>
   <i name="OFIELD_A">      0.00000000</i>
  </separator>
  <separator name="optional k-points parameters" >
   <i type="int" name="KPOINTS_OPT_MODE">     1</i>
   <i type="logical" name="LKPOINTS_OPT"> F  </i>
  </separator>
  <separator name="solvation model" >
   <i type="logical" name="LSOL"> F  </i>
  </separator>
 </parameters>
 <atominfo>
  <atoms>      15 </atoms>
  <types>       2 </types>
  <array name="atoms" >
   <dimension dim="1">ion</dimension>
   <field type="string">element</field>
   <field type="int">atomtype</field>
   <set>
    <rc><c>B </c><c>   1</c></rc>
    <rc><c>B </c><c>   1</c></rc>
    <rc><c>B </c><c>   1</c></rc>
    <rc><c>B </c><c>   1</c></rc>
    <rc><c>C </c><c>   2</c></rc>
    <rc><c>C </c><c>   2</c></rc>
    <rc><c>C </c><c>   2</c></rc>
    <rc><c>C </c><c>   2</c></rc>
    <rc><c>C </c><c>   2</c></rc>
    <rc><c>C </c><c>   2</c></rc>
    <rc><c>C </c><c>   2</c></rc>
    <rc><c>C </c><c>   2</c></rc>
    <rc><c>C </c><c>   2</c></rc>
    <rc><c>C </c><c>   2</c></rc>
    <rc><c>C </c><c>   2</c></rc>
   </set>
  </array>
  <array name="atomtypes" >
   <dimension dim="1">type</dimension>
   <field type="int">atomspertype</field>
   <field type="string">element</field>
   <field>mass</field>
   <field>valence</field>
   <field type="string">pseudopotential</field>
   <set>
    <rc><c>   4</c><c>B </c><c>     10.81100000</c><c>      3.00000000</c><c>  PAW_PBE B 06Sep2000                   </c></rc>
    <rc><c>  11</c><c>C </c><c>     12.01100000</c><c>      4.00000000</c><c>  PAW_PBE C 08Apr2002                   </c></rc>
   </set>
  </array>
 </atominfo>
 <structure name="initialpos" >
  <crystal>
   <varray name="basis" >
    <v>       4.19069693       2.41950000       0.00000000 </v>
    <v>      -4.19069693       2.41950000       0.00000000 </v>
    <v>       0.00000000       0.00000000      15.00000000 </v>
   </varray>
   <i name="volume">    304.18173659 </i>
   <varray name="rec_basis" >
    <v>       0.11931190       0.20665427       0.00000000 </v>
    <v>      -0.11931190       0.20665427       0.00000000 </v>
    <v>       0.00000000       0.00000000       0.06666667 </v>
   </varray>
  </crystal>
  <varray name="positions" >
   <v>       0.00415361       0.00267210       0.12034134 </v>
   <v>       0.35695335       0.00285503       0.09748893 </v>
   <v>       0.00423858       0.35550699       0.09749256 </v>
   <v>       0.65142295       0.65006557       0.09747688 </v>
   <v>       0.32808646       0.32671938       0.10030508 </v>
   <v>       0.68027775       0.00278085       0.10027562 </v>
   <v>       0.00416530       0.67883808       0.10026559 </v>
   <v>       0.08333267       0.41666633       0.33646667 </v>
   <v>       0.24999967       0.24999933       0.33646667 </v>
   <v>       0.08333267       0.91666633       0.33646667 </v>
   <v>       0.24999967       0.74999933       0.33646667 </v>
   <v>       0.58333267       0.41666633       0.33646667 </v>
   <v>       0.74999967       0.24999933       0.33646667 </v>
   <v>       0.58333267       0.91666633       0.33646667 </v>
   <v>       0.74999967       0.74999933       0.33646667 </v>
  </varray>
 </structure>
 <calculation>
  <scstep>
   <time name="dav">    5.48    5.54</time>
   <time name="total">    5.53    5.59</time>
   <energy>
    <i name="alphaZ">     58.47588037 </i>
    <i name="ewald">   4726.35386439 </i>
    <i name="hartreedc">  -6281.56509172 </i>
    <i name="XCdc">    175.23408228 </i>
    <i name="pawpsdc">   1365.87943566 </i>
    <i name="pawaedc">  -1368.52100941 </i>
    <i name="eentropy">     -0.02002832 </i>
    <i name="bandstr">   -375.32368636 </i>
    <i name="atom">   1903.26342058 </i>
    <i name="e_fr_energy">    203.77686747 </i>
    <i name="e_wo_entrp">    203.79689579 </i>
    <i name="e_0_energy">    203.78688163 </i>
   </energy>
  </scstep>
  <scstep>
   <time name="dav">    7.89    7.97</time>
   <time name="total">    7.90    7.97</time>
   <energy>
    <i name="e_fr_energy">   -116.36531529 </i>
    <i name="e_wo_entrp">   -116.36375285 </i>
    <i name="e_0_energy">   -116.36453407 </i>
   </energy>
  </scstep>
  <scstep>
   <time name="dav">   11.39   11.48</time>
   <time name="total">   11.39   11.48</time>
   <energy>
    <i name="e_fr_energy">   -129.49011476 </i>
    <i name="e_wo_entrp">   -129.48703056 </i>
    <i name="e_0_energy">   -129.48857266 </i>
   </energy>
  </scstep>
  <scstep>
   <time name="dav">    8.06    8.13</time>
   <time name="total">    8.06    8.13</time>
   <energy>
    <i name="e_fr_energy">   -129.50965187 </i>
    <i name="e_wo_entrp">   -129.50654903 </i>
    <i name="e_0_energy">   -129.50810045 </i>
   </energy>
  </scstep>
  <scstep>
   <time name="dav">   10.81   10.88</time>
   <time name="total">   11.07   11.16</time>
   <energy>
    <i name="e_fr_energy">   -129.50971543 </i>
    <i name="e_wo_entrp">   -129.50661244 </i>
    <i name="e_0_energy">   -129.50816394 </i>
   </energy>
  </scstep>
  <scstep>
   <time name="dav">   10.83   10.91</time>
   <time name="total">   11.13   11.23</time>
   <energy>
    <i name="e_fr_energy">    -92.04689280 </i>
    <i name="e_wo_entrp">    -92.04065645 </i>
    <i name="e_0_energy">    -92.04377463 </i>
   </energy>
  </scstep>
  <scstep>
   <time name="dav">    9.12    9.19</time>
   <time name="total">    9.42    9.50</time>
   <energy>
    <i name="e_fr_energy">   -100.50777921 </i>
    <i name="e_wo_entrp">   -100.50220321 </i>
    <i name="e_0_energy">   -100.50499121 </i>
   </energy>
  </scstep>
  <scstep>
   <time name="dav">    9.81    9.89</time>
   <time name="total">   10.11   10.19</time>
   <energy>
    <i name="e_fr_energy">   -110.40453832 </i>
    <i name="e_wo_entrp">   -110.40451296 </i>
    <i name="e_0_energy">   -110.40452564 </i>
   </energy>
  </scstep>
  <scstep>
   <time name="dav">    7.70    7.77</time>
   <time name="total">    8.00    8.07</time>
   <energy>
    <i name="e_fr_energy">   -117.16854357 </i>
    <i name="e_wo_entrp">   -117.16853992 </i>
    <i name="e_0_energy">   -117.16854175 </i>
   </energy>
  </scstep>
  <scstep>
   <time name="dav">    9.92    9.98</time>
   <time name="total">   10.21   10.28</time>
   <energy>
    <i name="e_fr_energy">   -123.47348662 </i>
    <i name="e_wo_entrp">   -123.47288567 </i>
    <i name="e_0_energy">   -123.47318615 </i>
   </energy>
  </scstep>
  <scstep>
   <time name="dav">   10.31   10.39</time>
   <time name="total">   10.61   10.70</time>
   <energy>
    <i name="e_fr_energy">   -125.27852535 </i>
    <i name="e_wo_entrp">   -125.27733000 </i>
    <i name="e_0_energy">   -125.27792768 </i>
   </energy>
  </scstep>
  <scstep>
   <time name="dav">    7.72    7.78</time>
   <time name="total">    8.01    8.08</time>
   <energy>
    <i name="e_fr_energy">   -125.43901188 </i>
    <i name="e_wo_entrp">   -125.43752836 </i>
    <i name="e_0_energy">   -125.43827012 </i>
   </energy>
  </scstep>
  <scstep>
   <time name="dav">    7.04    7.10</time>
   <time name="total">    7.34    7.41</time>
   <energy>
    <i name="e_fr_energy">   -125.46599933 </i>
    <i name="e_wo_entrp">   -125.46444622 </i>
    <i name="e_0_energy">   -125.46522277 </i>
   </energy>
  </scstep>
  <scstep>
   <time name="dav">    8.38    8.43</time>
   <time name="total">    8.67    8.74</time>
   <energy>
    <i name="e_fr_energy">   -125.48828846 </i>
    <i name="e_wo_entrp">   -125.48673039 </i>
    <i name="e_0_energy">   -125.48750943 </i>
   </energy>
  </scstep>
  <scstep>
   <time name="dav">    7.72    7.78</time>
   <time name="total">    8.01    8.08</time>
   <energy>
    <i name="e_fr_energy">   -125.49577237 </i>
    <i name="e_wo_entrp">   -125.49421358 </i>
    <i name="e_0_energy">   -125.49499298 </i>
   </energy>
  </scstep>
  <scstep>
   <time name="dav">    6.79    6.83</time>
   <time name="total">    7.07    7.13</time>
   <energy>
    <i name="e_fr_energy">   -125.49774502 </i>
    <i name="e_wo_entrp">   -125.49618621 </i>
    <i name="e_0_energy">   -125.49696561 </i>
   </energy>
  </scstep>
  <scstep>
   <time name="dav">    5.68    5.74</time>
   <time name="total">    5.97    6.04</time>
   <energy>
    <i name="e_fr_energy">   -125.49900059 </i>
    <i name="e_wo_entrp">   -125.49744182 </i>
    <i name="e_0_energy">   -125.49822120 </i>
   </energy>
  </scstep>
  <scstep>
   <time name="dav">    6.42    6.47</time>
   <time name="total">    6.71    6.77</time>
   <energy>
    <i name="e_fr_energy">   -125.49972472 </i>
    <i name="e_wo_entrp">   -125.49816596 </i>
    <i name="e_0_energy">   -125.49894534 </i>
   </energy>
  </scstep>
  <scstep>
   <time name="dav">    7.71    7.76</time>
   <time name="total">    8.00    8.07</time>
   <energy>
    <i name="e_fr_energy">   -125.50015494 </i>
    <i name="e_wo_entrp">   -125.49859616 </i>
    <i name="e_0_energy">   -125.49937555 </i>
   </energy>
  </scstep>
  <scstep>
   <time name="dav">    9.14    9.20</time>
   <time name="total">    9.43    9.50</time>
   <energy>
    <i name="e_fr_energy">   -125.50020603 </i>
    <i name="e_wo_entrp">   -125.49864726 </i>
    <i name="e_0_energy">   -125.49942665 </i>
   </energy>
  </scstep>
  <scstep>
   <time name="dav">    8.02    8.07</time>
   <time name="total">    8.31    8.37</time>
   <energy>
    <i name="e_fr_energy">   -125.50022789 </i>
    <i name="e_wo_entrp">   -125.49866911 </i>
    <i name="e_0_energy">   -125.49944850 </i>
   </energy>
  </scstep>
  <scstep>
   <time name="dav">    9.06    9.11</time>
   <time name="total">    9.35    9.42</time>
   <energy>
    <i name="e_fr_energy">   -125.50024960 </i>
    <i name="e_wo_entrp">   -125.49869082 </i>
    <i name="e_0_energy">   -125.49947021 </i>
   </energy>
  </scstep>
  <scstep>
   <time name="dav">    8.62    8.69</time>
   <time name="total">    8.91    8.98</time>
   <energy>
    <i name="e_fr_energy">   -125.50026454 </i>
    <i name="e_wo_entrp">   -125.49870576 </i>
    <i name="e_0_energy">   -125.49948515 </i>
   </energy>
  </scstep>
  <scstep>
   <time name="dav">    9.48    9.55</time>
   <time name="total">    9.77    9.85</time>
   <energy>
    <i name="e_fr_energy">   -125.50026749 </i>
    <i name="e_wo_entrp">   -125.49870870 </i>
    <i name="e_0_energy">   -125.49948809 </i>
   </energy>
  </scstep>
  <scstep>
   <time name="dav">    9.09    9.15</time>
   <time name="total">    9.12    9.19</time>
   <energy>
    <i name="alphaZ">     58.47588037 </i>
    <i name="ewald">   4726.35386439 </i>
    <i name="hartreedc">  -6484.61082077 </i>
    <i name="XCdc">    180.65515660 </i>
    <i name="pawpsdc">   5776.52223784 </i>
    <i name="pawaedc">  -5780.94909439 </i>
    <i name="eentropy">     -0.00155879 </i>
    <i name="bandstr">   -505.20935426 </i>
    <i name="atom">   1903.26342058 </i>
    <i name="e_fr_energy">   -125.50026843 </i>
    <i name="e_wo_entrp">   -125.49870964 </i>
    <i name="e_0_energy">   -125.49948904 </i>
   </energy>
  </scstep>
  <structure>
   <crystal>
    <varray name="basis" >
     <v>       4.19069693       2.41950000       0.00000000 </v>
     <v>      -4.19069693       2.41950000       0.00000000 </v>
     <v>       0.00000000       0.00000000      15.00000000 </v>
    </varray>
    <i name="volume">    304.18173659 </i>
    <varray name="rec_basis" >
     <v>       0.11931190       0.20665427       0.00000000 </v>
     <v>      -0.11931190       0.20665427       0.00000000 </v>
     <v>       0.00000000       0.00000000       0.06666667 </v>
    </varray>
   </crystal>
   <varray name="positions" >
    <v>       0.00415361       0.00267210       0.12034134 </v>
    <v>       0.35695335       0.00285503       0.09748893 </v>
    <v>       0.00423858       0.35550699       0.09749256 </v>
    <v>       0.65142295       0.65006557       0.09747688 </v>
    <v>       0.32808646       0.32671938       0.10030508 </v>
    <v>       0.68027775       0.00278085       0.10027562 </v>
    <v>       0.00416530       0.67883808       0.10026559 </v>
    <v>       0.08333267       0.41666633       0.33646667 </v>
    <v>       0.24999967       0.24999933       0.33646667 </v>
    <v>       0.08333267       0.91666633       0.33646667 </v>
    <v>       0.24999967       0.74999933       0.33646667 </v>
    <v>       0.58333267       0.41666633       0.33646667 </v>
    <v>       0.74999967       0.24999933       0.33646667 </v>
    <v>       0.58333267       0.91666633       0.33646667 </v>
    <v>       0.74999967       0.74999933       0.33646667 </v>
   </varray>
  </structure>
  <varray name="forces" >
   <v>      -0.00091366      -0.00050299      -0.36502963 </v>
   <v>      -0.10305898      -0.06211357       0.09750132 </v>
   <v>       0.07888321      -0.05557026       0.11532187 </v>
   <v>       0.01387081       0.10547538       0.11113826 </v>
   <v>       0.02022619      -0.32944527      -0.00168273 </v>
   <v>       0.30132963       0.18153109       0.01514035 </v>
   <v>      -0.27847109       0.16153818       0.00320635 </v>
   <v>      -0.01113295       0.00490790      -0.00120681 </v>
   <v>      -0.00754050       0.02228285       0.02875343 </v>
   <v>       0.00325119       0.01470191      -0.00496403 </v>
   <v>       0.02962449       0.01279577      -0.00955889 </v>
   <v>      -0.00236578      -0.00348491      -0.01412600 </v>
   <v>      -0.00602367      -0.00321083      -0.00173146 </v>
   <v>      -0.01666225      -0.01457586       0.02162366 </v>
   <v>      -0.02101665      -0.03432940       0.00561432 </v>
  </varray>
  <varray name="stress" >
   <v>       0.73681258       0.08525225      -0.59368952 </v>
   <v>       0.08525227       0.50929353      -0.01920032 </v>
   <v>      -0.59368951      -0.01920029      -2.32139240 </v>
  </varray>
  <energy>
   <i name="e_fr_energy">   -127.09221154 </i>
   <i name="e_wo_entrp">   -127.09065275 </i>
   <i name="e_0_energy">   -127.09143215 </i>
  </energy>
  <time name="totalsc">  222.78  224.66</time>
 </calculation>
 <calculation>
  <scstep>
   <time name="dav">    5.50    5.55</time>
   <time name="total">    5.80    5.86</time>
   <energy>
    <i name="alphaZ">     58.47588037 </i>
    <i name="ewald">   4729.87399622 </i>
    <i name="hartreedc">  -6486.81057299 </i>
    <i name="XCdc">    180.73140124 </i>
    <i name="pawpsdc">   5776.55226414 </i>
    <i name="pawaedc">  -5780.97911897 </i>
    <i name="eentropy">     -0.00155609 </i>
    <i name="bandstr">   -506.61432565 </i>
    <i name="atom">   1903.26342058 </i>
    <i name="e_fr_energy">   -125.50861115 </i>
    <i name="e_wo_entrp">   -125.50705506 </i>
    <i name="e_0_energy">   -125.50783311 </i>
   </energy>
  </scstep>
  <scstep>
   <time name="dav">   10.78   10.86</time>
   <time name="total">   11.09   11.18</time>
   <energy>
    <i name="e_fr_energy">   -125.50085239 </i>
    <i name="e_wo_entrp">   -125.49929598 </i>
    <i name="e_0_energy">   -125.50007418 </i>
   </energy>
  </scstep>
  <scstep>
   <time name="dav">    8.69    8.76</time>
   <time name="total">    8.99    9.07</time>
   <energy>
    <i name="e_fr_energy">   -125.49997757 </i>
    <i name="e_wo_entrp">   -125.49842102 </i>
    <i name="e_0_energy">   -125.49919930 </i>
   </energy>
  </scstep>
  <scstep>
   <time name="dav">   11.16   11.24</time>
   <time name="total">   11.45   11.54</time>
   <energy>
    <i name="e_fr_energy">   -125.49993938 </i>
    <i name="e_wo_entrp">   -125.49838281 </i>
    <i name="e_0_energy">   -125.49916109 </i>
   </energy>
  </scstep>
  <scstep>
   <time name="dav">   10.38   10.44</time>
   <time name="total">   10.66   10.74</time>
   <energy>
    <i name="e_fr_energy">   -125.49994224 </i>
    <i name="e_wo_entrp">   -125.49838568 </i>
    <i name="e_0_energy">   -125.49916396 </i>
   </energy>
  </scstep>
  <scstep>
   <time name="dav">    9.12    9.18</time>
   <time name="total">    9.15    9.22</time>
   <energy>
    <i name="alphaZ">     58.47588037 </i>
    <i name="ewald">   4729.87399622 </i>
    <i name="hartreedc">  -6487.50715874 </i>
    <i name="XCdc">    180.74694327 </i>
    <i name="pawpsdc">   5801.74975211 </i>
    <i name="pawaedc">  -5806.18474448 </i>
    <i name="eentropy">     -0.00155655 </i>
    <i name="bandstr">   -505.91647500 </i>
    <i name="atom">   1903.26342058 </i>
    <i name="e_fr_energy">   -125.49994223 </i>
    <i name="e_wo_entrp">   -125.49838567 </i>
    <i name="e_0_energy">   -125.49916395 </i>
   </energy>
  </scstep>
  <structure>
   <crystal>
    <varray name="basis" >
     <v>       4.19069693       2.41950000       0.00000000 </v>
     <v>      -4.19069693       2.41950000       0.00000000 </v>
     <v>       0.00000000       0.00000000      15.00000000 </v>
    </varray>
    <i name="volume">    304.18173659 </i>
    <varray name="rec_basis" >
     <v>       0.11931190       0.20665427       0.00000000 </v>
     <v>      -0.11931190       0.20665427       0.00000000 </v>
     <v>       0.00000000       0.00000000       0.06666667 </v>
    </varray>
   </crystal>
   <varray name="positions" >
    <v>       0.00414333       0.00267235       0.11916734 </v>
    <v>       0.35574091       0.00282899       0.09780252 </v>
    <v>       0.00413861       0.35449894       0.09786346 </v>
    <v>       0.65255433       0.65103727       0.09783432 </v>
    <v>       0.32491846       0.32331853       0.10029967 </v>
    <v>       0.68382196       0.00285621       0.10032432 </v>
    <v>       0.00417291       0.68205140       0.10027590 </v>
    <v>       0.08331752       0.41677934       0.33646279 </v>
    <v>       0.25017841       0.25026489       0.33655914 </v>
    <v>       0.08349795       0.91679419       0.33645070 </v>
    <v>       0.25029775       0.74995639       0.33643592 </v>
    <v>       0.58328431       0.41664521       0.33642123 </v>
    <v>       0.74993298       0.25000199       0.33646110 </v>
    <v>       0.58309145       0.91661693       0.33653621 </v>
    <v>       0.74953645       0.74977805       0.33648472 </v>
   </varray>
  </structure>
  <varray name="forces" >
   <v>      -0.00249954       0.00431961      -0.15396911 </v>
   <v>       0.25840800       0.14506061       0.05409750 </v>
   <v>      -0.21390117       0.13274337       0.06681971 </v>
   <v>       0.01177800      -0.26645409       0.06318578 </v>
   <v>       0.00078321       0.54254982      -0.02246914 </v>
   <v>      -0.49198751      -0.28833348      -0.01278003 </v>
   <v>       0.46898641      -0.26917487      -0.01954350 </v>
   <v>       0.02246802      -0.02000873       0.00375012 </v>
   <v>       0.00068424      -0.07489817       0.00675169 </v>
   <v>      -0.02730318      -0.05594075       0.00574988 </v>
   <v>      -0.12560731      -0.04673416      -0.00261880 </v>
   <v>       0.00115491       0.00920397       0.00150339 </v>
   <v>       0.00429733       0.00861325      -0.00112603 </v>
   <v>       0.04153906       0.05785103       0.00895521 </v>
   <v>       0.05119954       0.12120258       0.00169333 </v>
  </varray>
  <varray name="stress" >
   <v>       3.16779327       0.11595190      -0.60617544 </v>
   <v>       0.11595188       3.07946447      -0.01244800 </v>
   <v>      -0.60617543      -0.01244800      -1.94198536 </v>
  </varray>
  <energy>
   <i name="e_fr_energy">   -127.09136367 </i>
   <i name="e_wo_entrp">   -127.08980712 </i>
   <i name="e_0_energy">   -127.09058539 </i>
  </energy>
  <time name="totalsc">   61.83   62.31</time>
 </calculation>
 <calculation>
  <scstep>
   <time name="dav">    5.49    5.53</time>
   <time name="total">    5.79    5.83</time>
   <energy>
    <i name="alphaZ">     58.47588037 </i>
    <i name="ewald">   4728.02275799 </i>
    <i name="hartreedc">  -6486.34401416 </i>
    <i name="XCdc">    180.70650935 </i>
    <i name="pawpsdc">   5801.75909878 </i>
    <i name="pawaedc">  -5806.19408052 </i>
    <i name="eentropy">     -0.00155802 </i>
    <i name="bandstr">   -505.19724935 </i>
    <i name="atom">   1903.26342058 </i>
    <i name="e_fr_energy">   -125.50923498 </i>
    <i name="e_wo_entrp">   -125.50767696 </i>
    <i name="e_0_energy">   -125.50845597 </i>
   </energy>
  </scstep>
  <scstep>
   <time name="dav">   10.66   10.73</time>
   <time name="total">   10.95   11.02</time>
   <energy>
    <i name="e_fr_energy">   -125.50711909 </i>
    <i name="e_wo_entrp">   -125.50556123 </i>
    <i name="e_0_energy">   -125.50634016 </i>
   </energy>
  </scstep>
  <scstep>
   <time name="dav">    9.42    9.48</time>
   <time name="total">    9.71    9.78</time>
   <energy>
    <i name="e_fr_energy">   -125.50689342 </i>
    <i name="e_wo_entrp">   -125.50533563 </i>
    <i name="e_0_energy">   -125.50611452 </i>
   </energy>
  </scstep>
  <scstep>
   <time name="dav">    9.64    9.70</time>
   <time name="total">    9.93   10.00</time>
   <energy>
    <i name="e_fr_energy">   -125.50688370 </i>
    <i name="e_wo_entrp">   -125.50532591 </i>
    <i name="e_0_energy">   -125.50610480 </i>
   </energy>
  </scstep>
  <scstep>
   <time name="dav">    9.22    9.28</time>
   <time name="total">    9.26    9.32</time>
   <energy>
    <i name="alphaZ">     58.47588037 </i>
    <i name="ewald">   4728.02275799 </i>
    <i name="hartreedc">  -6486.00576127 </i>
    <i name="XCdc">    180.69858184 </i>
    <i name="pawpsdc">   5788.24234985 </i>
    <i name="pawaedc">  -5792.67287150 </i>
    <i name="eentropy">     -0.00155779 </i>
    <i name="bandstr">   -505.52968445 </i>
    <i name="atom">   1903.26342058 </i>
    <i name="e_fr_energy">   -125.50688438 </i>
    <i name="e_wo_entrp">   -125.50532659 </i>
    <i name="e_0_energy">   -125.50610548 </i>
   </energy>
  </scstep>
  <structure>
   <crystal>
    <varray name="basis" >
     <v>       4.19069693       2.41950000       0.00000000 </v>
     <v>      -4.19069693       2.41950000       0.00000000 </v>
     <v>       0.00000000       0.00000000      15.00000000 </v>
    </varray>
    <i name="volume">    304.18173659 </i>
    <varray name="rec_basis" >
     <v>       0.11931190       0.20665427       0.00000000 </v>
     <v>      -0.11931190       0.20665427       0.00000000 </v>
     <v>       0.00000000       0.00000000       0.06666667 </v>
    </varray>
   </crystal>
   <varray name="positions" >
    <v>       0.00414864       0.00267222       0.11977321 </v>
    <v>       0.35636662       0.00284243       0.09764068 </v>
    <v>       0.00419020       0.35501917       0.09767205 </v>
    <v>       0.65197045       0.65053580       0.09764985 </v>
    <v>       0.32655340       0.32507363       0.10030246 </v>
    <v>       0.68199287       0.00281732       0.10029919 </v>
    <v>       0.00416898       0.68039308       0.10027058 </v>
    <v>       0.08332533       0.41672102       0.33646479 </v>
    <v>       0.25008617       0.25012784       0.33651142 </v>
    <v>       0.08341265       0.91672821       0.33645894 </v>
    <v>       0.25014392       0.74997855       0.33645179 </v>
    <v>       0.58330926       0.41665611       0.33644468 </v>
    <v>       0.74996740       0.25000062       0.33646397 </v>
    <v>       0.58321593       0.91664242       0.33650032 </v>
    <v>       0.74977550       0.74989225       0.33647540 </v>
   </varray>
  </structure>
  <varray name="forces" >
   <v>      -0.00222393       0.00159468      -0.26191874 </v>
   <v>       0.07519135       0.04013942       0.07643115 </v>
   <v>      -0.06558164       0.03681400       0.09174699 </v>
   <v>       0.01299207      -0.07774930       0.08785057 </v>
   <v>       0.01125514       0.09112074      -0.01195061 </v>
   <v>      -0.08169747      -0.04510965       0.00152055 </v>
   <v>       0.08182500      -0.04597744      -0.00804949 </v>
   <v>       0.00513556      -0.00709103       0.00115185 </v>
   <v>      -0.00352312      -0.02468780       0.01813669 </v>
   <v>      -0.01157360      -0.01949323       0.00021037 </v>
   <v>      -0.04534457      -0.01580080      -0.00622472 </v>
   <v>      -0.00075873       0.00264166      -0.00659476 </v>
   <v>      -0.00108067       0.00251113      -0.00149769 </v>
   <v>       0.01143369       0.02019933       0.01547193 </v>
   <v>       0.01395092       0.04088829       0.00371591 </v>
  </varray>
  <varray name="stress" >
   <v>       1.79888358       0.09515024      -0.60024453 </v>
   <v>       0.09515023       1.63714890      -0.01545329 </v>
   <v>      -0.60024453      -0.01545328      -2.12576615 </v>
  </varray>
  <energy>
   <i name="e_fr_energy">   -127.09857280 </i>
   <i name="e_wo_entrp">   -127.09701501 </i>
   <i name="e_0_energy">   -127.09779390 </i>
  </energy>
  <time name="totalsc">   50.31   50.67</time>
 </calculation>
 <calculation>
  <scstep>
   <time name="dav">    5.48    5.52</time>
   <time name="total">    5.78    5.82</time>
   <energy>
    <i name="alphaZ">     58.47588037 </i>
    <i name="ewald">   4728.36993480 </i>
    <i name="hartreedc">  -6486.10968123 </i>
    <i name="XCdc">    180.71600210 </i>
    <i name="pawpsdc">   5788.19524678 </i>
    <i name="pawaedc">  -5792.62577232 </i>
    <i name="eentropy">     -0.00156307 </i>
    <i name="bandstr">   -505.79571579 </i>
    <i name="atom">   1903.26342058 </i>
    <i name="e_fr_energy">   -125.51224779 </i>
    <i name="e_wo_entrp">   -125.51068472 </i>
    <i name="e_0_energy">   -125.51146625 </i>
   </energy>
  </scstep>
  <scstep>
   <time name="dav">   11.62   11.69</time>
   <time name="total">   11.91   11.99</time>
   <energy>
    <i name="e_fr_energy">   -125.51228748 </i>
    <i name="e_wo_entrp">   -125.51072460 </i>
    <i name="e_0_energy">   -125.51150604 </i>
   </energy>
  </scstep>
  <scstep>
   <time name="dav">    9.04    9.10</time>
   <time name="total">    9.32    9.39</time>
   <energy>
    <i name="e_fr_energy">   -125.51228370 </i>
    <i name="e_wo_entrp">   -125.51072107 </i>
    <i name="e_0_energy">   -125.51150238 </i>
   </energy>
  </scstep>
  <scstep>
   <time name="dav">   10.89   10.95</time>
   <time name="total">   11.17   11.25</time>
   <energy>
    <i name="e_fr_energy">   -125.51228454 </i>
    <i name="e_wo_entrp">   -125.51072189 </i>
    <i name="e_0_energy">   -125.51150322 </i>
   </energy>
  </scstep>
  <scstep>
   <time name="dav">    8.87    8.93</time>
   <time name="total">    8.90    8.96</time>
   <energy>
    <i name="alphaZ">     58.47588037 </i>
    <i name="ewald">   4728.36993480 </i>
    <i name="hartreedc">  -6486.10695240 </i>
    <i name="XCdc">    180.71557814 </i>
    <i name="pawpsdc">   5793.29524743 </i>
    <i name="pawaedc">  -5797.72753369 </i>
    <i name="eentropy">     -0.00156265 </i>
    <i name="bandstr">   -505.79629755 </i>
    <i name="atom">   1903.26342058 </i>
    <i name="e_fr_energy">   -125.51228498 </i>
    <i name="e_wo_entrp">   -125.51072233 </i>
    <i name="e_0_energy">   -125.51150366 </i>
   </energy>
  </scstep>
  <structure>
   <crystal>
    <varray name="basis" >
     <v>       4.19069693       2.41950000       0.00000000 </v>
     <v>      -4.19069693       2.41950000       0.00000000 </v>
     <v>       0.00000000       0.00000000      15.00000000 </v>
    </varray>
    <i name="volume">    304.18173659 </i>
    <varray name="rec_basis" >
     <v>       0.11931190       0.20665427       0.00000000 </v>
     <v>      -0.11931190       0.20665427       0.00000000 </v>
     <v>       0.00000000       0.00000000       0.06666667 </v>
    </varray>
   </crystal>
   <varray name="positions" >
    <v>       0.00414903       0.00269801       0.11874584 </v>
    <v>       0.35683276       0.00280714       0.09793377 </v>
    <v>       0.00415766       0.35545332       0.09802258 </v>
    <v>       0.65160447       0.64999870       0.09798603 </v>
    <v>       0.32669232       0.32504243       0.10026674 </v>
    <v>       0.68198884       0.00285318       0.10031485 </v>
    <v>       0.00418205       0.68030398       0.10024975 </v>
    <v>       0.08328494       0.41665729       0.33646721 </v>
    <v>       0.24988866       0.24998682       0.33658515 </v>
    <v>       0.08321692       0.91664328       0.33645585 </v>
    <v>       0.24983764       0.75006139       0.33642671 </v>
    <v>       0.58331776       0.41667875       0.33641514 </v>
    <v>       0.74996882       0.25002927       0.33645836 </v>
    <v>       0.58339967       0.91675255       0.33656106 </v>
    <v>       0.75010578       0.75013455       0.33649030 </v>
   </varray>
  </structure>
  <varray name="forces" >
   <v>       0.00149559       0.00161660      -0.23961378 </v>
   <v>       0.05300708       0.02720969       0.04578183 </v>
   <v>      -0.03424094       0.02620457       0.05354818 </v>
   <v>       0.00588713      -0.04992030       0.05145284 </v>
   <v>       0.00111853       0.09412062       0.01812773 </v>
   <v>      -0.08111128      -0.05330620       0.02620475 </v>
   <v>       0.08382397      -0.04519739       0.02079086 </v>
   <v>      -0.02613577       0.01842722       0.00314361 </v>
   <v>       0.00686651       0.04466950       0.00236696 </v>
   <v>       0.00361015       0.04768590       0.00589547 </v>
   <v>       0.08604635       0.03632696       0.00153767 </v>
   <v>      -0.02259941      -0.00331647       0.00429513 </v>
   <v>      -0.00624976      -0.00302376       0.00078741 </v>
   <v>      -0.03803816      -0.05214814       0.00385945 </v>
   <v>      -0.03347996      -0.08934881       0.00182188 </v>
  </varray>
  <varray name="stress" >
   <v>       2.29632367       0.09670868      -0.56436250 </v>
   <v>       0.09670865       1.92531997      -0.01615724 </v>
   <v>      -0.56436250      -0.01615723      -2.09113975 </v>
  </varray>
  <energy>
   <i name="e_fr_energy">   -127.10387438 </i>
   <i name="e_wo_entrp">   -127.10231173 </i>
   <i name="e_0_energy">   -127.10309306 </i>
  </energy>
  <time name="totalsc">   51.77   52.15</time>
 </calculation>
 <calculation>
  <scstep>
   <time name="dav">    5.48    5.52</time>
   <time name="total">    5.77    5.82</time>
   <energy>
    <i name="alphaZ">     58.47588037 </i>
    <i name="ewald">   4728.93981081 </i>
    <i name="hartreedc">  -6486.12842126 </i>
    <i name="XCdc">    180.75427930 </i>
    <i name="pawpsdc">   5793.32401982 </i>
    <i name="pawaedc">  -5797.75631526 </i>
    <i name="eentropy">     -0.00156296 </i>
    <i name="bandstr">   -506.38922398 </i>
    <i name="atom">   1903.26342058 </i>
    <i name="e_fr_energy">   -125.51811259 </i>
    <i name="e_wo_entrp">   -125.51654963 </i>
    <i name="e_0_energy">   -125.51733111 </i>
   </energy>
  </scstep>
  <scstep>
   <time name="dav">   11.21   11.29</time>
   <time name="total">   11.51   11.59</time>
   <energy>
    <i name="e_fr_energy">   -125.51843878 </i>
    <i name="e_wo_entrp">   -125.51687551 </i>
    <i name="e_0_energy">   -125.51765715 </i>
   </energy>
  </scstep>
  <scstep>
   <time name="dav">    8.49    8.55</time>
   <time name="total">    8.77    8.85</time>
   <energy>
    <i name="e_fr_energy">   -125.51840787 </i>
    <i name="e_wo_entrp">   -125.51684439 </i>
    <i name="e_0_energy">   -125.51762613 </i>
   </energy>
  </scstep>
  <scstep>
   <time name="dav">   11.21   11.28</time>
   <time name="total">   11.49   11.58</time>
   <energy>
    <i name="e_fr_energy">   -125.51841333 </i>
    <i name="e_wo_entrp">   -125.51684974 </i>
    <i name="e_0_energy">   -125.51763153 </i>
   </energy>
  </scstep>
  <scstep>
   <time name="dav">    9.02    9.09</time>
   <time name="total">    9.31    9.39</time>
   <energy>
    <i name="e_fr_energy">   -125.51841611 </i>
    <i name="e_wo_entrp">   -125.51685251 </i>
    <i name="e_0_energy">   -125.51763431 </i>
   </energy>
  </scstep>
  <scstep>
   <time name="dav">    9.78    9.84</time>
   <time name="total">    9.81    9.88</time>
   <energy>
    <i name="alphaZ">     58.47588037 </i>
    <i name="ewald">   4728.93981081 </i>
    <i name="hartreedc">  -6486.09981518 </i>
    <i name="XCdc">    180.75290868 </i>
    <i name="pawpsdc">   5804.77956417 </i>
    <i name="pawaedc">  -5809.21589727 </i>
    <i name="eentropy">     -0.00156358 </i>
    <i name="bandstr">   -506.41272484 </i>
    <i name="atom">   1903.26342058 </i>
    <i name="e_fr_energy">   -125.51841628 </i>
    <i name="e_wo_entrp">   -125.51685270 </i>
    <i name="e_0_energy">   -125.51763449 </i>
   </energy>
  </scstep>
  <structure>
   <crystal>
    <varray name="basis" >
     <v>       4.19069693       2.41950000       0.00000000 </v>
     <v>      -4.19069693       2.41950000       0.00000000 </v>
     <v>       0.00000000       0.00000000      15.00000000 </v>
    </varray>
    <i name="volume">    304.18173659 </i>
    <varray name="rec_basis" >
     <v>       0.11931190       0.20665427       0.00000000 </v>
     <v>      -0.11931190       0.20665427       0.00000000 </v>
     <v>       0.00000000       0.00000000       0.06666667 </v>
    </varray>
   </crystal>
   <varray name="positions" >
    <v>       0.00415004       0.00276329       0.11614591 </v>
    <v>       0.35801240       0.00271783       0.09867545 </v>
    <v>       0.00407532       0.35655200       0.09890966 </v>
    <v>       0.65067830       0.64863950       0.09883678 </v>
    <v>       0.32704390       0.32496347       0.10017634 </v>
    <v>       0.68197865       0.00294392       0.10035449 </v>
    <v>       0.00421511       0.68007852       0.10019704 </v>
    <v>       0.08318270       0.41649602       0.33647334 </v>
    <v>       0.24938885       0.24962994       0.33677174 </v>
    <v>       0.08272158       0.91642838       0.33644803 </v>
    <v>       0.24906255       0.75027104       0.33636326 </v>
    <v>       0.58333927       0.41673605       0.33634037 </v>
    <v>       0.74997243       0.25010176       0.33644417 </v>
    <v>       0.58386464       0.91703125       0.33671475 </v>
    <v>       0.75094159       0.75074771       0.33652801 </v>
   </varray>
  </structure>
  <varray name="forces" >
   <v>       0.01124276       0.00129830      -0.20068134 </v>
   <v>      -0.01468683      -0.01155327      -0.02647585 </v>
   <v>       0.05468444      -0.00817933      -0.03709967 </v>
   <v>      -0.01087670       0.03258709      -0.03477873 </v>
   <v>      -0.02237474       0.09201239       0.09431812 </v>
   <v>      -0.07095255      -0.06731353       0.08946171 </v>
   <v>       0.07921381      -0.03824859       0.09387657 </v>
   <v>      -0.10517332       0.08310042       0.00802780 </v>
   <v>       0.03228421       0.22058801      -0.03751884 </v>
   <v>       0.04345161       0.22127193       0.01961738 </v>
   <v>       0.41831468       0.16480306       0.02147335 </v>
   <v>      -0.07720659      -0.01878615       0.03204201 </v>
   <v>      -0.01943201      -0.01748291       0.00648535 </v>
   <v>      -0.16163246      -0.23138881      -0.02562491 </v>
   <v>      -0.15685629      -0.42270860      -0.00312295 </v>
  </varray>
  <varray name="stress" >
   <v>       3.51279197       0.13114558      -0.48559618 </v>
   <v>       0.13114561       2.63957324      -0.01779361 </v>
   <v>      -0.48559618      -0.01779361      -2.00744643 </v>
  </varray>
  <energy>
   <i name="e_fr_energy">   -127.10972912 </i>
   <i name="e_wo_entrp">   -127.10816554 </i>
   <i name="e_0_energy">   -127.10894733 </i>
  </energy>
  <time name="totalsc">   61.35   61.93</time>
 </calculation>
 <calculation>
  <scstep>
   <time name="dav">    5.53    5.57</time>
   <time name="total">    5.81    5.87</time>
   <energy>
    <i name="alphaZ">     58.47588037 </i>
    <i name="ewald">   4728.99510190 </i>
    <i name="hartreedc">  -6486.10131794 </i>
    <i name="XCdc">    180.75612118 </i>
    <i name="pawpsdc">   5804.78047174 </i>
    <i name="pawaedc">  -5809.21680393 </i>
    <i name="eentropy">     -0.00156490 </i>
    <i name="bandstr">   -506.47130584 </i>
    <i name="atom">   1903.26342058 </i>
    <i name="e_fr_energy">   -125.51999685 </i>
    <i name="e_wo_entrp">   -125.51843195 </i>
    <i name="e_0_energy">   -125.51921440 </i>
   </energy>
  </scstep>
  <scstep>
   <time name="dav">   11.18   11.25</time>
   <time name="total">   11.46   11.55</time>
   <energy>
    <i name="e_fr_energy">   -125.51999996 </i>
    <i name="e_wo_entrp">   -125.51843510 </i>
    <i name="e_0_energy">   -125.51921753 </i>
   </energy>
  </scstep>
  <scstep>
   <time name="dav">    8.61    8.67</time>
   <time name="total">    8.90    8.97</time>
   <energy>
    <i name="e_fr_energy">   -125.51999875 </i>
    <i name="e_wo_entrp">   -125.51843392 </i>
    <i name="e_0_energy">   -125.51921634 </i>
   </energy>
  </scstep>
  <scstep>
   <time name="dav">   10.83   10.90</time>
   <time name="total">   10.86   10.93</time>
   <energy>
    <i name="alphaZ">     58.47588037 </i>
    <i name="ewald">   4728.99510190 </i>
    <i name="hartreedc">  -6486.08785319 </i>
    <i name="XCdc">    180.75573992 </i>
    <i name="pawpsdc">   5805.63832035 </i>
    <i name="pawaedc">  -5810.07498985 </i>
    <i name="eentropy">     -0.00156482 </i>
    <i name="bandstr">   -506.48405444 </i>
    <i name="atom">   1903.26342058 </i>
    <i name="e_fr_energy">   -125.51999918 </i>
    <i name="e_wo_entrp">   -125.51843436 </i>
    <i name="e_0_energy">   -125.51921677 </i>
   </energy>
  </scstep>
  <structure>
   <crystal>
    <varray name="basis" >
     <v>       4.19069693       2.41950000       0.00000000 </v>
     <v>      -4.19069693       2.41950000       0.00000000 </v>
     <v>       0.00000000       0.00000000      15.00000000 </v>
    </varray>
    <i name="volume">    304.18173659 </i>
    <varray name="rec_basis" >
     <v>       0.11931190       0.20665427       0.00000000 </v>
     <v>      -0.11931190       0.20665427       0.00000000 </v>
     <v>       0.00000000       0.00000000       0.06666667 </v>
    </varray>
   </crystal>
   <varray name="positions" >
    <v>       0.00415369       0.00276752       0.11585347 </v>
    <v>       0.35812259       0.00270740       0.09874658 </v>
    <v>       0.00407764       0.35664502       0.09899393 </v>
    <v>       0.65059660       0.64851972       0.09891771 </v>
    <v>       0.32711547       0.32500326       0.10018105 </v>
    <v>       0.68192832       0.00294110       0.10037164 </v>
    <v>       0.00422186       0.68001748       0.10020550 </v>
    <v>       0.08318255       0.41654520       0.33647514 </v>
    <v>       0.24944724       0.24968580       0.33678510 </v>
    <v>       0.08278367       0.91649598       0.33645012 </v>
    <v>       0.24916918       0.75025732       0.33636000 </v>
    <v>       0.58331260       0.41675358       0.33633751 </v>
    <v>       0.74995973       0.25010624       0.33644368 </v>
    <v>       0.58376381       0.91699657       0.33672653 </v>
    <v>       0.75079240       0.75065848       0.33653137 </v>
   </varray>
  </structure>
  <varray name="forces" >
   <v>       0.01233233       0.00102861      -0.19630486 </v>
   <v>      -0.02201185      -0.01581607      -0.03067964 </v>
   <v>       0.06136847      -0.01143597      -0.04292479 </v>
   <v>      -0.01218084       0.04035784      -0.04020931 </v>
   <v>      -0.02351944       0.08306563       0.09870663 </v>
   <v>      -0.06189744      -0.06297075       0.09257026 </v>
   <v>       0.07192441      -0.03362699       0.09779840 </v>
   <v>      -0.08919453       0.07118479       0.00812678 </v>
   <v>       0.02158975       0.19676835      -0.03983723 </v>
   <v>       0.04234594       0.18834542       0.02009019 </v>
   <v>       0.36260139       0.14403334       0.02298194 </v>
   <v>      -0.06174681      -0.01833566       0.03353100 </v>
   <v>      -0.02019814      -0.01660164       0.00707607 </v>
   <v>      -0.14027448      -0.19957860      -0.02773039 </v>
   <v>      -0.14113876      -0.36641831      -0.00319504 </v>
  </varray>
  <varray name="stress" >
   <v>       3.51724974       0.10735746      -0.47807217 </v>
   <v>       0.10735745       2.77479135      -0.01676663 </v>
   <v>      -0.47807223      -0.01676662      -1.99370314 </v>
  </varray>
  <energy>
   <i name="e_fr_energy">   -127.11128832 </i>
   <i name="e_wo_entrp">   -127.10972350 </i>
   <i name="e_0_energy">   -127.11050591 </i>
  </energy>
  <time name="totalsc">   41.74   42.05</time>
 </calculation>
 <calculation>
  <scstep>
   <time name="dav">    5.47    5.50</time>
   <time name="total">    5.75    5.80</time>
   <energy>
    <i name="alphaZ">     58.47588037 </i>
    <i name="ewald">   4729.13130514 </i>
    <i name="hartreedc">  -6486.08670901 </i>
    <i name="XCdc">    180.76519697 </i>
    <i name="pawpsdc">   5805.70520416 </i>
    <i name="pawaedc">  -5810.14188602 </i>
    <i name="eentropy">     -0.00156385 </i>
    <i name="bandstr">   -506.63459598 </i>
    <i name="atom">   1903.26342058 </i>
    <i name="e_fr_energy">   -125.52374764 </i>
    <i name="e_wo_entrp">   -125.52218379 </i>
    <i name="e_0_energy">   -125.52296571 </i>
   </energy>
  </scstep>
  <scstep>
   <time name="dav">   10.77   10.84</time>
   <time name="total">   11.06   11.15</time>
   <energy>
    <i name="e_fr_energy">   -125.52377205 </i>
    <i name="e_wo_entrp">   -125.52220803 </i>
    <i name="e_0_energy">   -125.52299004 </i>
   </energy>
  </scstep>
  <scstep>
   <time name="dav">    7.83    7.88</time>
   <time name="total">    8.11    8.18</time>
   <energy>
    <i name="e_fr_energy">   -125.52376038 </i>
    <i name="e_wo_entrp">   -125.52219613 </i>
    <i name="e_0_energy">   -125.52297826 </i>
   </energy>
  </scstep>
  <scstep>
   <time name="dav">   11.01   11.09</time>
   <time name="total">   11.30   11.38</time>
   <energy>
    <i name="e_fr_energy">   -125.52376104 </i>
    <i name="e_wo_entrp">   -125.52219679 </i>
    <i name="e_0_energy">   -125.52297891 </i>
   </energy>
  </scstep>
  <scstep>
   <time name="dav">    8.48    8.53</time>
   <time name="total">    8.52    8.57</time>
   <energy>
    <i name="alphaZ">     58.47588037 </i>
    <i name="ewald">   4729.13130514 </i>
    <i name="hartreedc">  -6486.08718388 </i>
    <i name="XCdc">    180.76449081 </i>
    <i name="pawpsdc">   5808.49755393 </i>
    <i name="pawaedc">  -5812.93526861 </i>
    <i name="eentropy">     -0.00156425 </i>
    <i name="bandstr">   -506.63239580 </i>
    <i name="atom">   1903.26342058 </i>
    <i name="e_fr_energy">   -125.52376171 </i>
    <i name="e_wo_entrp">   -125.52219746 </i>
    <i name="e_0_energy">   -125.52297958 </i>
   </energy>
  </scstep>
  <structure>
   <crystal>
    <varray name="basis" >
     <v>       4.19069693       2.41950000       0.00000000 </v>
     <v>      -4.19069693       2.41950000       0.00000000 </v>
     <v>       0.00000000       0.00000000      15.00000000 </v>
    </varray>
    <i name="volume">    304.18173659 </i>
    <varray name="rec_basis" >
     <v>       0.11931190       0.20665427       0.00000000 </v>
     <v>      -0.11931190       0.20665427       0.00000000 </v>
     <v>       0.00000000       0.00000000       0.06666667 </v>
    </varray>
   </crystal>
   <varray name="positions" >
    <v>       0.00416464       0.00278024       0.11497614 </v>
    <v>       0.35845316       0.00267610       0.09895996 </v>
    <v>       0.00408461       0.35692409       0.09924674 </v>
    <v>       0.65035151       0.64816040       0.09916053 </v>
    <v>       0.32733020       0.32512265       0.10019519 </v>
    <v>       0.68177731       0.00293264       0.10042310 </v>
    <v>       0.00424212       0.67983434       0.10023088 </v>
    <v>       0.08318210       0.41669273       0.33648054 </v>
    <v>       0.24962238       0.24985339       0.33682518 </v>
    <v>       0.08296991       0.91669877       0.33645639 </v>
    <v>       0.24948905       0.75021614       0.33635020 </v>
    <v>       0.58323257       0.41680620       0.33632895 </v>
    <v>       0.74992161       0.25011968       0.33644223 </v>
    <v>       0.58346132       0.91689252       0.33676188 </v>
    <v>       0.75034485       0.75039079       0.33654143 </v>
   </varray>
  </structure>
  <varray name="forces" >
   <v>       0.01549466       0.00013881      -0.18469204 </v>
   <v>      -0.04538882      -0.02907768      -0.04306359 </v>
   <v>       0.08252434      -0.02220802      -0.06020164 </v>
   <v>      -0.01600804       0.06495166      -0.05627406 </v>
   <v>      -0.02656150       0.05513663       0.11217129 </v>
   <v>      -0.03387262      -0.04905309       0.10229715 </v>
   <v>       0.04882577      -0.01944774       0.10995775 </v>
   <v>      -0.04132501       0.03563793       0.00846821 </v>
   <v>      -0.01040871       0.12550893      -0.04699738 </v>
   <v>       0.03971649       0.09132702       0.02143160 </v>
   <v>       0.19611563       0.08134409       0.02749884 </v>
   <v>      -0.01542677      -0.01701066       0.03810234 </v>
   <v>      -0.02277274      -0.01397812       0.00887646 </v>
   <v>      -0.07584392      -0.10403013      -0.03410562 </v>
   <v>      -0.09506875      -0.19923963      -0.00346931 </v>
  </varray>
  <varray name="stress" >
   <v>       3.53260655       0.04250995      -0.45491801 </v>
   <v>       0.04250997       3.18482548      -0.01339721 </v>
   <v>      -0.45491803      -0.01339719      -1.98738577 </v>
  </varray>
  <energy>
   <i name="e_fr_energy">   -127.11497355 </i>
   <i name="e_wo_entrp">   -127.11340931 </i>
   <i name="e_0_energy">   -127.11419143 </i>
  </energy>
  <time name="totalsc">   49.45   51.39</time>
 </calculation>
 <calculation>
  <scstep>
   <time name="dav">    5.48    5.52</time>
   <time name="total">    5.77    5.82</time>
   <energy>
    <i name="alphaZ">     58.47588037 </i>
    <i name="ewald">   4729.26916346 </i>
    <i name="hartreedc">  -6485.98664876 </i>
    <i name="XCdc">    180.78118357 </i>
    <i name="pawpsdc">   5808.57660491 </i>
    <i name="pawaedc">  -5813.01432130 </i>
    <i name="eentropy">     -0.00154032 </i>
    <i name="bandstr">   -506.89062765 </i>
    <i name="atom">   1903.26342058 </i>
    <i name="e_fr_energy">   -125.52688514 </i>
    <i name="e_wo_entrp">   -125.52534482 </i>
    <i name="e_0_energy">   -125.52611498 </i>
   </energy>
  </scstep>
  <scstep>
   <time name="dav">   11.17   11.24</time>
   <time name="total">   11.45   11.53</time>
   <energy>
    <i name="e_fr_energy">   -125.52698156 </i>
    <i name="e_wo_entrp">   -125.52543975 </i>
    <i name="e_0_energy">   -125.52621066 </i>
   </energy>
  </scstep>
  <scstep>
   <time name="dav">    8.12    8.17</time>
   <time name="total">    8.41    8.47</time>
   <energy>
    <i name="e_fr_energy">   -125.52693193 </i>
    <i name="e_wo_entrp">   -125.52538841 </i>
    <i name="e_0_energy">   -125.52616017 </i>
   </energy>
  </scstep>
  <scstep>
   <time name="dav">   11.16   11.23</time>
   <time name="total">   11.45   11.53</time>
   <energy>
    <i name="e_fr_energy">   -125.52693445 </i>
    <i name="e_wo_entrp">   -125.52539077 </i>
    <i name="e_0_energy">   -125.52616261 </i>
   </energy>
  </scstep>
  <scstep>
   <time name="dav">    8.79    8.85</time>
   <time name="total">    9.08    9.15</time>
   <energy>
    <i name="e_fr_energy">   -125.52693636 </i>
    <i name="e_wo_entrp">   -125.52539269 </i>
    <i name="e_0_energy">   -125.52616452 </i>
   </energy>
  </scstep>
  <scstep>
   <time name="dav">   10.39   10.46</time>
   <time name="total">   10.43   10.50</time>
   <energy>
    <i name="alphaZ">     58.47588037 </i>
    <i name="ewald">   4729.26916346 </i>
    <i name="hartreedc">  -6486.00650360 </i>
    <i name="XCdc">    180.78004322 </i>
    <i name="pawpsdc">   5813.67649421 </i>
    <i name="pawaedc">  -5818.11611468 </i>
    <i name="eentropy">     -0.00154357 </i>
    <i name="bandstr">   -506.86777608 </i>
    <i name="atom">   1903.26342058 </i>
    <i name="e_fr_energy">   -125.52693609 </i>
    <i name="e_wo_entrp">   -125.52539252 </i>
    <i name="e_0_energy">   -125.52616430 </i>
   </energy>
  </scstep>
  <structure>
   <crystal>
    <varray name="basis" >
     <v>       4.19069693       2.41950000       0.00000000 </v>
     <v>      -4.19069693       2.41950000       0.00000000 </v>
     <v>       0.00000000       0.00000000      15.00000000 </v>
    </varray>
    <i name="volume">    304.18173659 </i>
    <varray name="rec_basis" >
     <v>       0.11931190       0.20665427       0.00000000 </v>
     <v>      -0.11931190       0.20665427       0.00000000 </v>
     <v>       0.00000000       0.00000000       0.06666667 </v>
    </varray>
   </crystal>
   <varray name="positions" >
    <v>       0.00418653       0.00280566       0.11322148 </v>
    <v>       0.35911429       0.00261351       0.09938672 </v>
    <v>       0.00409855       0.35748223       0.09975237 </v>
    <v>       0.64986133       0.64744175       0.09964615 </v>
    <v>       0.32775965       0.32536141       0.10022346 </v>
    <v>       0.68147529       0.00291572       0.10052601 </v>
    <v>       0.00428263       0.67946806       0.10028164 </v>
    <v>       0.08318120       0.41698781       0.33649134 </v>
    <v>       0.24997268       0.25018857       0.33690534 </v>
    <v>       0.08334241       0.91710436       0.33646893 </v>
    <v>       0.25012881       0.75013378       0.33633062 </v>
    <v>       0.58307250       0.41691143       0.33631182 </v>
    <v>       0.74984539       0.25014656       0.33643934 </v>
    <v>       0.58285634       0.91668442       0.33683256 </v>
    <v>       0.74944973       0.74985541       0.33656156 </v>
   </varray>
  </structure>
  <varray name="forces" >
   <v>       0.02182833      -0.00173155      -0.16736209 </v>
   <v>      -0.09739949      -0.05855920      -0.06602329 </v>
   <v>       0.12961572      -0.04679727      -0.09268967 </v>
   <v>      -0.02336999       0.11997083      -0.08639404 </v>
   <v>      -0.03234865      -0.00549102       0.13906591 </v>
   <v>       0.02659865      -0.01839585       0.12197104 </v>
   <v>      -0.00166295       0.01123465       0.13430178 </v>
   <v>       0.05376075      -0.03557158       0.00926109 </v>
   <v>      -0.07424462      -0.01749344      -0.06123821 </v>
   <v>       0.03507704      -0.09800737       0.02381478 </v>
   <v>      -0.13590181      -0.04698010       0.03630476 </v>
   <v>       0.07766998      -0.01427798       0.04706964 </v>
   <v>      -0.02799655      -0.00819492       0.01248319 </v>
   <v>       0.05486463       0.08968960      -0.04658689 </v>
   <v>      -0.00649105       0.13060520      -0.00397800 </v>
  </varray>
  <varray name="stress" >
   <v>       3.56672363      -0.06025409      -0.40999631 </v>
   <v>      -0.06025411       4.00192021      -0.00477457 </v>
   <v>      -0.40999628      -0.00477457      -1.98698670 </v>
  </varray>
  <energy>
   <i name="e_fr_energy">   -127.11796453 </i>
   <i name="e_wo_entrp">   -127.11642097 </i>
   <i name="e_0_energy">   -127.11719275 </i>
  </energy>
  <time name="totalsc">   61.27   61.73</time>
 </calculation>
 <calculation>
  <scstep>
   <time name="dav">    5.60    5.64</time>
   <time name="total">    5.88    5.94</time>
   <energy>
    <i name="alphaZ">     58.47588037 </i>
    <i name="ewald">   4729.53169165 </i>
    <i name="hartreedc">  -6486.18469843 </i>
    <i name="XCdc">    180.78531911 </i>
    <i name="pawpsdc">   5813.70478746 </i>
    <i name="pawaedc">  -5818.14440777 </i>
    <i name="eentropy">     -0.00155455 </i>
    <i name="bandstr">   -506.95884495 </i>
    <i name="atom">   1903.26342058 </i>
    <i name="e_fr_energy">   -125.52840653 </i>
    <i name="e_wo_entrp">   -125.52685198 </i>
    <i name="e_0_energy">   -125.52762926 </i>
   </energy>
  </scstep>
  <scstep>
   <time name="dav">    9.69    9.76</time>
   <time name="total">    9.98   10.05</time>
   <energy>
    <i name="e_fr_energy">   -125.52841455 </i>
    <i name="e_wo_entrp">   -125.52686036 </i>
    <i name="e_0_energy">   -125.52763745 </i>
   </energy>
  </scstep>
  <scstep>
   <time name="dav">    8.60    8.66</time>
   <time name="total">    8.89    8.96</time>
   <energy>
    <i name="e_fr_energy">   -125.52841243 </i>
    <i name="e_wo_entrp">   -125.52685873 </i>
    <i name="e_0_energy">   -125.52763558 </i>
   </energy>
  </scstep>
  <scstep>
   <time name="dav">   10.41   10.49</time>
   <time name="total">   10.44   10.52</time>
   <energy>
    <i name="alphaZ">     58.47588037 </i>
    <i name="ewald">   4729.53169165 </i>
    <i name="hartreedc">  -6486.23735008 </i>
    <i name="XCdc">    180.78496433 </i>
    <i name="pawpsdc">   5815.37316674 </i>
    <i name="pawaedc">  -5819.81338872 </i>
    <i name="eentropy">     -0.00155369 </i>
    <i name="bandstr">   -506.90524373 </i>
    <i name="atom">   1903.26342058 </i>
    <i name="e_fr_energy">   -125.52841255 </i>
    <i name="e_wo_entrp">   -125.52685886 </i>
    <i name="e_0_energy">   -125.52763571 </i>
   </energy>
  </scstep>
  <structure>
   <crystal>
    <varray name="basis" >
     <v>       4.19069693       2.41950000       0.00000000 </v>
     <v>      -4.19069693       2.41950000       0.00000000 </v>
     <v>       0.00000000       0.00000000      15.00000000 </v>
    </varray>
    <i name="volume">    304.18173659 </i>
    <varray name="rec_basis" >
     <v>       0.11931190       0.20665427       0.00000000 </v>
     <v>      -0.11931190       0.20665427       0.00000000 </v>
     <v>       0.00000000       0.00000000       0.06666667 </v>
    </varray>
   </crystal>
   <varray name="positions" >
    <v>       0.00420508       0.00279283       0.11277707 </v>
    <v>       0.35910945       0.00259715       0.09945091 </v>
    <v>       0.00413728       0.35744661       0.09982247 </v>
    <v>       0.64989217       0.64745809       0.09971456 </v>
    <v>       0.32782076       0.32542933       0.10028671 </v>
    <v>       0.68140677       0.00286906       0.10059820 </v>
    <v>       0.00430441       0.67940521       0.10034774 </v>
    <v>       0.08317523       0.41696604       0.33649746 </v>
    <v>       0.24997070       0.25029266       0.33689731 </v>
    <v>       0.08332300       0.91704039       0.33648141 </v>
    <v>       0.25010580       0.75015629       0.33634136 </v>
    <v>       0.58307722       0.41685857       0.33632751 </v>
    <v>       0.74979801       0.25016247       0.33644385 </v>
    <v>       0.58288158       0.91671384       0.33682853 </v>
    <v>       0.74941988       0.74991212       0.33656423 </v>
   </varray>
  </structure>
  <varray name="forces" >
   <v>       0.02167198      -0.00203191      -0.15363688 </v>
   <v>      -0.08587013      -0.05146709      -0.05963768 </v>
   <v>       0.11322448      -0.04010015      -0.08717284 </v>
   <v>      -0.02284115       0.10502652      -0.08048215 </v>
   <v>      -0.02910068      -0.00663453       0.12891327 </v>
   <v>       0.02660791      -0.01457000       0.11079836 </v>
   <v>      -0.00078892       0.00995555       0.12397854 </v>
   <v>       0.03203865      -0.02973004       0.00807951 </v>
   <v>      -0.03605674      -0.04363606      -0.05755833 </v>
   <v>       0.00328879      -0.07633496       0.02187819 </v>
   <v>      -0.12046509      -0.04784662       0.03578736 </v>
   <v>       0.04097915      -0.00099796       0.04408597 </v>
   <v>      -0.00715114      -0.00162116       0.01308332 </v>
   <v>       0.04169427       0.07818858      -0.04520109 </v>
   <v>       0.02276863       0.12179981      -0.00291556 </v>
  </varray>
  <varray name="stress" >
   <v>       3.82219495      -0.02318438      -0.40200656 </v>
   <v>      -0.02318442       3.98261582      -0.00656917 </v>
   <v>      -0.40200653      -0.00656916      -1.96570873 </v>
  </varray>
  <energy>
   <i name="e_fr_energy">   -127.11935904 </i>
   <i name="e_wo_entrp">   -127.11780534 </i>
   <i name="e_0_energy">   -127.11858219 </i>
  </energy>
[...]
       <r>     2.7608     1.0610    30.8844 </r>
       <r>     2.8676     0.6247    30.9512 </r>
       <r>     2.9744     0.9612    31.0538 </r>
       <r>     3.0813     1.4752    31.2114 </r>
       <r>     3.1881     1.3905    31.3599 </r>
       <r>     3.2949     1.2296    31.4913 </r>
       <r>     3.4017     1.2914    31.6292 </r>
       <r>     3.5085     1.1914    31.7565 </r>
       <r>     3.6153     2.1274    31.9837 </r>
       <r>     3.7221     2.7970    32.2825 </r>
       <r>     3.8290     2.9776    32.6005 </r>
       <r>     3.9358     2.8083    32.9005 </r>
       <r>     4.0426     2.8867    33.2088 </r>
       <r>     4.1494     3.2251    33.5533 </r>
       <r>     4.2562     3.2688    33.9025 </r>
       <r>     4.3630     3.1117    34.2349 </r>
       <r>     4.4698     3.1150    34.5676 </r>
       <r>     4.5767     2.8872    34.8760 </r>
       <r>     4.6835     2.6145    35.1553 </r>
       <r>     4.7903     3.3072    35.5085 </r>
       <r>     4.8971     3.3929    35.8709 </r>
       <r>     5.0039     2.8615    36.1766 </r>
       <r>     5.1107     3.1063    36.5084 </r>
       <r>     5.2175     3.3451    36.8657 </r>
       <r>     5.3244     2.7860    37.1633 </r>
       <r>     5.4312     2.8360    37.4662 </r>
       <r>     5.5380     2.7768    37.7628 </r>
       <r>     5.6448     3.6072    38.1481 </r>
       <r>     5.7516     3.0197    38.4706 </r>
       <r>     5.8584     2.8742    38.7776 </r>
       <r>     5.9653     2.5860    39.0539 </r>
       <r>     6.0721     2.6404    39.3359 </r>
       <r>     6.1789     1.8870    39.5375 </r>
       <r>     6.2857     2.1868    39.7710 </r>
       <r>     6.3925     2.9792    40.0893 </r>
       <r>     6.4993     3.1598    40.4268 </r>
       <r>     6.6061     3.0852    40.7563 </r>
       <r>     6.7130     3.2593    41.1045 </r>
       <r>     6.8198     4.2849    41.5622 </r>
       <r>     6.9266     3.6375    41.9507 </r>
       <r>     7.0334     3.2213    42.2948 </r>
       <r>     7.1402     3.4147    42.6595 </r>
       <r>     7.2470     2.8210    42.9608 </r>
       <r>     7.3538     2.2509    43.2013 </r>
       <r>     7.4607     2.6951    43.4891 </r>
       <r>     7.5675     3.0015    43.8097 </r>
       <r>     7.6743     2.8017    44.1090 </r>
       <r>     7.7811     3.4248    44.4748 </r>
       <r>     7.8879     4.1285    44.9158 </r>
       <r>     7.9947     3.9423    45.3369 </r>
       <r>     8.1015     3.9756    45.7616 </r>
       <r>     8.2084     4.2282    46.2132 </r>
       <r>     8.3152     3.6567    46.6038 </r>
       <r>     8.4220     4.6053    47.0957 </r>
       <r>     8.5288     4.2912    47.5541 </r>
       <r>     8.6356     2.1780    47.7867 </r>
       <r>     8.7424     1.0726    47.9013 </r>
       <r>     8.8492     0.5005    47.9547 </r>
       <r>     8.9561     0.3482    47.9919 </r>
       <r>     9.0629     0.0731    47.9997 </r>
       <r>     9.1697     0.0027    48.0000 </r>
       <r>     9.2765     0.0000    48.0000 </r>
       <r>     9.3833     0.0000    48.0000 </r>
       <r>     9.4901     0.0000    48.0000 </r>
       <r>     9.5969     0.0000    48.0000 </r>
       <r>     9.7038     0.0000    48.0000 </r>
       <r>     9.8106     0.0000    48.0000 </r>
       <r>     9.9174     0.0000    48.0000 </r>
       <r>    10.0242     0.0000    48.0000 </r>
       <r>    10.1310     0.0000    48.0000 </r>
       <r>    10.2378     0.0000    48.0000 </r>
       <r>    10.3446     0.0000    48.0000 </r>
      </set>
      <set comment="spin 2">
       <r>   -21.6997     0.0000     0.0000 </r>
       <r>   -21.5929     0.0000     0.0000 </r>
       <r>   -21.4861     0.0000     0.0000 </r>
       <r>   -21.3793     0.0000     0.0000 </r>
       <r>   -21.2725     0.0000     0.0000 </r>
       <r>   -21.1656     0.0000     0.0000 </r>
       <r>   -21.0588     0.0000     0.0000 </r>
       <r>   -20.9520     0.0000     0.0000 </r>
       <r>   -20.8452     0.0000     0.0000 </r>
       <r>   -20.7384     0.0000     0.0000 </r>
       <r>   -20.6316     0.0000     0.0000 </r>
       <r>   -20.5248     0.0000     0.0000 </r>
       <r>   -20.4179     0.0009     0.0001 </r>
       <r>   -20.3111     0.0344     0.0038 </r>
       <r>   -20.2043     0.2517     0.0307 </r>
       <r>   -20.0975     0.5297     0.0872 </r>
       <r>   -19.9907     0.5764     0.1488 </r>
       <r>   -19.8839     0.6305     0.2161 </r>
       <r>   -19.7771     0.5294     0.2727 </r>
       <r>   -19.6702     0.6863     0.3460 </r>
       <r>   -19.5634     0.5407     0.4038 </r>
       <r>   -19.4566     0.5380     0.4612 </r>
       <r>   -19.3498     0.7679     0.5433 </r>
       <r>   -19.2430     0.4925     0.5959 </r>
       <r>   -19.1362     0.4873     0.6479 </r>
       <r>   -19.0294     0.7786     0.7311 </r>
       <r>   -18.9225     0.6710     0.8027 </r>
       <r>   -18.8157     0.3836     0.8437 </r>
       <r>   -18.7089     0.5407     0.9015 </r>
       <r>   -18.6021     0.8853     0.9960 </r>
       <r>   -18.4953     0.5920     1.0593 </r>
       <r>   -18.3885     0.4879     1.1114 </r>
       <r>   -18.2816     0.3735     1.1513 </r>
       <r>   -18.1748     0.8255     1.2395 </r>
       <r>   -18.0680     0.8594     1.3312 </r>
       <r>   -17.9612     0.4662     1.3810 </r>
       <r>   -17.8544     0.4097     1.4248 </r>
       <r>   -17.7476     0.5193     1.4803 </r>
       <r>   -17.6408     0.7729     1.5628 </r>
       <r>   -17.5339     0.8808     1.6569 </r>
       <r>   -17.4271     0.7713     1.7393 </r>
       <r>   -17.3203     0.9332     1.8390 </r>
       <r>   -17.2135     1.3030     1.9782 </r>
       <r>   -17.1067     1.8623     2.1771 </r>
       <r>   -16.9999     2.0381     2.3948 </r>
       <r>   -16.8931     2.2788     2.6382 </r>
       <r>   -16.7862     2.6991     2.9265 </r>
       <r>   -16.6794     1.9065     3.1301 </r>
       <r>   -16.5726     0.5190     3.1856 </r>
       <r>   -16.4658     0.8503     3.2764 </r>
       <r>   -16.3590     1.0820     3.3920 </r>
       <r>   -16.2522     0.5967     3.4557 </r>
       <r>   -16.1454     0.5366     3.5130 </r>
       <r>   -16.0385     0.4865     3.5650 </r>
       <r>   -15.9317     0.5020     3.6186 </r>
       <r>   -15.8249     0.4353     3.6651 </r>
       <r>   -15.7181     0.9750     3.7692 </r>
       <r>   -15.6113     1.0797     3.8846 </r>
       <r>   -15.5045     0.5303     3.9412 </r>
       <r>   -15.3977     0.4935     3.9939 </r>
       <r>   -15.2908     0.4240     4.0392 </r>
       <r>   -15.1840     0.5679     4.0999 </r>
       <r>   -15.0772     0.7818     4.1834 </r>
       <r>   -14.9704     1.4343     4.3366 </r>
       <r>   -14.8636     2.2636     4.5784 </r>
       <r>   -14.7568     2.4060     4.8354 </r>
       <r>   -14.6500     2.1428     5.0643 </r>
       <r>   -14.5431     1.4437     5.2185 </r>
       <r>   -14.4363     0.9874     5.3239 </r>
       <r>   -14.3295     1.7366     5.5094 </r>
       <r>   -14.2227     2.0402     5.7274 </r>
       <r>   -14.1159     1.5868     5.8968 </r>
       <r>   -14.0091     1.3690     6.0431 </r>
       <r>   -13.9023     1.6454     6.2188 </r>
       <r>   -13.7954     2.4825     6.4840 </r>
       <r>   -13.6886     2.4265     6.7432 </r>
       <r>   -13.5818     2.2766     6.9864 </r>
       <r>   -13.4750     1.3912     7.1350 </r>
       <r>   -13.3682     0.8276     7.2234 </r>
       <r>   -13.2614     0.4268     7.2690 </r>
       <r>   -13.1546     0.4795     7.3202 </r>
       <r>   -13.0477     0.8278     7.4086 </r>
       <r>   -12.9409     0.9186     7.5067 </r>
       <r>   -12.8341     0.6183     7.5728 </r>
       <r>   -12.7273     0.8105     7.6593 </r>
       <r>   -12.6205     0.9154     7.7571 </r>
       <r>   -12.5137     0.7312     7.8352 </r>
       <r>   -12.4069     0.7023     7.9102 </r>
       <r>   -12.3000     0.4531     7.9586 </r>
       <r>   -12.1932     0.7134     8.0348 </r>
       <r>   -12.0864     1.0635     8.1484 </r>
       <r>   -11.9796     0.5035     8.2022 </r>
       <r>   -11.8728     0.4087     8.2459 </r>
       <r>   -11.7660     0.4341     8.2923 </r>
       <r>   -11.6591     0.6757     8.3644 </r>
       <r>   -11.5523     0.8962     8.4602 </r>
       <r>   -11.4455     0.5706     8.5211 </r>
       <r>   -11.3387     0.2286     8.5455 </r>
       <r>   -11.2319     0.5435     8.6036 </r>
       <r>   -11.1251     0.7464     8.6833 </r>
       <r>   -11.0183     0.6816     8.7561 </r>
       <r>   -10.9114     0.9367     8.8562 </r>
       <r>   -10.8046     0.8694     8.9490 </r>
       <r>   -10.6978     0.3552     8.9870 </r>
       <r>   -10.5910     1.0077     9.0946 </r>
       <r>   -10.4842     1.6694     9.2729 </r>
       <r>   -10.3774     1.9512     9.4813 </r>
       <r>   -10.2706     1.9725     9.6920 </r>
       <r>   -10.1637     1.9325     9.8985 </r>
       <r>   -10.0569     2.2263    10.1363 </r>
       <r>    -9.9501     2.2214    10.3735 </r>
       <r>    -9.8433     1.2898    10.5113 </r>
       <r>    -9.7365     1.0744    10.6261 </r>
       <r>    -9.6297     1.7601    10.8141 </r>
       <r>    -9.5229     1.6989    10.9955 </r>
       <r>    -9.4160     2.0799    11.2177 </r>
       <r>    -9.3092     2.2642    11.4596 </r>
       <r>    -9.2024     1.7894    11.6507 </r>
       <r>    -9.0956     1.2610    11.7854 </r>
       <r>    -8.9888     0.8595    11.8772 </r>
       <r>    -8.8820     2.0417    12.0953 </r>
       <r>    -8.7752     2.7477    12.3888 </r>
       <r>    -8.6683     1.8359    12.5849 </r>
       <r>    -8.5615     1.0008    12.6918 </r>
       <r>    -8.4547     1.4099    12.8424 </r>
       <r>    -8.3479     2.5547    13.1153 </r>
       <r>    -8.2411     2.3821    13.3697 </r>
       <r>    -8.1343     1.5543    13.5357 </r>
       <r>    -8.0275     2.1045    13.7605 </r>
       <r>    -7.9206     3.0729    14.0887 </r>
       <r>    -7.8138     3.1041    14.4203 </r>
       <r>    -7.7070     2.6145    14.6996 </r>
       <r>    -7.6002     1.3902    14.8481 </r>
       <r>    -7.4934     0.9385    14.9483 </r>
       <r>    -7.3866     2.2348    15.1870 </r>
       <r>    -7.2798     2.3582    15.4389 </r>
       <r>    -7.1729     1.5788    15.6075 </r>
       <r>    -7.0661     1.4424    15.7616 </r>
       <r>    -6.9593     2.0975    15.9856 </r>
       <r>    -6.8525     2.2893    16.2302 </r>
       <r>    -6.7457     2.4541    16.4923 </r>
       <r>    -6.6389     2.8134    16.7928 </r>
       <r>    -6.5321     2.4860    17.0584 </r>
       <r>    -6.4252     2.7065    17.3475 </r>
       <r>    -6.3184     2.1824    17.5806 </r>
       <r>    -6.2116     2.2754    17.8236 </r>
       <r>    -6.1048     3.3082    18.1770 </r>
       <r>    -5.9980     3.0684    18.5047 </r>
       <r>    -5.8912     3.9603    18.9278 </r>
       <r>    -5.7843     3.4928    19.3008 </r>
       <r>    -5.6775     2.2693    19.5432 </r>
       <r>    -5.5707     2.5947    19.8204 </r>
       <r>    -5.4639     4.1419    20.2628 </r>
       <r>    -5.3571     4.3945    20.7322 </r>
       <r>    -5.2503     2.8921    21.0411 </r>
       <r>    -5.1435     2.1530    21.2711 </r>
       <r>    -5.0366     1.3065    21.4106 </r>
       <r>    -4.9298     1.2572    21.5449 </r>
       <r>    -4.8230     1.8006    21.7373 </r>
       <r>    -4.7162     1.5085    21.8984 </r>
       <r>    -4.6094     1.0559    22.0112 </r>
       <r>    -4.5026     1.1017    22.1288 </r>
       <r>    -4.3958     1.9290    22.3349 </r>
       <r>    -4.2889     2.9904    22.6543 </r>
       <r>    -4.1821     2.5774    22.9296 </r>
       <r>    -4.0753     2.3137    23.1767 </r>
       <r>    -3.9685     2.6627    23.4612 </r>
       <r>    -3.8617     3.1898    23.8019 </r>
       <r>    -3.7549     2.4011    24.0584 </r>
       <r>    -3.6481     2.3854    24.3132 </r>
       <r>    -3.5412     2.5519    24.5857 </r>
       <r>    -3.4344     2.0750    24.8074 </r>
       <r>    -3.3276     1.6536    24.9840 </r>
       <r>    -3.2208     1.6649    25.1618 </r>
       <r>    -3.1140     2.2937    25.4068 </r>
       <r>    -3.0072     2.2860    25.6510 </r>
       <r>    -2.9004     1.5291    25.8143 </r>
       <r>    -2.7935     1.5745    25.9825 </r>
       <r>    -2.6867     1.0007    26.0894 </r>
       <r>    -2.5799     1.2348    26.2213 </r>
       <r>    -2.4731     2.3060    26.4676 </r>
       <r>    -2.3663     2.0615    26.6878 </r>
       <r>    -2.2595     0.5674    26.7484 </r>
       <r>    -2.1527     0.6484    26.8177 </r>
       <r>    -2.0458     1.3585    26.9628 </r>
       <r>    -1.9390     1.2195    27.0931 </r>
       <r>    -1.8322     1.3885    27.2414 </r>
       <r>    -1.7254     1.4172    27.3927 </r>
       <r>    -1.6186     1.2863    27.5301 </r>
       <r>    -1.5118     0.9771    27.6345 </r>
       <r>    -1.4050     0.5126    27.6893 </r>
       <r>    -1.2981     0.5260    27.7455 </r>
       <r>    -1.1913     0.5380    27.8029 </r>
       <r>    -1.0845     0.4336    27.8492 </r>
       <r>    -0.9777     0.7066    27.9247 </r>
       <r>    -0.8709     0.4660    27.9745 </r>
       <r>    -0.7641     0.0982    27.9850 </r>
       <r>    -0.6573     0.0105    27.9861 </r>
       <r>    -0.5504     0.0003    27.9861 </r>
       <r>    -0.4436     0.0035    27.9865 </r>
       <r>    -0.3368     0.0592    27.9928 </r>
       <r>    -0.2300     0.1425    28.0080 </r>
       <r>    -0.1232     0.0521    28.0136 </r>
       <r>    -0.0164     0.0027    28.0139 </r>
       <r>     0.0905     0.0000    28.0139 </r>
       <r>     0.1973     0.0015    28.0141 </r>
       <r>     0.3041     0.0641    28.0209 </r>
       <r>     0.4109     0.3653    28.0599 </r>
       <r>     0.5177     0.3135    28.0934 </r>
       <r>     0.6245     0.1286    28.1071 </r>
       <r>     0.7313     0.4511    28.1553 </r>
       <r>     0.8382     0.7284    28.2331 </r>
       <r>     0.9450     1.1504    28.3560 </r>
       <r>     1.0518     2.8871    28.6644 </r>
       <r>     1.1586     2.7687    28.9601 </r>
       <r>     1.2654     0.8874    29.0549 </r>
       <r>     1.3722     0.4035    29.0980 </r>
       <r>     1.4790     0.8612    29.1900 </r>
       <r>     1.5859     1.6840    29.3699 </r>
       <r>     1.6927     2.4228    29.6287 </r>
       <r>     1.7995     1.9679    29.8389 </r>
       <r>     1.9063     1.0004    29.9457 </r>
       <r>     2.0131     0.8495    30.0365 </r>
       <r>     2.1199     1.3187    30.1773 </r>
       <r>     2.2267     0.9514    30.2789 </r>
       <r>     2.3336     1.0379    30.3898 </r>
       <r>     2.4404     0.9395    30.4902 </r>
       <r>     2.5472     1.0228    30.5994 </r>
       <r>     2.6540     1.6073    30.7711 </r>
       <r>     2.7608     1.0610    30.8844 </r>
       <r>     2.8676     0.6246    30.9512 </r>
       <r>     2.9744     0.9611    31.0538 </r>
       <r>     3.0813     1.4751    31.2114 </r>
       <r>     3.1881     1.3906    31.3599 </r>
       <r>     3.2949     1.2295    31.4912 </r>
       <r>     3.4017     1.2915    31.6292 </r>
       <r>     3.5085     1.1914    31.7564 </r>
       <r>     3.6153     2.1272    31.9837 </r>
       <r>     3.7221     2.7971    32.2824 </r>
       <r>     3.8290     2.9775    32.6005 </r>
       <r>     3.9358     2.8085    32.9005 </r>
       <r>     4.0426     2.8865    33.2088 </r>
       <r>     4.1494     3.2253    33.5533 </r>
       <r>     4.2562     3.2687    33.9024 </r>
       <r>     4.3630     3.1117    34.2348 </r>
       <r>     4.4698     3.1149    34.5675 </r>
       <r>     4.5767     2.8871    34.8759 </r>
       <r>     4.6835     2.6139    35.1551 </r>
       <r>     4.7903     3.3067    35.5083 </r>
       <r>     4.8971     3.3930    35.8707 </r>
       <r>     5.0039     2.8616    36.1764 </r>
       <r>     5.1107     3.1057    36.5081 </r>
       <r>     5.2175     3.3454    36.8655 </r>
       <r>     5.3244     2.7857    37.1630 </r>
       <r>     5.4312     2.8369    37.4660 </r>
       <r>     5.5380     2.7766    37.7626 </r>
       <r>     5.6448     3.6072    38.1479 </r>
       <r>     5.7516     3.0188    38.4704 </r>
       <r>     5.8584     2.8746    38.7774 </r>
       <r>     5.9653     2.5869    39.0537 </r>
       <r>     6.0721     2.6405    39.3358 </r>
       <r>     6.1789     1.8865    39.5373 </r>
       <r>     6.2857     2.1857    39.7708 </r>
       <r>     6.3925     2.9795    40.0890 </r>
       <r>     6.4993     3.1601    40.4266 </r>
       <r>     6.6061     3.0852    40.7561 </r>
       <r>     6.7130     3.2585    41.1042 </r>
       <r>     6.8198     4.2842    41.5618 </r>
       <r>     6.9266     3.6381    41.9504 </r>
       <r>     7.0334     3.2205    42.2944 </r>
       <r>     7.1402     3.4158    42.6592 </r>
       <r>     7.2470     2.8220    42.9607 </r>
       <r>     7.3538     2.2513    43.2011 </r>
       <r>     7.4607     2.6927    43.4888 </r>
       <r>     7.5675     3.0019    43.8094 </r>
       <r>     7.6743     2.8026    44.1088 </r>
       <r>     7.7811     3.4249    44.4746 </r>
       <r>     7.8879     4.1294    44.9157 </r>
       <r>     7.9947     3.9417    45.3367 </r>
       <r>     8.1015     3.9736    45.7612 </r>
       <r>     8.2084     4.2294    46.2129 </r>
       <r>     8.3152     3.6563    46.6035 </r>
       <r>     8.4220     4.6033    47.0952 </r>
       <r>     8.5288     4.2941    47.5538 </r>
       <r>     8.6356     2.1795    47.7866 </r>
       <r>     8.7424     1.0729    47.9012 </r>
       <r>     8.8492     0.5005    47.9547 </r>
       <r>     8.9561     0.3482    47.9919 </r>
       <r>     9.0629     0.0731    47.9997 </r>
       <r>     9.1697     0.0027    48.0000 </r>
       <r>     9.2765     0.0000    48.0000 </r>
       <r>     9.3833     0.0000    48.0000 </r>
       <r>     9.4901     0.0000    48.0000 </r>
       <r>     9.5969     0.0000    48.0000 </r>
       <r>     9.7038     0.0000    48.0000 </r>
       <r>     9.8106     0.0000    48.0000 </r>
       <r>     9.9174     0.0000    48.0000 </r>
       <r>    10.0242     0.0000    48.0000 </r>
       <r>    10.1310     0.0000    48.0000 </r>
       <r>    10.2378     0.0000    48.0000 </r>
       <r>    10.3446     0.0000    48.0000 </r>
      </set>
     </set>
    </array>
   </total>
  </dos>
 </calculation>
 <structure name="finalpos" >
  <crystal>
   <varray name="basis" >
    <v>       4.19069693       2.41950000       0.00000000 </v>
    <v>      -4.19069693       2.41950000       0.00000000 </v>
    <v>       0.00000000       0.00000000      15.00000000 </v>
   </varray>
   <i name="volume">    304.18173659 </i>
   <varray name="rec_basis" >
    <v>       0.11931190       0.20665427       0.00000000 </v>
    <v>      -0.11931190       0.20665427       0.00000000 </v>
    <v>       0.00000000       0.00000000       0.06666667 </v>
   </varray>
  </crystal>
  <varray name="positions" >
   <v>       0.02514880      -0.01691668       0.10038476 </v>
   <v>       0.38025449      -0.01704947       0.10123855 </v>
   <v>       0.02469613       0.33771557       0.10132294 </v>
   <v>       0.66994961       0.62776491       0.10131109 </v>
   <v>       0.34879330       0.30638306       0.10096788 </v>
   <v>       0.70170654      -0.01665117       0.10127259 </v>
   <v>       0.02558697       0.65926475       0.10103187 </v>
   <v>       0.06497523       0.43402008       0.33718651 </v>
   <v>       0.23167506       0.26743224       0.33733144 </v>
   <v>       0.06495263       0.93398931       0.33718403 </v>
   <v>       0.23164872       0.76736122       0.33723733 </v>
   <v>       0.56495856       0.43400207       0.33719271 </v>
   <v>       0.73163227       0.26733040       0.33717623 </v>
   <v>       0.56499990       0.93408125       0.33729764 </v>
   <v>       0.73164910       0.76737312       0.33724377 </v>
  </varray>
 </structure>
</modeling>
