Lattice                                 
           1
     4.308476    2.487500    0.000000
    -4.308476    2.487500    0.000000
     0.000000    0.000000   15.000000
   B    C 
     8     8
Direct configuration=     1
   0.66888689  0.00000000  0.10000000
   0.33111211  0.00000000  0.10000000
   0.00000000  0.33111211  0.10000000
   0.00000000  0.66888689  0.10000000
   0.33111211  0.33111211  0.10000000
   0.66888689  0.66888689  0.10000000
   0.66666600  0.33333300  0.09922189
   0.33333300  0.66666600  0.10077811
   0.24999933  0.24999967  0.46906667
   0.41666633  0.08333267  0.46906667
   0.24999933  0.74999967  0.46906667
   0.41666633  0.58333267  0.46906667
   0.74999933  0.24999967  0.46906667
   0.91666633  0.08333267  0.46906667
   0.74999933  0.74999967  0.46906667
   0.91666633  0.58333267  0.46906667
Direct configuration=     2
   0.67068508 -0.00000011  0.10002644
   0.32931408 -0.00000014  0.10002651
   0.00000011  0.32931392  0.10002644
   0.00000014  0.67068492  0.10002651
   0.32931377  0.32931370  0.10002652
   0.67068530  0.67068523  0.10002652
   0.66666610  0.33333290  0.09924345
   0.33333255  0.66666645  0.10081540
   0.24999506  0.24999482  0.46903972
   0.41666292  0.08333420  0.46903916
   0.24999892  0.75000008  0.46903877
   0.41666704  0.58333196  0.46903940
   0.75000226  0.24999674  0.46903954
   0.91666736  0.08333164  0.46904008
   0.75000418  0.75000394  0.46903972
   0.91666480  0.58333608  0.46903916
Direct configuration=     3
   0.66980345 -0.00000006  0.10001348
   0.33019563 -0.00000007  0.10001351
   0.00000006  0.33019555  0.10001348
   0.00000007  0.66980337  0.10001351
   0.33019548  0.33019544  0.10001352
   0.66980356  0.66980352  0.10001352
   0.66666605  0.33333295  0.09923288
   0.33333277  0.66666623  0.10079712
   0.24999716  0.24999720  0.46905293
   0.41666459  0.08333345  0.46905265
   0.24999913  0.74999987  0.46905245
   0.41666669  0.58333231  0.46905277
   0.75000082  0.24999818  0.46905284
   0.91666686  0.08333214  0.46905311
   0.75000180  0.75000184  0.46905293
   0.91666555  0.58333441  0.46905265
Direct configuration=     4
   0.66980903 -0.00000006  0.10001356
   0.33019005 -0.00000007  0.10001359
   0.00000006  0.33018997  0.10001356
   0.00000007  0.66980895  0.10001359
   0.33018989  0.33018985  0.10001360
   0.66980915  0.66980911  0.10001360
   0.66666605  0.33333295  0.09923294
   0.33333277  0.66666623  0.10079724
   0.24999714  0.24999718  0.46905285
   0.41666458  0.08333345  0.46905256
   0.24999912  0.74999988  0.46905236
   0.41666670  0.58333230  0.46905268
   0.75000083  0.24999817  0.46905275
   0.91666686  0.08333214  0.46905303
   0.75000182  0.75000186  0.46905285
   0.91666555  0.58333442  0.46905256
Direct configuration=     5
   0.66980682 -0.00000006  0.10001353
   0.33019226 -0.00000007  0.10001356
   0.00000006  0.33019218  0.10001353
   0.00000007  0.66980674  0.10001356
   0.33019210  0.33019207  0.10001357
   0.66980693  0.66980690  0.10001357
   0.66666605  0.33333295  0.09923292
   0.33333277  0.66666623  0.10079719
   0.24999715  0.24999719  0.46905288
   0.41666459  0.08333345  0.46905260
   0.24999912  0.74999988  0.46905240
   0.41666670  0.58333230  0.46905272
   0.75000083  0.24999817  0.46905279
   0.91666686  0.08333214  0.46905306
   0.75000181  0.75000185  0.46905288
   0.91666555  0.58333441  0.46905260
Direct configuration=     6
   0.66980513 -0.00000006  0.10001350
   0.33019395 -0.00000007  0.10001354
   0.00000006  0.33019387  0.10001350
   0.00000007  0.66980505  0.10001354
   0.33019379  0.33019375  0.10001354
   0.66980525  0.66980521  0.10001354
   0.66666605  0.33333295  0.09923290
   0.33333277  0.66666623  0.10079716
   0.24999715  0.24999719  0.46905290
   0.41666459  0.08333345  0.46905262
   0.24999912  0.74999988  0.46905242
   0.41666669  0.58333231  0.46905274
   0.75000083  0.24999817  0.46905281
   0.91666686  0.08333214  0.46905309
   0.75000181  0.75000185  0.46905290
   0.91666555  0.58333441  0.46905262
Direct configuration=     7
   0.66980429 -0.00000006  0.10001349
   0.33019479 -0.00000007  0.10001352
   0.00000006  0.33019471  0.10001349
   0.00000007  0.66980421  0.10001352
   0.33019463  0.33019459  0.10001353
   0.66980441  0.66980437  0.10001353
   0.66666605  0.33333295  0.09923289
   0.33333277  0.66666623  0.10079714
   0.24999715  0.24999720  0.46905292
   0.41666459  0.08333345  0.46905263
   0.24999912  0.74999988  0.46905243
   0.41666669  0.58333231  0.46905276
   0.75000083  0.24999817  0.46905283
   0.91666686  0.08333214  0.46905310
   0.75000180  0.75000185  0.46905292
   0.91666555  0.58333441  0.46905263
Direct configuration=     8
   0.66980437 -0.00000008  0.10003758
   0.33019485 -0.00000004  0.10003768
   0.00000008  0.33019463  0.10003758
   0.00000004  0.66980415  0.10003768
   0.33019472  0.33019467  0.10003769
   0.66980433  0.66980428  0.10003769
   0.66666603  0.33333297  0.09925542
   0.33333275  0.66666625  0.10082727
   0.24999992  0.25000119  0.46902842
   0.41666748  0.08333192  0.46902775
   0.24999903  0.74999997  0.46902729
   0.41666650  0.58333250  0.46902804
   0.74999820  0.25000080  0.46902821
   0.91666647  0.08333253  0.46902885
   0.74999781  0.74999908  0.46902842
   0.91666708  0.58333152  0.46902775
Direct configuration=     9
   0.66980462 -0.00000015  0.10010985
   0.33019504  0.00000004  0.10011013
   0.00000015  0.33019438  0.10010985
  -0.00000004  0.66980396  0.10011013
   0.33019499  0.33019490  0.10011018
   0.66980410  0.66980401  0.10011018
   0.66666597  0.33333303  0.09932302
   0.33333269  0.66666631  0.10091768
   0.25000821  0.25001318  0.46895494
   0.41667615  0.08332734  0.46895311
   0.24999875  0.75000025  0.46895187
   0.41666591  0.58333309  0.46895389
   0.74999034  0.25000866  0.46895436
   0.91666531  0.08333369  0.46895609
   0.74998582  0.74999079  0.46895494
   0.91667166  0.58332285  0.46895311
Direct configuration=    10
   0.66980512 -0.00000029  0.10025440
   0.33019541  0.00000022  0.10025504
   0.00000029  0.33019388  0.10025440
  -0.00000022  0.66980359  0.10025504
   0.33019553  0.33019537  0.10025515
   0.66980363  0.66980347  0.10025515
   0.66666585  0.33333315  0.09945822
   0.33333258  0.66666642  0.10109849
   0.25002478  0.25003715  0.46880798
   0.41669348  0.08331817  0.46880382
   0.24999818  0.75000082  0.46880102
   0.41666474  0.58333426  0.46880559
   0.74997461  0.25002439  0.46880666
   0.91666300  0.08333600  0.46881057
   0.74996185  0.74997422  0.46880798
   0.91668083  0.58330552  0.46880382
Direct configuration=    11
   0.66980611 -0.00000057  0.10054349
   0.33019617  0.00000056  0.10054485
   0.00000057  0.33019289  0.10054349
  -0.00000056  0.66980283  0.10054485
   0.33019661  0.33019630  0.10054510
   0.66980270  0.66980239  0.10054510
   0.66666561  0.33333339  0.09972861
   0.33333234  0.66666666  0.10146012
   0.25005794  0.25008510  0.46851405
   0.41672815  0.08329983  0.46850525
   0.24999705  0.75000195  0.46849932
   0.41666238  0.58333662  0.46850900
   0.74994316  0.25005584  0.46851126
   0.91665837  0.08334063  0.46851953
   0.74991390  0.74994106  0.46851405
   0.91669917  0.58327085  0.46850525
Direct configuration=    12
   0.66980810 -0.00000114  0.10112168
   0.33019767  0.00000125  0.10112449
   0.00000114  0.33019090  0.10112168
  -0.00000125  0.66980133  0.10112449
   0.33019876  0.33019815  0.10112499
   0.66980085  0.66980024  0.10112499
   0.66666514  0.33333386  0.10026940
   0.33333188  0.66666712  0.10218338
   0.25012425  0.25018100  0.46792619
   0.41679748  0.08326315  0.46790811
   0.24999479  0.75000421  0.46789593
   0.41665768  0.58334132  0.46791580
   0.74988024  0.25011876  0.46792045
   0.91664910  0.08334990  0.46793745
   0.74981800  0.74987475  0.46792619
   0.91673585  0.58320152  0.46790811
Direct configuration=    13
   0.66981207 -0.00000227  0.10227806
   0.33020067  0.00000264  0.10228375
   0.00000227  0.33018693  0.10227806
  -0.00000264  0.66979833  0.10228375
   0.33020306  0.33020187  0.10228477
   0.66979713  0.66979594  0.10228477
   0.66666419  0.33333481  0.10135098
   0.33333095  0.66666805  0.10362989
   0.25025688  0.25037280  0.46675047
   0.41693614  0.08318979  0.46671382
   0.24999027  0.75000873  0.46668915
   0.41664828  0.58335072  0.46672942
   0.74975442  0.25024458  0.46673885
   0.91663058  0.08336842  0.46677328
   0.74962620  0.74974212  0.46675047
   0.91680921  0.58306286  0.46671382
Direct configuration=    14
   0.66982001 -0.00000452  0.10459081
   0.33020668  0.00000540  0.10460228
   0.00000452  0.33017899  0.10459081
  -0.00000540  0.66979232  0.10460228
   0.33021166  0.33020930  0.10460434
   0.66978970  0.66978734  0.10460434
   0.66666229  0.33333671  0.10351414
   0.33332909  0.66666991  0.10652292
   0.25052214  0.25075639  0.46439904
   0.41721346  0.08304308  0.46432525
   0.24998123  0.75001777  0.46427558
   0.41662947  0.58336953  0.46435665
   0.74950276  0.25049624  0.46437564
   0.91659352  0.08340548  0.46444496
   0.74924261  0.74947686  0.46439904
   0.91695592  0.58278554  0.46432525
Direct configuration=    15
   0.66983588 -0.00000904  0.10921632
   0.33021870  0.00001093  0.10923934
   0.00000904  0.33016312  0.10921632
  -0.00001093  0.66978030  0.10923934
   0.33022888  0.33022416  0.10924348
   0.66977484  0.66977012  0.10924348
   0.66665849  0.33334051  0.10784046
   0.33332538  0.66667362  0.11230897
   0.25105264  0.25152357  0.45969618
   0.41776810  0.08274966  0.45954810
   0.24996314  0.75003586  0.45944843
   0.41659186  0.58340714  0.45961110
   0.74899946  0.25099954  0.45964923
   0.91651942  0.08347958  0.45978831
   0.74847543  0.74894636  0.45969618
   0.91724934  0.58223090  0.45954810
Direct configuration=    16
   0.66983589 -0.00000904  0.10921747
   0.33021870  0.00001093  0.10924049
   0.00000904  0.33016311  0.10921747
  -0.00001093  0.66978030  0.10924049
   0.33022888  0.33022416  0.10924463
   0.66977484  0.66977012  0.10924463
   0.66665849  0.33334051  0.10784154
   0.33332538  0.66667362  0.11231041
   0.25105268  0.25152360  0.45969500
   0.41776812  0.08274965  0.45954691
   0.24996315  0.75003585  0.45944723
   0.41659184  0.58340716  0.45960992
   0.74899944  0.25099956  0.45964805
   0.91651940  0.08347960  0.45978715
   0.74847540  0.74894632  0.45969500
   0.91724935  0.58223088  0.45954691
Direct configuration=    17
   0.66983589 -0.00000905  0.10922094
   0.33021871  0.00001093  0.10924396
   0.00000905  0.33016311  0.10922094
  -0.00001093  0.66978029  0.10924396
   0.33022889  0.33022417  0.10924811
   0.66977483  0.66977011  0.10924811
   0.66665849  0.33334051  0.10784477
   0.33332537  0.66667363  0.11231473
   0.25105280  0.25152370  0.45969148
   0.41776818  0.08274963  0.45954334
   0.24996318  0.75003582  0.45944363
   0.41659180  0.58340720  0.45960637
   0.74899939  0.25099961  0.45964451
   0.91651936  0.08347964  0.45978366
   0.74847530  0.74894620  0.45969148
   0.91724937  0.58223082  0.45954334
Direct configuration=    18
   0.66983589 -0.00000907  0.10922786
   0.33021872  0.00001092  0.10925091
   0.00000907  0.33016311  0.10922786
  -0.00001092  0.66978028  0.10925091
   0.33022891  0.33022420  0.10925505
   0.66977480  0.66977009  0.10925505
   0.66665848  0.33334052  0.10785124
   0.33332537  0.66667363  0.11232338
   0.25105303  0.25152390  0.45968444
   0.41776830  0.08274958  0.45953620
   0.24996323  0.75003577  0.45943642
   0.41659172  0.58340728  0.45959927
   0.74899928  0.25099972  0.45963743
   0.91651926  0.08347974  0.45977668
   0.74847510  0.74894597  0.45968444
   0.91724942  0.58223070  0.45953620
Direct configuration=    19
   0.66983590 -0.00000910  0.10924172
   0.33021876  0.00001091  0.10926479
   0.00000910  0.33016310  0.10924172
  -0.00001091  0.66978024  0.10926479
   0.33022896  0.33022425  0.10926894
   0.66977475  0.66977004  0.10926894
   0.66665848  0.33334052  0.10786417
   0.33332536  0.66667364  0.11234069
   0.25105350  0.25152431  0.45967035
   0.41776853  0.08274950  0.45952191
   0.24996334  0.75003566  0.45942199
   0.41659156  0.58340744  0.45958506
   0.74899907  0.25099993  0.45962328
   0.91651908  0.08347992  0.45976271
   0.74847469  0.74894550  0.45967035
   0.91724950  0.58223047  0.45952191
Direct configuration=    20
   0.66983592 -0.00000916  0.10926942
   0.33021882  0.00001088  0.10929257
   0.00000916  0.33016308  0.10926942
  -0.00001088  0.66978018  0.10929257
   0.33022904  0.33022436  0.10929673
   0.66977464  0.66976996  0.10929673
   0.66665848  0.33334052  0.10789003
   0.33332534  0.66667366  0.11237529
   0.25105444  0.25152511  0.45964217
   0.41776900  0.08274932  0.45949333
   0.24996355  0.75003545  0.45939315
   0.41659124  0.58340776  0.45955665
   0.74899863  0.25100037  0.45959498
   0.91651871  0.08348029  0.45973479
   0.74847389  0.74894456  0.45964217
   0.91724968  0.58223000  0.45949333
Direct configuration=    21
   0.66983595 -0.00000930  0.10932483
   0.33021895  0.00001083  0.10934811
   0.00000930  0.33016305  0.10932483
  -0.00001083  0.66978005  0.10934811
   0.33022922  0.33022457  0.10935230
   0.66977443  0.66976978  0.10935230
   0.66665847  0.33334053  0.10794175
   0.33332529  0.66667371  0.11244450
   0.25105631  0.25152672  0.45958582
   0.41776993  0.08274896  0.45943618
   0.24996399  0.75003501  0.45933546
   0.41659060  0.58340840  0.45949984
   0.74899777  0.25100123  0.45953837
   0.91651797  0.08348103  0.45967893
   0.74847228  0.74894269  0.45958582
   0.91725004  0.58222907  0.45943618
Direct configuration=    22
   0.66983603 -0.00000956  0.10943565
   0.33021921  0.00001073  0.10945920
   0.00000956  0.33016297  0.10943565
  -0.00001073  0.66977979  0.10945920
   0.33022957  0.33022499  0.10946343
   0.66977401  0.66976943  0.10946343
   0.66665845  0.33334055  0.10804520
   0.33332521  0.66667379  0.11258293
   0.25106005  0.25152995  0.45947312
   0.41777179  0.08274825  0.45932188
   0.24996485  0.75003415  0.45922009
   0.41658931  0.58340969  0.45938620
   0.74899604  0.25100296  0.45942516
   0.91651650  0.08348250  0.45956721
   0.74846905  0.74893895  0.45947312
   0.91725075  0.58222721  0.45932188
Direct configuration=    23
   0.66983617 -0.00001008  0.10965728
   0.33021972  0.00001053  0.10968138
   0.00001008  0.33016283  0.10965728
  -0.00001053  0.66977928  0.10968138
   0.33023027  0.33022584  0.10968571
   0.66977316  0.66976873  0.10968571
   0.66665842  0.33334058  0.10825208
   0.33332505  0.66667395  0.11285977
   0.25106754  0.25153639  0.45924771
   0.41777552  0.08274682  0.45909327
   0.24996659  0.75003241  0.45898935
   0.41658675  0.58341225  0.45915893
   0.74899259  0.25100641  0.45919873
   0.91651356  0.08348544  0.45934379
   0.74846261  0.74893146  0.45924771
   0.91725218  0.58222348  0.45909327
Direct configuration=    24
   0.66983646 -0.00001113  0.11010055
   0.33022075  0.00001012  0.11012574
   0.00001113  0.33016254  0.11010055
  -0.00001012  0.66977825  0.11012574
   0.33023167  0.33022753  0.11013025
   0.66977147  0.66976733  0.11013025
   0.66665835  0.33334065  0.10866586
   0.33332472  0.66667428  0.11341346
   0.25108252  0.25154928  0.45879689
   0.41778297  0.08274398  0.45863606
   0.24997005  0.75002895  0.45852786
   0.41658161  0.58341739  0.45870439
   0.74898568  0.25101332  0.45874588
   0.91650766  0.08349134  0.45889693
   0.74844972  0.74891648  0.45879689
   0.91725502  0.58221603  0.45863606
Direct configuration=    25
   0.66983704 -0.00001322  0.11098709
   0.33022281  0.00000931  0.11101445
   0.00001322  0.33016196  0.11098709
  -0.00000931  0.66977619  0.11101445
   0.33023447  0.33023091  0.11101935
   0.66976809  0.66976453  0.11101935
   0.66665822  0.33334078  0.10949341
   0.33332405  0.66667495  0.11452083
   0.25111247  0.25157505  0.45789525
   0.41779787  0.08273828  0.45772163
   0.24997698  0.75002202  0.45760487
   0.41657133  0.58342767  0.45779530
   0.74897187  0.25102713  0.45784017
   0.91649588  0.08350312  0.45800323
   0.74842395  0.74888653  0.45789525
   0.91726072  0.58220113  0.45772163
Direct configuration=    26
   0.66983819 -0.00001741  0.11276016
   0.33022694  0.00000769  0.11279188
   0.00001741  0.33016081  0.11276016
  -0.00000769  0.66977206  0.11279188
   0.33024006  0.33023767  0.11279753
   0.66976133  0.66975894  0.11279753
   0.66665795  0.33334105  0.11114850
   0.33332273  0.66667627  0.11673558
   0.25117237  0.25162660  0.45609197
   0.41782768  0.08272688  0.45589278
   0.24999084  0.75000816  0.45575891
   0.41655078  0.58344822  0.45597713
   0.74894424  0.25105476  0.45602875
   0.91647231  0.08352669  0.45621581
   0.74837240  0.74882663  0.45609197
   0.91727212  0.58217132  0.45589278
Direct configuration=    27
   0.66984049 -0.00002579  0.11630632
   0.33023518  0.00000445  0.11634673
   0.00002579  0.33015851  0.11630632
  -0.00000445  0.66976382  0.11634673
   0.33025126  0.33025120  0.11635391
   0.66974780  0.66974774  0.11635391
   0.66665741  0.33334159  0.11445869
   0.33332008  0.66667892  0.12116507
   0.25129218  0.25172970  0.45248542
   0.41788730  0.08270409  0.45223507
   0.25001856  0.74998044  0.45206699
   0.41650969  0.58348931  0.45234079
   0.74888898  0.25111002  0.45240592
   0.91642518  0.08357382  0.45264098
   0.74826930  0.74870682  0.45248542
   0.91729491  0.58211170  0.45223507
Direct configuration=    28
   0.66984510 -0.00004255  0.12339862
   0.33025167 -0.00000203  0.12345645
   0.00004255  0.33015390  0.12339862
   0.00000203  0.66974733  0.12345645
   0.33027365  0.33027826  0.12346666
   0.66972074  0.66972535  0.12346666
   0.66665634  0.33334266  0.12107908
   0.33331479  0.66668421  0.13002406
   0.25153179  0.25193590  0.44527231
   0.41800653  0.08265850  0.44491965
   0.25007401  0.74992499  0.44468313
   0.41642749  0.58357151  0.44506811
   0.74877847  0.25122053  0.44516026
   0.91633092  0.08366808  0.44549132
   0.74806310  0.74846721  0.44527231
   0.91734050  0.58199247  0.44491965
Direct configuration=    29
   0.66985432 -0.00007607  0.13758323
   0.33028466 -0.00001500  0.13767587
   0.00007607  0.33014468  0.13758323
   0.00001500  0.66971434  0.13767587
   0.33031843  0.33033237  0.13769215
   0.66966663  0.66968057  0.13769215
   0.66665419  0.33334481  0.13431985
   0.33330419  0.66669481  0.14774203
   0.25201101  0.25234830  0.43084609
   0.41824499  0.08256733  0.43028882
   0.25018490  0.74981410  0.42991543
   0.41626309  0.58373591  0.43052276
   0.74855744  0.25144156  0.43066894
   0.91614239  0.08385661  0.43119200
   0.74765070  0.74798799  0.43084609
   0.91743167  0.58175401  0.43028882
Direct configuration=    30
   0.66987276 -0.00014310  0.16595246
   0.33035062 -0.00004094  0.16611472
   0.00014310  0.33012624  0.16595246
   0.00004094  0.66964838  0.16611472
   0.33040798  0.33044059  0.16614315
   0.66955841  0.66959102  0.16614315
   0.66664990  0.33334910  0.16080139
   0.33328301  0.66671599  0.18317798
   0.25296946  0.25317310  0.40199365
   0.41872190  0.08238498  0.40102715
   0.25040667  0.74959233  0.40038003
   0.41593430  0.58406470  0.40143204
   0.74811538  0.25188362  0.40168629
   0.91576533  0.08423367  0.40259336
   0.74682590  0.74702954  0.40199365
   0.91761402  0.58127710  0.40102715
Direct configuration=    31
   0.66986644 -0.00012013  0.15623075
   0.33032801 -0.00003205  0.15636916
   0.00012013  0.33013256  0.15623075
   0.00003205  0.66967099  0.15636916
   0.33037729  0.33040351  0.15639342
   0.66959549  0.66962171  0.15639342
   0.66665137  0.33334763  0.15172657
   0.33329027  0.66670873  0.17103462
   0.25264101  0.25289046  0.41188094
   0.41855847  0.08244747  0.41105468
   0.25033067  0.74966833  0.41050136
   0.41604697  0.58395203  0.41140099
   0.74826686  0.25173214  0.41161821
   0.91589454  0.08410446  0.41239368
   0.74710854  0.74735799  0.41188094
   0.91755153  0.58144053  0.41105468
Direct configuration=    32
   0.66987035 -0.00013432  0.16223691
   0.33034198 -0.00003754  0.16239005
   0.00013432  0.33012865  0.16223691
   0.00003754  0.66965702  0.16239005
   0.33039625  0.33042642  0.16241689
   0.66957258  0.66960275  0.16241689
   0.66665046  0.33334854  0.15733307
   0.33328578  0.66671322  0.17853690
   0.25284393  0.25306508  0.40577249
   0.41865944  0.08240887  0.40485958
   0.25037762  0.74962138  0.40424831
   0.41597737  0.58402163  0.40524208
   0.74817327  0.25182573  0.40548218
   0.91581471  0.08418429  0.40633895
   0.74693392  0.74715507  0.40577249
   0.91759013  0.58133956  0.40485958
Direct configuration=    33
   0.66987107 -0.00013694  0.16334398
   0.33034455 -0.00003855  0.16349984
   0.00013694  0.33012793  0.16334398
   0.00003855  0.66965445  0.16349984
   0.33039975  0.33043064  0.16352715
   0.66956836  0.66959925  0.16352715
   0.66665030  0.33334870  0.15836648
   0.33328496  0.66671404  0.17991974
   0.25288133  0.25309727  0.40464656
   0.41867805  0.08240175  0.40371768
   0.25038628  0.74961272  0.40309573
   0.41596453  0.58403447  0.40410685
   0.74815602  0.25184298  0.40435117
   0.91579999  0.08419901  0.40522292
   0.74690173  0.74711767  0.40464656
   0.91759725  0.58132095  0.40371768
Direct configuration=    34
   0.66971231 -0.00026372  0.16855747
   0.33039977 -0.00014969  0.16872477
   0.00026372  0.33028669  0.16855747
   0.00014969  0.66959923  0.16872477
   0.33044904  0.33057105  0.16875134
   0.66942795  0.66954996  0.16875134
   0.66664524  0.33335376  0.16319674
   0.33327508  0.66672392  0.18637917
   0.25248074  0.25258090  0.39934387
   0.41829827  0.08259500  0.39836691
   0.25036127  0.74963773  0.39771138
   0.41602213  0.58397687  0.39877753
   0.74848564  0.25151336  0.39903331
   0.91586672  0.08413228  0.39994650
   0.74741810  0.74751826  0.39934387
   0.91740400  0.58170073  0.39836691
Direct configuration=    35
   0.66976134 -0.00022457  0.16694757
   0.33038272 -0.00011537  0.16711133
   0.00022457  0.33023766  0.16694757
   0.00011537  0.66961628  0.16711133
   0.33043382  0.33052770  0.16713813
   0.66947130  0.66956518  0.16713813
   0.66664680  0.33335220  0.16170518
   0.33327813  0.66672087  0.18438453
   0.25260444  0.25274035  0.40098131
   0.41841554  0.08253533  0.40001921
   0.25036899  0.74963001  0.39937404
   0.41600434  0.58399466  0.40042320
   0.74838386  0.25161514  0.40067544
   0.91584611  0.08415289  0.40157584
   0.74725865  0.74739456  0.40098131
   0.91746367  0.58158346  0.40001921
Direct configuration=    36
   0.66961512 -0.00032598  0.16650645
   0.33042793 -0.00020451  0.16666749
   0.00032598  0.33038388  0.16650645
   0.00020451  0.66957107  0.16666749
   0.33046596  0.33063124  0.16669037
   0.66936776  0.66953304  0.16669037
   0.66663956  0.33335944  0.16125933
   0.33327028  0.66672872  0.18378468
   0.25214782  0.25223384  0.40143036
   0.41806999  0.08270684  0.40049915
   0.25030681  0.74969219  0.39987309
   0.41610885  0.58389015  0.40089266
   0.74868821  0.25131079  0.40113428
   0.91596359  0.08403541  0.40200165
   0.74776516  0.74785118  0.40143036
   0.91729216  0.58192901  0.40049915
Direct configuration=    37
   0.66917647 -0.00063020  0.16518310
   0.33056355 -0.00047191  0.16533595
   0.00063020  0.33082253  0.16518310
   0.00047191  0.66943545  0.16533595
   0.33056239  0.33094189  0.16534708
   0.66905711  0.66943661  0.16534708
   0.66661784  0.33338116  0.15992179
   0.33324672  0.66675228  0.18198515
   0.25077797  0.25071430  0.40277750
   0.41703332  0.08322139  0.40193899
   0.25012026  0.74987874  0.40137023
   0.41642237  0.58357663  0.40230104
   0.74960125  0.25039775  0.40251080
   0.91631600  0.08368300  0.40327909
   0.74928470  0.74922103  0.40277750
   0.91677761  0.58296568  0.40193899
Direct configuration=    38
   0.66829916 -0.00123865  0.16253641
   0.33083479 -0.00100671  0.16267289
   0.00123865  0.33169984  0.16253641
   0.00100671  0.66916421  0.16267289
   0.33075524  0.33156319  0.16266050
   0.66843581  0.66924376  0.16266050
   0.66657440  0.33342460  0.15724670
   0.33319962  0.66679938  0.17838609
   0.24803825  0.24767523  0.40547178
   0.41495998  0.08425048  0.40481865
   0.24974717  0.75025183  0.40436451
   0.41704940  0.58294960  0.40511779
   0.75142735  0.24857165  0.40526383
   0.91702082  0.08297818  0.40583396
   0.75232377  0.75196075  0.40547178
   0.91574852  0.58503902  0.40481865
Direct configuration=    39
   0.66895264 -0.00078543  0.16450786
   0.33063275 -0.00060835  0.16465654
   0.00078543  0.33104636  0.16450786
   0.00060835  0.66936625  0.16465654
   0.33061159  0.33110040  0.16466166
   0.66889860  0.66938741  0.16466166
   0.66660676  0.33339224  0.15923930
   0.33323470  0.66676430  0.18106694
   0.25007899  0.24993896  0.40346488
   0.41650436  0.08348393  0.40267366
   0.25002508  0.74997392  0.40213415
   0.41658234  0.58341666  0.40301966
   0.75006714  0.24993186  0.40321317
   0.91649582  0.08350318  0.40393090
   0.75006004  0.74992001  0.40346488
   0.91651507  0.58349464  0.40267366
Direct configuration=    40
   0.66885094 -0.00082008  0.16450285
   0.33069748 -0.00064413  0.16464921
   0.00082008  0.33114806  0.16450285
   0.00064413  0.66930152  0.16464921
   0.33066229  0.33116775  0.16464772
   0.66883125  0.66933671  0.16464772
   0.66660217  0.33339683  0.15916994
   0.33323147  0.66676753  0.18098212
   0.24999378  0.24995707  0.40347013
   0.41654513  0.08345274  0.40272166
   0.24997757  0.75002143  0.40221067
   0.41662982  0.58336918  0.40305225
   0.75002467  0.24997433  0.40322998
   0.91656068  0.08343832  0.40390523
   0.75004193  0.75000522  0.40347013
   0.91654626  0.58345387  0.40272166
Direct configuration=    41
   0.66854582 -0.00092403  0.16448782
   0.33089168 -0.00075149  0.16462722
   0.00092403  0.33145318  0.16448782
   0.00075149  0.66910732  0.16462722
   0.33081440  0.33136982  0.16460590
   0.66862918  0.66918460  0.16460590
   0.66658840  0.33341060  0.15896186
   0.33322176  0.66677724  0.18072767
   0.24973814  0.25001139  0.40348589
   0.41666745  0.08335916  0.40286565
   0.24983503  0.75016397  0.40244023
   0.41677227  0.58322673  0.40315001
   0.74989726  0.25010174  0.40328040
   0.91675529  0.08324371  0.40382821
   0.74998761  0.75026086  0.40348589
   0.91663984  0.58333155  0.40286565
Direct configuration=    42
   0.66843845 -0.00096061  0.16448254
   0.33096003 -0.00078927  0.16461948
   0.00096061  0.33156055  0.16448254
   0.00078927  0.66903897  0.16461948
   0.33086793  0.33144092  0.16459119
   0.66855808  0.66913107  0.16459119
   0.66658355  0.33341545  0.15888863
   0.33321834  0.66678066  0.18063812
   0.24964818  0.25003051  0.40349144
   0.41671050  0.08332622  0.40291632
   0.24978488  0.75021412  0.40252101
   0.41682240  0.58317660  0.40318441
   0.74985242  0.25014658  0.40329814
   0.91682377  0.08317523  0.40380111
   0.74996849  0.75035082  0.40349144
   0.91667278  0.58328850  0.40291632
Direct configuration=    43
   0.66835210 -0.00096532  0.16449761
   0.33104337 -0.00080021  0.16463001
   0.00096532  0.33164690  0.16449761
   0.00080021  0.66895563  0.16463001
   0.33093014  0.33148927  0.16458755
   0.66850973  0.66906886  0.16458755
   0.66657649  0.33342251  0.15876631
   0.33321868  0.66678032  0.18050234
   0.24970467  0.25003372  0.40347919
   0.41669865  0.08334991  0.40298460
   0.24981563  0.75018337  0.40264290
   0.41678197  0.58321703  0.40322358
   0.74986354  0.25013546  0.40330857
   0.91678480  0.08321420  0.40373174
   0.74996528  0.75029433  0.40347919
   0.91664909  0.58330035  0.40298460
Direct configuration=    44
   0.66809306 -0.00097946  0.16454282
   0.33129339 -0.00083302  0.16466160
   0.00097946  0.33190594  0.16454282
   0.00083302  0.66870561  0.16466160
   0.33111675  0.33163429  0.16457662
   0.66836471  0.66888225  0.16457662
   0.66655529  0.33344371  0.15839933
   0.33321968  0.66677932  0.18009501
   0.24987416  0.25004334  0.40344244
   0.41666311  0.08342098  0.40318945
   0.24990788  0.75009112  0.40300856
   0.41666067  0.58333833  0.40334109
   0.74989691  0.25010209  0.40333984
   0.91666790  0.08333110  0.40352366
   0.74995566  0.75012484  0.40344244
   0.91657802  0.58333589  0.40318945
Direct configuration=    45
   0.66757497 -0.00100772  0.16463324
   0.33179343 -0.00089865  0.16472478
   0.00100772  0.33242403  0.16463324
   0.00089865  0.66820557  0.16472478
   0.33148999  0.33192435  0.16455476
   0.66807465  0.66850901  0.16455476
   0.66651290  0.33348610  0.15766538
   0.33322168  0.66677732  0.17928036
   0.25021312  0.25006257  0.40336894
   0.41659202  0.08356312  0.40359915
   0.25009239  0.74990661  0.40373987
   0.41641807  0.58358093  0.40357612
   0.74996365  0.25003535  0.40340238
   0.91643410  0.08356490  0.40310749
   0.74993643  0.74978588  0.40336894
   0.91643588  0.58340698  0.40359915
Direct configuration=    46
   0.66782374 -0.00099415  0.16458982
   0.33155332 -0.00086714  0.16469444
   0.00099415  0.33217526  0.16458982
   0.00086714  0.66844568  0.16469444
   0.33131077  0.33178507  0.16456525
   0.66821393  0.66868823  0.16456525
   0.66653325  0.33346575  0.15801780
   0.33322072  0.66677828  0.17967153
   0.25005036  0.25005334  0.40340423
   0.41662616  0.08349487  0.40340243
   0.25000379  0.74999521  0.40338871
   0.41653456  0.58346444  0.40346327
   0.74993160  0.25006740  0.40337235
   0.91654637  0.08345263  0.40330733
   0.74994566  0.74994864  0.40340423
   0.91650413  0.58337284  0.40340243
Direct configuration=    47
   0.66810988 -0.00082745  0.16464938
   0.33146833 -0.00072182  0.16474437
   0.00082745  0.33188912  0.16464938
   0.00072182  0.66853067  0.16474437
   0.33122582  0.33156006  0.16457836
   0.66843894  0.66877318  0.16457836
   0.66653068  0.33346832  0.15773425
   0.33324816  0.66675084  0.17940695
   0.25002633  0.25008700  0.40337739
   0.41661263  0.08346219  0.40350646
   0.24995171  0.75004729  0.40358085
   0.41657037  0.58342863  0.40352277
   0.74993074  0.25006826  0.40338567