    2    2    1    1
  0.3953030E+02  0.2467000E-09  0.2467000E-09  0.1500000E-08  0.5000000E-15
  1.000000000000000E-004
  CAR 
 BS                                      
      8    384     48
 
  0.0000000E+00  0.0000000E+00  0.0000000E+00  0.2604167E-02
      1        -21.757174   1.000000
      2         -9.860665   1.000000
      3         -5.282670   1.000000
      4         -5.282628   1.000000
      5          1.007446   0.000000
      6          1.909001   0.000000
      7          2.462819   0.000000
      8          4.324866   0.000000
      9          5.111808   0.000000
     10          6.062936   0.000000
     11          6.062994   0.000000
     12          8.241691   0.000000
     13          9.161153   0.000000
     14          9.349198   0.000000
     15         10.217807   0.000000
     16         13.559784   0.000000
     17         15.078668   0.000000
     18         20.126349   0.000000
     19         20.225898   0.000000
     20         22.220828   0.000000
     21         25.917932   0.000000
     22         25.917943   0.000000
     23         27.121886   0.000000
     24         29.332448   0.000000
     25         29.332462   0.000000
     26         30.718202   0.000000
     27         31.456103   0.000000
     28         32.945650   0.000000
     29         32.945651   0.000000
     30         33.451829   0.000000
     31         33.451838   0.000000
     32         33.939834   0.000000
     33         34.195912   0.000000
     34         34.478996   0.000000
     35         35.121846   0.000000
     36         35.121866   0.000000
     37         35.229457   0.000000
     38         35.229491   0.000000
     39         35.283854   0.000000
     40         35.283883   0.000000
     41         35.296499   0.000000
     42         35.406975   0.000000
     43         35.407011   0.000000
     44         35.416958   0.000000
     45         35.655263   0.000000
     46         36.725002   0.000000
     47         37.330599   0.000000
     48         37.471104   0.000000
 
  0.2622047E-02  0.2622047E-02  0.0000000E+00  0.2604167E-02
      1        -21.756682   1.000000
      2         -9.860078   1.000000
      3         -5.284660   1.000000
      4         -5.283741   1.000000
      5          1.008108   0.000000
      6          1.909672   0.000000
      7          2.463493   0.000000
      8          4.325534   0.000000
      9          5.112453   0.000000
     10          6.063898   0.000000
     11          6.065770   0.000000
     12          8.242348   0.000000
     13          9.159433   0.000000
     14          9.349869   0.000000
     15         10.218665   0.000000
     16         13.560411   0.000000
     17         15.079330   0.000000
     18         20.126793   0.000000
     19         20.227528   0.000000
     20         22.221470   0.000000
     21         25.912225   0.000000
     22         25.913517   0.000000
     23         27.116873   0.000000
     24         29.334263   0.000000
     25         29.339354   0.000000
     26         30.718812   0.000000
     27         31.467462   0.000000
     28         32.874964   0.000000
     29         32.906335   0.000000
     30         33.460849   0.000000
     31         33.486489   0.000000
     32         33.973893   0.000000
     33         34.159206   0.000000
     34         34.495134   0.000000
     35         35.028286   0.000000
     36         35.037602   0.000000
     37         35.087694   0.000000
     38         35.088546   0.000000
     39         35.208248   0.000000
     40         35.325761   0.000000
     41         35.358007   0.000000
     42         35.473153   0.000000
     43         35.571488   0.000000
     44         35.589333   0.000000
     45         35.737353   0.000000
     46         36.694356   0.000000
     47         37.290710   0.000000
     48         37.337087   0.000000
 
  0.5244094E-02  0.5244094E-02  0.0000000E+00  0.2604167E-02
      1        -21.755219   1.000000
      2         -9.858332   1.000000
      3         -5.290772   1.000000
      4         -5.286976   1.000000
      5          1.010092   0.000000
      6          1.911673   0.000000
      7          2.465513   0.000000
      8          4.327523   0.000000
      9          5.114388   0.000000
     10          6.064889   0.000000
     11          6.072185   0.000000
     12          8.244278   0.000000
     13          9.154273   0.000000
     14          9.351879   0.000000
     15         10.221239   0.000000
     16         13.562199   0.000000
     17         15.081304   0.000000
     18         20.127912   0.000000
     19         20.232417   0.000000
     20         22.223376   0.000000
     21         25.894899   0.000000
     22         25.900325   0.000000
     23         27.101971   0.000000
     24         29.339472   0.000000
     25         29.359862   0.000000
     26         30.720609   0.000000
     27         31.501272   0.000000
     28         32.712938   0.000000
     29         32.801640   0.000000
     30         33.478060   0.000000
     31         33.541789   0.000000
     32         34.056890   0.000000
     33         34.069790   0.000000
     34         34.518700   0.000000
     35         34.806044   0.000000
     36         34.807406   0.000000
     37         34.927046   0.000000
     38         35.035526   0.000000
     39         35.191976   0.000000
     40         35.331927   0.000000
     41         35.394798   0.000000
     42         35.615071   0.000000
     43         35.813428   0.000000
     44         35.827308   0.000000
     45         35.923760   0.000000
     46         36.611274   0.000000
     47         37.132887   0.000000
     48         37.168829   0.000000
 
  0.7866142E-02  0.7866142E-02  0.0000000E+00  0.2604167E-02
      1        -21.752786   1.000000
      2         -9.855444   1.000000
      3         -5.301137   1.000000
      4         -5.292381   1.000000
      5          1.013397   0.000000
      6          1.915000   0.000000
      7          2.468879   0.000000
      8          4.330824   0.000000
      9          5.117611   0.000000
     10          6.066415   0.000000
     11          6.082846   0.000000
     12          8.247465   0.000000
     13          9.144551   0.000000
     14          9.355227   0.000000
     15         10.225484   0.000000
     16         13.565116   0.000000
     17         15.084589   0.000000
     18         20.129647   0.000000
     19         20.240506   0.000000
     20         22.226548   0.000000
     21         25.865462   0.000000
     22         25.878689   0.000000
     23         27.078815   0.000000
     24         29.347590   0.000000
     25         29.393647   0.000000
     26         30.723590   0.000000
     27         31.556853   0.000000
     28         32.513831   0.000000
     29         32.654441   0.000000
     30         33.491482   0.000000
     31         33.579996   0.000000
     32         33.906457   0.000000
     33         34.185910   0.000000
     34         34.458512   0.000000
     35         34.567655   0.000000
     36         34.605288   0.000000
     37         34.874085   0.000000
     38         34.992800   0.000000
     39         35.191719   0.000000
     40         35.336056   0.000000
     41         35.416654   0.000000
     42         35.777141   0.000000
     43         36.061614   0.000000
     44         36.065483   0.000000
     45         36.143107   0.000000
     46         36.499033   0.000000
     47         36.917569   0.000000
     48         36.994848   0.000000
 
  0.1048819E-01  0.1048819E-01  0.0000000E+00  0.2604167E-02
      1        -21.749367   1.000000
      2         -9.851351   1.000000
      3         -5.315283   1.000000
      4         -5.300004   1.000000
      5          1.018026   0.000000
      6          1.919680   0.000000
      7          2.473592   0.000000
      8          4.335480   0.000000
      9          5.122126   0.000000
     10          6.069274   0.000000
     11          6.097792   0.000000
     12          8.252008   0.000000
     13          9.133110   0.000000
     14          9.359915   0.000000
     15         10.231506   0.000000
     16         13.569372   0.000000
     17         15.089192   0.000000
     18         20.132414   0.000000
     19         20.251832   0.000000
     20         22.230996   0.000000
     21         25.823253   0.000000
     22         25.849299   0.000000
     23         27.050431   0.000000
     24         29.358055   0.000000
     25         29.440237   0.000000
     26         30.727773   0.000000
     27         31.633165   0.000000
     28         32.299160   0.000000
     29         32.481365   0.000000
     30         33.494939   0.000000
     31         33.602393   0.000000
     32         33.725714   0.000000
     33         34.167901   0.000000
     34         34.292192   0.000000
     35         34.325132   0.000000
     36         34.569744   0.000000
     37         34.945710   0.000000
     38         34.959094   0.000000
     39         35.195106   0.000000
     40         35.340878   0.000000
     41         35.440470   0.000000
     42         35.915784   0.000000
     43         36.286929   0.000000
     44         36.299199   0.000000
     45         36.363579   0.000000
     46         36.400297   0.000000
     47         36.713157   0.000000
     48         36.816979   0.000000
 
  0.1311024E-01  0.1311024E-01  0.0000000E+00  0.2604167E-02
      1        -21.744986   1.000000
      2         -9.846142   1.000000
      3         -5.333294   1.000000
      4         -5.309676   1.000000
      5          1.023977   0.000000
      6          1.925672   0.000000
      7          2.479652   0.000000
      8          4.341426   0.000000
      9          5.127930   0.000000
     10          6.072305   0.000000
     11          6.116812   0.000000
     12          8.257755   0.000000
     13          9.117708   0.000000
     14          9.365942   0.000000
     15         10.239281   0.000000
     16         13.574639   0.000000
     17         15.095111   0.000000
     18         20.135521   0.000000
     19         20.266373   0.000000
     20         22.236722   0.000000
     21         25.767533   0.000000
     22         25.812516   0.000000
     23         27.018611   0.000000
     24         29.369852   0.000000
     25         29.498799   0.000000
     26         30.733152   0.000000
     27         31.728745   0.000000
     28         32.076876   0.000000
     29         32.292031   0.000000
     30         33.482578   0.000000
     31         33.526505   0.000000
     32         33.614364   0.000000
     33         33.978805   0.000000
     34         34.082523   0.000000
     35         34.097132   0.000000
     36         34.721518   0.000000
     37         34.927525   0.000000
     38         35.054787   0.000000
     39         35.200395   0.000000
     40         35.346607   0.000000
     41         35.473765   0.000000
     42         35.946840   0.000000
     43         36.389117   0.000000
     44         36.396201   0.000000
     45         36.402642   0.000000
     46         36.509705   0.000000
     47         36.660687   0.000000
     48         36.732978   0.000000
 
  0.1573228E-01  0.1573228E-01  0.0000000E+00  0.2604167E-02
      1        -21.739622   1.000000
      2         -9.839736   1.000000
      3         -5.355341   1.000000
      4         -5.321430   1.000000
      5          1.031251   0.000000
      6          1.933013   0.000000
      7          2.487058   0.000000
      8          4.348721   0.000000
      9          5.135025   0.000000
     10          6.076110   0.000000
     11          6.139982   0.000000
     12          8.264842   0.000000
     13          9.099516   0.000000
     14          9.373307   0.000000
     15         10.248830   0.000000
     16         13.581210   0.000000
     17         15.102343   0.000000
     18         20.139544   0.000000
     19         20.284102   0.000000
     20         22.243725   0.000000
     21         25.697872   0.000000
     22         25.769324   0.000000
     23         26.986921   0.000000
     24         29.382522   0.000000
     25         29.568591   0.000000
     26         30.739713   0.000000
     27         31.842015   0.000000
     28         31.850515   0.000000
     29         32.092210   0.000000
     30         33.316305   0.000000
     31         33.441717   0.000000
     32         33.607867   0.000000
     33         33.765929   0.000000
     34         33.840813   0.000000
     35         33.915221   0.000000
     36         34.891086   0.000000
     37         34.913570   0.000000
     38         35.155682   0.000000
     39         35.207161   0.000000
     40         35.352804   0.000000
     41         35.519739   0.000000
     42         35.853126   0.000000
     43         36.221216   0.000000
     44         36.261141   0.000000
     45         36.436481   0.000000
     46         36.526315   0.000000
     47         36.876580   0.000000
     48         36.888780   0.000000
 
  0.1835433E-01  0.1835433E-01  0.0000000E+00  0.2604167E-02
      1        -21.733287   1.000000
      2         -9.832175   1.000000
      3         -5.381241   1.000000
      4         -5.335273   1.000000
      5          1.039849   0.000000
      6          1.941684   0.000000
      7          2.495812   0.000000
      8          4.357336   0.000000
      9          5.143410   0.000000
     10          6.080504   0.000000
     11          6.167114   0.000000
     12          8.273203   0.000000
     13          9.077341   0.000000
     14          9.382009   0.000000
     15         10.260176   0.000000
     16         13.588941   0.000000
     17         15.110888   0.000000
     18         20.144171   0.000000
     19         20.304969   0.000000
     20         22.252010   0.000000
     21         25.614113   0.000000
     22         25.720279   0.000000
     23         26.957307   0.000000
     24         29.395235   0.000000
     25         29.648710   0.000000
     26         30.747449   0.000000
     27         31.622146   0.000000
     28         31.885643   0.000000
     29         31.971133   0.000000
     30         33.099450   0.000000
     31         33.347018   0.000000
     32         33.474188   0.000000
     33         33.600503   0.000000
     34         33.670561   0.000000
     35         33.779929   0.000000
     36         34.841900   0.000000
     37         35.099643   0.000000
     38         35.215101   0.000000
     39         35.228073   0.000000
     40         35.357225   0.000000
     41         35.564416   0.000000
     42         35.721681   0.000000
     43         36.041514   0.000000
     44         36.053219   0.000000
     45         36.331924   0.000000
     46         36.685654   0.000000
     47         37.109360   0.000000
     48         37.128839   0.000000
 
  0.2097638E-01  0.2097638E-01  0.0000000E+00  0.2604167E-02
      1        -21.725977   1.000000
      2         -9.823452   1.000000
      3         -5.411026   1.000000
      4         -5.351327   1.000000
      5          1.049769   0.000000
      6          1.951689   0.000000
      7          2.505912   0.000000
      8          4.367276   0.000000
      9          5.153085   0.000000
     10          6.085580   0.000000
     11          6.198055   0.000000
     12          8.282848   0.000000
     13          9.051768   0.000000
     14          9.392047   0.000000
     15         10.273352   0.000000
     16         13.597853   0.000000
     17         15.120742   0.000000
     18         20.149413   0.000000
     19         20.328913   0.000000
     20         22.261577   0.000000
     21         25.516704   0.000000
     22         25.666268   0.000000
     23         26.931443   0.000000
     24         29.407633   0.000000
     25         29.738282   0.000000
     26         30.756326   0.000000
     27         31.392637   0.000000
     28         31.674428   0.000000
     29         32.114201   0.000000
     30         32.878612   0.000000
     31         33.187529   0.000000
     32         33.244798   0.000000
     33         33.362082   0.000000
     34         33.668084   0.000000
     35         33.705269   0.000000
     36         34.771230   0.000000
     37         35.223777   0.000000
     38         35.239458   0.000000
     39         35.269745   0.000000
     40         35.350883   0.000000
     41         35.565125   0.000000
     42         35.596151   0.000000
     43         35.832172   0.000000
     44         35.922294   0.000000
     45         36.299312   0.000000
     46         36.836793   0.000000
     47         37.323798   0.000000
     48         37.385196   0.000000
 
  0.2359843E-01  0.2359843E-01  0.0000000E+00  0.2604167E-02
      1        -21.717693   1.000000
      2         -9.813567   1.000000
      3         -5.444525   1.000000
      4         -5.369479   1.000000
      5          1.061011   0.000000
      6          1.963028   0.000000
      7          2.517359   0.000000
      8          4.378540   0.000000
      9          5.164050   0.000000
     10          6.091368   0.000000
     11          6.232749   0.000000
     12          8.293777   0.000000
     13          9.022884   0.000000
     14          9.403419   0.000000
     15         10.288394   0.000000
     16         13.607944   0.000000
     17         15.131906   0.000000
     18         20.155228   0.000000
     19         20.355887   0.000000
     20         22.272432   0.000000
     21         25.406558   0.000000
     22         25.608051   0.000000
     23         26.910296   0.000000
     24         29.419360   0.000000
     25         29.836430   0.000000
     26         30.766285   0.000000
     27         31.162756   0.000000
     28         31.460272   0.000000
     29         32.268966   0.000000
     30         32.655444   0.000000
     31         32.987446   0.000000
     32         33.005886   0.000000
     33         33.126367   0.000000
     34         33.668156   0.000000
     35         33.674549   0.000000
     36         34.671416   0.000000
     37         35.231792   0.000000
     38         35.235726   0.000000
     39         35.279770   0.000000
     40         35.355242   0.000000
     41         35.494173   0.000000
     42         35.502086   0.000000
     43         35.608858   0.000000
     44         35.940385   0.000000
     45         36.365120   0.000000
     46         36.959997   0.000000
     47         37.471810   0.000000
     48         37.605453   0.000000
 
  0.2622047E-01  0.2622047E-01  0.0000000E+00  0.2604167E-02
      1        -21.708445   1.000000
      2         -9.802575   1.000000
      3         -5.481667   1.000000
      4         -5.389885   1.000000
      5          1.073576   0.000000
      6          1.975675   0.000000
      7          2.530152   0.000000
      8          4.391092   0.000000
      9          5.176304   0.000000
     10          6.097841   0.000000
     11          6.270850   0.000000
     12          8.305902   0.000000
     13          8.990641   0.000000
     14          9.416123   0.000000
     15         10.305334   0.000000
     16         13.619025   0.000000
     17         15.144373   0.000000
     18         20.161189   0.000000
     19         20.385748   0.000000
     20         22.284574   0.000000
     21         25.284930   0.000000
     22         25.546318   0.000000
     23         26.893814   0.000000
     24         29.430008   0.000000
     25         29.942293   0.000000
     26         30.777133   0.000000
     27         30.932884   0.000000
     28         31.244368   0.000000
     29         32.431022   0.000000
     30         32.431210   0.000000
     31         32.765502   0.000000
     32         32.769431   0.000000
     33         32.896210   0.000000
     34         33.645897   0.000000
     35         33.682458   0.000000
     36         34.540191   0.000000
     37         35.087861   0.000000
     38         35.228194   0.000000
     39         35.229686   0.000000
     40         35.380692   0.000000
     41         35.395442   0.000000
     42         35.421703   0.000000
     43         35.436403   0.000000
     44         36.085491   0.000000
     45         36.498753   0.000000
     46         37.046465   0.000000
     47         37.522820   0.000000
     48         37.766203   0.000000
 
  0.2884252E-01  0.2884252E-01  0.0000000E+00  0.2604167E-02
      1        -21.698214   1.000000
      2         -9.790370   1.000000
      3         -5.522349   1.000000
      4         -5.412055   1.000000
      5          1.087465   0.000000
      6          1.989680   0.000000
      7          2.544293   0.000000
      8          4.405003   0.000000
      9          5.189847   0.000000
     10          6.105040   0.000000
     11          6.312751   0.000000
     12          8.319392   0.000000
     13          8.954925   0.000000
     14          9.430160   0.000000
     15         10.324131   0.000000
     16         13.631454   0.000000
     17         15.158148   0.000000
     18         20.167963   0.000000
     19         20.418467   0.000000
     20         22.298019   0.000000
     21         25.153386   0.000000
     22         25.481838   0.000000
     23         26.882924   0.000000
     24         29.439505   0.000000
     25         30.055089   0.000000
     26         30.703492   0.000000
     27         30.787990   0.000000
     28         31.028577   0.000000
     29         32.206033   0.000000
     30         32.525256   0.000000
     31         32.543812   0.000000
     32         32.560080   0.000000
     33         32.711264   0.000000
     34         33.627800   0.000000
     35         33.690801   0.000000
     36         34.381968   0.000000
     37         34.894629   0.000000
     38         35.097741   0.000000
     39         35.118608   0.000000
     40         35.292234   0.000000
     41         35.376016   0.000000
     42         35.400130   0.000000
     43         35.420705   0.000000
     44         36.285601   0.000000
     45         36.664998   0.000000
     46         37.097001   0.000000
     47         37.546102   0.000000
     48         37.802473   0.000000
 
  0.3146457E-01  0.3146457E-01  0.0000000E+00  0.2604167E-02
      1        -21.687010   1.000000
      2         -9.777007   1.000000
      3         -5.566434   1.000000
      4         -5.436411   1.000000
      5          1.102676   0.000000
      6          2.005018   0.000000
      7          2.559780   0.000000
      8          4.420238   0.000000
      9          5.204678   0.000000
     10          6.113085   0.000000
     11          6.357833   0.000000
     12          8.334165   0.000000
     13          8.916297   0.000000
     14          9.445529   0.000000
     15         10.345021   0.000000
     16         13.645051   0.000000
     17         15.173226   0.000000
     18         20.175113   0.000000
     19         20.454098   0.000000
     20         22.312768   0.000000
     21         25.013345   0.000000
     22         25.414959   0.000000
     23         26.876694   0.000000
     24         29.447563   0.000000
     25         30.173999   0.000000
     26         30.474545   0.000000
     27         30.776394   0.000000
     28         30.835612   0.000000
     29         31.981105   0.000000
     30         32.285639   0.000000
     31         32.314745   0.000000
     32         32.405516   0.000000
     33         32.820520   0.000000
     34         33.607840   0.000000
     35         33.698109   0.000000
     36         34.204385   0.000000
     37         34.686730   0.000000
     38         34.904185   0.000000
     39         34.934680   0.000000
     40         35.294223   0.000000
     41         35.350611   0.000000
     42         35.417724   0.000000
     43         35.427918   0.000000
     44         36.505726   0.000000
     45         36.844838   0.000000
     46         37.116856   0.000000
     47         37.563271   0.000000
     48         37.811369   0.000000
 
  0.3408661E-01  0.3408661E-01  0.0000000E+00  0.2604167E-02
      1        -21.674833   1.000000
      2         -9.762486   1.000000
      3         -5.613834   1.000000
      4         -5.462783   1.000000
      5          1.119211   0.000000
      6          2.021689   0.000000
      7          2.576615   0.000000
      8          4.436798   0.000000
      9          5.220802   0.000000
     10          6.121816   0.000000
     11          6.406055   0.000000
     12          8.350219   0.000000
     13          8.874512   0.000000
     14          9.462225   0.000000
     15         10.367966   0.000000
     16         13.659813   0.000000
     17         15.189606   0.000000
     18         20.182567   0.000000
     19         20.492463   0.000000
     20         22.328834   0.000000
     21         24.866385   0.000000
     22         25.346275   0.000000
     23         26.874871   0.000000
     24         29.453774   0.000000
     25         30.246294   0.000000
     26         30.298297   0.000000
     27         30.584000   0.000000
     28         30.824375   0.000000
     29         31.756569   0.000000
     30         32.046933   0.000000
     31         32.084254   0.000000
     32         32.184069   0.000000
     33         33.006450   0.000000
     34         33.581466   0.000000
     35         33.702440   0.000000
     36         34.014074   0.000000
     37         34.475970   0.000000
     38         34.680260   0.000000
     39         34.766269   0.000000
     40         35.308159   0.000000
     41         35.339373   0.000000
     42         35.435374   0.000000
     43         35.441716   0.000000
     44         36.732115   0.000000
     45         37.027897   0.000000
     46         37.110080   0.000000
     47         37.578137   0.000000
     48         37.811897   0.000000
 
  0.3670866E-01  0.3670866E-01  0.0000000E+00  0.2604167E-02
      1        -21.661683   1.000000
      2         -9.746808   1.000000
      3         -5.664349   1.000000
      4         -5.491059   1.000000
      5          1.137070   0.000000
      6          2.039692   0.000000
      7          2.594798   0.000000
      8          4.454681   0.000000
      9          5.238215   0.000000
     10          6.131329   0.000000
     11          6.457277   0.000000
     12          8.367553   0.000000
     13          8.829649   0.000000
     14          9.480250   0.000000
     15         10.393035   0.000000
     16         13.675732   0.000000
     17         15.207286   0.000000
     18         20.190208   0.000000
     19         20.533460   0.000000
     20         22.346223   0.000000
     21         24.713864   0.000000
     22         25.276222   0.000000
     23         26.877017   0.000000
     24         29.457724   0.000000
     25         30.018930   0.000000
     26         30.367226   0.000000
     27         30.427244   0.000000
     28         30.838834   0.000000
     29         31.532739   0.000000
     30         31.809297   0.000000
     31         31.853390   0.000000
     32         31.961205   0.000000
     33         33.202718   0.000000
     34         33.543672   0.000000
     35         33.699017   0.000000
     36         33.815829   0.000000
     37         34.271058   0.000000
     38         34.455910   0.000000
     39         34.604662   0.000000
     40         35.325558   0.000000
     41         35.337921   0.000000
     42         35.453726   0.000000
     43         35.458135   0.000000
     44         36.956806   0.000000
     45         37.078028   0.000000
     46         37.207353   0.000000
     47         37.590731   0.000000
     48         37.799608   0.000000
 
  0.3933071E-01  0.3933071E-01  0.0000000E+00  0.2604167E-02
      1        -21.647562   1.000000
      2         -9.729974   1.000000
      3         -5.717958   1.000000
      4         -5.521485   1.000000
      5          1.156251   0.000000
      6          2.059027   0.000000
      7          2.614327   0.000000
      8          4.473886   0.000000
      9          5.256916   0.000000
     10          6.141649   0.000000
     11          6.511100   0.000000
     12          8.386162   0.000000
     13          8.781604   0.000000
     14          9.499598   0.000000
     15         10.420239   0.000000
     16         13.692796   0.000000
     17         15.226260   0.000000
     18         20.197904   0.000000
     19         20.576896   0.000000
     20         22.364941   0.000000
     21         24.557021   0.000000
     22         25.205146   0.000000
     23         26.882706   0.000000
     24         29.458811   0.000000
     25         29.792447   0.000000
     26         30.149512   0.000000
     27         30.560052   0.000000
     28         30.855690   0.000000
     29         31.309924   0.000000
     30         31.572795   0.000000
     31         31.622711   0.000000
     32         31.741015   0.000000
     33         33.404038   0.000000
     34         33.488307   0.000000
     35         33.612842   0.000000
     36         33.674072   0.000000
     37         34.087382   0.000000
     38         34.233466   0.000000
     39         34.458606   0.000000
     40         35.343331   0.000000
     41         35.345164   0.000000
     42         35.473011   0.000000
     43         35.476024   0.000000
     44         37.020427   0.000000
     45         37.169664   0.000000
     46         37.377375   0.000000
     47         37.598650   0.000000
     48         37.749635   0.000000
 
  0.4195276E-01  0.4195276E-01  0.0000000E+00  0.2604167E-02
      1        -21.632469   1.000000
      2         -9.711986   1.000000
      3         -5.774629   1.000000
      4         -5.553796   1.000000
      5          1.176757   0.000000
      6          2.079695   0.000000
      7          2.635204   0.000000
      8          4.494413   0.000000