   16   16    1    1
  0.2012733E+02  0.4979000E-09  0.4979000E-09  0.1500000E-08  0.5000000E-15
  1.000000000000000E-004
  CAR 
 SC                                      
     56     75     48
 
  0.0000000E+00  0.0000000E+00  0.0000000E+00  0.1371742E-02
      1        -19.768187   1.000000
      2        -15.896962   1.000000
      3        -14.656000   1.000000
      4        -14.651412   1.000000
      5        -14.651382   1.000000
      6        -13.528268   1.000000
      7        -13.528216   1.000000
      8        -13.525750   1.000000
      9        -11.706536   1.000000
     10        -11.521227   1.000000
     11        -11.521208   1.000000
     12         -9.320537   1.000000
     13         -9.320516   1.000000
     14         -8.083724   1.000000
     15         -7.323389   1.000000
     16         -6.805843   1.000000
     17         -6.805814   1.000000
     18         -6.805345   1.000000
     19         -6.548052   1.000000
     20         -3.516951   1.000000
     21         -3.516834   1.000000
     22         -2.854951   1.000000
     23         -2.821327   1.000000
     24         -2.821302   1.000000
     25         -1.529825   1.000000
     26         -1.529820   1.000000
     27         -0.368463   0.931719
     28         -0.368446   0.931689
     29         -0.236091   0.350751
     30          0.949595   0.000000
     31          0.949614   0.000000
     32          1.127731   0.000000
     33          1.127761   0.000000
     34          1.130628   0.000000
     35          1.762993   0.000000
     36          1.762995   0.000000
     37          2.991819   0.000000
     38          3.597600   0.000000
     39          4.495679   0.000000
     40          4.814110   0.000000
     41          6.614852   0.000000
     42          6.617710   0.000000
     43          6.617732   0.000000
     44          7.072380   0.000000
     45          7.662172   0.000000
     46          7.662303   0.000000
     47          7.678923   0.000000
     48          8.405349   0.000000
 
  0.3703704E-01  0.9414700E-18  0.0000000E+00  0.8230453E-02
      1        -19.760226   1.000000
      2        -15.890564   1.000000
      3        -14.775927   1.000000
      4        -14.682528   1.000000
      5        -14.679646   1.000000
      6        -13.486881   1.000000
      7        -13.485369   1.000000
      8        -13.392563   1.000000
      9        -11.871678   1.000000
     10        -11.527888   1.000000
     11        -11.360648   1.000000
     12         -9.334470   1.000000
     13         -9.303637   1.000000
     14         -8.073511   1.000000
     15         -7.290773   1.000000
     16         -6.831052   1.000000
     17         -6.830727   1.000000
     18         -6.797805   1.000000
     19         -6.538316   1.000000
     20         -3.550616   1.000000
     21         -3.534250   1.000000
     22         -2.892798   1.000000
     23         -2.843394   1.000000
     24         -2.828075   1.000000
     25         -1.626473   1.000000
     26         -1.614119   1.000000
     27         -0.563967   0.999989
     28         -0.339787   0.860636
     29         -0.031586   0.000527
     30          0.915875   0.000000
     31          0.951444   0.000000
     32          1.147257   0.000000
     33          1.158388   0.000000
     34          1.196352   0.000000
     35          1.839482   0.000000
     36          1.860630   0.000000
     37          3.004670   0.000000
     38          3.610663   0.000000
     39          4.525293   0.000000
     40          4.826669   0.000000
     41          6.621080   0.000000
     42          6.653602   0.000000
     43          6.655447   0.000000
     44          7.081134   0.000000
     45          7.659287   0.000000
     46          7.695483   0.000000
     47          7.696731   0.000000
     48          8.342974   0.000000
 
  0.7407407E-01  0.1882940E-17  0.0000000E+00  0.8230453E-02
      1        -19.736300   1.000000
      2        -15.871402   1.000000
      3        -15.047612   1.000000
      4        -14.756321   1.000000
      5        -14.753699   1.000000
      6        -13.373609   1.000000
      7        -13.372369   1.000000
      8        -13.085265   1.000000
      9        -12.105146   1.000000
     10        -11.547064   1.000000
     11        -11.142613   1.000000
     12         -9.369687   1.000000
     13         -9.253875   1.000000
     14         -8.043054   1.000000
     15         -7.198277   1.000000
     16         -6.905554   1.000000
     17         -6.905226   1.000000
     18         -6.774228   1.000000
     19         -6.509097   1.000000
     20         -3.649957   1.000000
     21         -3.585539   1.000000
     22         -3.039723   1.000000
     23         -2.866071   1.000000
     24         -2.848147   1.000000
     25         -1.866283   1.000000
     26         -1.828215   1.000000
     27         -0.832116   1.000000
     28         -0.311118   0.751032
     29          0.218192   0.000000
     30          0.881652   0.000000
     31          1.001143   0.000000
     32          1.204064   0.000000
     33          1.239883   0.000000
     34          1.380011   0.000000
     35          2.041392   0.000000
     36          2.096949   0.000000
     37          3.044233   0.000000
     38          3.649463   0.000000
     39          4.611184   0.000000
     40          4.865485   0.000000
     41          6.634058   0.000000
     42          6.765705   0.000000
     43          6.767568   0.000000
     44          7.107219   0.000000
     45          7.663128   0.000000
     46          7.728383   0.000000
     47          7.799508   0.000000
     48          8.156257   0.000000
 
  0.1111111E+00 -0.5467310E-17  0.0000000E+00  0.8230453E-02
      1        -19.696424   1.000000
      2        -15.839609   1.000000
      3        -15.366222   1.000000
      4        -14.855459   1.000000
      5        -14.853133   1.000000
      6        -13.209132   1.000000
      7        -13.208175   1.000000
      8        -12.707515   1.000000
      9        -12.343355   1.000000
     10        -11.576650   1.000000
     11        -10.936428   1.000000
     12         -9.408916   1.000000
     13         -9.173768   1.000000
     14         -7.993162   1.000000
     15         -7.059639   1.000000
     16         -7.026387   1.000000
     17         -7.026196   1.000000
     18         -6.735022   1.000000
     19         -6.460504   1.000000
     20         -3.811839   1.000000
     21         -3.668731   1.000000
     22         -3.263560   1.000000
     23         -2.895922   1.000000
     24         -2.880612   1.000000
     25         -2.176051   1.000000
     26         -2.107280   1.000000
     27         -1.137817   1.000000
     28         -0.345465   0.877682
     29          0.365684   0.000000
     30          0.966211   0.000000
     31          1.120141   0.000000
     32          1.303489   0.000000
     33          1.383871   0.000000
     34          1.656877   0.000000
     35          2.323139   0.000000
     36          2.393850   0.000000
     37          3.114194   0.000000
     38          3.713116   0.000000
     39          4.742336   0.000000
     40          4.935964   0.000000
     41          6.655518   0.000000
     42          6.948894   0.000000
     43          6.950843   0.000000
     44          7.148071   0.000000
     45          7.671254   0.000000
     46          7.732550   0.000000
     47          7.898649   0.000000
     48          7.968682   0.000000
 
  0.1481481E+00 -0.4498500E-17  0.0000000E+00  0.8230453E-02
      1        -19.640638   1.000000
      2        -15.795837   1.000000
      3        -15.694590   1.000000
      4        -14.963833   1.000000
      5        -14.961760   1.000000
      6        -13.010139   1.000000
      7        -13.009418   1.000000
      8        -12.580965   1.000000
      9        -12.295891   1.000000
     10        -11.613728   1.000000
     11        -10.758771   1.000000
     12         -9.428671   1.000000
     13         -9.066949   1.000000
     14         -7.924411   1.000000
     15         -7.189539   1.000000
     16         -7.189139   1.000000
     17         -6.891569   1.000000
     18         -6.680372   1.000000
     19         -6.392769   1.000000
     20         -4.032090   1.000000
     21         -3.780304   1.000000
     22         -3.535767   1.000000
     23         -2.934415   1.000000
     24         -2.926068   1.000000
     25         -2.511959   1.000000
     26         -2.407580   1.000000
     27         -1.471873   1.000000
     28         -0.435955   0.992721
     29          0.366923   0.000000
     30          1.175121   0.000000
     31          1.260416   0.000000
     32          1.472823   0.000000
     33          1.616718   0.000000
     34          2.002359   0.000000
     35          2.653965   0.000000
     36          2.701594   0.000000
     37          3.223607   0.000000
     38          3.801232   0.000000
     39          4.891494   0.000000
     40          5.055367   0.000000
     41          6.684893   0.000000
     42          7.173345   0.000000
     43          7.200305   0.000000
     44          7.204922   0.000000
     45          7.426927   0.000000
     46          7.697593   0.000000
     47          7.882458   0.000000
     48          8.244764   0.000000
 
  0.1851852E+00 -0.1022536E-16  0.0000000E+00  0.8230453E-02
      1        -19.568959   1.000000
      2        -16.021912   1.000000
      3        -15.738387   1.000000
      4        -15.071703   1.000000
      5        -15.069838   1.000000
      6        -12.815551   1.000000
      7        -12.787153   1.000000
      8        -12.785863   1.000000
      9        -11.864311   1.000000
     10        -11.655182   1.000000
     11        -10.626804   1.000000
     12         -9.403790   1.000000
     13         -8.937631   1.000000
     14         -7.837011   1.000000
     15         -7.388648   1.000000
     16         -7.388235   1.000000
     17         -6.712649   1.000000
     18         -6.610484   1.000000
     19         -6.306254   1.000000
     20         -4.303969   1.000000
     21         -3.916079   1.000000
     22         -3.835484   1.000000
     23         -3.007122   1.000000
     24         -2.981247   1.000000
     25         -2.828205   1.000000
     26         -2.702358   1.000000
     27         -1.820372   1.000000
     28         -0.552810   0.999979
     29          0.306900   0.000000
     30          1.366799   0.000000
     31          1.397736   0.000000
     32          1.752857   0.000000
     33          1.924992   0.000000
     34          2.396487   0.000000
     35          2.980727   0.000000
     36          3.015699   0.000000
     37          3.390276   0.000000
     38          3.914804   0.000000
     39          5.028506   0.000000
     40          5.238495   0.000000
     41          6.721727   0.000000
     42          6.910294   0.000000
     43          7.325945   0.000000
     44          7.509350   0.000000
     45          7.510231   0.000000
     46          7.708978   0.000000
     47          7.885063   0.000000
     48          8.026191   0.000000
 
  0.2222222E+00 -0.1811674E-16  0.0000000E+00  0.8230453E-02
      1        -19.481441   1.000000
      2        -16.340248   1.000000
      3        -15.670326   1.000000
      4        -15.173524   1.000000
      5        -15.171844   1.000000
      6        -13.043766   1.000000
      7        -12.546862   1.000000
      8        -12.546263   1.000000
      9        -11.698112   1.000000
     10        -11.418141   1.000000
     11        -10.552057   1.000000
     12         -9.317183   1.000000
     13         -8.790387   1.000000
     14         -7.731117   1.000000
     15         -7.617373   1.000000
     16         -7.616937   1.000000
     17         -6.541218   1.000000
     18         -6.525683   1.000000
     19         -6.201652   1.000000
     20         -4.621276   1.000000
     21         -4.148107   1.000000
     22         -4.072018   1.000000
     23         -3.260196   1.000000
     24         -3.050065   1.000000
     25         -2.973651   1.000000
     26         -2.958608   1.000000
     27         -2.170991   1.000000
     28         -0.675129   1.000000
     29          0.231625   0.000000
     30          1.521866   0.000000
     31          1.535030   0.000000
     32          2.102447   0.000000
     33          2.278111   0.000000
     34          2.824291   0.000000
     35          3.210104   0.000000
     36          3.396088   0.000000
     37          3.622011   0.000000
     38          4.057002   0.000000
     39          5.162921   0.000000
     40          5.452439   0.000000
     41          6.460158   0.000000
     42          6.764778   0.000000
     43          7.385636   0.000000
     44          7.616611   0.000000
     45          7.713406   0.000000
     46          7.868852   0.000000
     47          7.873186   0.000000
     48          8.033949   0.000000
 
  0.2592593E+00 -0.3772139E-16  0.0000000E+00  0.8230453E-02
      1        -19.378125   1.000000
      2        -16.648157   1.000000
      3        -15.591174   1.000000
      4        -15.266082   1.000000
      5        -15.264610   1.000000
      6        -13.265740   1.000000
      7        -12.294228   1.000000
      8        -12.293608   1.000000
      9        -11.739993   1.000000
     10        -10.960722   1.000000
     11        -10.529319   1.000000
     12         -9.171132   1.000000
     13         -8.630141   1.000000
     14         -7.868965   1.000000
     15         -7.868501   1.000000
     16         -7.606874   1.000000
     17         -6.426463   1.000000
     18         -6.396876   1.000000
     19         -6.080007   1.000000
     20         -4.977403   1.000000
     21         -4.463497   1.000000
     22         -4.243339   1.000000
     23         -3.588803   1.000000
     24         -3.234586   1.000000
     25         -3.068128   1.000000
     26         -3.034028   1.000000
     27         -2.511823   1.000000
     28         -0.791667   1.000000
     29          0.155559   0.000000
     30          1.664959   0.000000
     31          1.672512   0.000000
     32          2.469695   0.000000
     33          2.658311   0.000000
     34          3.265347   0.000000
     35          3.421933   0.000000
     36          3.785500   0.000000
     37          3.884001   0.000000
     38          4.233685   0.000000
     39          5.306964   0.000000
     40          5.641437   0.000000
     41          6.021694   0.000000
     42          6.810119   0.000000
     43          7.240647   0.000000
     44          7.536588   0.000000
     45          7.687495   0.000000
     46          7.803903   0.000000
     47          7.931999   0.000000
     48          8.039851   0.000000
 
  0.2962963E+00 -0.1677493E-16  0.0000000E+00  0.8230453E-02
      1        -19.259071   1.000000
      2        -16.944084   1.000000
      3        -15.502273   1.000000
      4        -15.347253   1.000000
      5        -15.346205   1.000000
      6        -13.478932   1.000000
      7        -12.033980   1.000000
      8        -12.032985   1.000000
      9        -11.778633   1.000000
     10        -10.541080   1.000000
     11        -10.493834   1.000000
     12         -8.983281   1.000000
     13         -8.462469   1.000000
     14         -8.135823   1.000000
     15         -8.135318   1.000000
     16         -7.464534   1.000000
     17         -6.313120   1.000000
     18         -6.299436   1.000000
     19         -5.942844   1.000000
     20         -5.366125   1.000000
     21         -4.774538   1.000000
     22         -4.425905   1.000000
     23         -3.909580   1.000000
     24         -3.416789   1.000000
     25         -3.147585   1.000000
     26         -3.082769   1.000000
     27         -2.820691   1.000000
     28         -0.896519   1.000000
     29          0.084685   0.000000
     30          1.801037   0.000000
     31          1.806739   0.000000
     32          2.831454   0.000000
     33          3.056828   0.000000
     34          3.583888   0.000000
     35          3.773077   0.000000
     36          4.137758   0.000000
     37          4.175443   0.000000
     38          4.448310   0.000000
     39          5.447049   0.000000
     40          5.543053   0.000000
     41          5.852976   0.000000
     42          6.827336   0.000000
     43          6.998793   0.000000
     44          7.450590   0.000000
     45          7.539660   0.000000
     46          7.637313   0.000000
     47          7.779330   0.000000
     48          7.789103   0.000000
 
  0.3333333E+00 -0.8624001E-17  0.0000000E+00  0.8230453E-02
      1        -19.124347   1.000000
      2        -17.227074   1.000000
      3        -15.422693   1.000000
      4        -15.415435   1.000000
      5        -15.398546   1.000000
      6        -13.680836   1.000000
      7        -11.818272   1.000000
      8        -11.769715   1.000000
      9        -11.765597   1.000000
     10        -10.567933   1.000000
     11        -10.020773   1.000000
     12         -8.773771   1.000000
     13         -8.409601   1.000000
     14         -8.409155   1.000000
     15         -8.294069   1.000000
     16         -7.304544   1.000000
     17         -6.263828   1.000000
     18         -6.186442   1.000000
     19         -5.794792   1.000000
     20         -5.780863   1.000000
     21         -5.073762   1.000000
     22         -4.615594   1.000000
     23         -4.207814   1.000000
     24         -3.544147   1.000000
     25         -3.303142   1.000000
     26         -3.124824   1.000000
     27         -3.026813   1.000000
     28         -0.986495   1.000000
     29          0.022276   0.000027
     30          1.926939   0.000000
     31          1.932173   0.000000
     32          3.174420   0.000000
     33          3.468365   0.000000
     34          3.813139   0.000000
     35          4.225154   0.000000
     36          4.382295   0.000000
     37          4.557306   0.000000
     38          4.687881   0.000000
     39          5.165242   0.000000
     40          5.592174   0.000000
     41          5.906352   0.000000
     42          6.681170   0.000000
     43          6.967508   0.000000
     44          7.179734   0.000000
     45          7.228414   0.000000
     46          7.492877   0.000000
     47          7.615043   0.000000
     48          7.887679   0.000000
 
  0.3703704E+00 -0.3039317E-16  0.0000000E+00  0.8230453E-02
      1        -18.974046   1.000000
      2        -17.496492   1.000000
      3        -15.473756   1.000000
      4        -15.471522   1.000000
      5        -15.300962   1.000000
      6        -13.867698   1.000000
      7        -11.843509   1.000000
      8        -11.511511   1.000000
      9        -11.511035   1.000000
     10        -10.599048   1.000000
     11         -9.542002   1.000000
     12         -8.679827   1.000000
     13         -8.679193   1.000000
     14         -8.560350   1.000000
     15         -8.133921   1.000000
     16         -7.127796   1.000000
     17         -6.291493   1.000000
     18         -6.217719   1.000000
     19         -6.046872   1.000000
     20         -5.657299   1.000000
     21         -5.337964   1.000000
     22         -4.808619   1.000000
     23         -4.472850   1.000000
     24         -3.649091   1.000000
     25         -3.517638   1.000000
     26         -3.159925   1.000000
     27         -3.109242   1.000000
     28         -1.059828   1.000000
     29         -0.029585   0.000477
     30          2.037135   0.000000
     31          2.042428   0.000000
     32          3.489759   0.000000
     33          3.888160   0.000000
     34          4.054969   0.000000
     35          4.558308   0.000000
     36          4.651761   0.000000
     37          4.920784   0.000000
     38          4.921329   0.000000
     39          4.944147   0.000000
     40          5.594928   0.000000
     41          5.980787   0.000000
     42          6.491955   0.000000
     43          6.890765   0.000000
     44          6.965353   0.000000
     45          7.046896   0.000000
     46          7.150752   0.000000
     47          7.568897   0.000000
     48          7.919509   0.000000
 
  0.4074074E+00 -0.4438441E-16  0.0000000E+00  0.8230453E-02
      1        -18.808257   1.000000
      2        -17.751886   1.000000
      3        -15.515894   1.000000
      4        -15.513958   1.000000
      5        -15.199427   1.000000
      6        -14.033177   1.000000
      7        -11.865573   1.000000
      8        -11.271345   1.000000
      9        -11.271175   1.000000
     10        -10.626808   1.000000
     11         -9.059772   1.000000
     12         -8.931044   1.000000
     13         -8.930410   1.000000
     14         -8.361515   1.000000
     15         -7.993341   1.000000
     16         -6.936439   1.000000
     17         -6.671437   1.000000
     18         -6.362909   1.000000
     19         -5.895526   1.000000
     20         -5.723053   1.000000
     21         -5.380800   1.000000
     22         -5.002398   1.000000
     23         -4.692480   1.000000
     24         -3.864721   1.000000
     25         -3.582650   1.000000
     26         -3.187178   1.000000
     27         -3.149313   1.000000
     28         -1.115484   1.000000
     29         -0.069508   0.003080
     30          2.126047   0.000000
     31          2.131585   0.000000
     32          3.773105   0.000000
     33          4.289232   0.000000
     34          4.308972   0.000000
     35          4.526577   0.000000
     36          4.805890   0.000000
     37          5.076296   0.000000
     38          5.249579   0.000000
     39          5.277426   0.000000
     40          5.513850   0.000000
     41          6.075099   0.000000
     42          6.307613   0.000000
     43          6.705861   0.000000
     44          6.748796   0.000000
     45          6.776452   0.000000
     46          7.104728   0.000000
     47          7.508723   0.000000
     48          7.652925   0.000000
 
  0.4444444E+00 -0.3623348E-16  0.0000000E+00  0.8230453E-02
      1        -18.627102   1.000000
      2        -17.992887   1.000000
      3        -15.544246   1.000000
      4        -15.542411   1.000000
      5        -15.110021   1.000000
      6        -14.165327   1.000000
      7        -11.880695   1.000000
      8        -11.072493   1.000000
      9        -11.072472   1.000000
     10        -10.647126   1.000000
     11         -9.138245   1.000000
     12         -9.137548   1.000000
     13         -8.575995   1.000000
     14         -8.200147   1.000000
     15         -7.886511   1.000000
     16         -7.137038   1.000000
     17         -6.738985   1.000000
     18         -6.440064   1.000000
     19         -5.964656   1.000000
     20         -5.733158   1.000000
     21         -5.242296   1.000000
     22         -5.193875   1.000000
     23         -4.852164   1.000000
     24         -4.088440   1.000000
     25         -3.580829   1.000000
     26         -3.205796   1.000000
     27         -3.172400   1.000000
     28         -1.152857   1.000000
     29         -0.096571   0.009226
     30          2.188665   0.000000
     31          2.194446   0.000000
     32          4.013381   0.000000
     33          4.310988   0.000000
     34          4.576203   0.000000
     35          4.713488   0.000000
     36          4.956591   0.000000
     37          5.117195   0.000000
     38          5.476264   0.000000
     39          5.508399   0.000000
     40          5.724176   0.000000
     41          6.023780   0.000000
     42          6.241240   0.000000
     43          6.410642   0.000000
     44          6.550698   0.000000
     45          6.690591   0.000000
     46          7.157722   0.000000
     47          7.285935   0.000000
     48          7.293727   0.000000
 
  0.4814815E+00  0.4002069E-17  0.0000000E+00  0.8230453E-02
      1        -18.430726   1.000000
      2        -18.219227   1.000000
      3        -15.558473   1.000000
      4        -15.556677   1.000000
      5        -15.053716   1.000000
      6        -14.243049   1.000000
      7        -11.888362   1.000000
      8        -10.953433   1.000000
      9        -10.953314   1.000000
     10        -10.657795   1.000000
     11         -9.261837   1.000000
     12         -9.261092   1.000000
     13         -8.115135   1.000000
     14         -8.084238   1.000000
     15         -7.828109   1.000000
     16         -7.611441   1.000000
     17         -6.601898   1.000000
     18         -6.423921   1.000000
     19         -6.202937   1.000000
     20         -5.561086   1.000000
     21         -5.380867   1.000000
     22         -5.132601   1.000000
     23         -4.937038   1.000000
     24         -4.235477   1.000000
     25         -3.572013   1.000000
     26         -3.215127   1.000000
     27         -3.183272   1.000000
     28         -1.171610   1.000000
     29         -0.110221   0.015256
     30          2.221276   0.000000
     31          2.227199   0.000000
     32          4.128830   0.000000
     33          4.306455   0.000000
     34          4.673315   0.000000
     35          4.913070   0.000000
     36          5.035519   0.000000
     37          5.274124   0.000000
     38          5.493614   0.000000
     39          5.617370   0.000000
     40          5.728845   0.000000
     41          6.160030   0.000000
     42          6.188209   0.000000
     43          6.343710   0.000000
     44          6.423813   0.000000
     45          6.771102   0.000000
     46          6.862208   0.000000
     47          7.128706   0.000000
     48          7.138872   0.000000
 
  0.3703704E-01  0.3703704E-01  0.0000000E+00  0.8230453E-02
      1        -19.744278   1.000000
      2        -15.877782   1.000000
      3        -14.897998   1.000000
      4        -14.894733   1.000000
      5        -14.632244   1.000000
      6        -13.507531   1.000000
      7        -13.248269   1.000000
      8        -13.246050   1.000000
      9        -12.041435   1.000000
     10        -11.541701   1.000000
     11        -11.199874   1.000000
     12         -9.359880   1.000000
     13         -9.269531   1.000000
     14         -8.053167   1.000000
     15         -7.228262   1.000000
     16         -6.913328   1.000000
     17         -6.815275   1.000000
     18         -6.814948   1.000000
     19         -6.518834   1.000000
     20         -3.616636   1.000000
     21         -3.568913   1.000000
     22         -2.959544   1.000000
     23         -2.930312   1.000000
     24         -2.802312   1.000000
     25         -1.798096   1.000000
     26         -1.756146   1.000000
     27         -0.757124   1.000000
     28         -0.315854   0.771778
     29          0.158773   0.000000
     30          0.885378   0.000000
     31          0.977034   0.000000
     32          1.160131   0.000000
     33          1.269885   0.000000
     34          1.290107   0.000000
     35          1.968183   0.000000
     36          2.034388   0.000000
     37          3.030912   0.000000
     38          3.636589   0.000000
     39          4.583064   0.000000
     40          4.852320   0.000000
     41          6.662210   0.000000
     42          6.664170   0.000000
     43          6.762358   0.000000
     44          7.098590   0.000000
     45          7.662146   0.000000
     46          7.719266   0.000000
     47          7.764132   0.000000
     48          8.220408   0.000000
 
  0.7407407E-01  0.3703704E-01  0.0000000E+00  0.1646091E-01
      1        -19.712377   1.000000
      2        -15.852298   1.000000
      3        -15.198923   1.000000
      4        -15.026365   1.000000
      5        -14.639634   1.000000
      6        -13.446698   1.000000
      7        -13.066272   1.000000
      8        -12.897287   1.000000
      9        -12.258141   1.000000
     10        -11.568453   1.000000
     11        -11.003660   1.000000
     12         -9.399666   1.000000
     13         -9.202595   1.000000
     14         -8.013038   1.000000
     15         -7.112938   1.000000
     16         -7.042147   1.000000
     17         -6.881704   1.000000
     18         -6.783682   1.000000
     19         -6.479924   1.000000
     20         -3.746331   1.000000
     21         -3.637230   1.000000
     22         -3.138269   1.000000
     23         -3.008319   1.000000
     24         -2.781593   1.000000
     25         -2.073953   1.000000
     26         -1.989980   1.000000
     27         -1.025767   1.000000
     28         -0.340556   0.863037
     29          0.359662   0.000000
     30          0.893510   0.000000
     31          1.080005   0.000000
     32          1.223929   0.000000
     33          1.398691   0.000000
     34          1.513105   0.000000
     35          2.194134   0.000000
     36          2.308521   0.000000
     37          3.085999   0.000000
     38          3.687774   0.000000
     39          4.691902   0.000000
     40          4.906533   0.000000
     41          6.680379   0.000000
     42          6.779608   0.000000
     43          6.941279   0.000000
     44          7.132344   0.000000
     45          7.673213   0.000000
     46          7.747812   0.000000
     47          7.896493   0.000000
     48          7.995157   0.000000
 
  0.1111111E+00  0.3703704E-01  0.0000000E+00  0.1646091E-01
      1        -19.664546   1.000000
      2        -15.814344   1.000000
      3        -15.524954   1.000000
      4        -15.156136   1.000000
      5        -14.692443   1.000000
      6        -13.314783   1.000000
      7        -12.860119   1.000000
      8        -12.502890   1.000000