   8   8   0  16
  0.4043273E+02  0.4990000E-09  0.4990000E-09  0.1500000E-08  0.5000000E-15
  1.000000000000000E-004
  CAR 
 Graphene                                
     12.94153934    -23.25175856  301     -2.37215204      1.00000000
    -23.252  0.0000E+00  0.0000E+00
    -23.131  0.0000E+00  0.0000E+00
    -23.010  0.0000E+00  0.0000E+00
    -22.890  0.0000E+00  0.0000E+00
    -22.769  0.0000E+00  0.0000E+00
    -22.649  0.0000E+00  0.0000E+00
    -22.528  0.0000E+00  0.0000E+00
    -22.407  0.0000E+00  0.0000E+00
    -22.287  0.0000E+00  0.0000E+00
    -22.166  0.1470E-17  0.1773E-18
    -22.045  0.3601E-12  0.4344E-13
    -21.925  0.5349E-08  0.6454E-09
    -21.804  0.5726E-05  0.6914E-06
    -21.683  0.5138E-03  0.6268E-04
    -21.563  0.5228E-02  0.6934E-03
    -21.442  0.1140E-01  0.2069E-02
    -21.321  0.1262E-01  0.3590E-02
    -21.201  0.1217E-01  0.5059E-02
    -21.080  0.1338E-01  0.6673E-02
    -20.960  0.1190E-01  0.8109E-02
    -20.839  0.1232E-01  0.9596E-02
    -20.718  0.1483E-01  0.1138E-01
    -20.598  0.9166E-02  0.1249E-01
    -20.477  0.1495E-01  0.1429E-01
    -20.356  0.1447E-01  0.1604E-01
    -20.236  0.8257E-02  0.1704E-01
    -20.115  0.1444E-01  0.1878E-01
    -19.994  0.1613E-01  0.2073E-01
    -19.874  0.1066E-01  0.2201E-01
    -19.753  0.8489E-02  0.2304E-01
    -19.632  0.1750E-01  0.2515E-01
    -19.512  0.1591E-01  0.2707E-01
    -19.391  0.8350E-02  0.2807E-01
    -19.270  0.1050E-01  0.2934E-01
    -19.150  0.1529E-01  0.3118E-01
    -19.029  0.1792E-01  0.3335E-01
    -18.909  0.1172E-01  0.3476E-01
    -18.788  0.6234E-02  0.3551E-01
    -18.667  0.1452E-01  0.3726E-01
    -18.547  0.1812E-01  0.3945E-01
    -18.426  0.1476E-01  0.4123E-01
    -18.305  0.1183E-01  0.4266E-01
    -18.185  0.7015E-02  0.4350E-01
    -18.064  0.1250E-01  0.4501E-01
    -17.943  0.2278E-01  0.4776E-01
    -17.823  0.1319E-01  0.4935E-01
    -17.702  0.1115E-01  0.5069E-01
    -17.581  0.1094E-01  0.5201E-01
    -17.461  0.8942E-02  0.5309E-01
    -17.340  0.2007E-01  0.5551E-01
    -17.220  0.2104E-01  0.5805E-01
    -17.099  0.1107E-01  0.5939E-01
    -16.978  0.1065E-01  0.6067E-01
    -16.858  0.1154E-01  0.6207E-01
    -16.737  0.1522E-01  0.6390E-01
    -16.616  0.2608E-01  0.6705E-01
    -16.496  0.2173E-01  0.6967E-01
    -16.375  0.1637E-01  0.7165E-01
    -16.254  0.4786E-02  0.7222E-01
    -16.134  0.5166E-02  0.7285E-01
    -16.013  0.2205E-01  0.7551E-01
    -15.892  0.1331E-01  0.7711E-01
    -15.772  0.9289E-03  0.7722E-01
    -15.651  0.1176E-02  0.7737E-01
    -15.531  0.4816E-02  0.7795E-01
    -15.410  0.9061E-02  0.7904E-01
    -15.289  0.1238E-01  0.8053E-01
    -15.169  0.1204E-01  0.8199E-01
    -15.048  0.1048E-01  0.8325E-01
    -14.927  0.1457E-01  0.8501E-01
    -14.807  0.1378E-01  0.8667E-01
    -14.686  0.1858E-01  0.8891E-01
    -14.565  0.1674E-01  0.9093E-01
    -14.445  0.2079E-01  0.9344E-01
    -14.324  0.1763E-01  0.9557E-01
    -14.203  0.1545E-01  0.9743E-01
    -14.083  0.1264E-01  0.9896E-01
    -13.962  0.1178E-01  0.1004E+00
    -13.842  0.2265E-01  0.1031E+00
    -13.721  0.8976E-02  0.1042E+00
    -13.600  0.9081E-02  0.1053E+00
    -13.480  0.1353E-01  0.1069E+00
    -13.359  0.1699E-01  0.1090E+00
    -13.238  0.1113E-01  0.1103E+00
    -13.118  0.7990E-02  0.1113E+00
    -12.997  0.9999E-02  0.1125E+00
    -12.876  0.1318E-01  0.1141E+00
    -12.756  0.1535E-01  0.1159E+00
    -12.635  0.1148E-01  0.1173E+00
    -12.514  0.5085E-02  0.1179E+00
    -12.394  0.1690E-01  0.1200E+00
    -12.273  0.2329E-01  0.1228E+00
    -12.152  0.1481E-01  0.1246E+00
    -12.032  0.4983E-02  0.1252E+00
    -11.911  0.1089E-01  0.1265E+00
    -11.791  0.2888E-01  0.1300E+00
    -11.670  0.1610E-01  0.1319E+00
    -11.549  0.1158E-01  0.1333E+00
    -11.429  0.9810E-02  0.1345E+00
    -11.308  0.1531E-01  0.1363E+00
    -11.187  0.1941E-01  0.1387E+00
    -11.067  0.1848E-01  0.1409E+00
    -10.946  0.1162E-01  0.1423E+00
    -10.825  0.2406E-01  0.1452E+00
    -10.705  0.1822E-01  0.1474E+00
    -10.584  0.3429E-02  0.1478E+00
    -10.463  0.1423E-01  0.1495E+00
    -10.343  0.2565E-01  0.1526E+00
    -10.222  0.2739E-01  0.1559E+00
    -10.102  0.1297E-01  0.1575E+00
     -9.981  0.1425E-01  0.1592E+00
     -9.860  0.9753E-02  0.1604E+00
     -9.740  0.2873E-01  0.1639E+00
     -9.619  0.3906E-01  0.1686E+00
     -9.498  0.2306E-01  0.1714E+00
     -9.378  0.2542E-01  0.1744E+00
     -9.257  0.3430E-01  0.1786E+00
     -9.136  0.4606E-01  0.1841E+00
     -9.016  0.2880E-01  0.1876E+00
     -8.895  0.2674E-01  0.1908E+00
     -8.774  0.4608E-01  0.1964E+00
     -8.654  0.4793E-01  0.2022E+00
     -8.533  0.4821E-01  0.2080E+00
     -8.413  0.3942E-01  0.2127E+00
     -8.292  0.3012E-01  0.2164E+00
     -8.171  0.2870E-01  0.2198E+00
     -8.051  0.3165E-01  0.2236E+00
     -7.930  0.3753E-01  0.2282E+00
     -7.809  0.2955E-01  0.2317E+00
     -7.689  0.3065E-01  0.2354E+00
     -7.568  0.2002E-01  0.2379E+00
     -7.447  0.2467E-01  0.2408E+00
     -7.327  0.3415E-01  0.2450E+00
     -7.206  0.3067E-01  0.2487E+00
     -7.085  0.1804E-01  0.2508E+00
     -6.965  0.1809E-01  0.2530E+00
     -6.844  0.3711E-01  0.2575E+00
     -6.723  0.2982E-01  0.2611E+00
     -6.603  0.1130E-01  0.2624E+00
     -6.482  0.1866E-01  0.2647E+00
     -6.362  0.3479E-01  0.2689E+00
     -6.241  0.2488E-01  0.2719E+00
     -6.120  0.1956E-01  0.2743E+00
     -6.000  0.2518E-01  0.2773E+00
     -5.879  0.1859E-01  0.2795E+00
     -5.758  0.1774E-01  0.2817E+00
     -5.638  0.2953E-01  0.2852E+00
     -5.517  0.2701E-01  0.2885E+00
     -5.396  0.2038E-01  0.2910E+00
     -5.276  0.1162E-01  0.2924E+00
     -5.155  0.7735E-02  0.2933E+00
     -5.034  0.1624E-01  0.2953E+00
     -4.914  0.2631E-01  0.2984E+00
     -4.793  0.2383E-01  0.3013E+00
     -4.673  0.1976E-01  0.3037E+00
     -4.552  0.1055E-01  0.3050E+00
     -4.431  0.1261E-01  0.3065E+00
     -4.311  0.3081E-01  0.3102E+00
     -4.190  0.1631E-01  0.3122E+00
     -4.069  0.4488E-02  0.3127E+00
     -3.949  0.3475E-02  0.3131E+00
     -3.828  0.7280E-02  0.3140E+00
     -3.707  0.1165E-01  0.3154E+00
     -3.587  0.1212E-01  0.3169E+00
     -3.466  0.3348E-02  0.3173E+00
     -3.345  0.3748E-02  0.3177E+00
     -3.225  0.2580E-02  0.3180E+00
     -3.104  0.2037E-02  0.3183E+00
     -2.984  0.8199E-02  0.3193E+00
     -2.863  0.3569E-02  0.3197E+00
     -2.742  0.1387E-03  0.3197E+00
     -2.622  0.1351E-05  0.3197E+00
     -2.501  0.1569E-03  0.3197E+00
     -2.380  0.1934E-02  0.3200E+00
     -2.260  0.2256E-02  0.3202E+00
     -2.139  0.2547E-03  0.3203E+00
     -2.018  0.2594E-05  0.3203E+00
     -1.898  0.1299E-03  0.3203E+00
     -1.777  0.3467E-02  0.3207E+00
     -1.656  0.8244E-02  0.3217E+00
     -1.536  0.2663E-02  0.3220E+00
     -1.415  0.3976E-02  0.3225E+00
     -1.294  0.2262E-02  0.3228E+00
     -1.174  0.5000E-02  0.3234E+00
     -1.053  0.1982E-01  0.3258E+00
     -0.933  0.1321E-01  0.3274E+00
     -0.812  0.7320E-02  0.3283E+00
     -0.691  0.2093E-01  0.3308E+00
     -0.571  0.2588E-01  0.3339E+00
     -0.450  0.2562E-01  0.3370E+00
     -0.329  0.2119E-01  0.3395E+00
     -0.209  0.8446E-02  0.3406E+00
     -0.088  0.1348E-01  0.3422E+00
      0.033  0.1110E-01  0.3435E+00
      0.153  0.9846E-02  0.3447E+00
      0.274  0.1492E-01  0.3465E+00
      0.395  0.2226E-01  0.3492E+00
      0.515  0.5541E-02  0.3499E+00
      0.636  0.4818E-02  0.3505E+00
      0.756  0.1138E-01  0.3518E+00
      0.877  0.1088E-01  0.3531E+00
      0.998  0.1214E-01  0.3546E+00
      1.118  0.1696E-01  0.3566E+00
      1.239  0.2393E-01  0.3595E+00
      1.360  0.2104E-01  0.3621E+00
      1.480  0.1317E-01  0.3637E+00
      1.601  0.1072E-01  0.3650E+00
      1.722  0.2115E-01  0.3675E+00
      1.842  0.1987E-01  0.3699E+00
      1.963  0.2709E-01  0.3732E+00
      2.084  0.2943E-01  0.3767E+00
      2.204  0.2237E-01  0.3794E+00
      2.325  0.2421E-01  0.3823E+00
      2.445  0.2749E-01  0.3857E+00
      2.566  0.3266E-01  0.3896E+00
      2.687  0.3865E-01  0.3943E+00
      2.807  0.2880E-01  0.3977E+00
      2.928  0.3979E-01  0.4025E+00
      3.049  0.4342E-01  0.4078E+00
      3.169  0.3146E-01  0.4116E+00
      3.290  0.2390E-01  0.4145E+00
      3.411  0.3549E-01  0.4187E+00
      3.531  0.3409E-01  0.4228E+00
      3.652  0.4190E-01  0.4279E+00
      3.773  0.3392E-01  0.4320E+00
      3.893  0.3489E-01  0.4362E+00
      4.014  0.4163E-01  0.4412E+00
      4.135  0.2788E-01  0.4446E+00
      4.255  0.1773E-01  0.4467E+00
      4.376  0.3159E-01  0.4505E+00
      4.496  0.5260E-01  0.4569E+00
      4.617  0.6006E-01  0.4641E+00
      4.738  0.6014E-01  0.4714E+00
      4.858  0.5104E-01  0.4775E+00
      4.979  0.5360E-01  0.4840E+00
      5.100  0.6387E-01  0.4917E+00
      5.220  0.7667E-01  0.5010E+00
      5.341  0.8066E-01  0.5107E+00
      5.462  0.9368E-01  0.5220E+00
      5.582  0.7675E-01  0.5313E+00
      5.703  0.6822E-01  0.5395E+00
      5.824  0.8485E-01  0.5497E+00
      5.944  0.1043E+00  0.5623E+00
      6.065  0.9579E-01  0.5739E+00
      6.185  0.8151E-01  0.5837E+00
      6.306  0.7845E-01  0.5932E+00
      6.427  0.7282E-01  0.6020E+00
      6.547  0.6240E-01  0.6095E+00
      6.668  0.6508E-01  0.6173E+00
      6.789  0.7807E-01  0.6268E+00
      6.909  0.7383E-01  0.6357E+00
      7.030  0.6419E-01  0.6434E+00
      7.151  0.6793E-01  0.6516E+00
      7.271  0.6297E-01  0.6592E+00
      7.392  0.5751E-01  0.6661E+00
      7.513  0.7818E-01  0.6756E+00
      7.633  0.8009E-01  0.6852E+00
      7.754  0.6730E-01  0.6933E+00
      7.874  0.7659E-01  0.7026E+00
      7.995  0.5124E-01  0.7088E+00
      8.116  0.4386E-01  0.7141E+00
      8.236  0.8180E-01  0.7239E+00
      8.357  0.9080E-01  0.7349E+00
      8.478  0.1030E+00  0.7473E+00
      8.598  0.1146E+00  0.7611E+00
      8.719  0.8900E-01  0.7719E+00
      8.840  0.6365E-01  0.7796E+00
      8.960  0.5180E-01  0.7858E+00
      9.081  0.5902E-01  0.7929E+00
      9.202  0.7372E-01  0.8018E+00
      9.322  0.7578E-01  0.8110E+00
      9.443  0.9252E-01  0.8221E+00
      9.563  0.9143E-01  0.8332E+00
      9.684  0.9914E-01  0.8451E+00
      9.805  0.9898E-01  0.8571E+00
      9.925  0.7653E-01  0.8663E+00
     10.046  0.6892E-01  0.8746E+00
     10.167  0.1116E+00  0.8881E+00
     10.287  0.9936E-01  0.9001E+00
     10.408  0.7577E-01  0.9092E+00
     10.529  0.9901E-01  0.9211E+00
     10.649  0.9702E-01  0.9328E+00
     10.770  0.8135E-01  0.9427E+00
     10.891  0.5219E-01  0.9490E+00
     11.011  0.3347E-01  0.9530E+00
     11.132  0.2917E-01  0.9565E+00
     11.253  0.1518E-01  0.9583E+00
     11.373  0.1154E-01  0.9597E+00
     11.494  0.2137E-02  0.9600E+00
     11.614  0.3780E-04  0.9600E+00
     11.735  0.4805E-07  0.9600E+00
     11.856  0.3814E-11  0.9600E+00
     11.976  0.1840E-16  0.9600E+00
     12.097  0.0000E+00  0.9600E+00
     12.218  0.0000E+00  0.9600E+00
     12.338  0.0000E+00  0.9600E+00
     12.459  0.0000E+00  0.9600E+00
     12.580  0.0000E+00  0.9600E+00
     12.700  0.0000E+00  0.9600E+00
     12.821  0.0000E+00  0.9600E+00
     12.942  0.0000E+00  0.9600E+00
