       N       E                     dE             d eps       ncg     rms          rms(c)
DAV:   1     0.950269128914E+02    0.95027E+02   -0.88663E+03   912   0.642E+02
DAV:   2    -0.494762263012E+02   -0.14450E+03   -0.14368E+03  1344   0.121E+02
DAV:   3    -0.551176413697E+02   -0.56414E+01   -0.56414E+01  1680   0.349E+01
DAV:   4    -0.551251281054E+02   -0.74867E-02   -0.74867E-02  1344   0.128E+00
DAV:   5    -0.551251529050E+02   -0.24800E-04   -0.24800E-04  1584   0.654E-02    0.968E+00
DAV:   6    -0.516231646015E+02    0.35020E+01   -0.43303E+00  1608   0.695E+00    0.533E+00
DAV:   7    -0.501653603371E+02    0.14578E+01   -0.38198E+00  1728   0.657E+00    0.126E+00
DAV:   8    -0.500814273870E+02    0.83933E-01   -0.20330E-01  1584   0.166E+00    0.428E-01
DAV:   9    -0.500544797192E+02    0.26948E-01   -0.52559E-02  1464   0.693E-01    0.252E-01
DAV:  10    -0.500489215961E+02    0.55581E-02   -0.12673E-02  1344   0.393E-01    0.127E-01
DAV:  11    -0.500444942411E+02    0.44274E-02   -0.14415E-02  1536   0.330E-01    0.742E-02
DAV:  12    -0.500435100310E+02    0.98421E-03   -0.19214E-03  1296   0.132E-01    0.371E-02
DAV:  13    -0.500452189902E+02   -0.17090E-02   -0.81963E-04  1200   0.939E-02    0.353E-02
DAV:  14    -0.500482297885E+02   -0.30108E-02   -0.10098E-03  1128   0.930E-02    0.158E-02
DAV:  15    -0.500492393091E+02   -0.10095E-02   -0.17117E-04  1536   0.385E-02    0.655E-03
DAV:  16    -0.500497038763E+02   -0.46457E-03   -0.77665E-05  1416   0.206E-02    0.243E-03
DAV:  17    -0.500497917208E+02   -0.87844E-04   -0.80824E-06  1248   0.735E-03    0.136E-03
DAV:  18    -0.500498118529E+02   -0.20132E-04   -0.16615E-06  1272   0.352E-03    0.245E-04
DAV:  19    -0.500498150802E+02   -0.32272E-05   -0.17239E-07  1272   0.993E-04    0.821E-05
DAV:  20    -0.500498158204E+02   -0.74022E-06   -0.36641E-08  1080   0.330E-04
   1 F= -.50711361E+02 E0= -.50710454E+02  d E =-.507114E+02
       N       E                     dE             d eps       ncg     rms          rms(c)
DAV:   1    -0.502556042649E+02   -0.20579E+00   -0.99432E+00   912   0.155E+01    0.604E-01
DAV:   2    -0.502541871942E+02    0.14171E-02   -0.86360E-02  1752   0.157E+00    0.334E-01
DAV:   3    -0.502529083275E+02    0.12789E-02   -0.10078E-02  1512   0.388E-01    0.863E-02
DAV:   4    -0.502530077193E+02   -0.99392E-04   -0.58542E-04  1584   0.122E-01    0.320E-02
DAV:   5    -0.502530164353E+02   -0.87161E-05   -0.45160E-05  1536   0.286E-02    0.642E-03
DAV:   6    -0.502530156327E+02    0.80266E-06   -0.64854E-06  1560   0.992E-03
   2 F= -.50916058E+02 E0= -.50915162E+02  d E =-.204697E+00
       N       E                     dE             d eps       ncg     rms          rms(c)
DAV:   1    -0.504258357877E+02   -0.17282E+00   -0.43946E+01   912   0.325E+01    0.125E+00
DAV:   2    -0.504271749742E+02   -0.13392E-02   -0.42479E-01  1752   0.347E+00    0.702E-01
DAV:   3    -0.504213606905E+02    0.58143E-02   -0.42900E-02  1200   0.802E-01    0.187E-01
DAV:   4    -0.504217417335E+02   -0.38104E-03   -0.30337E-03  1512   0.265E-01    0.650E-02
DAV:   5    -0.504218069980E+02   -0.65265E-04   -0.12502E-04  1464   0.537E-02    0.182E-02
DAV:   6    -0.504218078069E+02   -0.80889E-06   -0.46937E-05  1488   0.260E-02    0.490E-03
DAV:   7    -0.504218172079E+02   -0.94010E-05   -0.44563E-06  1128   0.890E-03    0.204E-03
DAV:   8    -0.504218248423E+02   -0.76344E-05   -0.10051E-06  1152   0.339E-03    0.112E-03
DAV:   9    -0.504218345960E+02   -0.97537E-05   -0.16666E-06   960   0.318E-03    0.633E-04
DAV:  10    -0.504218381752E+02   -0.35792E-05   -0.55737E-07  1344   0.170E-03    0.464E-04
DAV:  11    -0.504218396305E+02   -0.14553E-05   -0.40184E-07  1056   0.133E-03    0.223E-04
DAV:  12    -0.504218397204E+02   -0.89974E-07   -0.21465E-08  1368   0.432E-04
   3 F= -.51087116E+02 E0= -.51086368E+02  d E =-.375754E+00
       N       E                     dE             d eps       ncg     rms          rms(c)
DAV:   1    -0.504669040333E+02   -0.45064E-01   -0.16490E+01   960   0.196E+01    0.114E+00
DAV:   2    -0.504242171425E+02    0.42687E-01   -0.32400E-01  1608   0.268E+00    0.556E-01
DAV:   3    -0.504141357843E+02    0.10081E-01   -0.44327E-02  1464   0.834E-01    0.148E-01
DAV:   4    -0.504139400957E+02    0.19569E-03   -0.35694E-03  1440   0.260E-01    0.529E-02
DAV:   5    -0.504139834636E+02   -0.43368E-04   -0.12228E-04  1152   0.512E-02    0.157E-02
DAV:   6    -0.504140193492E+02   -0.35886E-04   -0.48863E-05  1176   0.276E-02    0.502E-03
DAV:   7    -0.504140633557E+02   -0.44007E-04   -0.10088E-05  1224   0.109E-02    0.244E-03
DAV:   8    -0.504140879765E+02   -0.24621E-04   -0.33380E-06  1056   0.510E-03    0.202E-03
DAV:   9    -0.504141128086E+02   -0.24832E-04   -0.82077E-06   960   0.650E-03    0.994E-04
DAV:  10    -0.504141147636E+02   -0.19550E-05   -0.76382E-07  1344   0.243E-03    0.764E-04
DAV:  11    -0.504141147410E+02    0.22568E-07   -0.22927E-07  1080   0.132E-03
   4 F= -.51080828E+02 E0= -.51077291E+02  d E =0.628772E-02
       N       E                     dE             d eps       ncg     rms          rms(c)
DAV:   1    -0.504708954880E+02   -0.56781E-01   -0.47819E+00   912   0.105E+01    0.615E-01
DAV:   2    -0.504588359788E+02    0.12060E-01   -0.95699E-02  1680   0.147E+00    0.303E-01
DAV:   3    -0.504556313396E+02    0.32046E-02   -0.14686E-02  1440   0.468E-01    0.759E-02
DAV:   4    -0.504555724363E+02    0.58903E-04   -0.10083E-03  1488   0.141E-01    0.292E-02
DAV:   5    -0.504555739924E+02   -0.15561E-05   -0.38174E-05  1296   0.286E-02    0.900E-03
DAV:   6    -0.504555786613E+02   -0.46689E-05   -0.15035E-05  1248   0.153E-02    0.262E-03
DAV:   7    -0.504555874958E+02   -0.88345E-05   -0.16201E-06  1032   0.480E-03    0.140E-03
DAV:   8    -0.504555956318E+02   -0.81360E-05   -0.79027E-07  1224   0.255E-03    0.103E-03
DAV:   9    -0.504556052946E+02   -0.96628E-05   -0.13900E-06   984   0.274E-03    0.560E-04
DAV:  10    -0.504556083959E+02   -0.31012E-05   -0.24489E-07  1368   0.139E-03    0.423E-04
DAV:  11    -0.504556115607E+02   -0.31648E-05   -0.67479E-08  1248   0.800E-04    0.147E-04
DAV:  12    -0.504556136054E+02   -0.20447E-05   -0.22203E-08  1344   0.324E-04    0.942E-05
DAV:  13    -0.504556146858E+02   -0.10804E-05   -0.17155E-08  1176   0.265E-04    0.416E-05
DAV:  14    -0.504556149963E+02   -0.31048E-06   -0.71103E-09  1200   0.157E-04
   5 F= -.51121589E+02 E0= -.51120600E+02  d E =-.344738E-01
       N       E                     dE             d eps       ncg     rms          rms(c)
DAV:   1    -0.504595569313E+02   -0.39422E-02   -0.38940E-01   912   0.301E+00    0.109E-01
DAV:   2    -0.504595952727E+02   -0.38341E-04   -0.27001E-03  1584   0.280E-01    0.634E-02
DAV:   3    -0.504595629948E+02    0.32278E-04   -0.26228E-04  1392   0.620E-02    0.126E-02
DAV:   4    -0.504595662119E+02   -0.32171E-05   -0.16498E-05  1488   0.189E-02    0.470E-03
DAV:   5    -0.504595664123E+02   -0.20041E-06   -0.17094E-06  1296   0.545E-03
   6 F= -.51125690E+02 E0= -.51124486E+02  d E =-.410113E-02
       N       E                     dE             d eps       ncg     rms          rms(c)
DAV:   1    -0.504650420985E+02   -0.54759E-02   -0.35219E+00   912   0.902E+00    0.331E-01
DAV:   2    -0.504654593712E+02   -0.41727E-03   -0.24864E-02  1656   0.846E-01    0.192E-01
DAV:   3    -0.504651084978E+02    0.35087E-03   -0.24694E-03  1392   0.188E-01    0.365E-02
DAV:   4    -0.504651331796E+02   -0.24682E-04   -0.14493E-04  1584   0.564E-02    0.141E-02
DAV:   5    -0.504651363669E+02   -0.31873E-05   -0.11163E-05  1152   0.144E-02    0.300E-03
DAV:   6    -0.504651389232E+02   -0.25563E-05   -0.16782E-06  1272   0.550E-03    0.106E-03
DAV:   7    -0.504651425336E+02   -0.36104E-05   -0.42998E-07  1008   0.221E-03    0.450E-04
DAV:   8    -0.504651443189E+02   -0.17853E-05   -0.10410E-07  1200   0.814E-04    0.294E-04
DAV:   9    -0.504651466334E+02   -0.23144E-05   -0.32276E-07  1056   0.116E-03    0.191E-04
DAV:  10    -0.504651472672E+02   -0.63377E-06   -0.85910E-08  1152   0.595E-04
   7 F= -.51131659E+02 E0= -.51129205E+02  d E =-.100694E-01
       N       E                     dE             d eps       ncg     rms          rms(c)
DAV:   1    -0.504656977829E+02   -0.55115E-03   -0.39125E-01   912   0.299E+00    0.112E-01
DAV:   2    -0.504657295256E+02   -0.31743E-04   -0.27158E-03  1368   0.280E-01    0.651E-02
DAV:   3    -0.504656900351E+02    0.39490E-04   -0.29171E-04  1440   0.654E-02    0.118E-02
DAV:   4    -0.504656928658E+02   -0.28307E-05   -0.17186E-05  1440   0.188E-02    0.467E-03
DAV:   5    -0.504656930832E+02   -0.21743E-06   -0.14504E-06  1440   0.515E-03
   8 F= -.51132313E+02 E0= -.51129390E+02  d E =-.107234E-01
       N       E                     dE             d eps       ncg     rms          rms(c)
DAV:   1    -0.504663012041E+02   -0.60834E-03   -0.15718E+00   912   0.599E+00    0.226E-01
DAV:   2    -0.504664085066E+02   -0.10730E-03   -0.10880E-02  1512   0.560E-01    0.131E-01
DAV:   3    -0.504662255896E+02    0.18292E-03   -0.11995E-03  1464   0.130E-01    0.229E-02
DAV:   4    -0.504662369408E+02   -0.11351E-04   -0.66927E-05  1344   0.373E-02    0.942E-03
DAV:   5    -0.504662390880E+02   -0.21472E-05   -0.57171E-06  1128   0.103E-02    0.173E-03
DAV:   6    -0.504662406644E+02   -0.15764E-05   -0.67198E-07  1224   0.351E-03    0.670E-04
DAV:   7    -0.504662431126E+02   -0.24481E-05   -0.23588E-07  1080   0.145E-03    0.310E-04
DAV:   8    -0.504662442452E+02   -0.11326E-05   -0.69555E-08  1128   0.629E-04    0.226E-04
DAV:   9    -0.504662455714E+02   -0.13262E-05   -0.17819E-07  1056   0.831E-04    0.124E-04
DAV:  10    -0.504662457977E+02   -0.22632E-06   -0.22129E-08  1272   0.327E-04
   9 F= -.51133051E+02 E0= -.51129660E+02  d E =-.114621E-01
       N       E                     dE             d eps       ncg     rms          rms(c)
DAV:   1    -0.504687741649E+02   -0.25286E-02   -0.12181E+00   912   0.542E+00    0.259E-01
DAV:   2    -0.504675171871E+02    0.12570E-02   -0.16744E-02  1296   0.654E-01    0.136E-01
DAV:   3    -0.504670339751E+02    0.48321E-03   -0.23423E-03  1440   0.194E-01    0.345E-02
DAV:   4    -0.504670360147E+02   -0.20397E-05   -0.17082E-04  1392   0.590E-02    0.129E-02
DAV:   5    -0.504670399910E+02   -0.39762E-05   -0.45747E-06  1128   0.104E-02    0.436E-03
DAV:   6    -0.504670434274E+02   -0.34365E-05   -0.19294E-06  1104   0.552E-03    0.104E-03
DAV:   7    -0.504670466571E+02   -0.32297E-05   -0.32438E-07   984   0.202E-03    0.513E-04
DAV:   8    -0.504670495871E+02   -0.29300E-05   -0.22752E-07  1032   0.118E-03    0.380E-04
DAV:   9    -0.504670525710E+02   -0.29840E-05   -0.46745E-07  1008   0.143E-03    0.234E-04
DAV:  10    -0.504670530534E+02   -0.48233E-06   -0.58724E-08  1344   0.603E-04
  10 F= -.51134135E+02 E0= -.51131062E+02  d E =-.108397E-02
       N       E                     dE             d eps       ncg     rms          rms(c)
DAV:   1    -0.504677531663E+02   -0.70060E-03   -0.13801E-01   936   0.182E+00    0.859E-02
DAV:   2    -0.504676187194E+02    0.13445E-03   -0.19289E-03  1728   0.222E-01    0.452E-02
DAV:   3    -0.504675649877E+02    0.53732E-04   -0.24825E-04   936   0.619E-02    0.114E-02
DAV:   4    -0.504675654673E+02   -0.47958E-06   -0.20730E-05  1272   0.208E-02    0.406E-03
DAV:   5    -0.504675657714E+02   -0.30417E-06   -0.57964E-07  1224   0.369E-03
  11 F= -.51134558E+02 E0= -.51131295E+02  d E =-.150661E-02
       N       E                     dE             d eps       ncg     rms          rms(c)
DAV:   1    -0.504680888636E+02   -0.52340E-03   -0.29240E-01   912   0.259E+00    0.959E-02
DAV:   2    -0.504681116305E+02   -0.22767E-04   -0.21942E-03  1224   0.253E-01    0.558E-02
DAV:   3    -0.504680744757E+02    0.37155E-04   -0.24564E-04  1128   0.620E-02    0.951E-03
DAV:   4    -0.504680772474E+02   -0.27716E-05   -0.15549E-05  1512   0.183E-02    0.407E-03
DAV:   5    -0.504680775572E+02   -0.30984E-06   -0.99108E-07  1248   0.431E-03
  12 F= -.51135153E+02 E0= -.51132095E+02  d E =-.594754E-03
       N       E                     dE             d eps       ncg     rms          rms(c)
DAV:   1    -0.504686700060E+02   -0.59276E-03   -0.16182E+00   912   0.608E+00    0.223E-01
DAV:   2    -0.504688151510E+02   -0.14514E-03   -0.12335E-02  1656   0.594E-01    0.129E-01
DAV:   3    -0.504685869158E+02    0.22824E-03   -0.12779E-03  1272   0.137E-01    0.222E-02
DAV:   4    -0.504686000117E+02   -0.13096E-04   -0.73309E-05  1344   0.407E-02    0.946E-03
DAV:   5    -0.504686015131E+02   -0.15014E-05   -0.60218E-06  1128   0.107E-02    0.170E-03
DAV:   6    -0.504686023174E+02   -0.80428E-06   -0.58579E-07  1104   0.352E-03
  13 F= -.51135843E+02 E0= -.51133240E+02  d E =-.128534E-02
       N       E                     dE             d eps       ncg     rms          rms(c)
DAV:   1    -0.504688437076E+02   -0.24219E-03   -0.21739E-02   912   0.698E-01    0.257E-02
DAV:   2    -0.504688453529E+02   -0.16453E-05   -0.16222E-04  1344   0.674E-02    0.148E-02
DAV:   3    -0.504688434059E+02    0.19470E-05   -0.16944E-05   984   0.159E-02    0.273E-03
DAV:   4    -0.504688438746E+02   -0.46867E-06   -0.12527E-06  1104   0.499E-03
  14 F= -.51136093E+02 E0= -.51133514E+02  d E =-.249156E-03
       N       E                     dE             d eps       ncg     rms          rms(c)
DAV:   1    -0.504694812628E+02   -0.63786E-03   -0.19561E-01   912   0.209E+00    0.769E-02
DAV:   2    -0.504694919337E+02   -0.10671E-04   -0.14229E-03  1464   0.201E-01    0.441E-02
DAV:   3    -0.504694691956E+02    0.22738E-04   -0.14658E-04  1032   0.460E-02    0.804E-03
DAV:   4    -0.504694711753E+02   -0.19797E-05   -0.10314E-05  1224   0.146E-02    0.314E-03
DAV:   5    -0.504694713863E+02   -0.21098E-06   -0.70180E-07   936   0.363E-03
  15 F= -.51136740E+02 E0= -.51134225E+02  d E =-.896196E-03
       N       E                     dE             d eps       ncg     rms          rms(c)
DAV:   1    -0.504703960274E+02   -0.92485E-03   -0.78221E-01   912   0.419E+00    0.153E-01
DAV:   2    -0.504704435555E+02   -0.47528E-04   -0.56209E-03  1488   0.398E-01    0.879E-02
DAV:   3    -0.504703462206E+02    0.97335E-04   -0.59726E-04  1104   0.926E-02    0.155E-02
DAV:   4    -0.504703529391E+02   -0.67185E-05   -0.37384E-05  1200   0.285E-02    0.623E-03
DAV:   5    -0.504703535348E+02   -0.59569E-06   -0.24623E-06  1080   0.689E-03
  16 F= -.51137646E+02 E0= -.51135211E+02  d E =-.180271E-02
       N       E                     dE             d eps       ncg     rms          rms(c)
DAV:   1    -0.504710438053E+02   -0.69087E-03   -0.31239E+00   912   0.836E+00    0.305E-01
DAV:   2    -0.504712777355E+02   -0.23393E-03   -0.22345E-02  1584   0.793E-01    0.175E-01
DAV:   3    -0.504708803658E+02    0.39737E-03   -0.23407E-03  1056   0.181E-01    0.300E-02
DAV:   4    -0.504709043888E+02   -0.24023E-04   -0.14088E-04  1320   0.555E-02    0.122E-02
DAV:   5    -0.504709058885E+02   -0.14997E-05   -0.89639E-06  1056   0.130E-02    0.309E-03
DAV:   6    -0.504709062337E+02   -0.34522E-06   -0.11156E-06  1320   0.490E-03
  17 F= -.51138189E+02 E0= -.51135773E+02  d E =-.234535E-02
       N       E                     dE             d eps       ncg     rms          rms(c)
DAV:   1    -0.504709148747E+02   -0.89862E-05   -0.46714E-02   912   0.102E+00    0.372E-02
DAV:   2    -0.504709172273E+02   -0.23526E-05   -0.32989E-04  1008   0.966E-02    0.215E-02
DAV:   3    -0.504709127348E+02    0.44925E-05   -0.37747E-05  1320   0.240E-02    0.360E-03
DAV:   4    -0.504709132251E+02   -0.49038E-06   -0.23258E-06  1248   0.687E-03
  18 F= -.51138201E+02 E0= -.51135792E+02  d E =-.235776E-02
       N       E                     dE             d eps       ncg     rms          rms(c)
DAV:   1    -0.504709130926E+02   -0.35785E-06   -0.14182E-04  1008   0.561E-02    0.219E-03
DAV:   2    -0.504709130941E+02   -0.15109E-08   -0.10991E-06  1512   0.550E-03
  19 F= -.51138201E+02 E0= -.51135792E+02  d E =-.235789E-02
       N       E                     dE             d eps       ncg     rms          rms(c)
DAV:   1    -0.504708031429E+02    0.10995E-03   -0.59371E-01   912   0.364E+00    0.133E-01
DAV:   2    -0.504708397330E+02   -0.36590E-04   -0.41714E-03  1536   0.340E-01    0.763E-02
DAV:   3    -0.504707672350E+02    0.72498E-04   -0.44791E-04  1176   0.793E-02    0.126E-02
DAV:   4    -0.504707722329E+02   -0.49979E-05   -0.24262E-05  1248   0.233E-02    0.534E-03
DAV:   5    -0.504707725500E+02   -0.31709E-06   -0.24627E-06  1032   0.671E-03
  20 F= -.51138070E+02 E0= -.51135664E+02  d E =-.222697E-02
       N       E                     dE             d eps       ncg     rms          rms(c)
DAV:   1    -0.504709408395E+02   -0.16861E-03   -0.55293E-01   912   0.351E+00    0.128E-01
DAV:   2    -0.504709743670E+02   -0.33528E-04   -0.39130E-03  1488   0.332E-01    0.736E-02
DAV:   3    -0.504709073183E+02    0.67049E-04   -0.41984E-04  1056   0.773E-02    0.125E-02
DAV:   4    -0.504709120266E+02   -0.47083E-05   -0.25284E-05  1200   0.233E-02    0.512E-03
DAV:   5    -0.504709124077E+02   -0.38102E-06   -0.18789E-06  1008   0.595E-03
  21 F= -.51138201E+02 E0= -.51135793E+02  d E =-.235779E-02
       N       E                     dE             d eps       ncg     rms          rms(c)
DAV:   1    -0.504709127732E+02   -0.74656E-06   -0.15782E-04  1080   0.594E-02    0.215E-03
DAV:   2    -0.504709127941E+02   -0.20924E-07   -0.10953E-06  1248   0.551E-03
  22 F= -.51138201E+02 E0= -.51135793E+02  d E =-.235791E-02
       N       E                     dE             d eps       ncg     rms          rms(c)
DAV:   1    -0.504709129597E+02   -0.18650E-06   -0.50785E-05   960   0.340E-02    0.138E-03
DAV:   2    -0.504709129587E+02    0.10189E-08   -0.36494E-07  1056   0.316E-03
  23 F= -.51138201E+02 E0= -.51135792E+02  d E =-.235791E-02
       N       E                     dE             d eps       ncg     rms          rms(c)
DAV:   1    -0.504709285313E+02   -0.15572E-04   -0.49375E-03   912   0.334E-01    0.126E-02
DAV:   2    -0.504709281085E+02    0.42287E-06   -0.40999E-05  1152   0.339E-02    0.712E-03
DAV:   3    -0.504709276020E+02    0.50649E-06   -0.45077E-06   984   0.854E-03
  24 F= -.51138213E+02 E0= -.51135801E+02  d E =-.112631E-04
       N       E                     dE             d eps       ncg     rms          rms(c)
DAV:   1    -0.504709367361E+02   -0.86276E-05   -0.53411E-03   912   0.348E-01    0.134E-02
DAV:   2    -0.504709366008E+02    0.13528E-06   -0.44193E-05  1344   0.351E-02    0.761E-03
DAV:   3    -0.504709361589E+02    0.44186E-06   -0.47255E-06  1080   0.862E-03
  25 F= -.51138218E+02 E0= -.51135803E+02  d E =-.161713E-04
