  15  15   0   4
  0.2037108E+02  0.4850000E-09  0.4850000E-09  0.1500000E-08  0.5000000E-15
  1.000000000000000E-004
  CAR 
 Lattice                                 
     10.32236676    -21.69205303  301     -0.33901322      1.00000000
    -21.692  0.0000E+00  0.0000E+00  0.0000E+00  0.0000E+00
    -21.585  0.0000E+00  0.0000E+00  0.0000E+00  0.0000E+00
    -21.479  0.0000E+00  0.0000E+00  0.0000E+00  0.0000E+00
    -21.372  0.0000E+00  0.0000E+00  0.0000E+00  0.0000E+00
    -21.265  0.0000E+00  0.0000E+00  0.0000E+00  0.0000E+00
    -21.158  0.0000E+00  0.0000E+00  0.0000E+00  0.0000E+00
    -21.052  0.0000E+00  0.0000E+00  0.0000E+00  0.0000E+00
    -20.945  0.0000E+00  0.0000E+00  0.0000E+00  0.0000E+00
    -20.838  0.0000E+00  0.0000E+00  0.0000E+00  0.0000E+00
    -20.732  0.7112E-15  0.7112E-15  0.7590E-16  0.7590E-16
    -20.625  0.1211E-10  0.1211E-10  0.1292E-11  0.1292E-11
    -20.518  0.2482E-07  0.2482E-07  0.2650E-08  0.2650E-08
    -20.411  0.6740E-05  0.6740E-05  0.7219E-06  0.7219E-06
    -20.305  0.2709E-03  0.2709E-03  0.2963E-04  0.2963E-04
    -20.198  0.1974E-02  0.1974E-02  0.2403E-03  0.2403E-03
    -20.091  0.4153E-02  0.4153E-02  0.6835E-03  0.6835E-03
    -19.985  0.4524E-02  0.4524E-02  0.1166E-02  0.1166E-02
    -19.878  0.4938E-02  0.4938E-02  0.1693E-02  0.1693E-02
    -19.771  0.4160E-02  0.4160E-02  0.2137E-02  0.2137E-02
    -19.664  0.5387E-02  0.5387E-02  0.2712E-02  0.2712E-02
    -19.558  0.4212E-02  0.4212E-02  0.3161E-02  0.3161E-02
    -19.451  0.4268E-02  0.4268E-02  0.3617E-02  0.3617E-02
    -19.344  0.6009E-02  0.6009E-02  0.4258E-02  0.4258E-02
    -19.238  0.3801E-02  0.3801E-02  0.4664E-02  0.4664E-02
    -19.131  0.3901E-02  0.3901E-02  0.5080E-02  0.5080E-02
    -19.024  0.6121E-02  0.6121E-02  0.5733E-02  0.5733E-02
    -18.917  0.5195E-02  0.5195E-02  0.6288E-02  0.6288E-02
    -18.811  0.2949E-02  0.2949E-02  0.6602E-02  0.6602E-02
    -18.704  0.4417E-02  0.4417E-02  0.7074E-02  0.7074E-02
    -18.597  0.6909E-02  0.6909E-02  0.7811E-02  0.7811E-02
    -18.491  0.4545E-02  0.4545E-02  0.8296E-02  0.8296E-02
    -18.384  0.3786E-02  0.3786E-02  0.8700E-02  0.8700E-02
    -18.277  0.2998E-02  0.2998E-02  0.9020E-02  0.9020E-02
    -18.170  0.6678E-02  0.6678E-02  0.9733E-02  0.9733E-02
    -18.064  0.6569E-02  0.6569E-02  0.1043E-01  0.1043E-01
    -17.957  0.3501E-02  0.3501E-02  0.1081E-01  0.1081E-01
    -17.850  0.3314E-02  0.3314E-02  0.1116E-01  0.1116E-01
    -17.744  0.4117E-02  0.4117E-02  0.1160E-01  0.1160E-01
    -17.637  0.6267E-02  0.6267E-02  0.1227E-01  0.1227E-01
    -17.530  0.6728E-02  0.6728E-02  0.1299E-01  0.1299E-01
    -17.423  0.5410E-02  0.5410E-02  0.1356E-01  0.1356E-01
    -17.317  0.6218E-02  0.6218E-02  0.1423E-01  0.1423E-01
    -17.210  0.1018E-01  0.1018E-01  0.1531E-01  0.1531E-01
    -17.103  0.1460E-01  0.1460E-01  0.1687E-01  0.1687E-01
    -16.997  0.1552E-01  0.1552E-01  0.1853E-01  0.1853E-01
    -16.890  0.1683E-01  0.1683E-01  0.2032E-01  0.2032E-01
    -16.783  0.2062E-01  0.2062E-01  0.2253E-01  0.2253E-01
    -16.676  0.1687E-01  0.1687E-01  0.2433E-01  0.2433E-01
    -16.570  0.5529E-02  0.5529E-02  0.2492E-01  0.2492E-01
    -16.463  0.7471E-02  0.7471E-02  0.2571E-01  0.2571E-01
    -16.356  0.8037E-02  0.8037E-02  0.2657E-01  0.2657E-01
    -16.250  0.4540E-02  0.4540E-02  0.2705E-01  0.2705E-01
    -16.143  0.4129E-02  0.4129E-02  0.2750E-01  0.2750E-01
    -16.036  0.3896E-02  0.3896E-02  0.2791E-01  0.2791E-01
    -15.929  0.3762E-02  0.3762E-02  0.2831E-01  0.2831E-01
    -15.823  0.3768E-02  0.3768E-02  0.2871E-01  0.2871E-01
    -15.716  0.8212E-02  0.8212E-02  0.2959E-01  0.2959E-01
    -15.609  0.7926E-02  0.7926E-02  0.3044E-01  0.3044E-01
    -15.503  0.3881E-02  0.3881E-02  0.3085E-01  0.3085E-01
    -15.396  0.3861E-02  0.3861E-02  0.3126E-01  0.3126E-01
    -15.289  0.3399E-02  0.3399E-02  0.3163E-01  0.3163E-01
    -15.182  0.4682E-02  0.4682E-02  0.3213E-01  0.3213E-01
    -15.076  0.6213E-02  0.6213E-02  0.3279E-01  0.3279E-01
    -14.969  0.1050E-01  0.1050E-01  0.3391E-01  0.3391E-01
    -14.862  0.1647E-01  0.1647E-01  0.3567E-01  0.3567E-01
    -14.756  0.1810E-01  0.1810E-01  0.3760E-01  0.3760E-01
    -14.649  0.1758E-01  0.1758E-01  0.3947E-01  0.3947E-01
    -14.542  0.1106E-01  0.1106E-01  0.4065E-01  0.4065E-01
    -14.435  0.7757E-02  0.7757E-02  0.4148E-01  0.4148E-01
    -14.329  0.1521E-01  0.1521E-01  0.4310E-01  0.4310E-01
    -14.222  0.1526E-01  0.1526E-01  0.4473E-01  0.4473E-01
    -14.115  0.1062E-01  0.1062E-01  0.4587E-01  0.4587E-01
    -14.009  0.1079E-01  0.1079E-01  0.4702E-01  0.4702E-01
    -13.902  0.1223E-01  0.1223E-01  0.4832E-01  0.4832E-01
    -13.795  0.1970E-01  0.1970E-01  0.5043E-01  0.5043E-01
    -13.688  0.2024E-01  0.2024E-01  0.5259E-01  0.5259E-01
    -13.582  0.1820E-01  0.1820E-01  0.5453E-01  0.5453E-01
    -13.475  0.1128E-01  0.1128E-01  0.5573E-01  0.5573E-01
    -13.368  0.6945E-02  0.6945E-02  0.5647E-01  0.5647E-01
    -13.262  0.3295E-02  0.3295E-02  0.5683E-01  0.5683E-01
    -13.155  0.4163E-02  0.4163E-02  0.5727E-01  0.5727E-01
    -13.048  0.6960E-02  0.6960E-02  0.5801E-01  0.5801E-01
    -12.941  0.6787E-02  0.6787E-02  0.5874E-01  0.5874E-01
    -12.835  0.4845E-02  0.4845E-02  0.5925E-01  0.5925E-01
    -12.728  0.6895E-02  0.6895E-02  0.5999E-01  0.5999E-01
    -12.621  0.6989E-02  0.6989E-02  0.6074E-01  0.6074E-01
    -12.515  0.5558E-02  0.5558E-02  0.6133E-01  0.6133E-01
    -12.408  0.5330E-02  0.5330E-02  0.6190E-01  0.6190E-01
    -12.301  0.3300E-02  0.3300E-02  0.6225E-01  0.6225E-01
    -12.194  0.6616E-02  0.6616E-02  0.6296E-01  0.6296E-01
    -12.088  0.7886E-02  0.7886E-02  0.6380E-01  0.6380E-01
    -11.981  0.3210E-02  0.3210E-02  0.6414E-01  0.6414E-01
    -11.874  0.3408E-02  0.3408E-02  0.6450E-01  0.6450E-01
    -11.768  0.3418E-02  0.3418E-02  0.6487E-01  0.6487E-01
    -11.661  0.6191E-02  0.6191E-02  0.6553E-01  0.6553E-01
    -11.554  0.6622E-02  0.6622E-02  0.6624E-01  0.6624E-01
    -11.447  0.3618E-02  0.3618E-02  0.6662E-01  0.6662E-01
    -11.341  0.1936E-02  0.1936E-02  0.6683E-01  0.6683E-01
    -11.234  0.4838E-02  0.4838E-02  0.6734E-01  0.6734E-01
    -11.127  0.5806E-02  0.5806E-02  0.6796E-01  0.6796E-01
    -11.021  0.5101E-02  0.5101E-02  0.6851E-01  0.6851E-01
    -10.914  0.7841E-02  0.7841E-02  0.6934E-01  0.6934E-01
    -10.807  0.5848E-02  0.5848E-02  0.6997E-01  0.6997E-01
    -10.700  0.2406E-02  0.2406E-02  0.7023E-01  0.7023E-01
    -10.594  0.7938E-02  0.7938E-02  0.7107E-01  0.7107E-01
    -10.487  0.1252E-01  0.1252E-01  0.7241E-01  0.7241E-01
    -10.380  0.1534E-01  0.1534E-01  0.7405E-01  0.7405E-01
    -10.274  0.1467E-01  0.1467E-01  0.7561E-01  0.7561E-01
    -10.167  0.1440E-01  0.1440E-01  0.7715E-01  0.7715E-01
    -10.060  0.1816E-01  0.1816E-01  0.7909E-01  0.7909E-01
     -9.953  0.1908E-01  0.1908E-01  0.8112E-01  0.8112E-01
     -9.847  0.9709E-02  0.9710E-02  0.8216E-01  0.8216E-01
     -9.740  0.6345E-02  0.6345E-02  0.8284E-01  0.8284E-01
     -9.633  0.1419E-01  0.1419E-01  0.8435E-01  0.8435E-01
     -9.527  0.1622E-01  0.1622E-01  0.8608E-01  0.8608E-01
     -9.420  0.1638E-01  0.1638E-01  0.8783E-01  0.8783E-01
     -9.313  0.1475E-01  0.1475E-01  0.8940E-01  0.8940E-01
     -9.206  0.1416E-01  0.1416E-01  0.9092E-01  0.9092E-01
     -9.100  0.1087E-01  0.1087E-01  0.9208E-01  0.9208E-01
     -8.993  0.8000E-02  0.8000E-02  0.9293E-01  0.9293E-01
     -8.886  0.1511E-01  0.1511E-01  0.9454E-01  0.9454E-01
     -8.780  0.2024E-01  0.2024E-01  0.9670E-01  0.9670E-01
     -8.673  0.1576E-01  0.1576E-01  0.9838E-01  0.9838E-01
     -8.566  0.7641E-02  0.7641E-02  0.9920E-01  0.9920E-01
     -8.459  0.1071E-01  0.1071E-01  0.1003E+00  0.1003E+00
     -8.353  0.2083E-01  0.2083E-01  0.1026E+00  0.1026E+00
     -8.246  0.1866E-01  0.1866E-01  0.1046E+00  0.1046E+00
     -8.139  0.1160E-01  0.1160E-01  0.1058E+00  0.1058E+00
     -8.033  0.1608E-01  0.1608E-01  0.1075E+00  0.1075E+00
     -7.926  0.2539E-01  0.2539E-01  0.1102E+00  0.1102E+00
     -7.819  0.2457E-01  0.2457E-01  0.1128E+00  0.1128E+00
     -7.712  0.2002E-01  0.2002E-01  0.1150E+00  0.1150E+00
     -7.606  0.1011E-01  0.1011E-01  0.1161E+00  0.1161E+00
     -7.499  0.8803E-02  0.8803E-02  0.1170E+00  0.1170E+00
     -7.392  0.1893E-01  0.1893E-01  0.1190E+00  0.1190E+00
     -7.286  0.1790E-01  0.1790E-01  0.1209E+00  0.1209E+00
     -7.179  0.1158E-01  0.1158E-01  0.1222E+00  0.1222E+00
     -7.072  0.1105E-01  0.1105E-01  0.1233E+00  0.1233E+00
     -6.965  0.1709E-01  0.1709E-01  0.1252E+00  0.1252E+00
     -6.859  0.1822E-01  0.1822E-01  0.1271E+00  0.1271E+00
     -6.752  0.2029E-01  0.2029E-01  0.1293E+00  0.1293E+00
     -6.645  0.2037E-01  0.2037E-01  0.1314E+00  0.1314E+00
     -6.539  0.1801E-01  0.1801E-01  0.1334E+00  0.1334E+00
     -6.432  0.2016E-01  0.2016E-01  0.1355E+00  0.1355E+00
     -6.325  0.1712E-01  0.1712E-01  0.1374E+00  0.1374E+00
     -6.218  0.1886E-01  0.1886E-01  0.1394E+00  0.1394E+00
     -6.112  0.2608E-01  0.2608E-01  0.1421E+00  0.1421E+00
     -6.005  0.2213E-01  0.2213E-01  0.1445E+00  0.1445E+00
     -5.898  0.3169E-01  0.3169E-01  0.1479E+00  0.1479E+00
     -5.792  0.2913E-01  0.2913E-01  0.1510E+00  0.1510E+00
     -5.685  0.1577E-01  0.1577E-01  0.1527E+00  0.1527E+00
     -5.578  0.1792E-01  0.1792E-01  0.1546E+00  0.1546E+00
     -5.471  0.3285E-01  0.3285E-01  0.1581E+00  0.1581E+00
     -5.365  0.3641E-01  0.3641E-01  0.1620E+00  0.1620E+00
     -5.258  0.2373E-01  0.2373E-01  0.1645E+00  0.1645E+00
     -5.151  0.1674E-01  0.1674E-01  0.1663E+00  0.1663E+00
     -5.045  0.1068E-01  0.1068E-01  0.1674E+00  0.1674E+00
     -4.938  0.1075E-01  0.1075E-01  0.1686E+00  0.1686E+00
     -4.831  0.1427E-01  0.1427E-01  0.1701E+00  0.1701E+00
     -4.724  0.1082E-01  0.1082E-01  0.1713E+00  0.1713E+00
     -4.618  0.7910E-02  0.7910E-02  0.1721E+00  0.1721E+00
     -4.511  0.9366E-02  0.9366E-02  0.1731E+00  0.1731E+00
     -4.404  0.1677E-01  0.1677E-01  0.1749E+00  0.1749E+00
     -4.298  0.2166E-01  0.2166E-01  0.1772E+00  0.1772E+00
     -4.191  0.1811E-01  0.1811E-01  0.1791E+00  0.1791E+00
     -4.084  0.1929E-01  0.1929E-01  0.1812E+00  0.1812E+00
     -3.977  0.2254E-01  0.2254E-01  0.1836E+00  0.1836E+00
     -3.871  0.2358E-01  0.2358E-01  0.1861E+00  0.1861E+00
     -3.764  0.1819E-01  0.1819E-01  0.1881E+00  0.1881E+00
     -3.657  0.1799E-01  0.1799E-01  0.1900E+00  0.1900E+00
     -3.551  0.2047E-01  0.2047E-01  0.1922E+00  0.1922E+00
     -3.444  0.1578E-01  0.1578E-01  0.1939E+00  0.1939E+00
     -3.337  0.1396E-01  0.1396E-01  0.1953E+00  0.1953E+00
     -3.230  0.1307E-01  0.1307E-01  0.1967E+00  0.1967E+00
     -3.124  0.1706E-01  0.1706E-01  0.1986E+00  0.1986E+00
     -3.017  0.1836E-01  0.1836E-01  0.2005E+00  0.2005E+00
     -2.910  0.1194E-01  0.1194E-01  0.2018E+00  0.2018E+00
     -2.804  0.1176E-01  0.1176E-01  0.2030E+00  0.2030E+00
     -2.697  0.7453E-02  0.7453E-02  0.2038E+00  0.2038E+00
     -2.590  0.1020E-01  0.1020E-01  0.2049E+00  0.2049E+00
     -2.483  0.1988E-01  0.1988E-01  0.2071E+00  0.2071E+00
     -2.377  0.1396E-01  0.1396E-01  0.2085E+00  0.2085E+00
     -2.270  0.4015E-02  0.4015E-02  0.2090E+00  0.2090E+00
     -2.163  0.4701E-02  0.4701E-02  0.2095E+00  0.2095E+00
     -2.057  0.1030E-01  0.1030E-01  0.2106E+00  0.2106E+00
     -1.950  0.1044E-01  0.1044E-01  0.2117E+00  0.2117E+00
     -1.843  0.1124E-01  0.1124E-01  0.2129E+00  0.2129E+00
     -1.736  0.1163E-01  0.1163E-01  0.2141E+00  0.2141E+00
     -1.630  0.9327E-02  0.9327E-02  0.2151E+00  0.2151E+00
     -1.523  0.7052E-02  0.7052E-02  0.2159E+00  0.2159E+00
     -1.416  0.4649E-02  0.4649E-02  0.2164E+00  0.2164E+00
     -1.310  0.3873E-02  0.3873E-02  0.2168E+00  0.2168E+00
     -1.203  0.4001E-02  0.4001E-02  0.2172E+00  0.2172E+00
     -1.096  0.4126E-02  0.4126E-02  0.2176E+00  0.2176E+00
     -0.989  0.5879E-02  0.5879E-02  0.2183E+00  0.2183E+00
     -0.883  0.2747E-02  0.2747E-02  0.2186E+00  0.2186E+00
     -0.776  0.6006E-03  0.6006E-03  0.2186E+00  0.2186E+00
     -0.669  0.6874E-04  0.6874E-04  0.2186E+00  0.2186E+00
     -0.563  0.3041E-05  0.3041E-05  0.2186E+00  0.2186E+00
     -0.456  0.1002E-03  0.1002E-03  0.2187E+00  0.2187E+00
     -0.349  0.8001E-03  0.8001E-03  0.2187E+00  0.2187E+00
     -0.242  0.9548E-03  0.9548E-03  0.2188E+00  0.2188E+00
     -0.136  0.1725E-03  0.1725E-03  0.2189E+00  0.2189E+00
     -0.029  0.4272E-05  0.4272E-05  0.2189E+00  0.2189E+00
      0.078  0.4685E-06  0.4685E-06  0.2189E+00  0.2189E+00
      0.184  0.6797E-04  0.6797E-04  0.2189E+00  0.2189E+00
      0.291  0.1271E-02  0.1271E-02  0.2190E+00  0.2190E+00
      0.398  0.3353E-02  0.3353E-02  0.2194E+00  0.2194E+00
      0.505  0.1448E-02  0.1448E-02  0.2195E+00  0.2195E+00
      0.611  0.1290E-02  0.1290E-02  0.2197E+00  0.2197E+00
      0.718  0.3280E-02  0.3280E-02  0.2200E+00  0.2200E+00
      0.825  0.5212E-02  0.5212E-02  0.2206E+00  0.2206E+00
      0.931  0.1022E-01  0.1022E-01  0.2216E+00  0.2216E+00
      1.038  0.2590E-01  0.2590E-01  0.2244E+00  0.2244E+00
      1.145  0.1991E-01  0.1991E-01  0.2265E+00  0.2265E+00
      1.252  0.4916E-02  0.4916E-02  0.2271E+00  0.2271E+00
      1.358  0.4318E-02  0.4318E-02  0.2275E+00  0.2275E+00
      1.465  0.8626E-02  0.8626E-02  0.2284E+00  0.2284E+00
      1.572  0.1285E-01  0.1285E-01  0.2298E+00  0.2298E+00
      1.678  0.1958E-01  0.1958E-01  0.2319E+00  0.2319E+00
      1.785  0.1504E-01  0.1504E-01  0.2335E+00  0.2335E+00
      1.892  0.6185E-02  0.6185E-02  0.2342E+00  0.2342E+00
      1.999  0.7036E-02  0.7036E-02  0.2349E+00  0.2349E+00
      2.105  0.9883E-02  0.9883E-02  0.2360E+00  0.2360E+00
      2.212  0.7177E-02  0.7177E-02  0.2367E+00  0.2367E+00
      2.319  0.8280E-02  0.8280E-02  0.2376E+00  0.2376E+00
      2.425  0.7654E-02  0.7654E-02  0.2384E+00  0.2384E+00
      2.532  0.1107E-01  0.1107E-01  0.2396E+00  0.2396E+00
      2.639  0.1044E-01  0.1044E-01  0.2407E+00  0.2407E+00
      2.746  0.6254E-02  0.6254E-02  0.2414E+00  0.2414E+00
      2.852  0.4387E-02  0.4388E-02  0.2419E+00  0.2419E+00
      2.959  0.9727E-02  0.9729E-02  0.2429E+00  0.2429E+00
      3.066  0.1204E-01  0.1204E-01  0.2442E+00  0.2442E+00
      3.172  0.8944E-02  0.8945E-02  0.2451E+00  0.2451E+00
      3.279  0.1016E-01  0.1016E-01  0.2462E+00  0.2462E+00
      3.386  0.1025E-01  0.1024E-01  0.2473E+00  0.2473E+00
      3.493  0.1117E-01  0.1117E-01  0.2485E+00  0.2485E+00
      3.599  0.1642E-01  0.1643E-01  0.2503E+00  0.2503E+00
      3.706  0.2214E-01  0.2214E-01  0.2526E+00  0.2526E+00
      3.813  0.2536E-01  0.2536E-01  0.2553E+00  0.2553E+00
      3.919  0.2239E-01  0.2239E-01  0.2577E+00  0.2577E+00
      4.026  0.2368E-01  0.2368E-01  0.2603E+00  0.2603E+00
      4.133  0.2349E-01  0.2349E-01  0.2628E+00  0.2628E+00
      4.240  0.2615E-01  0.2615E-01  0.2656E+00  0.2656E+00
      4.346  0.2435E-01  0.2435E-01  0.2682E+00  0.2682E+00
      4.453  0.2272E-01  0.2272E-01  0.2706E+00  0.2706E+00
      4.560  0.2176E-01  0.2176E-01  0.2729E+00  0.2729E+00
      4.666  0.2169E-01  0.2170E-01  0.2752E+00  0.2752E+00
      4.773  0.2671E-01  0.2671E-01  0.2781E+00  0.2781E+00
      4.880  0.2340E-01  0.2340E-01  0.2806E+00  0.2806E+00
      4.987  0.2179E-01  0.2179E-01  0.2829E+00  0.2829E+00
      5.093  0.2591E-01  0.2591E-01  0.2857E+00  0.2857E+00
      5.200  0.2663E-01  0.2662E-01  0.2885E+00  0.2885E+00
      5.307  0.2472E-01  0.2472E-01  0.2911E+00  0.2911E+00
      5.413  0.2154E-01  0.2155E-01  0.2934E+00  0.2934E+00
      5.520  0.2036E-01  0.2037E-01  0.2956E+00  0.2956E+00
      5.627  0.2656E-01  0.2656E-01  0.2984E+00  0.2984E+00
      5.734  0.2330E-01  0.2331E-01  0.3009E+00  0.3009E+00
      5.840  0.2318E-01  0.2317E-01  0.3034E+00  0.3034E+00
      5.947  0.1926E-01  0.1925E-01  0.3055E+00  0.3055E+00
      6.054  0.2028E-01  0.2028E-01  0.3076E+00  0.3076E+00
      6.160  0.1565E-01  0.1565E-01  0.3093E+00  0.3093E+00
      6.267  0.1890E-01  0.1891E-01  0.3113E+00  0.3113E+00
      6.374  0.2334E-01  0.2334E-01  0.3138E+00  0.3138E+00
      6.481  0.2327E-01  0.2326E-01  0.3163E+00  0.3163E+00
      6.587  0.2503E-01  0.2503E-01  0.3189E+00  0.3189E+00
      6.694  0.2751E-01  0.2752E-01  0.3219E+00  0.3219E+00
      6.801  0.3182E-01  0.3182E-01  0.3253E+00  0.3253E+00
      6.907  0.2655E-01  0.2653E-01  0.3281E+00  0.3281E+00
      7.014  0.2596E-01  0.2596E-01  0.3309E+00  0.3309E+00
      7.121  0.2646E-01  0.2646E-01  0.3337E+00  0.3337E+00
      7.228  0.2139E-01  0.2139E-01  0.3360E+00  0.3360E+00
      7.334  0.1932E-01  0.1932E-01  0.3381E+00  0.3381E+00
      7.441  0.1942E-01  0.1942E-01  0.3401E+00  0.3401E+00
      7.548  0.2417E-01  0.2417E-01  0.3427E+00  0.3427E+00
      7.654  0.2499E-01  0.2499E-01  0.3454E+00  0.3454E+00
      7.761  0.3152E-01  0.3154E-01  0.3487E+00  0.3487E+00
      7.868  0.3369E-01  0.3371E-01  0.3523E+00  0.3523E+00
      7.975  0.2505E-01  0.2504E-01  0.3550E+00  0.3550E+00
      8.081  0.3212E-01  0.3211E-01  0.3584E+00  0.3584E+00
      8.188  0.3508E-01  0.3506E-01  0.3622E+00  0.3622E+00
      8.295  0.3446E-01  0.3444E-01  0.3659E+00  0.3659E+00
      8.402  0.3781E-01  0.3781E-01  0.3699E+00  0.3699E+00
      8.508  0.2486E-01  0.2486E-01  0.3725E+00  0.3725E+00
      8.615  0.1199E-01  0.1199E-01  0.3738E+00  0.3738E+00
      8.722  0.4902E-02  0.4903E-02  0.3743E+00  0.3743E+00
      8.828  0.3141E-02  0.3141E-02  0.3747E+00  0.3747E+00
      8.935  0.2468E-02  0.2468E-02  0.3749E+00  0.3749E+00
      9.042  0.5405E-03  0.5402E-03  0.3750E+00  0.3750E+00
      9.149  0.2079E-04  0.2078E-04  0.3750E+00  0.3750E+00
      9.255  0.1052E-06  0.1051E-06  0.3750E+00  0.3750E+00
      9.362  0.6147E-10  0.6138E-10  0.3750E+00  0.3750E+00
      9.469  0.3939E-14  0.3931E-14  0.3750E+00  0.3750E+00
      9.575  0.0000E+00  0.0000E+00  0.3750E+00  0.3750E+00
      9.682  0.0000E+00  0.0000E+00  0.3750E+00  0.3750E+00
      9.789  0.0000E+00  0.0000E+00  0.3750E+00  0.3750E+00
      9.896  0.0000E+00  0.0000E+00  0.3750E+00  0.3750E+00
     10.002  0.0000E+00  0.0000E+00  0.3750E+00  0.3750E+00
     10.109  0.0000E+00  0.0000E+00  0.3750E+00  0.3750E+00
     10.216  0.0000E+00  0.0000E+00  0.3750E+00  0.3750E+00
     10.322  0.0000E+00  0.0000E+00  0.3750E+00  0.3750E+00
