       N       E                     dE             d eps       ncg     rms          rms(c)
DAV:   1     0.203869282885E+03    0.20387E+03   -0.25662E+04 14208   0.859E+02
DAV:   2    -0.116518783275E+03   -0.32039E+03   -0.31873E+03 20496   0.162E+02
DAV:   3    -0.129304991189E+03   -0.12786E+02   -0.12768E+02 26496   0.428E+01
DAV:   4    -0.129328928162E+03   -0.23937E-01   -0.23936E-01 19872   0.180E+00
DAV:   5    -0.129328991254E+03   -0.63091E-04   -0.63091E-04 25440   0.932E-02    0.244E+01
DAV:   6    -0.919847047538E+02    0.37344E+02   -0.72540E+01 25776   0.255E+01    0.138E+01
DAV:   7    -0.100438629070E+03   -0.84539E+01   -0.98864E+00 21552   0.101E+01    0.809E+00
DAV:   8    -0.110415538258E+03   -0.99769E+01   -0.87891E+00 23904   0.896E+00    0.434E+00
DAV:   9    -0.117154484674E+03   -0.67389E+01   -0.38976E+00 19152   0.611E+00    0.277E+00
DAV:  10    -0.123496174779E+03   -0.63417E+01   -0.81599E+00 23808   0.709E+00    0.159E+00
DAV:  11    -0.125276628206E+03   -0.17805E+01   -0.27970E+00 25344   0.382E+00    0.990E-01
DAV:  12    -0.125437360602E+03   -0.16073E+00   -0.22748E-01 19680   0.138E+00    0.464E-01
DAV:  13    -0.125464524895E+03   -0.27164E-01   -0.23069E-02 18048   0.556E-01    0.187E-01
DAV:  14    -0.125486913037E+03   -0.22388E-01   -0.60230E-03 20112   0.284E-01    0.838E-02
DAV:  15    -0.125494379701E+03   -0.74667E-02   -0.31139E-03 19104   0.157E-01    0.437E-02
DAV:  16    -0.125496341112E+03   -0.19614E-02   -0.62904E-04 16608   0.811E-02    0.221E-02
DAV:  17    -0.125497588301E+03   -0.12472E-02   -0.16967E-04 14400   0.519E-02    0.169E-02
DAV:  18    -0.125498315363E+03   -0.72706E-03   -0.84169E-05 16032   0.383E-02    0.122E-02
DAV:  19    -0.125498740392E+03   -0.42503E-03   -0.40592E-05 19632   0.248E-02    0.718E-03
DAV:  20    -0.125498792872E+03   -0.52480E-04   -0.21376E-05 21984   0.178E-02    0.433E-03
DAV:  21    -0.125498813756E+03   -0.20884E-04   -0.57939E-06 20544   0.960E-03    0.216E-03
DAV:  22    -0.125498835309E+03   -0.21553E-04   -0.22251E-06 22080   0.558E-03    0.137E-03
DAV:  23    -0.125498849978E+03   -0.14668E-04   -0.16760E-06 21648   0.401E-03    0.714E-04
DAV:  24    -0.125498852896E+03   -0.29186E-05   -0.32076E-07 23232   0.215E-03    0.374E-04
DAV:  25    -0.125498853839E+03   -0.94294E-06   -0.11544E-07 22176   0.115E-03
   1 F= -.12708920E+03 E0= -.12708842E+03  d E =-.127089E+03  mag=    -0.0000
       N       E                     dE             d eps       ncg     rms          rms(c)
DAV:   1    -0.125508714309E+03   -0.98614E-02   -0.32831E+00 14208   0.559E+00    0.492E-01
DAV:   2    -0.125500024024E+03    0.86903E-02   -0.65813E-02 26112   0.726E-01    0.217E-01
DAV:   3    -0.125499046965E+03    0.97706E-03   -0.54566E-03 21120   0.206E-01    0.849E-02
DAV:   4    -0.125499004121E+03    0.42844E-04   -0.62978E-04 26736   0.713E-02    0.225E-02
DAV:   5    -0.125499007299E+03   -0.31775E-05   -0.18351E-05 24480   0.136E-02    0.741E-03
DAV:   6    -0.125499007276E+03    0.22886E-07   -0.38883E-06 23088   0.579E-03
   2 F= -.12708877E+03 E0= -.12708799E+03  d E =0.424982E-03  mag=    -0.0000
       N       E                     dE             d eps       ncg     rms          rms(c)
DAV:   1    -0.125509019148E+03   -0.10012E-01   -0.84595E-01 14208   0.283E+00    0.250E-01
DAV:   2    -0.125506726359E+03    0.22928E-02   -0.16890E-02 26352   0.367E-01    0.110E-01
DAV:   3    -0.125506482631E+03    0.24373E-03   -0.13763E-03 23616   0.105E-01    0.436E-02
DAV:   4    -0.125506471850E+03    0.10781E-04   -0.15550E-04 22464   0.355E-02    0.111E-02
DAV:   5    -0.125506472610E+03   -0.75994E-06   -0.52189E-06 22752   0.720E-03
   3 F= -.12709653E+03 E0= -.12709575E+03  d E =-.733025E-02  mag=    -0.0000
       N       E                     dE             d eps       ncg     rms          rms(c)
DAV:   1    -0.125512425906E+03   -0.59541E-02   -0.29234E-01 14208   0.192E+00    0.113E-01
DAV:   2    -0.125512474684E+03   -0.48779E-04   -0.19293E-03 27888   0.179E-01    0.660E-02
DAV:   3    -0.125512471323E+03    0.33618E-05   -0.19003E-04 22848   0.496E-02    0.171E-02
