 vasp.6.3.2 27Jun22 (build Dec 22 2022 13:13:19) complex                        
  
 executed on             LinuxIFC date 2023.08.22  23:25:07
 running   48 mpi-ranks, with    1 threads/rank
 distrk:  each k-point on   48 cores,    1 groups
 distr:  one band on NCORE=   1 cores,   48 groups


--------------------------------------------------------------------------------------------------------


 INCAR:
   SYSTEM = Lattice
   ISTART = 0
   ICHARG = 2
   PREC = Accurate
   ENCUT = 450
   LCHARG = .FALSE.
   LWAVE = .FALSE.
   ALGO = Normal
   NELM = 64
   EDIFF = 1E-6
   EDIFFG = -1E-3
   SIGMA = 0.1
   ISMEAR = 0
   ISPIN = 2
   NSW = 128
   IBRION = 2
   POTIM = .5
   ISIF = 2
   GGA = PE
   IVDW = 12

 POTCAR:    PAW_PBE B 06Sep2000                   
 POTCAR:    PAW_PBE C 08Apr2002                   
 -----------------------------------------------------------------------------
|                                                                             |
|           W    W    AA    RRRRR   N    N  II  N    N   GGGG   !!!           |
|           W    W   A  A   R    R  NN   N  II  NN   N  G    G  !!!           |
|           W    W  A    A  R    R  N N  N  II  N N  N  G       !!!           |
|           W WW W  AAAAAA  RRRRR   N  N N  II  N  N N  G  GGG   !            |
|           WW  WW  A    A  R   R   N   NN  II  N   NN  G    G                |
|           W    W  A    A  R    R  N    N  II  N    N   GGGG   !!!           |
|                                                                             |
|     You use a magnetic or noncollinear calculation, but did not specify     |
|     the initial magnetic moment with the MAGMOM tag. Note that a            |
|     default of 1 will be used for all atoms. This ferromagnetic setup       |
|     may break the symmetry of the crystal, in particular it may rule        |
|     out finding an antiferromagnetic solution. Thence, we recommend         |
|     setting the initial magnetic moment manually or verifying carefully     |
|     that this magnetic setup is desired.                                    |
|                                                                             |
 -----------------------------------------------------------------------------

 POTCAR:    PAW_PBE B 06Sep2000                   
   SHA256 =  a32ced30f5ae56fd4d10b4325ff17eb3e4e38ee0f4288bc219fb012fddfa6e97 B/POTCAR              
   COPYR  = (c) Copyright 06Sep2000 Georg Kresse                                                    
   COPYR  = This file is part of the software VASP. Any use, copying, and all other rights are regul
   COPYR  = If you do not have a valid VASP license, you may not use, copy or distribute this file. 
   VRHFIN =B: s2p1                                                                                  
   LEXCH  = PE                                                                                      
   EATOM  =    71.1703 eV,    5.2309 Ry                                                             
                                                                                                    
   TITEL  = PAW_PBE B 06Sep2000                                                                     
   LULTRA =        F    use ultrasoft PP ?                                                          
   IUNSCR =        1    unscreen: 0-lin 1-nonlin 2-no                                               
   RPACOR =    1.200    partial core radius                                                         
   POMASS =   10.811; ZVAL   =    3.000    mass and valenz                                          
   RCORE  =    1.700    outmost cutoff radius                                                       
   RWIGS  =    1.710; RWIGS  =    0.905    wigner-seitz radius (au A)                               
   ENMAX  =  318.614; ENMIN  =  238.960 eV                                                          
   ICORE  =        2    local potential                                                             
   LCOR   =        T    correct aug charges                                                         
   LPAW   =        T    paw PP                                                                      
   EAUG   =  535.514                                                                                
   DEXC   =    0.000                                                                                
   RMAX   =    1.732    core radius for proj-oper                                                   
   RAUG   =    1.300    factor for augmentation sphere                                              
   RDEP   =    1.757    radius for radial grids                                                     
   RDEPT  =    1.436    core radius for aug-charge                                                  
                                                                                                    
   Atomic configuration                                                                             
    4 entries                                                                                       
     n  l   j            E        occ.                                                              
     1  0  0.50      -180.5896   2.0000                                                             
     2  0  0.50        -9.4431   2.0000                                                             
     2  1  0.50        -3.6068   1.0000                                                             
     3  2  1.50        -4.0817   0.0000                                                             
   Description                                                                                      
     l       E           TYP  RCUT    TYP  RCUT                                                     
     0     -9.4430752     23  1.500                                                                 
     0      0.8675899     23  1.500                                                                 
     1     -3.6067955     23  1.700                                                                 
     1      6.1086146     23  1.700                                                                 
     2     -4.0817478      7  1.700                                                                 
  local pseudopotential read in
  partial core-charges read in
  partial kinetic energy density read in
  atomic valenz-charges read in
  non local Contribution for L=           0  read in
    real space projection operators read in
  non local Contribution for L=           0  read in
    real space projection operators read in
  non local Contribution for L=           1  read in
    real space projection operators read in
  non local Contribution for L=           1  read in
    real space projection operators read in
    PAW grid and wavefunctions read in
 
   number of l-projection  operators is LMAX  =           4
   number of lm-projection operators is LMMAX =           8
 
 POTCAR:    PAW_PBE C 08Apr2002                   
   SHA256 =  253f7b50bb8d59471dbedb8285d89021f4a42ed1a2c5d38a03a736e69125dd95 C/POTCAR              
   COPYR  = (c) Copyright 08Apr2002 Georg Kresse                                                    
   COPYR  = This file is part of the software VASP. Any use, copying, and all other rights are regul
   COPYR  = If you do not have a valid VASP license, you may not use, copy or distribute this file. 
   VRHFIN =C: s2p2                                                                                  
   LEXCH  = PE                                                                                      
   EATOM  =   147.1560 eV,   10.8157 Ry                                                             
                                                                                                    
   TITEL  = PAW_PBE C 08Apr2002                                                                     
   LULTRA =        F    use ultrasoft PP ?                                                          
   IUNSCR =        1    unscreen: 0-lin 1-nonlin 2-no                                               
   RPACOR =    1.200    partial core radius                                                         
   POMASS =   12.011; ZVAL   =    4.000    mass and valenz                                          
   RCORE  =    1.500    outmost cutoff radius                                                       
   RWIGS  =    1.630; RWIGS  =    0.863    wigner-seitz radius (au A)                               
   ENMAX  =  400.000; ENMIN  =  300.000 eV                                                          
   ICORE  =        2    local potential                                                             
   LCOR   =        T    correct aug charges                                                         
   LPAW   =        T    paw PP                                                                      
   EAUG   =  644.873                                                                                
   DEXC   =    0.000                                                                                
   RMAX   =    1.529    core radius for proj-oper                                                   
   RAUG   =    1.300    factor for augmentation sphere                                              
   RDEP   =    1.501    radius for radial grids                                                     
   RDEPT  =    1.300    core radius for aug-charge                                                  
                                                                                                    
   Atomic configuration                                                                             
    4 entries                                                                                       
     n  l   j            E        occ.                                                              
     1  0  0.50      -273.3789   2.0000                                                             
     2  0  0.50       -13.7508   2.0000                                                             
     2  1  0.50        -5.2854   2.0000                                                             
     3  2  1.50        -5.4423   0.0000                                                             
   Description                                                                                      
     l       E           TYP  RCUT    TYP  RCUT                                                     
     0    -13.7508458     23  1.200                                                                 
     0     -8.2022199     23  1.200                                                                 
     1     -5.2854383     23  1.500                                                                 
     1     34.0145650     23  1.500                                                                 
     2     -5.4423304      7  1.500                                                                 
  local pseudopotential read in
  partial core-charges read in
  partial kinetic energy density read in
  atomic valenz-charges read in
  non local Contribution for L=           0  read in
    real space projection operators read in
  non local Contribution for L=           0  read in
    real space projection operators read in
  non local Contribution for L=           1  read in
    real space projection operators read in
  non local Contribution for L=           1  read in
    real space projection operators read in
    PAW grid and wavefunctions read in
 
   number of l-projection  operators is LMAX  =           4
   number of lm-projection operators is LMMAX =           8
 
  PAW_PBE B 06Sep2000                   :
 energy of atom  1       EATOM=  -71.1703
 kinetic energy error for atom=    0.0015 (will be added to EATOM!!)
  PAW_PBE C 08Apr2002                   :
 energy of atom  2       EATOM= -147.1560
 kinetic energy error for atom=    0.0116 (will be added to EATOM!!)
 
 
 POSCAR: Graphene-B4C3 Bridge with lattice parame
  positions in direct lattice
  No initial velocities read in
 exchange correlation table for  LEXCH =        8
   RHO(1)=    0.500       N(1)  =     2000
   RHO(2)=  100.500       N(2)  =     4000

 VTST: version 4.2, (08/11/21)

 CHAIN: initializing optimizer
 
 OPT: Using VASP Conjugate-Gradient optimizer
 CHAIN: Read ICHAIN            0
 
 POSCAR: Graphene-B4C3 Bridge with lattice parame
  positions in direct lattice
  No initial velocities read in
 


--------------------------------------------------------------------------------------------------------


 ion  position               nearest neighbor table
   1  0.004  0.003  0.120-   7 1.60   6 1.60   5 1.60   4 1.74   2 1.74   3 1.75
   2  0.357  0.003  0.097-   6 1.57   5 1.65   7 1.65   1 1.74
   3  0.004  0.356  0.097-   7 1.57   5 1.65   6 1.65   1 1.75
   4  0.651  0.650  0.097-   5 1.57   6 1.65   7 1.65   1 1.74
   5  0.328  0.327  0.100-   4 1.57   1 1.60   3 1.65   2 1.65
   6  0.680  0.003  0.100-   2 1.57   1 1.60   4 1.65   3 1.65
   7  0.004  0.679  0.100-   3 1.57   1 1.60   4 1.65   2 1.65
   8  0.083  0.417  0.336-  11 1.40  13 1.40   9 1.40
   9  0.250  0.250  0.336-  10 1.40  12 1.40   8 1.40
  10  0.083  0.917  0.336-   9 1.40  15 1.40  11 1.40
  11  0.250  0.750  0.336-   8 1.40  14 1.40  10 1.40
  12  0.583  0.417  0.336-   9 1.40  15 1.40  13 1.40
  13  0.750  0.250  0.336-   8 1.40  14 1.40  12 1.40
  14  0.583  0.917  0.336-  11 1.40  13 1.40  15 1.40
  15  0.750  0.750  0.336-  10 1.40  12 1.40  14 1.40
 
  LATTYP: Found a hexagonal cell.
 ALAT       =     4.8500000000
 C/A-ratio  =     3.0927835052
  
  Lattice vectors:
  
 A1 = (   4.2002232084,   2.4250000000,   0.0000000000)
 A2 = (  -4.2002232084,   2.4250000000,   0.0000000000)
 A3 = (   0.0000000000,   0.0000000000,  15.0000000000)


Analysis of symmetry for initial positions (statically):
=====================================================================
 Subroutine PRICEL returns:
 Original cell was already a primitive cell.
 

 Routine SETGRP: Setting up the symmetry group for a 
 hexagonal supercell.


 Subroutine GETGRP returns: Found  1 space group operations
 (whereof  1 operations were pure point group operations)
 out of a pool of 24 trial point group operations.


The static configuration has the point symmetry C_1 .


Analysis of symmetry for dynamics (positions and initial velocities):
=====================================================================
 Subroutine PRICEL returns:
 Original cell was already a primitive cell.
 

 Routine SETGRP: Setting up the symmetry group for a 
 hexagonal supercell.


 Subroutine GETGRP returns: Found  1 space group operations
 (whereof  1 operations were pure point group operations)
 out of a pool of 24 trial point group operations.


The dynamic configuration has the point symmetry C_1 .


Analysis of structural, dynamic, and magnetic symmetry:
=====================================================================
 Subroutine PRICEL returns:
 Original cell was already a primitive cell.
 

 Routine SETGRP: Setting up the symmetry group for a 
 hexagonal supercell.


 Subroutine GETGRP returns: Found  1 space group operations
 (whereof  1 operations were pure point group operations)
 out of a pool of 24 trial point group operations.


The overall configuration has the point symmetry C_1 .


 Subroutine INISYM returns: Found  1 space group operations
 (whereof  1 operations are pure point group operations),
 and found     1 'primitive' translations


----------------------------------------------------------------------------------------

                                     Primitive cell                                     

  volume of cell :     305.5662

  direct lattice vectors                    reciprocal lattice vectors
     4.200223208  2.425000000  0.000000000     0.119041293  0.206185567  0.000000000
    -4.200223208  2.425000000  0.000000000    -0.119041293  0.206185567  0.000000000
     0.000000000  0.000000000 15.000000000     0.000000000  0.000000000  0.066666667

  length of vectors
     4.850000000  4.850000000 15.000000000     0.238082585  0.238082585  0.066666667

  position of ions in fractional coordinates (direct lattice)
     0.004153607  0.002672102  0.120341338
     0.356953351  0.002855031  0.097488934
     0.004238577  0.355506992  0.097492564
     0.651422953  0.650065570  0.097476879
     0.328086463  0.326719375  0.100305078
     0.680277748  0.002780852  0.100275621
     0.004165300  0.678838078  0.100265587
     0.083332667  0.416666333  0.336466667
     0.249999667  0.249999333  0.336466667
     0.083332667  0.916666333  0.336466667
     0.249999667  0.749999333  0.336466667
     0.583332667  0.416666333  0.336466667
     0.749999667  0.249999333  0.336466667
     0.583332667  0.916666333  0.336466667
     0.749999667  0.749999333  0.336466667

  ion indices of the primitive-cell ions
   primitive index   ion index
                 1           1
                 2           2
                 3           3
                 4           4
                 5           5
                 6           6
                 7           7
                 8           8
                 9           9
                10          10
                11          11
                12          12
                13          13
                14          14
                15          15

----------------------------------------------------------------------------------------

 
 
 KPOINTS: k-points                                

Automatic generation of k-mesh.
 Grid dimensions read from file:
 generate k-points for:   12   12    1

 Generating k-lattice:

  Cartesian coordinates                     Fractional coordinates (reciprocal lattice)
     0.009920108  0.017182131  0.000000000     0.083333333 -0.000000000  0.000000000
    -0.009920108  0.017182131  0.000000000    -0.000000000  0.083333333  0.000000000
     0.000000000  0.000000000  0.066666667     0.000000000  0.000000000  1.000000000

  Length of vectors
     0.019840215  0.019840215  0.066666667

  Shift w.r.t. Gamma in fractional coordinates (k-lattice)
     0.000000000  0.000000000  0.000000000

 
 Subroutine IBZKPT returns following result:
 ===========================================
 
 Found     74 irreducible k-points:
 
 Following reciprocal coordinates:
            Coordinates               Weight
  0.000000  0.000000  0.000000      1.000000
  0.083333 -0.000000  0.000000      2.000000
 -0.000000  0.083333  0.000000      2.000000
 -0.083333  0.083333  0.000000      2.000000
  0.166667 -0.000000  0.000000      2.000000
  0.000000  0.166667  0.000000      2.000000
 -0.166667  0.166667  0.000000      2.000000
  0.250000 -0.000000  0.000000      2.000000
 -0.000000  0.250000  0.000000      2.000000
 -0.250000  0.250000  0.000000      2.000000
  0.333333 -0.000000  0.000000      2.000000
 -0.000000  0.333333  0.000000      2.000000
 -0.333333  0.333333  0.000000      2.000000
  0.416667 -0.000000  0.000000      2.000000
 -0.000000  0.416667  0.000000      2.000000
 -0.416667  0.416667  0.000000      2.000000
  0.500000 -0.000000  0.000000      1.000000
 -0.000000  0.500000  0.000000      1.000000
  0.500000  0.500000  0.000000      1.000000
  0.083333  0.083333  0.000000      2.000000
 -0.083333  0.166667  0.000000      2.000000
 -0.166667  0.083333  0.000000      2.000000
  0.166667  0.083333  0.000000      2.000000
 -0.083333  0.250000  0.000000      2.000000
 -0.250000  0.166667  0.000000      2.000000
 -0.166667  0.250000  0.000000      2.000000
  0.083333  0.166667  0.000000      2.000000
  0.250000 -0.083333  0.000000      2.000000
  0.250000  0.083333  0.000000      2.000000
 -0.083333  0.333333  0.000000      2.000000
 -0.333333  0.250000  0.000000      2.000000
 -0.250000  0.333333  0.000000      2.000000
  0.083333  0.250000  0.000000      2.000000
  0.333333 -0.083333  0.000000      2.000000
  0.333333  0.083333  0.000000      2.000000
 -0.083333  0.416667  0.000000      2.000000
 -0.416667  0.333333  0.000000      2.000000
 -0.333333  0.416667  0.000000      2.000000
  0.083333  0.333333  0.000000      2.000000
  0.416667 -0.083333  0.000000      2.000000
  0.416667  0.083333  0.000000      2.000000
 -0.083333  0.500000  0.000000      2.000000
  0.500000  0.416667  0.000000      2.000000
 -0.416667  0.500000  0.000000      2.000000
  0.083333  0.416667  0.000000      2.000000
  0.500000 -0.083333  0.000000      2.000000
  0.166667  0.166667  0.000000      2.000000
 -0.166667  0.333333  0.000000      2.000000
 -0.333333  0.166667  0.000000      2.000000
  0.250000  0.166667  0.000000      2.000000
 -0.166667  0.416667  0.000000      2.000000
 -0.416667  0.250000  0.000000      2.000000
 -0.250000  0.416667  0.000000      2.000000
  0.166667  0.250000  0.000000      2.000000
  0.416667 -0.166667  0.000000      2.000000
  0.333333  0.166667  0.000000      2.000000
 -0.166667  0.500000  0.000000      2.000000
  0.500000  0.333333  0.000000      2.000000
 -0.333333  0.500000  0.000000      2.000000
  0.166667  0.333333  0.000000      2.000000
  0.500000 -0.166667  0.000000      2.000000
  0.416667  0.166667  0.000000      2.000000
 -0.166667 -0.416667  0.000000      2.000000
  0.416667  0.416667  0.000000      2.000000
  0.250000  0.250000  0.000000      2.000000
 -0.250000  0.500000  0.000000      2.000000
  0.500000  0.250000  0.000000      2.000000
  0.333333  0.250000  0.000000      2.000000
 -0.250000 -0.416667  0.000000      2.000000
  0.416667  0.333333  0.000000      2.000000
 -0.333333 -0.416667  0.000000      2.000000
  0.250000  0.333333  0.000000      2.000000
 -0.416667 -0.250000  0.000000      2.000000
  0.333333  0.333333  0.000000      2.000000
 
 Following cartesian coordinates:
            Coordinates               Weight
  0.000000  0.000000  0.000000      1.000000
  0.009920  0.017182  0.000000      2.000000
 -0.009920  0.017182  0.000000      2.000000
 -0.019840 -0.000000  0.000000      2.000000
  0.019840  0.034364  0.000000      2.000000
 -0.019840  0.034364  0.000000      2.000000
 -0.039680 -0.000000  0.000000      2.000000
  0.029760  0.051546  0.000000      2.000000
 -0.029760  0.051546  0.000000      2.000000
 -0.059521  0.000000  0.000000      2.000000
  0.039680  0.068729  0.000000      2.000000
 -0.039680  0.068729  0.000000      2.000000
 -0.079361 -0.000000  0.000000      2.000000
  0.049601  0.085911  0.000000      2.000000
 -0.049601  0.085911  0.000000      2.000000
 -0.099201  0.000000  0.000000      2.000000
  0.059521  0.103093  0.000000      1.000000
 -0.059521  0.103093  0.000000      1.000000
  0.000000  0.206186  0.000000      1.000000
 -0.000000  0.034364  0.000000      2.000000
 -0.029760  0.017182  0.000000      2.000000
 -0.029760 -0.017182  0.000000      2.000000
  0.009920  0.051546  0.000000      2.000000
 -0.039680  0.034364  0.000000      2.000000
 -0.049601 -0.017182  0.000000      2.000000
 -0.049601  0.017182  0.000000      2.000000
 -0.009920  0.051546  0.000000      2.000000
  0.039680  0.034364  0.000000      2.000000
  0.019840  0.068729  0.000000      2.000000
 -0.049601  0.051546  0.000000      2.000000
 -0.069441 -0.017182  0.000000      2.000000
 -0.069441  0.017182  0.000000      2.000000
 -0.019840  0.068729  0.000000      2.000000
  0.049601  0.051546  0.000000      2.000000
  0.029760  0.085911  0.000000      2.000000
 -0.059521  0.068729  0.000000      2.000000
 -0.089281 -0.017182  0.000000      2.000000
 -0.089281  0.017182  0.000000      2.000000
 -0.029760  0.085911  0.000000      2.000000
  0.059521  0.068729  0.000000      2.000000
  0.039680  0.103093  0.000000      2.000000
 -0.069441  0.085911  0.000000      2.000000
  0.009920  0.189003  0.000000      2.000000
 -0.109121  0.017182  0.000000      2.000000
 -0.039680  0.103093  0.000000      2.000000
  0.069441  0.085911  0.000000      2.000000
  0.000000  0.068729  0.000000      2.000000
 -0.059521  0.034364  0.000000      2.000000
 -0.059521 -0.034364  0.000000      2.000000
  0.009920  0.085911  0.000000      2.000000
 -0.069441  0.051546  0.000000      2.000000
 -0.079361 -0.034364  0.000000      2.000000
 -0.079361  0.034364  0.000000      2.000000
 -0.009920  0.085911  0.000000      2.000000
  0.069441  0.051546  0.000000      2.000000
  0.019840  0.103093  0.000000      2.000000
 -0.079361  0.068729  0.000000      2.000000
  0.019840  0.171821  0.000000      2.000000
 -0.099201  0.034364  0.000000      2.000000
 -0.019840  0.103093  0.000000      2.000000
  0.079361  0.068729  0.000000      2.000000
  0.029760  0.120275  0.000000      2.000000
  0.029760 -0.120275  0.000000      2.000000
  0.000000  0.171821  0.000000      2.000000
  0.000000  0.103093  0.000000      2.000000
 -0.089281  0.051546  0.000000      2.000000
  0.029760  0.154639  0.000000      2.000000
  0.009920  0.120275  0.000000      2.000000
  0.019840 -0.137457  0.000000      2.000000
  0.009920  0.154639  0.000000      2.000000
  0.009920 -0.154639  0.000000      2.000000
 -0.009920  0.120275  0.000000      2.000000
 -0.019840 -0.137457  0.000000      2.000000
  0.000000  0.137457  0.000000      2.000000
 


--------------------------------------------------------------------------------------------------------




 Dimension of arrays:
   k-points           NKPTS =     74   k-points in BZ     NKDIM =     74   number of bands    NBANDS=     48
   number of dos      NEDOS =    301   number of ions     NIONS =     15
   non local maximal  LDIM  =      4   non local SUM 2l+1 LMDIM =      8
   total plane-waves  NPLWV = 139968
   max r-space proj   IRMAX =      1   max aug-charges    IRDMAX=   7342
   dimension x,y,z NGX =    36 NGY =   36 NGZ =  108
   dimension x,y,z NGXF=    72 NGYF=   72 NGZF=  216
   support grid    NGXF=    72 NGYF=   72 NGZF=  216
   ions per type =               4  11
   NGX,Y,Z   is equivalent  to a cutoff of  12.34, 12.34, 11.97 a.u.
   NGXF,Y,Z  is equivalent  to a cutoff of  24.68, 24.68, 23.94 a.u.

 SYSTEM =  Lattice                                 
 POSCAR =  Graphene-B4C3 Bridge with lattice parame

 Startparameter for this run:
   NWRITE =      2    write-flag & timer
   PREC   = accura    normal or accurate (medium, high low for compatibility)
   ISTART =      0    job   : 0-new  1-cont  2-samecut
   ICHARG =      2    charge: 1-file 2-atom 10-const
   ISPIN  =      2    spin polarized calculation?
   LNONCOLLINEAR =      F non collinear calculations
   LSORBIT =      F    spin-orbit coupling
   INIWAV =      1    electr: 0-lowe 1-rand  2-diag
   LASPH  =      F    aspherical Exc in radial PAW
 Electronic Relaxation 1
   ENCUT  =  450.0 eV  33.07 Ry    5.75 a.u.   8.39  8.39 25.95*2*pi/ulx,y,z
   ENINI  =  450.0     initial cutoff
   ENAUG  =  644.9 eV  augmentation charge cutoff
   NELM   =     64;   NELMIN=  2; NELMDL= -5     # of ELM steps 
   EDIFF  = 0.1E-05   stopping-criterion for ELM
   LREAL  =      F    real-space projection
   NLSPLINE    = F    spline interpolate recip. space projectors
   LCOMPAT=      F    compatible to vasp.4.4
   GGA_COMPAT  = T    GGA compatible to vasp.4.4-vasp.4.6
   LMAXPAW     = -100 max onsite density
   LMAXMIX     =    2 max onsite mixed and CHGCAR
   VOSKOWN=      0    Vosko Wilk Nusair interpolation
   ROPT   =    0.00000   0.00000
 Ionic relaxation
   EDIFFG = -.1E-02   stopping-criterion for IOM
   NSW    =    128    number of steps for IOM
   NBLOCK =      1;   KBLOCK =    128    inner block; outer block 
   IBRION =      2    ionic relax: 0-MD 1-quasi-New 2-CG
   NFREE  =      1    steps in history (QN), initial steepest desc. (CG)
   ISIF   =      2    stress and relaxation
   IWAVPR =     11    prediction:  0-non 1-charg 2-wave 3-comb
   ISYM   =      2    0-nonsym 1-usesym 2-fastsym
   LCORR  =      T    Harris-Foulkes like correction to forces

   POTIM  = 0.5000    time-step for ionic-motion
   TEIN   =    0.0    initial temperature
   TEBEG  =    0.0;   TEEND  =   0.0 temperature during run
   SMASS  =  -3.00    Nose mass-parameter (am)
   estimated Nose-frequenzy (Omega)   =  0.10E-29 period in steps = 0.13E+47 mass=  -0.538E-27a.u.
   SCALEE = 1.0000    scale energy and forces
   NPACO  =    256;   APACO  = 10.0  distance and # of slots for P.C.
   PSTRESS=    0.0 pullay stress

  Mass of Ions in am
   POMASS =  10.81 12.01
  Ionic Valenz
   ZVAL   =   3.00  4.00
  Atomic Wigner-Seitz radii
   RWIGS  =  -1.00 -1.00
  virtual crystal weights 
   VCA    =   1.00  1.00
   NELECT =      56.0000    total number of electrons
   NUPDOWN=      -1.0000    fix difference up-down

 DOS related values:
   EMIN   =  10.00;   EMAX   =-10.00  energy-range for DOS
   EFERMI =   0.00
   ISMEAR =     0;   SIGMA  =   0.10  broadening in eV -4-tet -1-fermi 0-gaus

 Electronic relaxation 2 (details)
   IALGO  =     38    algorithm
   LDIAG  =      T    sub-space diagonalisation (order eigenvalues)
   LSUBROT=      F    optimize rotation matrix (better conditioning)
   TURBO    =      0    0=normal 1=particle mesh
   IRESTART =      0    0=no restart 2=restart with 2 vectors
   NREBOOT  =      0    no. of reboots
   NMIN     =      0    reboot dimension
   EREF     =   0.00    reference energy to select bands
   IMIX   =      4    mixing-type and parameters
     AMIX     =   0.40;   BMIX     =  1.00
     AMIX_MAG =   1.60;   BMIX_MAG =  1.00
     AMIN     =   0.10
     WC   =   100.;   INIMIX=   1;  MIXPRE=   1;  MAXMIX= -45

 Intra band minimization:
   WEIMIN = 0.0010     energy-eigenvalue tresh-hold
   EBREAK =  0.52E-08  absolut break condition
   DEPER  =   0.30     relativ break condition  

   TIME   =   0.40     timestep for ELM

  volume/ion in A,a.u.               =      20.37       137.47
  Fermi-wavevector in a.u.,A,eV,Ry     =   0.929899  1.757254 11.765120  0.864712
  Thomas-Fermi vector in A             =   2.056230
 
 Write flags
   LWAVE        =      F    write WAVECAR
   LDOWNSAMPLE  =      F    k-point downsampling of WAVECAR
   LCHARG       =      F    write CHGCAR
   LVTOT        =      F    write LOCPOT, total local potential
   LVHAR        =      F    write LOCPOT, Hartree potential only
   LELF         =      F    write electronic localiz. function (ELF)
   LORBIT       =      0    0 simple, 1 ext, 2 COOP (PROOUT), +10 PAW based schemes


 Dipole corrections
   LMONO  =      F    monopole corrections only (constant potential shift)
   LDIPOL =      F    correct potential (dipole corrections)
   IDIPOL =      0    1-x, 2-y, 3-z, 4-all directions 
   EPSILON=  1.0000000 bulk dielectric constant

 Exchange correlation treatment:
   GGA     =    PE    GGA type
   LEXCH   =     8    internal setting for exchange type
   LIBXC   =     F    Libxc                    
   VOSKOWN =     0    Vosko Wilk Nusair interpolation
   LHFCALC =     F    Hartree Fock is set to
   LHFONE  =     F    Hartree Fock one center treatment
   AEXX    =    0.0000 exact exchange contribution

 Linear response parameters
   LEPSILON=     F    determine dielectric tensor
   LRPA    =     F    only Hartree local field effects (RPA)
   LNABLA  =     F    use nabla operator in PAW spheres
   LVEL    =     F    velocity operator in full k-point grid
   CSHIFT  =0.1000    complex shift for real part using Kramers Kronig
   OMEGAMAX=  -1.0    maximum frequency
   DEG_THRESHOLD= 0.2000000E-02 threshold for treating states as degnerate
   RTIME   =   -0.100 relaxation time in fs
  (WPLASMAI=    0.000 imaginary part of plasma frequency in eV, 0.658/RTIME)
   DFIELD  = 0.0000000 0.0000000 0.0000000 field for delta impulse in time
 
  Optional k-point grid parameters
   LKPOINTS_OPT  =     F    use optional k-point grid
   KPOINTS_OPT_MODE=     1    mode for optional k-point grid
 
 Orbital magnetization related:
   ORBITALMAG=     F  switch on orbital magnetization
   LCHIMAG   =     F  perturbation theory with respect to B field
   DQ        =  0.001000  dq finite difference perturbation B field
   LLRAUG    =     F  two centre corrections for induced B field



--------------------------------------------------------------------------------------------------------


 conjugate gradient relaxation of ions
 charge density and potential will be updated during run
 spin polarized calculation
 Variant of blocked Davidson
 Davidson routine will perform the subspace rotation
 perform sub-space diagonalisation
    after iterative eigenvector-optimisation
 modified Broyden-mixing scheme, WC =      100.0
 initial mixing is a Kerker type mixing with AMIX =  0.4000 and BMIX =      1.0000
 Hartree-type preconditioning will be used
 using additional bands           20
 reciprocal scheme for non local part
 use partial core corrections
 calculate Harris-corrections to forces 
   (improved forces if not selfconsistent)
 use gradient corrections 
 use of overlap-Matrix (Vanderbilt PP)
 Gauss-broadening in eV      SIGMA  =   0.10


--------------------------------------------------------------------------------------------------------


  energy-cutoff  :      450.00
  volume of cell :      305.57
      direct lattice vectors                 reciprocal lattice vectors
     4.200223208  2.425000000  0.000000000     0.119041293  0.206185567  0.000000000
    -4.200223208  2.425000000  0.000000000    -0.119041293  0.206185567  0.000000000
     0.000000000  0.000000000 15.000000000     0.000000000  0.000000000  0.066666667

  length of vectors
     4.850000000  4.850000000 15.000000000     0.238082585  0.238082585  0.066666667


 
 k-points in units of 2pi/SCALE and weight: k-points                                
   0.00000000  0.00000000  0.00000000       0.007
   0.00992011  0.01718213  0.00000000       0.014
  -0.00992011  0.01718213  0.00000000       0.014
  -0.01984022 -0.00000000  0.00000000       0.014
   0.01984022  0.03436426  0.00000000       0.014
  -0.01984022  0.03436426  0.00000000       0.014
  -0.03968043 -0.00000000  0.00000000       0.014
   0.02976032  0.05154639  0.00000000       0.014
  -0.02976032  0.05154639  0.00000000       0.014
  -0.05952065  0.00000000  0.00000000       0.014
   0.03968043  0.06872852  0.00000000       0.014
  -0.03968043  0.06872852  0.00000000       0.014
  -0.07936086 -0.00000000  0.00000000       0.014
   0.04960054  0.08591065  0.00000000       0.014
  -0.04960054  0.08591065  0.00000000       0.014
  -0.09920108  0.00000000  0.00000000       0.014
   0.05952065  0.10309278  0.00000000       0.007
  -0.05952065  0.10309278  0.00000000       0.007
   0.00000000  0.20618557  0.00000000       0.007
  -0.00000000  0.03436426  0.00000000       0.014
  -0.02976032  0.01718213  0.00000000       0.014
  -0.02976032 -0.01718213  0.00000000       0.014
   0.00992011  0.05154639  0.00000000       0.014
  -0.03968043  0.03436426  0.00000000       0.014
  -0.04960054 -0.01718213  0.00000000       0.014
  -0.04960054  0.01718213  0.00000000       0.014
  -0.00992011  0.05154639  0.00000000       0.014
   0.03968043  0.03436426  0.00000000       0.014
   0.01984022  0.06872852  0.00000000       0.014
  -0.04960054  0.05154639  0.00000000       0.014
  -0.06944075 -0.01718213  0.00000000       0.014
  -0.06944075  0.01718213  0.00000000       0.014
  -0.01984022  0.06872852  0.00000000       0.014
   0.04960054  0.05154639  0.00000000       0.014
   0.02976032  0.08591065  0.00000000       0.014
  -0.05952065  0.06872852  0.00000000       0.014
  -0.08928097 -0.01718213  0.00000000       0.014
  -0.08928097  0.01718213  0.00000000       0.014
  -0.02976032  0.08591065  0.00000000       0.014
   0.05952065  0.06872852  0.00000000       0.014
   0.03968043  0.10309278  0.00000000       0.014
  -0.06944075  0.08591065  0.00000000       0.014
   0.00992011  0.18900344  0.00000000       0.014
  -0.10912118  0.01718213  0.00000000       0.014
  -0.03968043  0.10309278  0.00000000       0.014
   0.06944075  0.08591065  0.00000000       0.014
   0.00000000  0.06872852  0.00000000       0.014
  -0.05952065  0.03436426  0.00000000       0.014
  -0.05952065 -0.03436426  0.00000000       0.014
   0.00992011  0.08591065  0.00000000       0.014
  -0.06944075  0.05154639  0.00000000       0.014
  -0.07936086 -0.03436426  0.00000000       0.014
  -0.07936086  0.03436426  0.00000000       0.014
  -0.00992011  0.08591065  0.00000000       0.014
   0.06944075  0.05154639  0.00000000       0.014
   0.01984022  0.10309278  0.00000000       0.014
  -0.07936086  0.06872852  0.00000000       0.014
   0.01984022  0.17182131  0.00000000       0.014
  -0.09920108  0.03436426  0.00000000       0.014
  -0.01984022  0.10309278  0.00000000       0.014
   0.07936086  0.06872852  0.00000000       0.014
   0.02976032  0.12027491  0.00000000       0.014
   0.02976032 -0.12027491  0.00000000       0.014
   0.00000000  0.17182131  0.00000000       0.014
   0.00000000  0.10309278  0.00000000       0.014
  -0.08928097  0.05154639  0.00000000       0.014
   0.02976032  0.15463918  0.00000000       0.014
   0.00992011  0.12027491  0.00000000       0.014
   0.01984022 -0.13745704  0.00000000       0.014
   0.00992011  0.15463918  0.00000000       0.014
   0.00992011 -0.15463918  0.00000000       0.014
  -0.00992011  0.12027491  0.00000000       0.014
  -0.01984022 -0.13745704  0.00000000       0.014
   0.00000000  0.13745704  0.00000000       0.014
 
 k-points in reciprocal lattice and weights: k-points                                
   0.00000000  0.00000000  0.00000000       0.007
   0.08333333 -0.00000000  0.00000000       0.014
  -0.00000000  0.08333333  0.00000000       0.014
  -0.08333333  0.08333333  0.00000000       0.014
   0.16666667 -0.00000000  0.00000000       0.014
   0.00000000  0.16666667  0.00000000       0.014
  -0.16666667  0.16666667  0.00000000       0.014
   0.25000000 -0.00000000  0.00000000       0.014
  -0.00000000  0.25000000  0.00000000       0.014
  -0.25000000  0.25000000  0.00000000       0.014
   0.33333333 -0.00000000  0.00000000       0.014
  -0.00000000  0.33333333  0.00000000       0.014
  -0.33333333  0.33333333  0.00000000       0.014
   0.41666667 -0.00000000  0.00000000       0.014
  -0.00000000  0.41666667  0.00000000       0.014
  -0.41666667  0.41666667  0.00000000       0.014
   0.50000000 -0.00000000  0.00000000       0.007
  -0.00000000  0.50000000  0.00000000       0.007
   0.50000000  0.50000000  0.00000000       0.007
   0.08333333  0.08333333  0.00000000       0.014
  -0.08333333  0.16666667  0.00000000       0.014
  -0.16666667  0.08333333  0.00000000       0.014
   0.16666667  0.08333333  0.00000000       0.014
  -0.08333333  0.25000000  0.00000000       0.014
  -0.25000000  0.16666667  0.00000000       0.014
  -0.16666667  0.25000000  0.00000000       0.014
   0.08333333  0.16666667  0.00000000       0.014
   0.25000000 -0.08333333  0.00000000       0.014
   0.25000000  0.08333333  0.00000000       0.014
  -0.08333333  0.33333333  0.00000000       0.014
  -0.33333333  0.25000000  0.00000000       0.014
  -0.25000000  0.33333333  0.00000000       0.014
   0.08333333  0.25000000  0.00000000       0.014
   0.33333333 -0.08333333  0.00000000       0.014
   0.33333333  0.08333333  0.00000000       0.014
  -0.08333333  0.41666667  0.00000000       0.014
  -0.41666667  0.33333333  0.00000000       0.014
  -0.33333333  0.41666667  0.00000000       0.014
   0.08333333  0.33333333  0.00000000       0.014
   0.41666667 -0.08333333  0.00000000       0.014
   0.41666667  0.08333333  0.00000000       0.014
  -0.08333333  0.50000000  0.00000000       0.014
   0.50000000  0.41666667  0.00000000       0.014
  -0.41666667  0.50000000  0.00000000       0.014
   0.08333333  0.41666667  0.00000000       0.014
   0.50000000 -0.08333333  0.00000000       0.014
   0.16666667  0.16666667  0.00000000       0.014
  -0.16666667  0.33333333  0.00000000       0.014
  -0.33333333  0.16666667  0.00000000       0.014
   0.25000000  0.16666667  0.00000000       0.014
  -0.16666667  0.41666667  0.00000000       0.014
  -0.41666667  0.25000000  0.00000000       0.014
  -0.25000000  0.41666667  0.00000000       0.014
   0.16666667  0.25000000  0.00000000       0.014
   0.41666667 -0.16666667  0.00000000       0.014
   0.33333333  0.16666667  0.00000000       0.014
  -0.16666667  0.50000000  0.00000000       0.014
   0.50000000  0.33333333  0.00000000       0.014
  -0.33333333  0.50000000  0.00000000       0.014
   0.16666667  0.33333333  0.00000000       0.014
   0.50000000 -0.16666667  0.00000000       0.014
   0.41666667  0.16666667  0.00000000       0.014
  -0.16666667 -0.41666667  0.00000000       0.014
   0.41666667  0.41666667  0.00000000       0.014
   0.25000000  0.25000000  0.00000000       0.014
  -0.25000000  0.50000000  0.00000000       0.014
   0.50000000  0.25000000  0.00000000       0.014
   0.33333333  0.25000000  0.00000000       0.014
  -0.25000000 -0.41666667  0.00000000       0.014
   0.41666667  0.33333333  0.00000000       0.014
  -0.33333333 -0.41666667  0.00000000       0.014
   0.25000000  0.33333333  0.00000000       0.014
  -0.41666667 -0.25000000  0.00000000       0.014
   0.33333333  0.33333333  0.00000000       0.014
 
 position of ions in fractional coordinates (direct lattice) 
   0.00415361  0.00267210  0.12034134
   0.35695335  0.00285503  0.09748893
   0.00423858  0.35550699  0.09749256
   0.65142295  0.65006557  0.09747688
   0.32808646  0.32671938  0.10030508
   0.68027775  0.00278085  0.10027562
   0.00416530  0.67883808  0.10026559
   0.08333267  0.41666633  0.33646667
   0.24999967  0.24999933  0.33646667
   0.08333267  0.91666633  0.33646667
   0.24999967  0.74999933  0.33646667
   0.58333267  0.41666633  0.33646667
   0.74999967  0.24999933  0.33646667
   0.58333267  0.91666633  0.33646667
   0.74999967  0.74999933  0.33646667
 
 position of ions in cartesian coordinates  (Angst):
   0.00622266  0.01655234  1.80512007
   1.48729198  0.87253533  1.46233401
  -1.47540575  0.87238300  1.46238846
   0.00570131  3.15610967  1.46215318
   0.00574207  1.58790416  1.50457617
   2.84563819  1.65641711  1.50413432
  -2.83377626  1.65628319  1.50398380
  -1.40007580  1.21249758  5.04700000
   0.00000140  1.21249758  5.04700000
  -3.50018741  2.42499758  5.04700000
  -2.10011020  2.42499758  5.04700000
   0.70003580  2.42499758  5.04700000
   2.10011300  2.42499758  5.04700000
  -1.40007580  3.63749758  5.04700000
   0.00000140  3.63749758  5.04700000
 


--------------------------------------------------------------------------------------------------------


 k-point   1 :   0.0000 0.0000 0.0000  plane waves:    6669
 k-point   2 :   0.0833-0.0000 0.0000  plane waves:    6635
 k-point   3 :  -0.0000 0.0833 0.0000  plane waves:    6635
 k-point   4 :  -0.0833 0.0833 0.0000  plane waves:    6635
 k-point   5 :   0.1667-0.0000 0.0000  plane waves:    6655
 k-point   6 :   0.0000 0.1667 0.0000  plane waves:    6655
 k-point   7 :  -0.1667 0.1667 0.0000  plane waves:    6655
 k-point   8 :   0.2500-0.0000 0.0000  plane waves:    6633
 k-point   9 :  -0.0000 0.2500 0.0000  plane waves:    6633
 k-point  10 :  -0.2500 0.2500 0.0000  plane waves:    6633
 k-point  11 :   0.3333-0.0000 0.0000  plane waves:    6626
 k-point  12 :  -0.0000 0.3333 0.0000  plane waves:    6626
 k-point  13 :  -0.3333 0.3333 0.0000  plane waves:    6626
 k-point  14 :   0.4167-0.0000 0.0000  plane waves:    6606
 k-point  15 :  -0.0000 0.4167 0.0000  plane waves:    6606
 k-point  16 :  -0.4167 0.4167 0.0000  plane waves:    6606
 k-point  17 :   0.5000-0.0000 0.0000  plane waves:    6598
 k-point  18 :  -0.0000 0.5000 0.0000  plane waves:    6598
 k-point  19 :   0.5000 0.5000 0.0000  plane waves:    6598
 k-point  20 :   0.0833 0.0833 0.0000  plane waves:    6653
 k-point  21 :  -0.0833 0.1667 0.0000  plane waves:    6653
 k-point  22 :  -0.1667 0.0833 0.0000  plane waves:    6653
 k-point  23 :   0.1667 0.0833 0.0000  plane waves:    6640
 k-point  24 :  -0.0833 0.2500 0.0000  plane waves:    6640
 k-point  25 :  -0.2500 0.1667 0.0000  plane waves:    6640
 k-point  26 :  -0.1667 0.2500 0.0000  plane waves:    6640
 k-point  27 :   0.0833 0.1667 0.0000  plane waves:    6640
 k-point  28 :   0.2500-0.0833 0.0000  plane waves:    6640
 k-point  29 :   0.2500 0.0833 0.0000  plane waves:    6622
 k-point  30 :  -0.0833 0.3333 0.0000  plane waves:    6622
 k-point  31 :  -0.3333 0.2500 0.0000  plane waves:    6622
 k-point  32 :  -0.2500 0.3333 0.0000  plane waves:    6622
 k-point  33 :   0.0833 0.2500 0.0000  plane waves:    6622
 k-point  34 :   0.3333-0.0833 0.0000  plane waves:    6622
 k-point  35 :   0.3333 0.0833 0.0000  plane waves:    6609
 k-point  36 :  -0.0833 0.4167 0.0000  plane waves:    6609
 k-point  37 :  -0.4167 0.3333 0.0000  plane waves:    6609
 k-point  38 :  -0.3333 0.4167 0.0000  plane waves:    6609
 k-point  39 :   0.0833 0.3333 0.0000  plane waves:    6609
 k-point  40 :   0.4167-0.0833 0.0000  plane waves:    6609
 k-point  41 :   0.4167 0.0833 0.0000  plane waves:    6608
 k-point  42 :  -0.0833 0.5000 0.0000  plane waves:    6608
 k-point  43 :   0.5000 0.4167 0.0000  plane waves:    6608
 k-point  44 :  -0.4167 0.5000 0.0000  plane waves:    6608
 k-point  45 :   0.0833 0.4167 0.0000  plane waves:    6608
 k-point  46 :   0.5000-0.0833 0.0000  plane waves:    6608
 k-point  47 :   0.1667 0.1667 0.0000  plane waves:    6605
 k-point  48 :  -0.1667 0.3333 0.0000  plane waves:    6605
 k-point  49 :  -0.3333 0.1667 0.0000  plane waves:    6605
 k-point  50 :   0.2500 0.1667 0.0000  plane waves:    6621
 k-point  51 :  -0.1667 0.4167 0.0000  plane waves:    6621
 k-point  52 :  -0.4167 0.2500 0.0000  plane waves:    6621
 k-point  53 :  -0.2500 0.4167 0.0000  plane waves:    6621
 k-point  54 :   0.1667 0.2500 0.0000  plane waves:    6621
 k-point  55 :   0.4167-0.1667 0.0000  plane waves:    6621
 k-point  56 :   0.3333 0.1667 0.0000  plane waves:    6616
 k-point  57 :  -0.1667 0.5000 0.0000  plane waves:    6616
 k-point  58 :   0.5000 0.3333 0.0000  plane waves:    6616
 k-point  59 :  -0.3333 0.5000 0.0000  plane waves:    6616
 k-point  60 :   0.1667 0.3333 0.0000  plane waves:    6616
 k-point  61 :   0.5000-0.1667 0.0000  plane waves:    6616
 k-point  62 :   0.4167 0.1667 0.0000  plane waves:    6616
 k-point  63 :  -0.1667-0.4167 0.0000  plane waves:    6616
 k-point  64 :   0.4167 0.4167 0.0000  plane waves:    6616
 k-point  65 :   0.2500 0.2500 0.0000  plane waves:    6622
 k-point  66 :  -0.2500 0.5000 0.0000  plane waves:    6622
 k-point  67 :   0.5000 0.2500 0.0000  plane waves:    6622
 k-point  68 :   0.3333 0.2500 0.0000  plane waves:    6618
 k-point  69 :  -0.2500-0.4167 0.0000  plane waves:    6618
 k-point  70 :   0.4167 0.3333 0.0000  plane waves:    6618
 k-point  71 :  -0.3333-0.4167 0.0000  plane waves:    6618
 k-point  72 :   0.2500 0.3333 0.0000  plane waves:    6618
 k-point  73 :  -0.4167-0.2500 0.0000  plane waves:    6618
 k-point  74 :   0.3333 0.3333 0.0000  plane waves:    6642

 maximum and minimum number of plane-waves per node :      6669     6598

 maximum number of plane-waves:      6669
 maximum index in each direction: 
   IXMAX=    8   IYMAX=    8   IZMAX=   25
   IXMIN=   -8   IYMIN=   -8   IZMIN=  -25


 serial   3D FFT for wavefunctions
 parallel 3D FFT for charge:
    minimum data exchange during FFTs selected (reduces bandwidth)


 total amount of memory used by VASP MPI-rank0   126335. kBytes
=======================================================================

   base      :      30000. kBytes
   nonl-proj :      64798. kBytes
   fftplans  :       1560. kBytes
   grid      :      13745. kBytes
   one-center:         92. kBytes
   wavefun   :      16140. kBytes
 
     INWAV:  cpu time      0.0000: real time      0.0000
 Broyden mixing: mesh for mixing (old mesh)
   NGX = 17   NGY = 17   NGZ = 51
  (NGX  = 72   NGY  = 72   NGZ  =216)
  gives a total of  14739 points

 initial charge density was supplied:
 charge density of overlapping atoms calculated
 number of electron      56.0000000 magnetization      15.0000000
 keeping initial charge density in first step


--------------------------------------------------------------------------------------------------------


 Maximum index for augmentation-charges          395 (set IRDMAX)


--------------------------------------------------------------------------------------------------------


 First call to EWALD:  gamma=   0.263
 Maximum number of real-space cells 4x 4x 2
 Maximum number of reciprocal cells 2x 2x 6

    FEWALD:  cpu time      0.0017: real time      0.0021


--------------------------------------- Iteration      1(   1)  ---------------------------------------


    POTLOK:  cpu time      0.0400: real time      0.0412
    SETDIJ:  cpu time      0.0042: real time      0.0042
     EDDAV:  cpu time      5.4940: real time      5.5624
       DOS:  cpu time      0.0019: real time      0.0036
    --------------------------------------------
      LOOP:  cpu time      5.5400: real time      5.6114

 eigenvalue-minimisations  : 14208
 total energy-change (2. order) : 0.2038693E+03  (-0.2566201E+04)
 number of electron      56.0000000 magnetization      15.0000000
 augmentation part       56.0000000 magnetization      15.0000000

 Free energy of the ion-electron system (eV)
  ---------------------------------------------------
  alpha Z        PSCENC =        58.21092976
  Ewald energy   TEWEN  =      4697.01110514
  -Hartree energ DENC   =     -6253.92081891
  -exchange      EXHF   =         0.00000000
  -V(xc)+E(xc)   XCENC  =       175.02162895
  PAW double counting   =      1365.87943566    -1368.52100941
  entropy T*S    EENTRO =        -0.02118630
  eigenvalues    EBANDS =      -373.05422258
  atomic energy  EATOM  =      1903.26342058
  Solvation  Ediel_sol  =         0.00000000
  ---------------------------------------------------
  free energy    TOTEN  =       203.86928289 eV

  energy without entropy =      203.89046918  energy(sigma->0) =      203.87987603


--------------------------------------------------------------------------------------------------------




--------------------------------------- Iteration      1(   2)  ---------------------------------------


     EDDAV:  cpu time      8.0470: real time      8.1153
       DOS:  cpu time      0.0012: real time      0.0012
    --------------------------------------------
      LOOP:  cpu time      8.0482: real time      8.1165

 eigenvalue-minimisations  : 20496
 total energy-change (2. order) :-0.3203881E+03  (-0.3187268E+03)
 number of electron      56.0000000 magnetization      15.0000000
 augmentation part       56.0000000 magnetization      15.0000000

 Free energy of the ion-electron system (eV)
  ---------------------------------------------------
  alpha Z        PSCENC =        58.21092976
  Ewald energy   TEWEN  =      4697.01110514
  -Hartree energ DENC   =     -6253.92081891
  -exchange      EXHF   =         0.00000000
  -V(xc)+E(xc)   XCENC  =       175.02162895
  PAW double counting   =      1365.87943566    -1368.52100941
  entropy T*S    EENTRO =        -0.00167302
  eigenvalues    EBANDS =      -693.46180201
  atomic energy  EATOM  =      1903.26342058
  Solvation  Ediel_sol  =         0.00000000
  ---------------------------------------------------
  free energy    TOTEN  =      -116.51878328 eV

  energy without entropy =     -116.51711025  energy(sigma->0) =     -116.51794676


--------------------------------------------------------------------------------------------------------




--------------------------------------- Iteration      1(   3)  ---------------------------------------


     EDDAV:  cpu time     11.1947: real time     11.2742
       DOS:  cpu time      0.0012: real time      0.0012
    --------------------------------------------
      LOOP:  cpu time     11.1958: real time     11.2753

 eigenvalue-minimisations  : 26496
 total energy-change (2. order) :-0.1278621E+02  (-0.1276819E+02)
 number of electron      56.0000000 magnetization      15.0000000
 augmentation part       56.0000000 magnetization      15.0000000

 Free energy of the ion-electron system (eV)
  ---------------------------------------------------
  alpha Z        PSCENC =        58.21092976
  Ewald energy   TEWEN  =      4697.01110514
  -Hartree energ DENC   =     -6253.92081891
  -exchange      EXHF   =         0.00000000
  -V(xc)+E(xc)   XCENC  =       175.02162895
  PAW double counting   =      1365.87943566    -1368.52100941
  entropy T*S    EENTRO =        -0.00317173
  eigenvalues    EBANDS =      -706.24651122
  atomic energy  EATOM  =      1903.26342058
  Solvation  Ediel_sol  =         0.00000000
  ---------------------------------------------------
  free energy    TOTEN  =      -129.30499119 eV

  energy without entropy =     -129.30181946  energy(sigma->0) =     -129.30340532


--------------------------------------------------------------------------------------------------------




--------------------------------------- Iteration      1(   4)  ---------------------------------------


     EDDAV:  cpu time      8.0525: real time      8.1227
       DOS:  cpu time      0.0011: real time      0.0011
    --------------------------------------------
      LOOP:  cpu time      8.0536: real time      8.1238

 eigenvalue-minimisations  : 19872
 total energy-change (2. order) :-0.2393697E-01  (-0.2393571E-01)
 number of electron      56.0000000 magnetization      15.0000000
 augmentation part       56.0000000 magnetization      15.0000000

 Free energy of the ion-electron system (eV)
  ---------------------------------------------------
  alpha Z        PSCENC =        58.21092976
  Ewald energy   TEWEN  =      4697.01110514
  -Hartree energ DENC   =     -6253.92081891
  -exchange      EXHF   =         0.00000000
  -V(xc)+E(xc)   XCENC  =       175.02162895
  PAW double counting   =      1365.87943566    -1368.52100941
  entropy T*S    EENTRO =        -0.00314619
  eigenvalues    EBANDS =      -706.27047373
  atomic energy  EATOM  =      1903.26342058
  Solvation  Ediel_sol  =         0.00000000
  ---------------------------------------------------
  free energy    TOTEN  =      -129.32892816 eV

  energy without entropy =     -129.32578197  energy(sigma->0) =     -129.32735507


--------------------------------------------------------------------------------------------------------




--------------------------------------- Iteration      1(   5)  ---------------------------------------


     EDDAV:  cpu time     10.7469: real time     10.8252
       DOS:  cpu time      0.0011: real time      0.0011
    CHARGE:  cpu time      0.2593: real time      0.2681
    MIXING:  cpu time      0.0022: real time      0.0025
    --------------------------------------------
      LOOP:  cpu time     11.0095: real time     11.0970

 eigenvalue-minimisations  : 25440
 total energy-change (2. order) :-0.6309109E-04  (-0.6309110E-04)
 number of electron      55.9999998 magnetization      11.4642234
 augmentation part        1.2015167 magnetization      11.2820143

 Broyden mixing:
  rms(total) = 0.24373E+01    rms(broyden)= 0.24371E+01
  rms(prec ) = 0.26109E+01
  weight for this iteration     100.00

 Free energy of the ion-electron system (eV)
  ---------------------------------------------------
  alpha Z        PSCENC =        58.21092976
  Ewald energy   TEWEN  =      4697.01110514
  -Hartree energ DENC   =     -6253.92081891
  -exchange      EXHF   =         0.00000000
  -V(xc)+E(xc)   XCENC  =       175.02162895
  PAW double counting   =      1365.87943566    -1368.52100941
  entropy T*S    EENTRO =        -0.00314627
  eigenvalues    EBANDS =      -706.27053675
  atomic energy  EATOM  =      1903.26342058
  Solvation  Ediel_sol  =         0.00000000
  ---------------------------------------------------
  free energy    TOTEN  =      -129.32899125 eV

  energy without entropy =     -129.32584499  energy(sigma->0) =     -129.32741812


--------------------------------------------------------------------------------------------------------




--------------------------------------- Iteration      1(   6)  ---------------------------------------


    POTLOK:  cpu time      0.0360: real time      0.0395
    SETDIJ:  cpu time      0.0034: real time      0.0035
     EDDAV:  cpu time     10.8235: real time     10.8959
       DOS:  cpu time      0.0011: real time      0.0011
    CHARGE:  cpu time      0.2571: real time      0.2650
    MIXING:  cpu time      0.0012: real time      0.0013
    --------------------------------------------
      LOOP:  cpu time     11.1223: real time     11.2063

 eigenvalue-minimisations  : 25776
 total energy-change (2. order) : 0.3734429E+02  (-0.7254001E+01)
 number of electron      55.9999998 magnetization       7.8640408
 augmentation part        1.1487547 magnetization       7.4974169

 Broyden mixing:
  rms(total) = 0.13845E+01    rms(broyden)= 0.13844E+01
  rms(prec ) = 0.14962E+01
  weight for this iteration     100.00

 eigenvalues of (default mixing * dielectric matrix)
  average eigenvalue GAMMA=   1.0711
  1.0711

 Free energy of the ion-electron system (eV)
  ---------------------------------------------------
  alpha Z        PSCENC =        58.21092976
  Ewald energy   TEWEN  =      4697.01110514
  -Hartree energ DENC   =     -6328.23433780
  -exchange      EXHF   =         0.00000000
  -V(xc)+E(xc)   XCENC  =       199.16363003
  PAW double counting   =      2631.38187193    -2635.22602496
  entropy T*S    EENTRO =        -0.00643841
  eigenvalues    EBANDS =      -617.54886101
  atomic energy  EATOM  =      1903.26342058
  Solvation  Ediel_sol  =         0.00000000
  ---------------------------------------------------
  free energy    TOTEN  =       -91.98470475 eV

  energy without entropy =      -91.97826635  energy(sigma->0) =      -91.98148555


--------------------------------------------------------------------------------------------------------




--------------------------------------- Iteration      1(   7)  ---------------------------------------


    POTLOK:  cpu time      0.0329: real time      0.0417
    SETDIJ:  cpu time      0.0033: real time      0.0034
     EDDAV:  cpu time      8.9722: real time      9.0336
       DOS:  cpu time      0.0011: real time      0.0011
    CHARGE:  cpu time      0.2553: real time      0.2630
    MIXING:  cpu time      0.0010: real time      0.0014
    --------------------------------------------
      LOOP:  cpu time      9.2658: real time      9.3442

 eigenvalue-minimisations  : 21552
 total energy-change (2. order) :-0.8453924E+01  (-0.9886369E+00)
 number of electron      55.9999998 magnetization       4.2811084
 augmentation part        1.0893701 magnetization       4.0101542

 Broyden mixing:
  rms(total) = 0.80865E+00    rms(broyden)= 0.80857E+00
  rms(prec ) = 0.84180E+00
  weight for this iteration     100.00

 eigenvalues of (default mixing * dielectric matrix)
  average eigenvalue GAMMA=   1.3841
  0.8827  1.8855

 Free energy of the ion-electron system (eV)
  ---------------------------------------------------
  alpha Z        PSCENC =        58.21092976
  Ewald energy   TEWEN  =      4697.01110514
  -Hartree energ DENC   =     -6400.77734341
  -exchange      EXHF   =         0.00000000
  -V(xc)+E(xc)   XCENC  =       193.44528117
  PAW double counting   =      4141.23875568    -4145.75530502
  entropy T*S    EENTRO =        -0.00567638
  eigenvalues    EBANDS =      -547.06979658
  atomic energy  EATOM  =      1903.26342058
  Solvation  Ediel_sol  =         0.00000000
  ---------------------------------------------------
  free energy    TOTEN  =      -100.43862907 eV

  energy without entropy =     -100.43295269  energy(sigma->0) =     -100.43579088


--------------------------------------------------------------------------------------------------------




--------------------------------------- Iteration      1(   8)  ---------------------------------------


    POTLOK:  cpu time      0.0314: real time      0.0332
    SETDIJ:  cpu time      0.0034: real time      0.0036
     EDDAV:  cpu time     10.0191: real time     10.0909
       DOS:  cpu time      0.0010: real time      0.0010
    CHARGE:  cpu time      0.2582: real time      0.2655
    MIXING:  cpu time      0.0008: real time      0.0009
    --------------------------------------------
      LOOP:  cpu time     10.3139: real time     10.3949

 eigenvalue-minimisations  : 23904
 total energy-change (2. order) :-0.9976909E+01  (-0.8789102E+00)
 number of electron      55.9999998 magnetization       2.8256081
 augmentation part        1.0431017 magnetization       2.7281115

 Broyden mixing:
  rms(total) = 0.43403E+00    rms(broyden)= 0.43397E+00
  rms(prec ) = 0.44609E+00
  weight for this iteration     100.00

 eigenvalues of (default mixing * dielectric matrix)
  average eigenvalue GAMMA=   1.3728
  2.3983  1.0613  0.6589

 Free energy of the ion-electron system (eV)
  ---------------------------------------------------
  alpha Z        PSCENC =        58.21092976
  Ewald energy   TEWEN  =      4697.01110514
  -Hartree energ DENC   =     -6450.30188028
  -exchange      EXHF   =         0.00000000
  -V(xc)+E(xc)   XCENC  =       189.38744759
  PAW double counting   =      5591.57102182    -5596.31388632
  entropy T*S    EENTRO =        -0.00002462
  eigenvalues    EBANDS =      -503.24367192
  atomic energy  EATOM  =      1903.26342058
  Solvation  Ediel_sol  =         0.00000000
  ---------------------------------------------------
  free energy    TOTEN  =      -110.41553826 eV

  energy without entropy =     -110.41551364  energy(sigma->0) =     -110.41552595


--------------------------------------------------------------------------------------------------------




--------------------------------------- Iteration      1(   9)  ---------------------------------------


    POTLOK:  cpu time      0.0318: real time      0.0336
    SETDIJ:  cpu time      0.0033: real time      0.0035
     EDDAV:  cpu time      7.7443: real time      7.8110
       DOS:  cpu time      0.0010: real time      0.0010
    CHARGE:  cpu time      0.2576: real time      0.2629
    MIXING:  cpu time      0.0008: real time      0.0008
    --------------------------------------------
      LOOP:  cpu time      8.0388: real time      8.1128

 eigenvalue-minimisations  : 19152
 total energy-change (2. order) :-0.6738946E+01  (-0.3897589E+00)
 number of electron      55.9999998 magnetization       1.4934367
 augmentation part        1.0319095 magnetization       1.4127744

 Broyden mixing:
  rms(total) = 0.27730E+00    rms(broyden)= 0.27726E+00
  rms(prec ) = 0.29073E+00
  weight for this iteration     100.00

 eigenvalues of (default mixing * dielectric matrix)
  average eigenvalue GAMMA=   1.4505
  2.5897  1.7422  0.8597  0.6106

 Free energy of the ion-electron system (eV)
  ---------------------------------------------------
  alpha Z        PSCENC =        58.21092976
  Ewald energy   TEWEN  =      4697.01110514
  -Hartree energ DENC   =     -6456.35140572
  -exchange      EXHF   =         0.00000000
  -V(xc)+E(xc)   XCENC  =       185.52747429
  PAW double counting   =      5875.48849068    -5880.13259957
  entropy T*S    EENTRO =        -0.00000366
  eigenvalues    EBANDS =      -500.17189615
  atomic energy  EATOM  =      1903.26342058
  Solvation  Ediel_sol  =         0.00000000
  ---------------------------------------------------
  free energy    TOTEN  =      -117.15448467 eV

  energy without entropy =     -117.15448101  energy(sigma->0) =     -117.15448284


--------------------------------------------------------------------------------------------------------




--------------------------------------- Iteration      1(  10)  ---------------------------------------


    POTLOK:  cpu time      0.0305: real time      0.0308
    SETDIJ:  cpu time      0.0033: real time      0.0034
     EDDAV:  cpu time      9.9013: real time      9.9685
       DOS:  cpu time      0.0010: real time      0.0010
    CHARGE:  cpu time      0.2562: real time      0.2620
    MIXING:  cpu time      0.0009: real time      0.0009
    --------------------------------------------
      LOOP:  cpu time     10.1933: real time     10.2666

 eigenvalue-minimisations  : 23808
 total energy-change (2. order) :-0.6341690E+01  (-0.8159895E+00)
 number of electron      55.9999998 magnetization       0.8195873
 augmentation part        1.0231232 magnetization       0.7771060

 Broyden mixing:
  rms(total) = 0.15887E+00    rms(broyden)= 0.15872E+00
  rms(prec ) = 0.17642E+00
  weight for this iteration     100.00

 eigenvalues of (default mixing * dielectric matrix)
  average eigenvalue GAMMA=   1.4845
  2.5403  2.5403  0.8713  0.8713  0.5997

 Free energy of the ion-electron system (eV)
  ---------------------------------------------------
  alpha Z        PSCENC =        58.21092976
  Ewald energy   TEWEN  =      4697.01110514
  -Hartree energ DENC   =     -6454.44360522
  -exchange      EXHF   =         0.00000000
  -V(xc)+E(xc)   XCENC  =       181.99582547
  PAW double counting   =      5919.61331858    -5924.05495427
  entropy T*S    EENTRO =        -0.00061232
  eigenvalues    EBANDS =      -505.09160249
  atomic energy  EATOM  =      1903.26342058
  Solvation  Ediel_sol  =         0.00000000
  ---------------------------------------------------
  free energy    TOTEN  =      -123.49617478 eV

  energy without entropy =     -123.49556245  energy(sigma->0) =     -123.49586862


--------------------------------------------------------------------------------------------------------




--------------------------------------- Iteration      1(  11)  ---------------------------------------


    POTLOK:  cpu time      0.0331: real time      0.0365
    SETDIJ:  cpu time      0.0033: real time      0.0034
     EDDAV:  cpu time     10.5464: real time     10.6083
       DOS:  cpu time      0.0010: real time      0.0010
    CHARGE:  cpu time      0.2563: real time      0.2642
    MIXING:  cpu time      0.0010: real time      0.0010
    --------------------------------------------
      LOOP:  cpu time     10.8411: real time     10.9144

 eigenvalue-minimisations  : 25344
 total energy-change (2. order) :-0.1780453E+01  (-0.2797007E+00)
 number of electron      55.9999998 magnetization       0.3587275
 augmentation part        1.0225676 magnetization       0.3399595

 Broyden mixing:
  rms(total) = 0.99015E-01    rms(broyden)= 0.98898E-01
  rms(prec ) = 0.11188E+00
  weight for this iteration     100.00

 eigenvalues of (default mixing * dielectric matrix)
  average eigenvalue GAMMA=   1.5131
  3.0011  2.3550  1.4431  0.9380  0.7304  0.6107

 Free energy of the ion-electron system (eV)
  ---------------------------------------------------
  alpha Z        PSCENC =        58.21092976
  Ewald energy   TEWEN  =      4697.01110514
  -Hartree energ DENC   =     -6451.11333282
  -exchange      EXHF   =         0.00000000
  -V(xc)+E(xc)   XCENC  =       180.86247306
  PAW double counting   =      5826.53693180    -5830.89543236
  entropy T*S    EENTRO =        -0.00119573
  eigenvalues    EBANDS =      -509.15152762
  atomic energy  EATOM  =      1903.26342058
  Solvation  Ediel_sol  =         0.00000000
  ---------------------------------------------------
  free energy    TOTEN  =      -125.27662821 eV

  energy without entropy =     -125.27543248  energy(sigma->0) =     -125.27603034


--------------------------------------------------------------------------------------------------------




--------------------------------------- Iteration      1(  12)  ---------------------------------------


    POTLOK:  cpu time      0.0315: real time      0.0332
    SETDIJ:  cpu time      0.0035: real time      0.0035
     EDDAV:  cpu time      7.9254: real time      7.9832
       DOS:  cpu time      0.0010: real time      0.0010
    CHARGE:  cpu time      0.2558: real time      0.2640
    MIXING:  cpu time      0.0009: real time      0.0009
    --------------------------------------------
      LOOP:  cpu time      8.2179: real time      8.2857

 eigenvalue-minimisations  : 19680
 total energy-change (2. order) :-0.1607324E+00  (-0.2274752E-01)
 number of electron      55.9999998 magnetization       0.1178339
 augmentation part        1.0242936 magnetization       0.1092153

 Broyden mixing:
  rms(total) = 0.46356E-01    rms(broyden)= 0.46328E-01
  rms(prec ) = 0.51185E-01
  weight for this iteration     100.00

 eigenvalues of (default mixing * dielectric matrix)
  average eigenvalue GAMMA=   1.5633
  3.5850  2.1204  2.1204  0.8915  0.8915  0.6068  0.7275

 Free energy of the ion-electron system (eV)
  ---------------------------------------------------
  alpha Z        PSCENC =        58.21092976
  Ewald energy   TEWEN  =      4697.01110514
  -Hartree energ DENC   =     -6450.16961954
  -exchange      EXHF   =         0.00000000
  -V(xc)+E(xc)   XCENC  =       180.50971288
  PAW double counting   =      5762.13524663    -5766.50492429
  entropy T*S    EENTRO =        -0.00148303
  eigenvalues    EBANDS =      -509.89174873
  atomic energy  EATOM  =      1903.26342058
  Solvation  Ediel_sol  =         0.00000000
  ---------------------------------------------------
  free energy    TOTEN  =      -125.43736060 eV

  energy without entropy =     -125.43587757  energy(sigma->0) =     -125.43661909


--------------------------------------------------------------------------------------------------------




--------------------------------------- Iteration      1(  13)  ---------------------------------------


    POTLOK:  cpu time      0.0306: real time      0.0308
    SETDIJ:  cpu time      0.0033: real time      0.0033
     EDDAV:  cpu time      7.2524: real time      7.2962
       DOS:  cpu time      0.0010: real time      0.0010
    CHARGE:  cpu time      0.2495: real time      0.2608
    MIXING:  cpu time      0.0010: real time      0.0010
    --------------------------------------------
      LOOP:  cpu time      7.5378: real time      7.5930

 eigenvalue-minimisations  : 18048
 total energy-change (2. order) :-0.2716429E-01  (-0.2306921E-02)
 number of electron      55.9999998 magnetization       0.0346834
 augmentation part        1.0242800 magnetization       0.0320222

 Broyden mixing:
  rms(total) = 0.18736E-01    rms(broyden)= 0.18731E-01
  rms(prec ) = 0.22651E-01
  weight for this iteration     100.00

 eigenvalues of (default mixing * dielectric matrix)
  average eigenvalue GAMMA=   1.5856
  3.9472  2.3160  2.3160  0.9754  0.9118  0.9118  0.6129  0.6938

 Free energy of the ion-electron system (eV)
  ---------------------------------------------------
  alpha Z        PSCENC =        58.21092976
  Ewald energy   TEWEN  =      4697.01110514
  -Hartree energ DENC   =     -6450.91196966
  -exchange      EXHF   =         0.00000000
  -V(xc)+E(xc)   XCENC  =       180.44177311
  PAW double counting   =      5747.04502032    -5751.43834769
  entropy T*S    EENTRO =        -0.00155296
  eigenvalues    EBANDS =      -509.08490349
  atomic energy  EATOM  =      1903.26342058
  Solvation  Ediel_sol  =         0.00000000
  ---------------------------------------------------
  free energy    TOTEN  =      -125.46452489 eV

  energy without entropy =     -125.46297194  energy(sigma->0) =     -125.46374842


--------------------------------------------------------------------------------------------------------




--------------------------------------- Iteration      1(  14)  ---------------------------------------


    POTLOK:  cpu time      0.0311: real time      0.0344
    SETDIJ:  cpu time      0.0034: real time      0.0034
     EDDAV:  cpu time      8.1022: real time      8.4513
       DOS:  cpu time      0.0009: real time      0.0009
    CHARGE:  cpu time      0.2580: real time      0.2699
    MIXING:  cpu time      0.0010: real time      0.0010
    --------------------------------------------
      LOOP:  cpu time      8.3967: real time      8.7609

 eigenvalue-minimisations  : 20112
 total energy-change (2. order) :-0.2238814E-01  (-0.6022965E-03)
 number of electron      55.9999998 magnetization       0.0023621
 augmentation part        1.0244103 magnetization       0.0012948

 Broyden mixing:
  rms(total) = 0.83845E-02    rms(broyden)= 0.83827E-02
  rms(prec ) = 0.12163E-01
  weight for this iteration     100.00

 eigenvalues of (default mixing * dielectric matrix)
  average eigenvalue GAMMA=   1.5615
  4.1127  2.3234  2.3234  1.3556  0.9303  0.9303  0.7910  0.6166  0.6704

 Free energy of the ion-electron system (eV)
  ---------------------------------------------------
  alpha Z        PSCENC =        58.21092976
  Ewald energy   TEWEN  =      4697.01110514
  -Hartree energ DENC   =     -6451.19109645
  -exchange      EXHF   =         0.00000000
  -V(xc)+E(xc)   XCENC  =       180.38702119
  PAW double counting   =      5725.10416110    -5729.50500287
  entropy T*S    EENTRO =        -0.00155793
  eigenvalues    EBANDS =      -508.76589355
  atomic energy  EATOM  =      1903.26342058
  Solvation  Ediel_sol  =         0.00000000
  ---------------------------------------------------
  free energy    TOTEN  =      -125.48691304 eV

  energy without entropy =     -125.48535511  energy(sigma->0) =     -125.48613407


--------------------------------------------------------------------------------------------------------




--------------------------------------- Iteration      1(  15)  ---------------------------------------


    POTLOK:  cpu time      0.0316: real time      0.0318
    SETDIJ:  cpu time      0.0034: real time      0.0034
     EDDAV:  cpu time      7.7597: real time      7.8091
       DOS:  cpu time      0.0010: real time      0.0010
    CHARGE:  cpu time      0.2526: real time      0.2627
    MIXING:  cpu time      0.0011: real time      0.0011
    --------------------------------------------
      LOOP:  cpu time      8.0494: real time      8.1091

 eigenvalue-minimisations  : 19104
 total energy-change (2. order) :-0.7466664E-02  (-0.3113935E-03)
 number of electron      55.9999998 magnetization      -0.0051959
 augmentation part        1.0244712 magnetization      -0.0053483

 Broyden mixing:
  rms(total) = 0.43720E-02    rms(broyden)= 0.43712E-02
  rms(prec ) = 0.78780E-02
  weight for this iteration     100.00

 eigenvalues of (default mixing * dielectric matrix)
  average eigenvalue GAMMA=   1.5637
  4.1991  2.3167  2.3167  2.0155  0.9726  0.9132  0.9132  0.7366  0.6267  0.6267

 Free energy of the ion-electron system (eV)
  ---------------------------------------------------
  alpha Z        PSCENC =        58.21092976
  Ewald energy   TEWEN  =      4697.01110514
  -Hartree energ DENC   =     -6451.63590921
  -exchange      EXHF   =         0.00000000
  -V(xc)+E(xc)   XCENC  =       180.36804774
  PAW double counting   =      5714.80535216    -5719.20742019
  entropy T*S    EENTRO =        -0.00155865
  eigenvalues    EBANDS =      -508.30834703
  atomic energy  EATOM  =      1903.26342058
  Solvation  Ediel_sol  =         0.00000000
  ---------------------------------------------------
  free energy    TOTEN  =      -125.49437970 eV

  energy without entropy =     -125.49282106  energy(sigma->0) =     -125.49360038


--------------------------------------------------------------------------------------------------------




--------------------------------------- Iteration      1(  16)  ---------------------------------------


    POTLOK:  cpu time      0.0305: real time      0.0307
    SETDIJ:  cpu time      0.0034: real time      0.0034
     EDDAV:  cpu time      6.6535: real time      6.6974
       DOS:  cpu time      0.0010: real time      0.0010
    CHARGE:  cpu time      0.2551: real time      0.2625
    MIXING:  cpu time      0.0011: real time      0.0011
    --------------------------------------------
      LOOP:  cpu time      6.9445: real time      6.9961

 eigenvalue-minimisations  : 16608
 total energy-change (2. order) :-0.1961411E-02  (-0.6290420E-04)
 number of electron      55.9999998 magnetization      -0.0068920
 augmentation part        1.0243414 magnetization      -0.0068415

 Broyden mixing:
  rms(total) = 0.22134E-02    rms(broyden)= 0.22131E-02
  rms(prec ) = 0.53553E-02
  weight for this iteration     100.00

 eigenvalues of (default mixing * dielectric matrix)
  average eigenvalue GAMMA=   1.5576
  4.2338  2.4007  2.4007  2.2255  1.1705  0.9390  0.9390  0.8627  0.7111  0.6254
  0.6254

 Free energy of the ion-electron system (eV)
  ---------------------------------------------------
  alpha Z        PSCENC =        58.21092976
  Ewald energy   TEWEN  =      4697.01110514
  -Hartree energ DENC   =     -6452.27959823
  -exchange      EXHF   =         0.00000000
  -V(xc)+E(xc)   XCENC  =       180.37077729
  PAW double counting   =      5713.92693557    -5718.32996550
  entropy T*S    EENTRO =        -0.00155866
  eigenvalues    EBANDS =      -507.66838705
  atomic energy  EATOM  =      1903.26342058
  Solvation  Ediel_sol  =         0.00000000
  ---------------------------------------------------
  free energy    TOTEN  =      -125.49634111 eV

  energy without entropy =     -125.49478245  energy(sigma->0) =     -125.49556178


--------------------------------------------------------------------------------------------------------




--------------------------------------- Iteration      1(  17)  ---------------------------------------


    POTLOK:  cpu time      0.0297: real time      0.0301
    SETDIJ:  cpu time      0.0035: real time      0.0035
     EDDAV:  cpu time      5.6262: real time      5.6670
       DOS:  cpu time      0.0010: real time      0.0010
    CHARGE:  cpu time      0.2532: real time      0.2610
    MIXING:  cpu time      0.0012: real time      0.0012
    --------------------------------------------
      LOOP:  cpu time      5.9147: real time      5.9637

 eigenvalue-minimisations  : 14400
 total energy-change (2. order) :-0.1247190E-02  (-0.1696656E-04)
 number of electron      55.9999998 magnetization      -0.0064887
 augmentation part        1.0242474 magnetization      -0.0063773

 Broyden mixing:
  rms(total) = 0.16921E-02    rms(broyden)= 0.16920E-02
  rms(prec ) = 0.35584E-02
  weight for this iteration     100.00

 eigenvalues of (default mixing * dielectric matrix)
  average eigenvalue GAMMA=   1.5535
  4.2688  2.5168  2.3785  2.3785  1.5597  1.0330  0.9074  0.9074  0.7653  0.6769
  0.6180  0.6323

 Free energy of the ion-electron system (eV)
  ---------------------------------------------------
  alpha Z        PSCENC =        58.21092976
  Ewald energy   TEWEN  =      4697.01110514
  -Hartree energ DENC   =     -6453.02150047
  -exchange      EXHF   =         0.00000000
  -V(xc)+E(xc)   XCENC  =       180.37108129
  PAW double counting   =      5713.29353790    -5717.69708341
  entropy T*S    EENTRO =        -0.00155863
  eigenvalues    EBANDS =      -506.92752046
  atomic energy  EATOM  =      1903.26342058
  Solvation  Ediel_sol  =         0.00000000
  ---------------------------------------------------
  free energy    TOTEN  =      -125.49758830 eV

  energy without entropy =     -125.49602967  energy(sigma->0) =     -125.49680899


--------------------------------------------------------------------------------------------------------




--------------------------------------- Iteration      1(  18)  ---------------------------------------


    POTLOK:  cpu time      0.0295: real time      0.0298
    SETDIJ:  cpu time      0.0033: real time      0.0033
     EDDAV:  cpu time      6.3462: real time      6.3881
       DOS:  cpu time      0.0010: real time      0.0010
    CHARGE:  cpu time      0.2534: real time      0.2623
    MIXING:  cpu time      0.0011: real time      0.0011
    --------------------------------------------
      LOOP:  cpu time      6.6345: real time      6.6856

 eigenvalue-minimisations  : 16032
 total energy-change (2. order) :-0.7270618E-03  (-0.8416924E-05)
[...]
      9     -11.0182      1.00000
     10      -9.3856      1.00000
     11      -9.0592      1.00000
     12      -8.6673      1.00000
     13      -8.4838      1.00000
     14      -7.7641      1.00000
     15      -7.5662      1.00000
     16      -7.5102      1.00000
     17      -6.7542      1.00000
     18      -6.6293      1.00000
     19      -6.2278      1.00000
     20      -6.0507      1.00000
     21      -5.7915      1.00000
     22      -5.5148      1.00000
     23      -5.3016      1.00000
     24      -5.1133      1.00000
     25      -3.9170      1.00000
     26      -3.5207      1.00000
     27      -2.9785      1.00000
     28      -1.1282      1.00000
     29       0.2570      0.00000
     30       2.1362      0.00000
     31       3.5436      0.00000
     32       3.7630      0.00000
     33       4.4507      0.00000
     34       4.8065      0.00000
     35       4.9431      0.00000
     36       5.1681      0.00000
     37       5.2694      0.00000
     38       5.4672      0.00000
     39       5.8640      0.00000
     40       6.0969      0.00000
     41       6.1978      0.00000
     42       6.5002      0.00000
     43       6.6329      0.00000
     44       7.0310      0.00000
     45       7.2151      0.00000
     46       7.2533      0.00000
     47       7.6715      0.00000
     48       8.2410      0.00000

 k-point    74 :       0.3333    0.3333    0.0000
  band No.  band energies     occupation 
      1     -18.3214      1.00000
      2     -18.3164      1.00000
      3     -18.3121      1.00000
      4     -16.5807      1.00000
      5     -14.3941      1.00000
      6     -14.3918      1.00000
      7     -13.1393      1.00000
      8     -13.1376      1.00000
      9     -11.3189      1.00000
     10      -8.9151      1.00000
     11      -8.9142      1.00000
     12      -8.2281      1.00000
     13      -8.2231      1.00000
     14      -8.2203      1.00000
     15      -7.9694      1.00000
     16      -6.9515      1.00000
     17      -6.9493      1.00000
     18      -6.9441      1.00000
     19      -6.2363      1.00000
     20      -6.0213      1.00000
     21      -6.0154      1.00000
     22      -5.5457      1.00000
     23      -5.5423      1.00000
     24      -5.0983      1.00000
     25      -3.8198      1.00000
     26      -3.3417      1.00000
     27      -3.3392      1.00000
     28      -0.4320      0.54394
     29      -0.4164      0.45606
     30       2.4058      0.00000
     31       3.6639      0.00000
     32       3.9178      0.00000
     33       3.9369      0.00000
     34       4.8692      0.00000
     35       4.8747      0.00000
     36       5.0851      0.00000
     37       5.7414      0.00000
     38       5.7441      0.00000
     39       6.0659      0.00000
     40       6.2649      0.00000
     41       6.2772      0.00000
     42       6.2891      0.00000
     43       6.5047      0.00000
     44       6.5084      0.00000
     45       6.7745      0.00000
     46       7.4088      0.00000
     47       7.4111      0.00000
     48       8.0082      0.00000


--------------------------------------------------------------------------------------------------------


 soft charge-density along one line, spin component           1
         0         1         2         3         4         5         6         7         8         9
 total charge-density along one line
 
 soft charge-density along one line, spin component           2
         0         1         2         3         4         5         6         7         8         9
 total charge-density along one line
 
 pseudopotential strength for first ion, spin component:           1
  6.779  10.347   0.000  -0.004   0.000   0.000  -0.007   0.000
 10.347  15.789   0.000  -0.007   0.000   0.000  -0.010   0.000
  0.000   0.000  -2.350  -0.000  -0.000  -4.041  -0.000  -0.000
 -0.004  -0.007  -0.000  -2.345  -0.000  -0.000  -4.030  -0.000
  0.000   0.000  -0.000  -0.000  -2.350  -0.000  -0.000  -4.041
  0.000   0.000  -4.041  -0.000  -0.000  -6.752  -0.000  -0.000
 -0.007  -0.010  -0.000  -4.030  -0.000  -0.000  -6.729  -0.000
  0.000   0.000  -0.000  -0.000  -4.041  -0.000  -0.000  -6.752
 pseudopotential strength for first ion, spin component:           2
  6.779  10.347   0.000  -0.004   0.000   0.000  -0.007   0.000
 10.347  15.789   0.000  -0.007   0.000   0.000  -0.010   0.000
  0.000   0.000  -2.350  -0.000  -0.000  -4.041  -0.000  -0.000
 -0.004  -0.007  -0.000  -2.345  -0.000  -0.000  -4.030  -0.000
  0.000   0.000  -0.000  -0.000  -2.350  -0.000  -0.000  -4.041
  0.000   0.000  -4.041  -0.000  -0.000  -6.752  -0.000  -0.000
 -0.007  -0.010  -0.000  -4.030  -0.000  -0.000  -6.729  -0.000
  0.000   0.000  -0.000  -0.000  -4.041  -0.000  -0.000  -6.752
 total augmentation occupancy for first ion, spin component:           1
  3.701  -1.066  -0.002  -0.537  -0.001   0.001   0.220   0.000
 -1.066   0.332   0.000   0.248   0.000  -0.000  -0.085  -0.000
 -0.002   0.000   4.154   0.000   0.001  -1.223  -0.000  -0.000
 -0.537   0.248   0.000   1.816  -0.002  -0.000  -0.409   0.000
 -0.001   0.000   0.001  -0.002   4.156  -0.000   0.000  -1.224
  0.001  -0.000  -1.223  -0.000  -0.000   0.371   0.000   0.000
  0.220  -0.085  -0.000  -0.409   0.000   0.000   0.097  -0.000
  0.000  -0.000  -0.000   0.000  -1.224   0.000  -0.000   0.371
 total augmentation occupancy for first ion, spin component:           2
  0.000  -0.000   0.000  -0.000  -0.000  -0.000   0.000   0.000
 -0.000   0.000  -0.000   0.000   0.000   0.000  -0.000  -0.000
  0.000  -0.000   0.000  -0.000  -0.000  -0.000   0.000   0.000
 -0.000   0.000  -0.000   0.000   0.000   0.000  -0.000  -0.000
 -0.000   0.000  -0.000   0.000   0.000   0.000  -0.000  -0.000
 -0.000   0.000  -0.000   0.000   0.000   0.000  -0.000  -0.000
  0.000  -0.000   0.000  -0.000  -0.000  -0.000   0.000   0.000
  0.000  -0.000   0.000  -0.000  -0.000  -0.000   0.000   0.000


------------------------ aborting loop because EDIFF is reached ----------------------------------------


    CHARGE:  cpu time      0.2625: real time      0.2708
    FORLOC:  cpu time      0.0015: real time      0.0015
    FORNL :  cpu time      0.7254: real time      0.7275
    STRESS:  cpu time      3.2764: real time      3.2903
    FORCOR:  cpu time      0.0254: real time      0.0255
    FORHAR:  cpu time      0.0036: real time      0.0036
    MIXING:  cpu time      0.0007: real time      0.0007
    OFIELD:  cpu time      0.0000: real time      0.0000

 ---------------------------------------------------------------------------------------------

         DFTD3 V3.0 Rev 1        
 Edisp (eV)   -1.59005

 E6    (eV) :    -1.0980
 E8    (eV) :    -0.4920
 % E8        : 30.94
    FORVDW:  cpu time      0.0399: real time      0.0399

  FORCE on cell =-STRESS in cart. coord.  units (eV):
  Direction    XX          YY          ZZ          XY          YZ          ZX
  --------------------------------------------------------------------------------------
  Alpha Z    58.21093    58.21093    58.21093
  Ewald    6446.14421  6446.49365 -8193.83701    -0.16086     0.03020     0.11732
  Hartree  6371.99762  6372.07643 -6287.94239    -0.04003     0.00407     0.03524
  E(xc)    -201.54127  -201.53947  -208.47839    -0.00046    -0.00006     0.00297
  Local  -13411.80709-13412.18651 13774.94991     0.18718    -0.02672    -0.13926
  n-local   -42.83915   -42.83625   -41.21824    -0.00155    -0.00040     0.00904
  augment    -4.05516    -4.05542    -3.63050     0.00019     0.00006    -0.00009
  Kinetic   782.47426   782.38947   902.65850     0.03421    -0.01012    -0.14034
  Fock        0.00000     0.00000     0.00000     0.00000     0.00000     0.00000
  vdW        -0.39134    -0.39108    -1.11029     0.00001     0.00000     0.00041
  -------------------------------------------------------------------------------------
  Total      -1.80700    -1.83826    -0.39748     0.01869    -0.00298    -0.11470
  in kB      -9.47466    -9.63854    -2.08411     0.09801    -0.01562    -0.60143
  external pressure =       -7.07 kB  Pullay stress =        0.00 kB


 VOLUME and BASIS-vectors are now :
 -----------------------------------------------------------------------------
  energy-cutoff  :      450.00
  volume of cell :      305.57
      direct lattice vectors                 reciprocal lattice vectors
     4.200223208  2.425000000  0.000000000     0.119041293  0.206185567  0.000000000
    -4.200223208  2.425000000  0.000000000    -0.119041293  0.206185567  0.000000000
     0.000000000  0.000000000 15.000000000     0.000000000  0.000000000  0.066666667

  length of vectors
     4.850000000  4.850000000 15.000000000     0.238082585  0.238082585  0.066666667


 FORCES acting on ions
    electron-ion (+dipol)            ewald-force                    non-local-force                 convergence-correction
 -----------------------------------------------------------------------------------------------
   0.311E-01 -.479E-01 0.160E+03   -.352E-01 0.418E-01 -.159E+03   0.185E-02 0.765E-02 -.177E+01   -.160E-04 0.460E-04 0.293E-02
   -.218E+02 -.125E+02 0.240E+03   0.243E+02 0.140E+02 -.240E+03   -.243E+01 -.141E+01 0.423E+00   0.257E-02 0.140E-02 0.962E-03
   0.216E+02 -.125E+02 0.240E+03   -.241E+02 0.140E+02 -.240E+03   0.245E+01 -.141E+01 0.432E+00   -.224E-02 0.146E-02 0.907E-03
   0.610E-01 0.250E+02 0.240E+03   -.444E-01 -.279E+02 -.240E+03   -.331E-02 0.282E+01 0.427E+00   -.178E-03 -.280E-02 0.919E-03
   0.815E-01 -.381E+02 0.308E+03   -.715E-01 0.442E+02 -.310E+03   0.184E-02 -.594E+01 0.186E+01   -.416E-03 0.569E-02 0.133E-02
   0.331E+02 0.192E+02 0.308E+03   -.384E+02 -.222E+02 -.310E+03   0.515E+01 0.297E+01 0.188E+01   -.510E-02 -.320E-02 0.114E-02
   -.330E+02 0.191E+02 0.308E+03   0.383E+02 -.221E+02 -.310E+03   -.515E+01 0.297E+01 0.187E+01   0.489E-02 -.272E-02 0.131E-02
   0.718E+00 -.516E+00 -.226E+03   -.732E+00 0.520E+00 0.226E+03   0.186E-01 -.109E-01 0.390E-01   -.285E-04 -.346E-03 0.882E-04
   0.329E-01 -.113E+01 -.227E+03   -.449E-01 0.116E+01 0.227E+03   0.843E-02 -.557E-01 0.155E-01   -.807E-04 -.435E-03 -.207E-03
   -.985E+00 0.196E+00 -.228E+03   0.101E+01 -.210E+00 0.228E+03   -.373E-01 -.536E-02 -.390E-01   -.138E-03 -.393E-03 -.692E-04
   -.545E+00 0.144E+00 -.225E+03   0.545E+00 -.154E+00 0.225E+03   -.441E-01 -.543E-02 0.580E-01   -.569E-03 -.314E-03 0.202E-03
   -.463E+00 -.107E+00 -.225E+03   0.473E+00 0.101E+00 0.225E+03   -.106E-01 0.832E-02 0.650E-01   0.275E-03 0.832E-04 0.214E-03
   0.732E+00 -.705E-01 -.225E+03   -.737E+00 0.631E-01 0.225E+03   0.307E-02 0.959E-02 0.456E-01   0.241E-03 0.388E-04 0.167E-03
   0.593E+00 0.441E+00 -.226E+03   -.605E+00 -.428E+00 0.226E+03   0.236E-01 0.668E-02 0.593E-01   0.103E-03 0.604E-03 -.597E-04
   -.142E+00 0.104E+01 -.227E+03   0.135E+00 -.105E+01 0.227E+03   0.200E-01 0.529E-01 -.285E-03   0.278E-03 0.742E-03 -.176E-04
 -----------------------------------------------------------------------------------------------
   -.562E-03 -.485E-02 -.538E+01   0.144E-13 0.235E-13 0.284E-13   0.105E-02 0.512E-02 0.537E+01   -.408E-03 -.149E-03 0.981E-02
 
 
 POSITION                                       TOTAL-FORCE (eV/Angst)
 -----------------------------------------------------------------------------------
      0.00620      0.01654      1.79592        -0.002314      0.001552     -0.276831
      1.48468      0.87097      1.46479         0.076976      0.041348      0.080661
     -1.47337      0.87097      1.46528        -0.067519      0.037883      0.096024
      0.00603      3.15880      1.46494         0.013113     -0.080011      0.092106
      0.00622      1.57955      1.50455         0.011428      0.096412     -0.012085
      2.85326      1.66100      1.50451        -0.086224     -0.047609      0.001434
     -2.84085      1.66038      1.50407         0.086519     -0.048714     -0.008106
     -1.40034      1.21261      5.04698         0.005283     -0.006929      0.001432
     -0.00018      1.21302      5.04770        -0.003467     -0.024571      0.018235
     -3.50012      2.42535      5.04689        -0.011379     -0.019624      0.000839
     -2.09940      2.42530      5.04678        -0.045820     -0.015916     -0.005849
      0.69998      2.42492      5.04667        -0.001096      0.002515     -0.006139
      2.09997      2.42492      5.04696        -0.001087      0.002397     -0.001287
     -1.40047      3.63715      5.04752         0.011539      0.020255      0.015528
     -0.00050      3.63668      5.04714         0.014048      0.041012      0.004037
 -----------------------------------------------------------------------------------
    total drift:                                0.000077      0.000116     -0.000611


--------------------------------------------------------------------------------------------------------



  FREE ENERGIE OF THE ION-ELECTRON SYSTEM (eV)
  ---------------------------------------------------
  free  energy   TOTEN  =      -127.09652629 eV

  energy  without entropy=     -127.09496861  energy(sigma->0) =     -127.09574745
 
 d Force = 0.7732281E-02[-0.413E-04, 0.155E-01]  d Energy = 0.7755228E-02-0.229E-04
 d Force = 0.1928376E+01[ 0.189E+01, 0.197E+01]  d Ewald  = 0.1928414E+01-0.386E-04


--------------------------------------------------------------------------------------------------------


    POTLOK:  cpu time      0.0352: real time      0.0359


--------------------------------------------------------------------------------------------------------


 stress matrix after NEB project (eV)
     -1.80700      0.01869     -0.11470
      0.01869     -1.83826     -0.00298
     -0.11470     -0.00298     -0.39748
  FORCES: max atom, RMS     0.276845    0.102280
  FORCE total and by dimension    0.396129    0.276831
  Stress total and by dimension    2.613324    1.838256


--------------------------------------------------------------------------------------------------------


    WAVPRE:  cpu time      0.0045: real time      0.0080
    FEWALD:  cpu time      0.0004: real time      0.0004
    ORTHCH:  cpu time      0.3316: real time      0.3326
     LOOP+:  cpu time     50.7627: real time     51.1162


--------------------------------------- Iteration      4(   1)  ---------------------------------------


    POTLOK:  cpu time      0.0303: real time      0.0308
    SETDIJ:  cpu time      0.0033: real time      0.0033
     EDDAV:  cpu time      5.5357: real time      5.5686
       DOS:  cpu time      0.0010: real time      0.0010
    CHARGE:  cpu time      0.2518: real time      0.2631
    MIXING:  cpu time      0.0006: real time      0.0007
    --------------------------------------------
      LOOP:  cpu time      5.8228: real time      5.8675

 eigenvalue-minimisations  : 14208
 total energy-change (2. order) :-0.5954055E-02  (-0.2923419E-01)
 number of electron      55.9999998 magnetization      -0.0000001
 augmentation part        1.0269716 magnetization       0.0000014

 Broyden mixing:
  rms(total) = 0.11348E-01    rms(broyden)= 0.11338E-01
  rms(prec ) = 0.12393E-01
  weight for this iteration     100.00

 Free energy of the ion-electron system (eV)
  ---------------------------------------------------
  alpha Z        PSCENC =        58.21092976
  Ewald energy   TEWEN  =      4699.12987130
  -Hartree energ DENC   =     -6456.21662808
  -exchange      EXHF   =         0.00000000
  -V(xc)+E(xc)   XCENC  =       180.44214616
  PAW double counting   =      5726.69639548    -5731.10262752
  entropy T*S    EENTRO =        -0.00156307
  eigenvalues    EBANDS =      -505.93437051
  atomic energy  EATOM  =      1903.26342058
  Solvation  Ediel_sol  =         0.00000000
  ---------------------------------------------------
  free energy    TOTEN  =      -125.51242591 eV

  energy without entropy =     -125.51086283  energy(sigma->0) =     -125.51164437


--------------------------------------------------------------------------------------------------------




--------------------------------------- Iteration      4(   2)  ---------------------------------------


    POTLOK:  cpu time      0.0298: real time      0.0326
    SETDIJ:  cpu time      0.0033: real time      0.0033
     EDDAV:  cpu time     11.8350: real time     11.8998
       DOS:  cpu time      0.0010: real time      0.0010
    CHARGE:  cpu time      0.2577: real time      0.2674
    MIXING:  cpu time      0.0007: real time      0.0007
    --------------------------------------------
      LOOP:  cpu time     12.1274: real time     12.2048

 eigenvalue-minimisations  : 27888
 total energy-change (2. order) :-0.4877884E-04  (-0.1929266E-03)
 number of electron      55.9999998 magnetization      -0.0000001
 augmentation part        1.0268558 magnetization       0.0000002

 Broyden mixing:
  rms(total) = 0.65953E-02    rms(broyden)= 0.65943E-02
  rms(prec ) = 0.71093E-02
  weight for this iteration     100.00

 eigenvalues of (default mixing * dielectric matrix)
  average eigenvalue GAMMA=   1.9495
  1.9495

 Free energy of the ion-electron system (eV)
  ---------------------------------------------------
  alpha Z        PSCENC =        58.21092976
  Ewald energy   TEWEN  =      4699.12987130
  -Hartree energ DENC   =     -6456.23951375
  -exchange      EXHF   =         0.00000000
  -V(xc)+E(xc)   XCENC  =       180.44307198
  PAW double counting   =      5728.83300727    -5733.24011783
  entropy T*S    EENTRO =        -0.00156288
  eigenvalues    EBANDS =      -505.91158111
  atomic energy  EATOM  =      1903.26342058
  Solvation  Ediel_sol  =         0.00000000
  ---------------------------------------------------
  free energy    TOTEN  =      -125.51247468 eV

  energy without entropy =     -125.51091180  energy(sigma->0) =     -125.51169324


--------------------------------------------------------------------------------------------------------




--------------------------------------- Iteration      4(   3)  ---------------------------------------


    POTLOK:  cpu time      0.0305: real time      0.0319
    SETDIJ:  cpu time      0.0034: real time      0.0034
     EDDAV:  cpu time      9.2611: real time      9.3193
       DOS:  cpu time      0.0010: real time      0.0010
    CHARGE:  cpu time      0.2545: real time      0.2674
    MIXING:  cpu time      0.0007: real time      0.0007
    --------------------------------------------
      LOOP:  cpu time      9.5512: real time      9.6237

 eigenvalue-minimisations  : 22848
 total energy-change (2. order) : 0.3361766E-05  (-0.1900334E-04)
 number of electron      55.9999998 magnetization      -0.0000000
 augmentation part        1.0267867 magnetization      -0.0000001

 Broyden mixing:
  rms(total) = 0.17141E-02    rms(broyden)= 0.17137E-02
  rms(prec ) = 0.19173E-02
  weight for this iteration     100.00

 eigenvalues of (default mixing * dielectric matrix)
  average eigenvalue GAMMA=   1.6703
  1.0751  2.2655

 Free energy of the ion-electron system (eV)
  ---------------------------------------------------
  alpha Z        PSCENC =        58.21092976
  Ewald energy   TEWEN  =      4699.12987130
  -Hartree energ DENC   =     -6456.23438398
  -exchange      EXHF   =         0.00000000
  -V(xc)+E(xc)   XCENC  =       180.44251257
  PAW double counting   =      5731.15045431    -5735.55836382
  entropy T*S    EENTRO =        -0.00156262
  eigenvalues    EBANDS =      -505.91534942
  atomic energy  EATOM  =      1903.26342058
  Solvation  Ediel_sol  =         0.00000000
  ---------------------------------------------------
  free energy    TOTEN  =      -125.51247132 eV

  energy without entropy =     -125.51090870  energy(sigma->0) =     -125.51169001


--------------------------------------------------------------------------------------------------------




--------------------------------------- Iteration      4(   4)  ---------------------------------------


    POTLOK:  cpu time      0.0297: real time      0.0300
    SETDIJ:  cpu time      0.0033: real time      0.0034
