<?xml version="1.0" encoding="ISO-8859-1"?>
<modeling>
 <generator>
  <i name="program" type="string">vasp </i>
  <i name="version" type="string">6.3.2  </i>
  <i name="subversion" type="string">27Jun22 (build Dec 22 2022 13:13:19) complex                          parallel </i>
  <i name="platform" type="string">LinuxIFC </i>
  <i name="date" type="string">2023 08 22 </i>
  <i name="time" type="string">23:25:07 </i>
 </generator>
 <incar>
  <i type="string" name="SYSTEM">Lattice</i>
  <i type="int" name="ISTART">     0</i>
  <i type="string" name="PREC">Accurate</i>
  <i type="string" name="ALGO">Normal</i>
  <i type="int" name="ISPIN">     2</i>
  <i type="int" name="ICHARG">     2</i>
  <i type="int" name="NELM">    64</i>
  <i type="int" name="IBRION">     2</i>
  <i name="EDIFF">      0.00000100</i>
  <i name="EDIFFG">     -0.00100000</i>
  <i type="int" name="NSW">   128</i>
  <i type="int" name="ISIF">     2</i>
  <i name="ENCUT">    450.00000000</i>
  <i name="POTIM">      0.50000000</i>
  <i type="int" name="ISMEAR">     0</i>
  <i name="SIGMA">      0.10000000</i>
  <i type="logical" name="LWAVE"> F  </i>
  <i type="logical" name="LCHARG"> F  </i>
  <i type="string" name="GGA">PE</i>
  <i type="int" name="IVDW">    12</i>
 </incar>
 <primitive_cell>
  <structure name="primitive_cell" >
   <crystal>
    <varray name="basis" >
     <v>       4.20022321       2.42500000       0.00000000 </v>
     <v>      -4.20022321       2.42500000       0.00000000 </v>
     <v>       0.00000000       0.00000000      15.00000000 </v>
    </varray>
    <i name="volume">    305.56623841 </i>
    <varray name="rec_basis" >
     <v>       0.11904129       0.20618557       0.00000000 </v>
     <v>      -0.11904129       0.20618557       0.00000000 </v>
     <v>       0.00000000       0.00000000       0.06666667 </v>
    </varray>
   </crystal>
   <varray name="positions" >
    <v>       0.00415361       0.00267210       0.12034134 </v>
    <v>       0.35695335       0.00285503       0.09748893 </v>
    <v>       0.00423858       0.35550699       0.09749256 </v>
    <v>       0.65142295       0.65006557       0.09747688 </v>
    <v>       0.32808646       0.32671938       0.10030508 </v>
    <v>       0.68027775       0.00278085       0.10027562 </v>
    <v>       0.00416530       0.67883808       0.10026559 </v>
    <v>       0.08333267       0.41666633       0.33646667 </v>
    <v>       0.24999967       0.24999933       0.33646667 </v>
    <v>       0.08333267       0.91666633       0.33646667 </v>
    <v>       0.24999967       0.74999933       0.33646667 </v>
    <v>       0.58333267       0.41666633       0.33646667 </v>
    <v>       0.74999967       0.24999933       0.33646667 </v>
    <v>       0.58333267       0.91666633       0.33646667 </v>
    <v>       0.74999967       0.74999933       0.33646667 </v>
   </varray>
  </structure>
  <varray name="primitive_index" >
   <v type="int" >        1 </v>
   <v type="int" >        2 </v>
   <v type="int" >        3 </v>
   <v type="int" >        4 </v>
   <v type="int" >        5 </v>
   <v type="int" >        6 </v>
   <v type="int" >        7 </v>
   <v type="int" >        8 </v>
   <v type="int" >        9 </v>
   <v type="int" >       10 </v>
   <v type="int" >       11 </v>
   <v type="int" >       12 </v>
   <v type="int" >       13 </v>
   <v type="int" >       14 </v>
   <v type="int" >       15 </v>
  </varray>
 </primitive_cell>
 <kpoints>
  <generation param="Gamma">
   <v type="int" name="divisions">      12       12        1 </v>
   <v name="usershift">      0.00000000       0.00000000       0.00000000 </v>
   <v name="genvec1">      0.08333333      -0.00000000       0.00000000 </v>
   <v name="genvec2">     -0.00000000       0.08333333       0.00000000 </v>
   <v name="genvec3">      0.00000000       0.00000000       1.00000000 </v>
   <v name="shift">      0.00000000       0.00000000       0.00000000 </v>
  </generation>
  <varray name="kpointlist" >
   <v>       0.00000000       0.00000000       0.00000000 </v>
   <v>       0.08333333      -0.00000000       0.00000000 </v>
   <v>      -0.00000000       0.08333333       0.00000000 </v>
   <v>      -0.08333333       0.08333333       0.00000000 </v>
   <v>       0.16666667      -0.00000000       0.00000000 </v>
   <v>       0.00000000       0.16666667       0.00000000 </v>
   <v>      -0.16666667       0.16666667       0.00000000 </v>
   <v>       0.25000000      -0.00000000       0.00000000 </v>
   <v>      -0.00000000       0.25000000       0.00000000 </v>
   <v>      -0.25000000       0.25000000       0.00000000 </v>
   <v>       0.33333333      -0.00000000       0.00000000 </v>
   <v>      -0.00000000       0.33333333       0.00000000 </v>
   <v>      -0.33333333       0.33333333       0.00000000 </v>
   <v>       0.41666667      -0.00000000       0.00000000 </v>
   <v>      -0.00000000       0.41666667       0.00000000 </v>
   <v>      -0.41666667       0.41666667       0.00000000 </v>
   <v>       0.50000000      -0.00000000       0.00000000 </v>
   <v>      -0.00000000       0.50000000       0.00000000 </v>
   <v>       0.50000000       0.50000000       0.00000000 </v>
   <v>       0.08333333       0.08333333       0.00000000 </v>
   <v>      -0.08333333       0.16666667       0.00000000 </v>
   <v>      -0.16666667       0.08333333       0.00000000 </v>
   <v>       0.16666667       0.08333333       0.00000000 </v>
   <v>      -0.08333333       0.25000000       0.00000000 </v>
   <v>      -0.25000000       0.16666667       0.00000000 </v>
   <v>      -0.16666667       0.25000000       0.00000000 </v>
   <v>       0.08333333       0.16666667       0.00000000 </v>
   <v>       0.25000000      -0.08333333       0.00000000 </v>
   <v>       0.25000000       0.08333333       0.00000000 </v>
   <v>      -0.08333333       0.33333333       0.00000000 </v>
   <v>      -0.33333333       0.25000000       0.00000000 </v>
   <v>      -0.25000000       0.33333333       0.00000000 </v>
   <v>       0.08333333       0.25000000       0.00000000 </v>
   <v>       0.33333333      -0.08333333       0.00000000 </v>
   <v>       0.33333333       0.08333333       0.00000000 </v>
   <v>      -0.08333333       0.41666667       0.00000000 </v>
   <v>      -0.41666667       0.33333333       0.00000000 </v>
   <v>      -0.33333333       0.41666667       0.00000000 </v>
   <v>       0.08333333       0.33333333       0.00000000 </v>
   <v>       0.41666667      -0.08333333       0.00000000 </v>
   <v>       0.41666667       0.08333333       0.00000000 </v>
   <v>      -0.08333333       0.50000000       0.00000000 </v>
   <v>       0.50000000       0.41666667       0.00000000 </v>
   <v>      -0.41666667       0.50000000       0.00000000 </v>
   <v>       0.08333333       0.41666667       0.00000000 </v>
   <v>       0.50000000      -0.08333333       0.00000000 </v>
   <v>       0.16666667       0.16666667       0.00000000 </v>
   <v>      -0.16666667       0.33333333       0.00000000 </v>
   <v>      -0.33333333       0.16666667       0.00000000 </v>
   <v>       0.25000000       0.16666667       0.00000000 </v>
   <v>      -0.16666667       0.41666667       0.00000000 </v>
   <v>      -0.41666667       0.25000000       0.00000000 </v>
   <v>      -0.25000000       0.41666667       0.00000000 </v>
   <v>       0.16666667       0.25000000       0.00000000 </v>
   <v>       0.41666667      -0.16666667       0.00000000 </v>
   <v>       0.33333333       0.16666667       0.00000000 </v>
   <v>      -0.16666667       0.50000000       0.00000000 </v>
   <v>       0.50000000       0.33333333       0.00000000 </v>
   <v>      -0.33333333       0.50000000       0.00000000 </v>
   <v>       0.16666667       0.33333333       0.00000000 </v>
   <v>       0.50000000      -0.16666667       0.00000000 </v>
   <v>       0.41666667       0.16666667       0.00000000 </v>
   <v>      -0.16666667      -0.41666667       0.00000000 </v>
   <v>       0.41666667       0.41666667       0.00000000 </v>
   <v>       0.25000000       0.25000000       0.00000000 </v>
   <v>      -0.25000000       0.50000000       0.00000000 </v>
   <v>       0.50000000       0.25000000       0.00000000 </v>
   <v>       0.33333333       0.25000000       0.00000000 </v>
   <v>      -0.25000000      -0.41666667       0.00000000 </v>
   <v>       0.41666667       0.33333333       0.00000000 </v>
   <v>      -0.33333333      -0.41666667       0.00000000 </v>
   <v>       0.25000000       0.33333333       0.00000000 </v>
   <v>      -0.41666667      -0.25000000       0.00000000 </v>
   <v>       0.33333333       0.33333333       0.00000000 </v>
  </varray>
  <varray name="weights" >
   <v>       0.00694444 </v>
   <v>       0.01388889 </v>
   <v>       0.01388889 </v>
   <v>       0.01388889 </v>
   <v>       0.01388889 </v>
   <v>       0.01388889 </v>
   <v>       0.01388889 </v>
   <v>       0.01388889 </v>
   <v>       0.01388889 </v>
   <v>       0.01388889 </v>
   <v>       0.01388889 </v>
   <v>       0.01388889 </v>
   <v>       0.01388889 </v>
   <v>       0.01388889 </v>
   <v>       0.01388889 </v>
   <v>       0.01388889 </v>
   <v>       0.00694444 </v>
   <v>       0.00694444 </v>
   <v>       0.00694444 </v>
   <v>       0.01388889 </v>
   <v>       0.01388889 </v>
   <v>       0.01388889 </v>
   <v>       0.01388889 </v>
   <v>       0.01388889 </v>
   <v>       0.01388889 </v>
   <v>       0.01388889 </v>
   <v>       0.01388889 </v>
   <v>       0.01388889 </v>
   <v>       0.01388889 </v>
   <v>       0.01388889 </v>
   <v>       0.01388889 </v>
   <v>       0.01388889 </v>
   <v>       0.01388889 </v>
   <v>       0.01388889 </v>
   <v>       0.01388889 </v>
   <v>       0.01388889 </v>
   <v>       0.01388889 </v>
   <v>       0.01388889 </v>
   <v>       0.01388889 </v>
   <v>       0.01388889 </v>
   <v>       0.01388889 </v>
   <v>       0.01388889 </v>
   <v>       0.01388889 </v>
   <v>       0.01388889 </v>
   <v>       0.01388889 </v>
   <v>       0.01388889 </v>
   <v>       0.01388889 </v>
   <v>       0.01388889 </v>
   <v>       0.01388889 </v>
   <v>       0.01388889 </v>
   <v>       0.01388889 </v>
   <v>       0.01388889 </v>
   <v>       0.01388889 </v>
   <v>       0.01388889 </v>
   <v>       0.01388889 </v>
   <v>       0.01388889 </v>
   <v>       0.01388889 </v>
   <v>       0.01388889 </v>
   <v>       0.01388889 </v>
   <v>       0.01388889 </v>
   <v>       0.01388889 </v>
   <v>       0.01388889 </v>
   <v>       0.01388889 </v>
   <v>       0.01388889 </v>
   <v>       0.01388889 </v>
   <v>       0.01388889 </v>
   <v>       0.01388889 </v>
   <v>       0.01388889 </v>
   <v>       0.01388889 </v>
   <v>       0.01388889 </v>
   <v>       0.01388889 </v>
   <v>       0.01388889 </v>
   <v>       0.01388889 </v>
   <v>       0.01388889 </v>
  </varray>
 </kpoints>
 <parameters>
  <separator name="general" >
   <i type="string" name="SYSTEM">Lattice</i>
   <i type="logical" name="LCOMPAT"> F  </i>
  </separator>
  <separator name="electronic" >
   <i type="string" name="PREC">accura</i>
   <i name="ENMAX">    450.00000000</i>
   <i name="ENAUG">    644.87300000</i>
   <i name="EDIFF">      0.00000100</i>
   <i type="int" name="IALGO">    38</i>
   <i type="int" name="IWAVPR">    11</i>
   <i type="int" name="NBANDS">    48</i>
   <i type="int" name="NBANDSLOW">    -1</i>
   <i type="int" name="NBANDSHIGH">    -1</i>
   <i name="NELECT">     56.00000000</i>
   <i type="int" name="TURBO">     0</i>
   <i type="int" name="IRESTART">     0</i>
   <i type="int" name="NREBOOT">     0</i>
   <i type="int" name="NMIN">     0</i>
   <i name="EREF">      0.00000000</i>
   <separator name="electronic smearing" >
    <i type="int" name="ISMEAR">     0</i>
    <i name="SIGMA">      0.10000000</i>
    <i name="KSPACING">      0.50000000</i>
    <i type="logical" name="KGAMMA"> T  </i>
    <i type="logical" name="KBLOWUP"> T  </i>
   </separator>
   <separator name="electronic projectors" >
    <i type="logical" name="LREAL"> F  </i>
    <v name="ROPT">      0.00000000      0.00000000</v>
    <i type="int" name="LMAXPAW">  -100</i>
    <i type="int" name="LMAXMIX">     2</i>
    <i type="logical" name="NLSPLINE"> F  </i>
   </separator>
   <separator name="electronic startup" >
    <i type="int" name="ISTART">     0</i>
    <i type="int" name="ICHARG">     2</i>
    <i type="int" name="INIWAV">     1</i>
   </separator>
   <separator name="electronic spin" >
    <i type="int" name="ISPIN">     2</i>
    <i type="logical" name="LNONCOLLINEAR"> F  </i>
    <v name="MAGMOM">      1.00000000      1.00000000      1.00000000      1.00000000      1.00000000      1.00000000      1.00000000      1.00000000      1.00000000      1.00000000      1.00000000      1.00000000      1.00000000      1.00000000      1.00000000</v>
    <i name="NUPDOWN">     -1.00000000</i>
    <i type="logical" name="LSORBIT"> F  </i>
    <v name="SAXIS">      0.00000000      0.00000000      1.00000000</v>
    <i type="logical" name="LSPIRAL"> F  </i>
    <v name="QSPIRAL">      0.00000000      0.00000000      0.00000000</v>
    <i type="logical" name="LZEROZ"> F  </i>
   </separator>
   <separator name="electronic exchange-correlation" >
    <i type="logical" name="LASPH"> F  </i>
    <i type="logical" name="LMETAGGA"> F  </i>
   </separator>
   <separator name="electronic convergence" >
    <i type="int" name="NELM">    64</i>
    <i type="int" name="NELMDL">    -5</i>
    <i type="int" name="NELMIN">     2</i>
    <i name="ENINI">    450.00000000</i>
    <separator name="electronic convergence detail" >
     <i type="logical" name="LDIAG"> T  </i>
     <i type="logical" name="LSUBROT"> F  </i>
     <i name="WEIMIN">      0.00100000</i>
     <i name="EBREAK">      0.00000001</i>
     <i name="DEPER">      0.30000000</i>
     <i type="int" name="NRMM">     4</i>
     <i name="TIME">      0.40000000</i>
    </separator>
   </separator>
   <separator name="electronic mixer" >
    <i name="AMIX">      0.40000000</i>
    <i name="BMIX">      1.00000000</i>
    <i name="AMIN">      0.10000000</i>
    <i name="AMIX_MAG">      1.60000000</i>
    <i name="BMIX_MAG">      1.00000000</i>
    <separator name="electronic mixer details" >
     <i type="int" name="IMIX">     4</i>
     <i type="logical" name="MIXFIRST"> F  </i>
     <i type="int" name="MAXMIX">   -45</i>
     <i name="WC">    100.00000000</i>
     <i type="int" name="INIMIX">     1</i>
     <i type="int" name="MIXPRE">     1</i>
     <i type="int" name="MREMOVE">     5</i>
    </separator>
   </separator>
   <separator name="electronic dipolcorrection" >
    <i type="logical" name="LDIPOL"> F  </i>
    <i type="logical" name="LMONO"> F  </i>
    <i type="int" name="IDIPOL">     0</i>
    <i name="EPSILON">      1.00000000</i>
    <v name="DIPOL">   -100.00000000   -100.00000000   -100.00000000</v>
    <i name="EFIELD">      0.00000000</i>
   </separator>
  </separator>
  <separator name="grids" >
   <i type="int" name="NGX">    36</i>
   <i type="int" name="NGY">    36</i>
   <i type="int" name="NGZ">   108</i>
   <i type="int" name="NGXF">    72</i>
   <i type="int" name="NGYF">    72</i>
   <i type="int" name="NGZF">   216</i>
   <i type="logical" name="ADDGRID"> F  </i>
  </separator>
  <separator name="ionic" >
   <i type="int" name="NSW">   128</i>
   <i type="int" name="IBRION">     2</i>
   <i type="int" name="MDALGO">     0</i>
   <i type="int" name="ISIF">     2</i>
   <i name="PSTRESS">      0.00000000</i>
   <i name="EDIFFG">     -0.00100000</i>
   <i type="int" name="NFREE">     1</i>
   <i name="POTIM">      0.50000000</i>
   <i name="SMASS">     -3.00000000</i>
   <i name="SCALEE">      1.00000000</i>
  </separator>
  <separator name="ionic md" >
   <i name="TEBEG">      0.00010000</i>
   <i name="TEEND">      0.00010000</i>
   <i type="int" name="NBLOCK">     1</i>
   <i type="int" name="KBLOCK">   128</i>
   <i type="int" name="NPACO">   256</i>
   <i name="APACO">     10.00000000</i>
  </separator>
  <separator name="symmetry" >
   <i type="int" name="ISYM">     2</i>
   <i name="SYMPREC">      0.00001000</i>
  </separator>
  <separator name="dos" >
   <i type="int" name="LORBIT">     0</i>
   <v name="RWIGS">     -1.00000000     -1.00000000</v>
   <i type="int" name="NEDOS">   301</i>
   <i name="EMIN">     10.00000000</i>
   <i name="EMAX">    -10.00000000</i>
   <i name="EFERMI">      0.00000000</i>
  </separator>
  <separator name="writing" >
   <i type="int" name="NWRITE">     2</i>
   <i type="logical" name="LWAVE"> F  </i>
   <i type="logical" name="LDOWNSAMPLE"> F  </i>
   <i type="logical" name="LCHARG"> F  </i>
   <i type="logical" name="LPARD"> F  </i>
   <i type="logical" name="LVTOT"> F  </i>
   <i type="logical" name="LVHAR"> F  </i>
   <i type="logical" name="LELF"> F  </i>
   <i type="logical" name="LOPTICS"> F  </i>
   <v name="STM">      0.00000000      0.00000000      0.00000000      0.00000000      0.00000000      0.00000000      0.00000000</v>
  </separator>
  <separator name="performance" >
   <i type="int" name="NPAR">    48</i>
   <i type="int" name="NSIM">     4</i>
   <i type="int" name="NBLK">    -1</i>
   <i type="logical" name="LPLANE"> T  </i>
   <i type="logical" name="LSCALAPACK"> T  </i>
   <i type="logical" name="LSCAAWARE"> F  </i>
   <i type="logical" name="LSCALU"> F  </i>
   <i type="logical" name="LASYNC"> F  </i>
   <i type="logical" name="LORBITALREAL"> F  </i>
  </separator>
  <separator name="miscellaneous" >
   <i type="int" name="IDIOT">     3</i>
   <i type="int" name="PHON_NSTRUCT">    -1</i>
   <i type="logical" name="LMUSIC"> F  </i>
   <v name="POMASS">     10.81100000     12.01100000</v>
   <v name="DARWINR">      0.00000000      0.00000000</v>
   <v name="DARWINV">      1.00000000      1.00000000</v>
   <i type="logical" name="LCORR"> T  </i>
  </separator>
  <i type="logical" name="GGA_COMPAT"> T  </i>
  <i type="logical" name="LBERRY"> F  </i>
  <i type="int" name="ICORELEVEL">     0</i>
  <i type="logical" name="LDAU"> F  </i>
  <i type="int" name="I_CONSTRAINED_M">     0</i>
  <separator name="electronic exchange-correlation" >
   <i type="string" name="GGA">PE</i>
   <i type="int" name="VOSKOWN">     0</i>
   <i type="logical" name="LHFCALC"> F  </i>
   <i type="string" name="PRECFOCK"></i>
   <i type="logical" name="LSYMGRAD"> F  </i>
   <i type="logical" name="LHFONE"> F  </i>
   <i type="logical" name="LRHFCALC"> F  </i>
   <i type="logical" name="LTHOMAS"> F  </i>
   <i type="logical" name="LMODELHF"> F  </i>
   <i type="logical" name="LFOCKACE"> F  </i>
   <i name="ENCUT4O">     -1.00000000</i>
   <i type="int" name="EXXOEP">     0</i>
   <i type="int" name="FOURORBIT">     0</i>
   <i name="AEXX">      0.00000000</i>
   <i name="HFALPHA">      0.00000000</i>
   <i name="MCALPHA">      0.00000000</i>
   <i name="ALDAX">      1.00000000</i>
   <i name="AGGAX">      1.00000000</i>
   <i name="ALDAC">      1.00000000</i>
   <i name="AGGAC">      1.00000000</i>
   <i type="int" name="NKREDX">     1</i>
   <i type="int" name="NKREDY">     1</i>
   <i type="int" name="NKREDZ">     1</i>
   <i type="logical" name="SHIFTRED"> F  </i>
   <i type="logical" name="ODDONLY"> F  </i>
   <i type="logical" name="EVENONLY"> F  </i>
   <i type="int" name="LMAXFOCK">     0</i>
   <i type="int" name="NMAXFOCKAE">     0</i>
   <i type="logical" name="LFOCKAEDFT"> F  </i>
   <i name="HFSCREEN">      0.00000000</i>
   <i name="HFSCREENC">      0.00000000</i>
   <i type="int" name="NBANDSGWLOW">     0</i>
  </separator>
  <separator name="vdW DFT" >
   <i type="logical" name="LUSE_VDW"> F  </i>
   <i name="Zab_VDW">     -0.84910000</i>
   <i name="PARAM1">      0.12340000</i>
   <i name="PARAM2">      1.00000000</i>
   <i name="PARAM3">      0.00000000</i>
  </separator>
  <separator name="model GW" >
   <i type="int" name="MODEL_GW">     0</i>
   <i name="MODEL_EPS0">     12.22264954</i>
   <i name="MODEL_ALPHA">      1.00000000</i>
  </separator>
  <separator name="linear response parameters" >
   <i type="logical" name="LEPSILON"> F  </i>
   <i type="logical" name="LRPA"> F  </i>
   <i type="logical" name="LNABLA"> F  </i>
   <i type="logical" name="LVEL"> F  </i>
   <i name="CSHIFT">      0.10000000</i>
   <i name="OMEGAMAX">     -1.00000000</i>
   <i name="DEG_THRESHOLD">      0.00200000</i>
   <i name="RTIME">     -0.10000000</i>
   <i name="WPLASMAI">      0.00000000</i>
   <v name="DFIELD">      0.00000000      0.00000000      0.00000000</v>
   <v name="WPLASMA">      0.00000000      0.00000000      0.00000000      0.00000000      0.00000000      0.00000000      0.00000000      0.00000000      0.00000000</v>
  </separator>
  <separator name="orbital magnetization" >
   <i type="logical" name="NUCIND"> F  </i>
   <v name="MAGPOS">      0.00000000      0.00000000      0.00000000</v>
   <i type="logical" name="LNICSALL"> T  </i>
   <i type="logical" name="ORBITALMAG"> F  </i>
   <i type="logical" name="LMAGBLOCH"> F  </i>
   <i type="logical" name="LCHIMAG"> F  </i>
   <i type="logical" name="LGAUGE"> T  </i>
   <i type="int" name="MAGATOM">     0</i>
   <v name="MAGDIPOL">      0.00000000      0.00000000      0.00000000</v>
   <v name="AVECCONST">      0.00000000      0.00000000      0.00000000</v>
  </separator>
  <separator name="response functions" >
   <i type="logical" name="LFINITE_TEMPERATURE"> F  </i>
   <i type="logical" name="LADDER"> F  </i>
   <i type="logical" name="LRPAFORCE"> F  </i>
   <i type="logical" name="LFXC"> F  </i>
   <i type="logical" name="LHARTREE"> T  </i>
   <i type="int" name="IBSE">     0</i>
   <v type="int" name="KPOINT">    -1     0     0     0</v>
   <i type="logical" name="LTCTC"> F  </i>
   <i type="logical" name="LTCTE"> F  </i>
   <i type="logical" name="LTETE"> F  </i>
   <i type="logical" name="LTRIPLET"> F  </i>
   <i type="logical" name="LFXCEPS"> F  </i>
   <i type="logical" name="LFXHEG"> F  </i>
   <i type="int" name="NATURALO">     2</i>
   <i type="logical" name="LHOLEGF"> F  </i>
   <i type="logical" name="L2ORDER"> F  </i>
   <i type="logical" name="LDMP1"> F  </i>
   <i type="logical" name="LMP2LT"> F  </i>
   <i type="logical" name="LSMP2LT"> F  </i>
   <i type="logical" name="LGWLF"> F  </i>
   <i name="ENCUTGW">     -2.00000000</i>
   <i name="ENCUTGWSOFT">     -2.00000000</i>
   <i name="ENCUTLF">     -1.00000000</i>
   <i type="logical" name="LESF_SPLINES"> F  </i>
   <i type="int" name="LMAXMP2">    -1</i>
   <i name="SCISSOR">      0.00000000</i>
   <i type="int" name="NOMEGA">     0</i>
   <i type="int" name="NOMEGAR">     0</i>
   <i type="int" name="NBANDSGW">    -1</i>
   <i type="int" name="NBANDSO">    -1</i>
   <i type="int" name="NBANDSV">    -1</i>
   <i type="int" name="NELMGW">     1</i>
   <i type="int" name="NELMHF">     1</i>
   <i type="int" name="DIM">     3</i>
   <i type="int" name="IESPILON">     4</i>
   <i type="int" name="ANTIRES">     0</i>
   <i name="OMEGAMAX">    -30.00000000</i>
   <i name="OMEGAMIN">    -30.00000000</i>
   <i name="OMEGATL">   -200.00000000</i>
   <i type="int" name="OMEGAGRID">     0</i>
   <i name="CSHIFT">     -0.10000000</i>
   <i type="logical" name="LSELFENERGY"> F  </i>
   <i type="logical" name="LSPECTRAL"> F  </i>
   <i type="logical" name="LSPECTRALGW"> F  </i>
   <i type="logical" name="LSINGLES"> F  </i>
   <i type="logical" name="LFERMIGW"> F  </i>
   <i type="logical" name="ODDONLYGW"> F  </i>
   <i type="logical" name="EVENONLYGW"> F  </i>
   <i type="int" name="NKREDLFX">     1</i>
   <i type="int" name="NKREDLFY">     1</i>
   <i type="int" name="NKREDLFZ">     1</i>
   <i type="int" name="MAXMEM">  2800</i>
   <i type="int" name="TELESCOPE">     0</i>
   <i type="int" name="NTAUPAR">    -1</i>
   <i type="int" name="NOMEGAPAR">    -1</i>
   <i name="DAMP_NEWTON">      0.80000001</i>
   <i name="LAMBDA">      1.00000000</i>
  </separator>
  <separator name="External order field" >
   <i name="OFIELD_KAPPA">      0.00000000</i>
   <v name="OFIELD_K">      0.00000000      0.00000000      0.00000000</v>
   <i name="OFIELD_Q6_NEAR">      0.00000000</i>
   <i name="OFIELD_Q6_FAR">      0.00000000</i>
   <i name="OFIELD_A">      0.00000000</i>
  </separator>
  <separator name="optional k-points parameters" >
   <i type="int" name="KPOINTS_OPT_MODE">     1</i>
   <i type="logical" name="LKPOINTS_OPT"> F  </i>
  </separator>
  <separator name="solvation model" >
   <i type="logical" name="LSOL"> F  </i>
  </separator>
 </parameters>
 <atominfo>
  <atoms>      15 </atoms>
  <types>       2 </types>
  <array name="atoms" >
   <dimension dim="1">ion</dimension>
   <field type="string">element</field>
   <field type="int">atomtype</field>
   <set>
    <rc><c>B </c><c>   1</c></rc>
    <rc><c>B </c><c>   1</c></rc>
    <rc><c>B </c><c>   1</c></rc>
    <rc><c>B </c><c>   1</c></rc>
    <rc><c>C </c><c>   2</c></rc>
    <rc><c>C </c><c>   2</c></rc>
    <rc><c>C </c><c>   2</c></rc>
    <rc><c>C </c><c>   2</c></rc>
    <rc><c>C </c><c>   2</c></rc>
    <rc><c>C </c><c>   2</c></rc>
    <rc><c>C </c><c>   2</c></rc>
    <rc><c>C </c><c>   2</c></rc>
    <rc><c>C </c><c>   2</c></rc>
    <rc><c>C </c><c>   2</c></rc>
    <rc><c>C </c><c>   2</c></rc>
   </set>
  </array>
  <array name="atomtypes" >
   <dimension dim="1">type</dimension>
   <field type="int">atomspertype</field>
   <field type="string">element</field>
   <field>mass</field>
   <field>valence</field>
   <field type="string">pseudopotential</field>
   <set>
    <rc><c>   4</c><c>B </c><c>     10.81100000</c><c>      3.00000000</c><c>  PAW_PBE B 06Sep2000                   </c></rc>
    <rc><c>  11</c><c>C </c><c>     12.01100000</c><c>      4.00000000</c><c>  PAW_PBE C 08Apr2002                   </c></rc>
   </set>
  </array>
 </atominfo>
 <structure name="initialpos" >
  <crystal>
   <varray name="basis" >
    <v>       4.20022321       2.42500000       0.00000000 </v>
    <v>      -4.20022321       2.42500000       0.00000000 </v>
    <v>       0.00000000       0.00000000      15.00000000 </v>
   </varray>
   <i name="volume">    305.56623841 </i>
   <varray name="rec_basis" >
    <v>       0.11904129       0.20618557       0.00000000 </v>
    <v>      -0.11904129       0.20618557       0.00000000 </v>
    <v>       0.00000000       0.00000000       0.06666667 </v>
   </varray>
  </crystal>
  <varray name="positions" >
   <v>       0.00415361       0.00267210       0.12034134 </v>
   <v>       0.35695335       0.00285503       0.09748893 </v>
   <v>       0.00423858       0.35550699       0.09749256 </v>
   <v>       0.65142295       0.65006557       0.09747688 </v>
   <v>       0.32808646       0.32671938       0.10030508 </v>
   <v>       0.68027775       0.00278085       0.10027562 </v>
   <v>       0.00416530       0.67883808       0.10026559 </v>
   <v>       0.08333267       0.41666633       0.33646667 </v>
   <v>       0.24999967       0.24999933       0.33646667 </v>
   <v>       0.08333267       0.91666633       0.33646667 </v>
   <v>       0.24999967       0.74999933       0.33646667 </v>
   <v>       0.58333267       0.41666633       0.33646667 </v>
   <v>       0.74999967       0.24999933       0.33646667 </v>
   <v>       0.58333267       0.91666633       0.33646667 </v>
   <v>       0.74999967       0.74999933       0.33646667 </v>
  </varray>
 </structure>
 <calculation>
  <scstep>
   <time name="dav">    5.49    5.56</time>
   <time name="total">    5.54    5.61</time>
   <energy>
    <i name="alphaZ">     58.21092976 </i>
    <i name="ewald">   4697.01110514 </i>
    <i name="hartreedc">  -6253.92081891 </i>
    <i name="XCdc">    175.02162895 </i>
    <i name="pawpsdc">   1365.87943566 </i>
    <i name="pawaedc">  -1368.52100941 </i>
    <i name="eentropy">     -0.02118630 </i>
    <i name="bandstr">   -373.05422258 </i>
    <i name="atom">   1903.26342058 </i>
    <i name="e_fr_energy">    203.86928289 </i>
    <i name="e_wo_entrp">    203.89046918 </i>
    <i name="e_0_energy">    203.87987603 </i>
   </energy>
  </scstep>
  <scstep>
   <time name="dav">    8.05    8.12</time>
   <time name="total">    8.05    8.12</time>
   <energy>
    <i name="e_fr_energy">   -116.51878328 </i>
    <i name="e_wo_entrp">   -116.51711025 </i>
    <i name="e_0_energy">   -116.51794676 </i>
   </energy>
  </scstep>
  <scstep>
   <time name="dav">   11.19   11.27</time>
   <time name="total">   11.20   11.28</time>
   <energy>
    <i name="e_fr_energy">   -129.30499119 </i>
    <i name="e_wo_entrp">   -129.30181946 </i>
    <i name="e_0_energy">   -129.30340532 </i>
   </energy>
  </scstep>
  <scstep>
   <time name="dav">    8.05    8.12</time>
   <time name="total">    8.05    8.12</time>
   <energy>
    <i name="e_fr_energy">   -129.32892816 </i>
    <i name="e_wo_entrp">   -129.32578197 </i>
    <i name="e_0_energy">   -129.32735507 </i>
   </energy>
  </scstep>
  <scstep>
   <time name="dav">   10.75   10.83</time>
   <time name="total">   11.01   11.10</time>
   <energy>
    <i name="e_fr_energy">   -129.32899125 </i>
    <i name="e_wo_entrp">   -129.32584499 </i>
    <i name="e_0_energy">   -129.32741812 </i>
   </energy>
  </scstep>
  <scstep>
   <time name="dav">   10.82   10.90</time>
   <time name="total">   11.12   11.21</time>
   <energy>
    <i name="e_fr_energy">    -91.98470475 </i>
    <i name="e_wo_entrp">    -91.97826635 </i>
    <i name="e_0_energy">    -91.98148555 </i>
   </energy>
  </scstep>
  <scstep>
   <time name="dav">    8.97    9.03</time>
   <time name="total">    9.27    9.34</time>
   <energy>
    <i name="e_fr_energy">   -100.43862907 </i>
    <i name="e_wo_entrp">   -100.43295269 </i>
    <i name="e_0_energy">   -100.43579088 </i>
   </energy>
  </scstep>
  <scstep>
   <time name="dav">   10.02   10.09</time>
   <time name="total">   10.31   10.39</time>
   <energy>
    <i name="e_fr_energy">   -110.41553826 </i>
    <i name="e_wo_entrp">   -110.41551364 </i>
    <i name="e_0_energy">   -110.41552595 </i>
   </energy>
  </scstep>
  <scstep>
   <time name="dav">    7.74    7.81</time>
   <time name="total">    8.04    8.11</time>
   <energy>
    <i name="e_fr_energy">   -117.15448467 </i>
    <i name="e_wo_entrp">   -117.15448101 </i>
    <i name="e_0_energy">   -117.15448284 </i>
   </energy>
  </scstep>
  <scstep>
   <time name="dav">    9.90    9.97</time>
   <time name="total">   10.19   10.27</time>
   <energy>
    <i name="e_fr_energy">   -123.49617478 </i>
    <i name="e_wo_entrp">   -123.49556245 </i>
    <i name="e_0_energy">   -123.49586862 </i>
   </energy>
  </scstep>
  <scstep>
   <time name="dav">   10.55   10.61</time>
   <time name="total">   10.84   10.91</time>
   <energy>
    <i name="e_fr_energy">   -125.27662821 </i>
    <i name="e_wo_entrp">   -125.27543248 </i>
    <i name="e_0_energy">   -125.27603034 </i>
   </energy>
  </scstep>
  <scstep>
   <time name="dav">    7.93    7.98</time>
   <time name="total">    8.22    8.29</time>
   <energy>
    <i name="e_fr_energy">   -125.43736060 </i>
    <i name="e_wo_entrp">   -125.43587757 </i>
    <i name="e_0_energy">   -125.43661909 </i>
   </energy>
  </scstep>
  <scstep>
   <time name="dav">    7.25    7.30</time>
   <time name="total">    7.54    7.59</time>
   <energy>
    <i name="e_fr_energy">   -125.46452489 </i>
    <i name="e_wo_entrp">   -125.46297194 </i>
    <i name="e_0_energy">   -125.46374842 </i>
   </energy>
  </scstep>
  <scstep>
   <time name="dav">    8.10    8.45</time>
   <time name="total">    8.40    8.76</time>
   <energy>
    <i name="e_fr_energy">   -125.48691304 </i>
    <i name="e_wo_entrp">   -125.48535511 </i>
    <i name="e_0_energy">   -125.48613407 </i>
   </energy>
  </scstep>
  <scstep>
   <time name="dav">    7.76    7.81</time>
   <time name="total">    8.05    8.11</time>
   <energy>
    <i name="e_fr_energy">   -125.49437970 </i>
    <i name="e_wo_entrp">   -125.49282106 </i>
    <i name="e_0_energy">   -125.49360038 </i>
   </energy>
  </scstep>
  <scstep>
   <time name="dav">    6.65    6.70</time>
   <time name="total">    6.94    7.00</time>
   <energy>
    <i name="e_fr_energy">   -125.49634111 </i>
    <i name="e_wo_entrp">   -125.49478245 </i>
    <i name="e_0_energy">   -125.49556178 </i>
   </energy>
  </scstep>
  <scstep>
   <time name="dav">    5.63    5.67</time>
   <time name="total">    5.91    5.96</time>
   <energy>
    <i name="e_fr_energy">   -125.49758830 </i>
    <i name="e_wo_entrp">   -125.49602967 </i>
    <i name="e_0_energy">   -125.49680899 </i>
   </energy>
  </scstep>
  <scstep>
   <time name="dav">    6.35    6.39</time>
   <time name="total">    6.63    6.69</time>
   <energy>
    <i name="e_fr_energy">   -125.49831536 </i>
    <i name="e_wo_entrp">   -125.49675674 </i>
    <i name="e_0_energy">   -125.49753605 </i>
   </energy>
  </scstep>
  <scstep>
   <time name="dav">    8.01    8.06</time>
   <time name="total">    8.29    8.36</time>
   <energy>
    <i name="e_fr_energy">   -125.49874039 </i>
    <i name="e_wo_entrp">   -125.49718176 </i>
    <i name="e_0_energy">   -125.49796108 </i>
   </energy>
  </scstep>
  <scstep>
   <time name="dav">    8.94    8.99</time>
   <time name="total">    9.22    9.29</time>
   <energy>
    <i name="e_fr_energy">   -125.49879287 </i>
    <i name="e_wo_entrp">   -125.49723424 </i>
    <i name="e_0_energy">   -125.49801356 </i>
   </energy>
  </scstep>
  <scstep>
   <time name="dav">    8.29    8.34</time>
   <time name="total">    8.58    8.64</time>
   <energy>
    <i name="e_fr_energy">   -125.49881376 </i>
    <i name="e_wo_entrp">   -125.49725512 </i>
    <i name="e_0_energy">   -125.49803444 </i>
   </energy>
  </scstep>
  <scstep>
   <time name="dav">    9.11    9.17</time>
   <time name="total">    9.40    9.47</time>
   <energy>
    <i name="e_fr_energy">   -125.49883531 </i>
    <i name="e_wo_entrp">   -125.49727667 </i>
    <i name="e_0_energy">   -125.49805599 </i>
   </energy>
  </scstep>
  <scstep>
   <time name="dav">    8.88    8.93</time>
   <time name="total">    9.17    9.23</time>
   <energy>
    <i name="e_fr_energy">   -125.49884998 </i>
    <i name="e_wo_entrp">   -125.49729133 </i>
    <i name="e_0_energy">   -125.49807066 </i>
   </energy>
  </scstep>
  <scstep>
   <time name="dav">    9.59    9.65</time>
   <time name="total">    9.88    9.95</time>
   <energy>
    <i name="e_fr_energy">   -125.49885290 </i>
    <i name="e_wo_entrp">   -125.49729425 </i>
    <i name="e_0_energy">   -125.49807357 </i>
   </energy>
  </scstep>
  <scstep>
   <time name="dav">    9.06    9.11</time>
   <time name="total">    9.09    9.15</time>
   <energy>
    <i name="alphaZ">     58.21092976 </i>
    <i name="ewald">   4697.01110514 </i>
    <i name="hartreedc">  -6454.64142243 </i>
    <i name="XCdc">    180.37719677 </i>
    <i name="pawpsdc">   5714.21415644 </i>
    <i name="pawaedc">  -5718.61643951 </i>
    <i name="eentropy">     -0.00155864 </i>
    <i name="bandstr">   -505.31624194 </i>
    <i name="atom">   1903.26342058 </i>
    <i name="e_fr_energy">   -125.49885384 </i>
    <i name="e_wo_entrp">   -125.49729519 </i>
    <i name="e_0_energy">   -125.49807452 </i>
   </energy>
  </scstep>
  <structure>
   <crystal>
    <varray name="basis" >
     <v>       4.20022321       2.42500000       0.00000000 </v>
     <v>      -4.20022321       2.42500000       0.00000000 </v>
     <v>       0.00000000       0.00000000      15.00000000 </v>
    </varray>
    <i name="volume">    305.56623841 </i>
    <varray name="rec_basis" >
     <v>       0.11904129       0.20618557       0.00000000 </v>
     <v>      -0.11904129       0.20618557       0.00000000 </v>
     <v>       0.00000000       0.00000000       0.06666667 </v>
    </varray>
   </crystal>
   <varray name="positions" >
    <v>       0.00415361       0.00267210       0.12034134 </v>
    <v>       0.35695335       0.00285503       0.09748893 </v>
    <v>       0.00423858       0.35550699       0.09749256 </v>
    <v>       0.65142295       0.65006557       0.09747688 </v>
    <v>       0.32808646       0.32671938       0.10030508 </v>
    <v>       0.68027775       0.00278085       0.10027562 </v>
    <v>       0.00416530       0.67883808       0.10026559 </v>
    <v>       0.08333267       0.41666633       0.33646667 </v>
    <v>       0.24999967       0.24999933       0.33646667 </v>
    <v>       0.08333267       0.91666633       0.33646667 </v>
    <v>       0.24999967       0.74999933       0.33646667 </v>
    <v>       0.58333267       0.41666633       0.33646667 </v>
    <v>       0.74999967       0.24999933       0.33646667 </v>
    <v>       0.58333267       0.91666633       0.33646667 </v>
    <v>       0.74999967       0.74999933       0.33646667 </v>
   </varray>
  </structure>
  <varray name="forces" >
   <v>      -0.00077700      -0.00069216      -0.38745722 </v>
   <v>      -0.10989518      -0.06591069       0.10355670 </v>
   <v>       0.08550104      -0.05935397       0.12150125 </v>
   <v>       0.01391542       0.11317463       0.11728638 </v>
   <v>       0.02032405      -0.35162071      -0.00125247 </v>
   <v>       0.32072403       0.19276567       0.01573841 </v>
   <v>      -0.29770427       0.17255208       0.00378585 </v>
   <v>      -0.01112706       0.00486847      -0.00101006 </v>
   <v>      -0.00753186       0.02200769       0.02925599 </v>
   <v>       0.00298399       0.01482652      -0.00451431 </v>
   <v>       0.02969751       0.01290854      -0.00931658 </v>
   <v>      -0.00230686      -0.00339628      -0.01393710 </v>
   <v>      -0.00611916      -0.00311403      -0.00156051 </v>
   <v>      -0.01664575      -0.01473785       0.02191275 </v>
   <v>      -0.02103891      -0.03427790       0.00601092 </v>
  </varray>
  <varray name="stress" >
   <v>     -10.61547158       0.08581708      -0.59478466 </v>
   <v>       0.08581707     -10.84139121      -0.01975349 </v>
   <v>      -0.59478466      -0.01975347      -2.29497687 </v>
  </varray>
  <energy>
   <i name="e_fr_energy">   -127.08919604 </i>
   <i name="e_wo_entrp">   -127.08763740 </i>
   <i name="e_0_energy">   -127.08841672 </i>
  </energy>
  <time name="totalsc">  223.68  225.71</time>
 </calculation>
 <calculation>
  <scstep>
   <time name="dav">    5.57    5.61</time>
   <time name="total">    5.86    5.91</time>
   <energy>
    <i name="alphaZ">     58.21092976 </i>
    <i name="ewald">   4700.73329795 </i>
    <i name="hartreedc">  -6456.96342697 </i>
    <i name="XCdc">    180.45822080 </i>
    <i name="pawpsdc">   5714.24426356 </i>
    <i name="pawaedc">  -5718.64654458 </i>
    <i name="eentropy">     -0.00155606 </i>
    <i name="bandstr">   -506.80731935 </i>
    <i name="atom">   1903.26342058 </i>
    <i name="e_fr_energy">   -125.50871431 </i>
    <i name="e_wo_entrp">   -125.50715825 </i>
    <i name="e_0_energy">   -125.50793628 </i>
   </energy>
  </scstep>
  <scstep>
   <time name="dav">   10.89   10.95</time>
   <time name="total">   11.18   11.25</time>
   <energy>
    <i name="e_fr_energy">   -125.50002402 </i>
    <i name="e_wo_entrp">   -125.49846765 </i>
    <i name="e_0_energy">   -125.49924584 </i>
   </energy>
  </scstep>
  <scstep>
   <time name="dav">    8.64    8.69</time>
   <time name="total">    8.93    8.99</time>
   <energy>
    <i name="e_fr_energy">   -125.49904696 </i>
    <i name="e_wo_entrp">   -125.49749045 </i>
    <i name="e_0_energy">   -125.49826871 </i>
   </energy>
  </scstep>
  <scstep>
   <time name="dav">   11.27   11.34</time>
   <time name="total">   11.56   11.64</time>
   <energy>
    <i name="e_fr_energy">   -125.49900412 </i>
    <i name="e_wo_entrp">   -125.49744760 </i>
    <i name="e_0_energy">   -125.49822586 </i>
   </energy>
  </scstep>
  <scstep>
   <time name="dav">   10.19   10.25</time>
   <time name="total">   10.48   10.55</time>
   <energy>
    <i name="e_fr_energy">   -125.49900730 </i>
    <i name="e_wo_entrp">   -125.49745078 </i>
    <i name="e_0_energy">   -125.49822904 </i>
   </energy>
  </scstep>
  <scstep>
   <time name="dav">    9.53    9.57</time>
   <time name="total">    9.56    9.61</time>
   <energy>
    <i name="alphaZ">     58.21092976 </i>
    <i name="ewald">   4700.73329795 </i>
    <i name="hartreedc">  -6457.70497967 </i>
    <i name="XCdc">    180.47479019 </i>
    <i name="pawpsdc">   5740.78854729 </i>
    <i name="pawaedc">  -5745.19946078 </i>
    <i name="eentropy">     -0.00155651 </i>
    <i name="bandstr">   -506.06399607 </i>
    <i name="atom">   1903.26342058 </i>
    <i name="e_fr_energy">   -125.49900728 </i>
    <i name="e_wo_entrp">   -125.49745076 </i>
    <i name="e_0_energy">   -125.49822902 </i>
   </energy>
  </scstep>
  <structure>
   <crystal>
    <varray name="basis" >
     <v>       4.20022321       2.42500000       0.00000000 </v>
     <v>      -4.20022321       2.42500000       0.00000000 </v>
     <v>       0.00000000       0.00000000      15.00000000 </v>
    </varray>
    <i name="volume">    305.56623841 </i>
    <varray name="rec_basis" >
     <v>       0.11904129       0.20618557       0.00000000 </v>
     <v>      -0.11904129       0.20618557       0.00000000 </v>
     <v>       0.00000000       0.00000000       0.06666667 </v>
    </varray>
   </crystal>
   <varray name="positions" >
    <v>       0.00414226       0.00266968       0.11909521 </v>
    <v>       0.35566663       0.00283053       0.09782199 </v>
    <v>       0.00413921       0.35442558       0.09788333 </v>
    <v>       0.65262861       0.65111140       0.09785409 </v>
    <v>       0.32470563       0.32310511       0.10030105 </v>
    <v>       0.68403705       0.00285641       0.10032624 </v>
    <v>       0.00417199       0.68226412       0.10027776 </v>
    <v>       0.08331719       0.41677866       0.33646342 </v>
    <v>       0.25017532       0.25026150       0.33656076 </v>
    <v>       0.08349728       0.91679668       0.33645215 </v>
    <v>       0.25029862       0.74995718       0.33643670 </v>
    <v>       0.58328564       0.41664580       0.33642184 </v>
    <v>       0.74993355       0.25000350       0.33646165 </v>
    <v>       0.58309048       0.91661533       0.33653714 </v>
    <v>       0.74953788       0.74977920       0.33648600 </v>
   </varray>
  </structure>
  <varray name="forces" >
   <v>      -0.00274370       0.00438362      -0.16501160 </v>
   <v>       0.26193203       0.14731710       0.05723208 </v>
   <v>      -0.21877363       0.13511484       0.07001880 </v>
   <v>       0.01200627      -0.27159516       0.06636080 </v>
   <v>       0.00134535       0.56115398      -0.02281648 </v>
   <v>      -0.50749611      -0.29691072      -0.01308287 </v>
   <v>       0.48551850      -0.27870898      -0.01985100 </v>
   <v>       0.02217076      -0.01919628       0.00404247 </v>
   <v>       0.00064552      -0.07266202       0.00682088 </v>
   <v>      -0.02608913      -0.05510706       0.00636930 </v>
   <v>      -0.12394202      -0.04604927      -0.00220880 </v>
   <v>       0.00034111       0.00863044       0.00198173 </v>
   <v>       0.00420212       0.00807650      -0.00086873 </v>
   <v>       0.04072255       0.05686867       0.00899883 </v>
   <v>       0.05016038       0.11868435       0.00201458 </v>
  </varray>
  <varray name="stress" >
   <v>      -8.03712639       0.12119369      -0.60724443 </v>
   <v>       0.12119368      -8.13432476      -0.01235820 </v>
   <v>      -0.60724441      -0.01235820      -1.89401718 </v>
  </varray>
  <energy>
   <i name="e_fr_energy">   -127.08877106 </i>
   <i name="e_wo_entrp">   -127.08721455 </i>
   <i name="e_0_energy">   -127.08799280 </i>
  </energy>
  <time name="totalsc">   62.37   62.80</time>
 </calculation>
 <calculation>
  <scstep>
   <time name="dav">    5.54    5.58</time>
   <time name="total">    5.83    5.88</time>
   <energy>
    <i name="alphaZ">     58.21092976 </i>
    <i name="ewald">   4698.80488361 </i>
    <i name="hartreedc">  -6456.49482986 </i>
    <i name="XCdc">    180.43244584 </i>
    <i name="pawpsdc">   5740.79735944 </i>
    <i name="pawaedc">  -5745.20826080 </i>
    <i name="eentropy">     -0.00155790 </i>
    <i name="bandstr">   -505.31340982 </i>
    <i name="atom">   1903.26342058 </i>
    <i name="e_fr_energy">   -125.50901915 </i>
    <i name="e_wo_entrp">   -125.50746125 </i>
    <i name="e_0_energy">   -125.50824020 </i>
   </energy>
  </scstep>
  <scstep>
   <time name="dav">   11.06   11.13</time>
   <time name="total">   11.35   11.43</time>
   <energy>
    <i name="e_fr_energy">   -125.50672636 </i>
    <i name="e_wo_entrp">   -125.50516861 </i>
    <i name="e_0_energy">   -125.50594749 </i>
   </energy>
  </scstep>
  <scstep>
   <time name="dav">    9.68    9.75</time>
   <time name="total">    9.97   10.04</time>
   <energy>
    <i name="e_fr_energy">   -125.50648263 </i>
    <i name="e_wo_entrp">   -125.50492496 </i>
    <i name="e_0_energy">   -125.50570379 </i>
   </energy>
  </scstep>
  <scstep>
   <time name="dav">    9.15    9.20</time>
   <time name="total">    9.44    9.51</time>
   <energy>
    <i name="e_fr_energy">   -125.50647185 </i>
    <i name="e_wo_entrp">   -125.50491417 </i>
    <i name="e_0_energy">   -125.50569301 </i>
   </energy>
  </scstep>
  <scstep>
   <time name="dav">    9.42    9.47</time>
   <time name="total">    9.45    9.51</time>
   <energy>
    <i name="alphaZ">     58.21092976 </i>
    <i name="ewald">   4698.80488361 </i>
    <i name="hartreedc">  -6456.14124147 </i>
    <i name="XCdc">    180.42413440 </i>
    <i name="pawpsdc">   5726.73664033 </i>
    <i name="pawaedc">  -5731.14286468 </i>
    <i name="eentropy">     -0.00155768 </i>
    <i name="bandstr">   -505.66081746 </i>
    <i name="atom">   1903.26342058 </i>
    <i name="e_fr_energy">   -125.50647261 </i>
    <i name="e_wo_entrp">   -125.50491493 </i>
    <i name="e_0_energy">   -125.50569377 </i>
   </energy>
  </scstep>
  <structure>
   <crystal>
    <varray name="basis" >
     <v>       4.20022321       2.42500000       0.00000000 </v>
     <v>      -4.20022321       2.42500000       0.00000000 </v>
     <v>       0.00000000       0.00000000      15.00000000 </v>
    </varray>
    <i name="volume">    305.56623841 </i>
    <varray name="rec_basis" >
     <v>       0.11904129       0.20618557       0.00000000 </v>
     <v>      -0.11904129       0.20618557       0.00000000 </v>
     <v>       0.00000000       0.00000000       0.06666667 </v>
    </varray>
   </crystal>
   <varray name="positions" >
    <v>       0.00414802       0.00267091       0.11972767 </v>
    <v>       0.35631970       0.00284297       0.09765295 </v>
    <v>       0.00418964       0.35497444       0.09768500 </v>
    <v>       0.65201669       0.65058059       0.09766264 </v>
    <v>       0.32642155       0.32493950       0.10030309 </v>
    <v>       0.68212904       0.00281806       0.10030055 </v>
    <v>       0.00416859       0.68052526       0.10027158 </v>
    <v>       0.08332505       0.41672165       0.33646507 </v>
    <v>       0.25008617       0.25012844       0.33651300 </v>
    <v>       0.08341373       0.91673052       0.33645952 </v>
    <v>       0.25014689       0.74997858       0.33645191 </v>
    <v>       0.58330951       0.41665622       0.33644459 </v>
    <v>       0.74996711       0.25000139       0.33646420 </v>
    <v>       0.58321340       0.91664122       0.33650137 </v>
    <v>       0.74977226       0.74989093       0.33647619 </v>
   </varray>
  </structure>
  <varray name="forces" >
   <v>      -0.00231408       0.00155218      -0.27683099 </v>
   <v>       0.07697628       0.04134778       0.08066091 </v>
   <v>      -0.06751865       0.03788326       0.09602432 </v>
   <v>       0.01311286      -0.08001127       0.09210632 </v>
   <v>       0.01142836       0.09641194      -0.01208515 </v>
   <v>      -0.08622385      -0.04760882       0.00143416 </v>
   <v>       0.08651863      -0.04871383      -0.00810631 </v>
   <v>       0.00528286      -0.00692897       0.00143170 </v>
   <v>      -0.00346749      -0.02457085       0.01823544 </v>
   <v>      -0.01137877      -0.01962400       0.00083925 </v>
   <v>      -0.04582031      -0.01591570      -0.00584940 </v>
   <v>      -0.00109569       0.00251464      -0.00613870 </v>
   <v>      -0.00108713       0.00239719      -0.00128663 </v>
   <v>       0.01153889       0.02025470       0.01552795 </v>
   <v>       0.01404809       0.04101173       0.00403712 </v>
  </varray>
  <varray name="stress" >
   <v>      -9.47466163       0.09800778      -0.60143250 </v>
   <v>       0.09800777      -9.63853687      -0.01562007 </v>
   <v>      -0.60143250      -0.01562006      -2.08411384 </v>
  </varray>
  <energy>
   <i name="e_fr_energy">   -127.09652629 </i>
   <i name="e_wo_entrp">   -127.09496861 </i>
   <i name="e_0_energy">   -127.09574745 </i>
  </energy>
  <time name="totalsc">   50.76   51.12</time>
 </calculation>
 <calculation>
  <scstep>
   <time name="dav">    5.54    5.57</time>
   <time name="total">    5.82    5.87</time>
   <energy>
    <i name="alphaZ">     58.21092976 </i>
    <i name="ewald">   4699.12987130 </i>
    <i name="hartreedc">  -6456.21662808 </i>
    <i name="XCdc">    180.44214616 </i>
    <i name="pawpsdc">   5726.69639548 </i>
    <i name="pawaedc">  -5731.10262752 </i>
    <i name="eentropy">     -0.00156307 </i>
    <i name="bandstr">   -505.93437051 </i>
    <i name="atom">   1903.26342058 </i>
    <i name="e_fr_energy">   -125.51242591 </i>
    <i name="e_wo_entrp">   -125.51086283 </i>
    <i name="e_0_energy">   -125.51164437 </i>
   </energy>
  </scstep>
  <scstep>
   <time name="dav">   11.83   11.90</time>
   <time name="total">   12.13   12.20</time>
   <energy>
    <i name="e_fr_energy">   -125.51247468 </i>
    <i name="e_wo_entrp">   -125.51091180 </i>
    <i name="e_0_energy">   -125.51169324 </i>
   </energy>
  </scstep>
  <scstep>
   <time name="dav">    9.26    9.32</time>
   <time name="total">    9.55    9.62</time>
   <energy>
    <i name="e_fr_energy">   -125.51247132 </i>
    <i name="e_wo_entrp">   -125.51090870 </i>
    <i name="e_0_energy">   -125.51169001 </i>
   </energy>
  </scstep>
  <scstep>
