Lattice                                 
           1
     4.200223    2.425000    0.000000
    -4.200223    2.425000    0.000000
     0.000000    0.000000   15.000000
   B    C 
     4    11
Direct configuration=     1
   0.00415361  0.00267210  0.12034134
   0.35695335  0.00285503  0.09748893
   0.00423858  0.35550699  0.09749256
   0.65142295  0.65006557  0.09747688
   0.32808646  0.32671938  0.10030508
   0.68027775  0.00278085  0.10027562
   0.00416530  0.67883808  0.10026559
   0.08333267  0.41666633  0.33646667
   0.24999967  0.24999933  0.33646667
   0.08333267  0.91666633  0.33646667
   0.24999967  0.74999933  0.33646667
   0.58333267  0.41666633  0.33646667
   0.74999967  0.24999933  0.33646667
   0.58333267  0.91666633  0.33646667
   0.74999967  0.74999933  0.33646667
Direct configuration=     2
   0.00414226  0.00266968  0.11909521
   0.35566663  0.00283053  0.09782199
   0.00413921  0.35442558  0.09788333
   0.65262861  0.65111140  0.09785409
   0.32470563  0.32310511  0.10030105
   0.68403705  0.00285641  0.10032624
   0.00417199  0.68226412  0.10027776
   0.08331719  0.41677866  0.33646342
   0.25017532  0.25026150  0.33656076
   0.08349728  0.91679668  0.33645215
   0.25029862  0.74995718  0.33643670
   0.58328564  0.41664580  0.33642184
   0.74993355  0.25000350  0.33646165
   0.58309048  0.91661533  0.33653714
   0.74953788  0.74977920  0.33648600
Direct configuration=     3
   0.00414802  0.00267091  0.11972767
   0.35631970  0.00284297  0.09765295
   0.00418964  0.35497444  0.09768500
   0.65201669  0.65058059  0.09766264
   0.32642155  0.32493950  0.10030309
   0.68212904  0.00281806  0.10030055
   0.00416859  0.68052526  0.10027158
   0.08332505  0.41672165  0.33646507
   0.25008617  0.25012844  0.33651300
   0.08341373  0.91673052  0.33645952
   0.25014689  0.74997858  0.33645191
   0.58330951  0.41665622  0.33644459
   0.74996711  0.25000139  0.33646420
   0.58321340  0.91664122  0.33650137
   0.74977226  0.74989093  0.33647619
