Automatically generated mesh
     145
Reciprocal lattice
    0.00000000000000    0.00000000000000    0.00000000000000             1
    0.05882352941176    0.00000000000000    0.00000000000000             2
    0.11764705882353    0.00000000000000    0.00000000000000             2
    0.17647058823529    0.00000000000000    0.00000000000000             2
    0.23529411764706   -0.00000000000000    0.00000000000000             2
    0.29411764705882   -0.00000000000000    0.00000000000000             2
    0.35294117647059   -0.00000000000000    0.00000000000000             2
    0.41176470588235   -0.00000000000000    0.00000000000000             2
    0.47058823529412   -0.00000000000000    0.00000000000000             2
    0.00000000000000    0.05882352941176    0.00000000000000             2
    0.05882352941176    0.05882352941176    0.00000000000000             2
    0.11764705882353    0.05882352941176    0.00000000000000             2
    0.17647058823529    0.05882352941176    0.00000000000000             2
    0.23529411764706    0.05882352941176    0.00000000000000             2
    0.29411764705882    0.05882352941176    0.00000000000000             2
    0.35294117647059    0.05882352941176    0.00000000000000             2
    0.41176470588235    0.05882352941176    0.00000000000000             2
    0.47058823529412    0.05882352941176    0.00000000000000             2
   -0.47058823529412    0.05882352941176    0.00000000000000             2
   -0.41176470588235    0.05882352941176    0.00000000000000             2
   -0.35294117647059    0.05882352941176    0.00000000000000             2
   -0.29411764705882    0.05882352941176    0.00000000000000             2
   -0.23529411764706    0.05882352941176    0.00000000000000             2
   -0.17647058823529    0.05882352941176    0.00000000000000             2
   -0.11764705882353    0.05882352941176    0.00000000000000             2
   -0.05882352941176    0.05882352941176    0.00000000000000             2
    0.00000000000000    0.11764705882353    0.00000000000000             2
    0.05882352941176    0.11764705882353    0.00000000000000             2
    0.11764705882353    0.11764705882353    0.00000000000000             2
    0.17647058823529    0.11764705882353    0.00000000000000             2
    0.23529411764706    0.11764705882353    0.00000000000000             2
    0.29411764705882    0.11764705882353    0.00000000000000             2
    0.35294117647059    0.11764705882353    0.00000000000000             2
    0.41176470588235    0.11764705882353    0.00000000000000             2
    0.47058823529412    0.11764705882353    0.00000000000000             2
   -0.47058823529412    0.11764705882353    0.00000000000000             2
   -0.41176470588235    0.11764705882353    0.00000000000000             2
   -0.35294117647059    0.11764705882353    0.00000000000000             2
   -0.29411764705882    0.11764705882353    0.00000000000000             2
   -0.23529411764706    0.11764705882353    0.00000000000000             2
   -0.17647058823529    0.11764705882353    0.00000000000000             2
   -0.11764705882353    0.11764705882353    0.00000000000000             2
   -0.05882352941176    0.11764705882353    0.00000000000000             2
    0.00000000000000    0.17647058823529    0.00000000000000             2
    0.05882352941176    0.17647058823529    0.00000000000000             2
    0.11764705882353    0.17647058823529    0.00000000000000             2
    0.17647058823529    0.17647058823529    0.00000000000000             2
    0.23529411764706    0.17647058823529    0.00000000000000             2
    0.29411764705882    0.17647058823529    0.00000000000000             2
    0.35294117647059    0.17647058823529    0.00000000000000             2
    0.41176470588235    0.17647058823529    0.00000000000000             2
    0.47058823529412    0.17647058823529    0.00000000000000             2
   -0.47058823529412    0.17647058823529    0.00000000000000             2
   -0.41176470588235    0.17647058823529    0.00000000000000             2
   -0.35294117647059    0.17647058823529    0.00000000000000             2
   -0.29411764705882    0.17647058823529    0.00000000000000             2
   -0.23529411764706    0.17647058823529    0.00000000000000             2
   -0.17647058823529    0.17647058823529    0.00000000000000             2
   -0.11764705882353    0.17647058823529    0.00000000000000             2
   -0.05882352941176    0.17647058823529    0.00000000000000             2
   -0.00000000000000    0.23529411764706    0.00000000000000             2
    0.05882352941176    0.23529411764706    0.00000000000000             2
    0.11764705882353    0.23529411764706    0.00000000000000             2
    0.17647058823529    0.23529411764706    0.00000000000000             2
    0.23529411764706    0.23529411764706    0.00000000000000             2
    0.29411764705882    0.23529411764706    0.00000000000000             2
    0.35294117647059    0.23529411764706    0.00000000000000             2
    0.41176470588235    0.23529411764706    0.00000000000000             2
    0.47058823529412    0.23529411764706    0.00000000000000             2
   -0.47058823529412    0.23529411764706    0.00000000000000             2
   -0.41176470588235    0.23529411764706    0.00000000000000             2
   -0.35294117647059    0.23529411764706    0.00000000000000             2
   -0.29411764705882    0.23529411764706    0.00000000000000             2
   -0.23529411764706    0.23529411764706    0.00000000000000             2
   -0.17647058823529    0.23529411764706    0.00000000000000             2
   -0.11764705882353    0.23529411764706    0.00000000000000             2
   -0.05882352941176    0.23529411764706    0.00000000000000             2
   -0.00000000000000    0.29411764705882    0.00000000000000             2
    0.05882352941176    0.29411764705882    0.00000000000000             2
    0.11764705882353    0.29411764705882    0.00000000000000             2
    0.17647058823529    0.29411764705882    0.00000000000000             2
    0.23529411764706    0.29411764705882    0.00000000000000             2
    0.29411764705882    0.29411764705882    0.00000000000000             2
    0.35294117647059    0.29411764705882    0.00000000000000             2
    0.41176470588235    0.29411764705882    0.00000000000000             2
    0.47058823529412    0.29411764705882    0.00000000000000             2
   -0.47058823529412    0.29411764705882    0.00000000000000             2
   -0.41176470588235    0.29411764705882    0.00000000000000             2
   -0.35294117647059    0.29411764705882    0.00000000000000             2
   -0.29411764705882    0.29411764705882    0.00000000000000             2
   -0.23529411764706    0.29411764705882    0.00000000000000             2
   -0.17647058823529    0.29411764705882    0.00000000000000             2
   -0.11764705882353    0.29411764705882    0.00000000000000             2
   -0.05882352941176    0.29411764705882    0.00000000000000             2
   -0.00000000000000    0.35294117647059    0.00000000000000             2
    0.05882352941176    0.35294117647059    0.00000000000000             2
    0.11764705882353    0.35294117647059    0.00000000000000             2
    0.17647058823529    0.35294117647059    0.00000000000000             2
    0.23529411764706    0.35294117647059    0.00000000000000             2
    0.29411764705882    0.35294117647059    0.00000000000000             2
    0.35294117647059    0.35294117647059    0.00000000000000             2
    0.41176470588235    0.35294117647059    0.00000000000000             2
    0.47058823529412    0.35294117647059    0.00000000000000             2
   -0.47058823529412    0.35294117647059    0.00000000000000             2
   -0.41176470588235    0.35294117647059    0.00000000000000             2
   -0.35294117647059    0.35294117647059    0.00000000000000             2
   -0.29411764705882    0.35294117647059    0.00000000000000             2
   -0.23529411764706    0.35294117647059    0.00000000000000             2
   -0.17647058823529    0.35294117647059    0.00000000000000             2
   -0.11764705882353    0.35294117647059    0.00000000000000             2
   -0.05882352941176    0.35294117647059    0.00000000000000             2
   -0.00000000000000    0.41176470588235    0.00000000000000             2
    0.05882352941176    0.41176470588235    0.00000000000000             2
    0.11764705882353    0.41176470588235    0.00000000000000             2
    0.17647058823529    0.41176470588235    0.00000000000000             2
    0.23529411764706    0.41176470588235    0.00000000000000             2
    0.29411764705882    0.41176470588235    0.00000000000000             2
    0.35294117647059    0.41176470588235    0.00000000000000             2
    0.41176470588235    0.41176470588235    0.00000000000000             2
    0.47058823529412    0.41176470588235    0.00000000000000             2
   -0.47058823529412    0.41176470588235    0.00000000000000             2
   -0.41176470588235    0.41176470588235    0.00000000000000             2
   -0.35294117647059    0.41176470588235    0.00000000000000             2
   -0.29411764705882    0.41176470588235    0.00000000000000             2
   -0.23529411764706    0.41176470588235    0.00000000000000             2
   -0.17647058823529    0.41176470588235    0.00000000000000             2
   -0.11764705882353    0.41176470588235    0.00000000000000             2
   -0.05882352941176    0.41176470588235    0.00000000000000             2
   -0.00000000000000    0.47058823529412    0.00000000000000             2
    0.05882352941176    0.47058823529412    0.00000000000000             2
    0.11764705882353    0.47058823529412    0.00000000000000             2
    0.17647058823529    0.47058823529412    0.00000000000000             2
    0.23529411764706    0.47058823529412    0.00000000000000             2
    0.29411764705882    0.47058823529412    0.00000000000000             2
    0.35294117647059    0.47058823529412    0.00000000000000             2
    0.41176470588235    0.47058823529412    0.00000000000000             2
    0.47058823529412    0.47058823529412    0.00000000000000             2
   -0.47058823529412    0.47058823529412    0.00000000000000             2
   -0.41176470588235    0.47058823529412    0.00000000000000             2
   -0.35294117647059    0.47058823529412    0.00000000000000             2
   -0.29411764705882    0.47058823529412    0.00000000000000             2
   -0.23529411764706    0.47058823529412    0.00000000000000             2
   -0.17647058823529    0.47058823529412    0.00000000000000             2
   -0.11764705882353    0.47058823529412    0.00000000000000             2
   -0.05882352941176    0.47058823529412    0.00000000000000             2
