  16  16   0   4
  0.2007885E+02  0.4973000E-09  0.4973000E-09  0.1500000E-08  0.5000000E-15
  1.000000000000000E-004
  CAR 
 Lattice                                 
      9.82017311    -21.15056732  301     -0.31047085      1.00000000
    -21.151  0.0000E+00  0.0000E+00  0.0000E+00  0.0000E+00
    -21.047  0.0000E+00  0.0000E+00  0.0000E+00  0.0000E+00
    -20.944  0.0000E+00  0.0000E+00  0.0000E+00  0.0000E+00
    -20.841  0.0000E+00  0.0000E+00  0.0000E+00  0.0000E+00
    -20.738  0.0000E+00  0.0000E+00  0.0000E+00  0.0000E+00
    -20.634  0.0000E+00  0.0000E+00  0.0000E+00  0.0000E+00
    -20.531  0.0000E+00  0.0000E+00  0.0000E+00  0.0000E+00
    -20.428  0.0000E+00  0.0000E+00  0.0000E+00  0.0000E+00
    -20.325  0.5835E-19  0.5835E-19  0.6023E-20  0.6023E-20
    -20.221  0.3742E-14  0.3742E-14  0.3863E-15  0.3863E-15
    -20.118  0.3539E-10  0.3539E-10  0.3654E-11  0.3654E-11
    -20.015  0.4665E-07  0.4665E-07  0.4819E-08  0.4819E-08
    -19.912  0.9292E-05  0.9292E-05  0.9640E-06  0.9640E-06
    -19.809  0.3085E-03  0.3085E-03  0.3281E-04  0.3281E-04
    -19.705  0.2074E-02  0.2074E-02  0.2469E-03  0.2469E-03
    -19.602  0.4298E-02  0.4298E-02  0.6906E-03  0.6906E-03
    -19.499  0.4753E-02  0.4753E-02  0.1181E-02  0.1181E-02
    -19.396  0.5098E-02  0.5098E-02  0.1708E-02  0.1708E-02
    -19.292  0.4434E-02  0.4434E-02  0.2165E-02  0.2165E-02
    -19.189  0.5571E-02  0.5571E-02  0.2741E-02  0.2741E-02
    -19.086  0.4340E-02  0.4340E-02  0.3189E-02  0.3189E-02
    -18.983  0.4674E-02  0.4674E-02  0.3671E-02  0.3671E-02
    -18.879  0.6117E-02  0.6117E-02  0.4303E-02  0.4303E-02
    -18.776  0.3835E-02  0.3835E-02  0.4699E-02  0.4699E-02
    -18.673  0.4417E-02  0.4417E-02  0.5155E-02  0.5155E-02
    -18.570  0.6360E-02  0.6360E-02  0.5811E-02  0.5811E-02
    -18.466  0.5132E-02  0.5132E-02  0.6341E-02  0.6341E-02
    -18.363  0.3019E-02  0.3019E-02  0.6653E-02  0.6653E-02
    -18.260  0.5285E-02  0.5285E-02  0.7198E-02  0.7198E-02
    -18.157  0.6895E-02  0.6895E-02  0.7910E-02  0.7910E-02
    -18.053  0.4513E-02  0.4513E-02  0.8376E-02  0.8376E-02
    -17.950  0.3722E-02  0.3722E-02  0.8760E-02  0.8760E-02
    -17.847  0.3726E-02  0.3726E-02  0.9145E-02  0.9145E-02
    -17.744  0.7443E-02  0.7443E-02  0.9913E-02  0.9913E-02
    -17.641  0.6117E-02  0.6117E-02  0.1054E-01  0.1054E-01
    -17.537  0.3285E-02  0.3285E-02  0.1088E-01  0.1088E-01
    -17.434  0.3807E-02  0.3807E-02  0.1128E-01  0.1128E-01
    -17.331  0.4698E-02  0.4698E-02  0.1176E-01  0.1176E-01
    -17.228  0.7136E-02  0.7136E-02  0.1250E-01  0.1250E-01
    -17.124  0.6364E-02  0.6364E-02  0.1316E-01  0.1316E-01
    -17.021  0.4254E-02  0.4254E-02  0.1359E-01  0.1359E-01
    -16.918  0.2284E-02  0.2284E-02  0.1383E-01  0.1383E-01
    -16.815  0.4880E-02  0.4880E-02  0.1433E-01  0.1433E-01
    -16.711  0.7237E-02  0.7237E-02  0.1508E-01  0.1508E-01
    -16.608  0.6355E-02  0.6355E-02  0.1574E-01  0.1574E-01
    -16.505  0.5206E-02  0.5206E-02  0.1627E-01  0.1627E-01
    -16.402  0.4422E-02  0.4422E-02  0.1673E-01  0.1673E-01
    -16.298  0.2510E-02  0.2510E-02  0.1699E-01  0.1699E-01
    -16.195  0.4159E-02  0.4159E-02  0.1742E-01  0.1742E-01
    -16.092  0.9213E-02  0.9213E-02  0.1837E-01  0.1837E-01
    -15.989  0.6827E-02  0.6827E-02  0.1908E-01  0.1908E-01
    -15.886  0.7784E-02  0.7784E-02  0.1988E-01  0.1988E-01
    -15.782  0.9734E-02  0.9734E-02  0.2088E-01  0.2088E-01
    -15.679  0.1052E-01  0.1052E-01  0.2197E-01  0.2197E-01
    -15.576  0.9685E-02  0.9685E-02  0.2297E-01  0.2297E-01
    -15.473  0.1375E-01  0.1375E-01  0.2439E-01  0.2439E-01
    -15.369  0.1600E-01  0.1600E-01  0.2604E-01  0.2604E-01
    -15.266  0.1310E-01  0.1310E-01  0.2739E-01  0.2739E-01
    -15.163  0.1215E-01  0.1215E-01  0.2865E-01  0.2865E-01
    -15.060  0.1437E-01  0.1437E-01  0.3013E-01  0.3013E-01
    -14.956  0.1130E-01  0.1130E-01  0.3130E-01  0.3130E-01
    -14.853  0.1032E-01  0.1032E-01  0.3236E-01  0.3236E-01
    -14.750  0.1124E-01  0.1124E-01  0.3352E-01  0.3352E-01
    -14.647  0.1058E-01  0.1058E-01  0.3462E-01  0.3462E-01
    -14.543  0.8297E-02  0.8297E-02  0.3547E-01  0.3547E-01
    -14.440  0.8175E-02  0.8175E-02  0.3632E-01  0.3632E-01
    -14.337  0.7311E-02  0.7311E-02  0.3707E-01  0.3707E-01
    -14.234  0.9466E-02  0.9466E-02  0.3805E-01  0.3805E-01
    -14.131  0.1650E-01  0.1650E-01  0.3975E-01  0.3975E-01
    -14.027  0.1263E-01  0.1263E-01  0.4106E-01  0.4106E-01
    -13.924  0.5790E-02  0.5790E-02  0.4165E-01  0.4165E-01
    -13.821  0.5367E-02  0.5367E-02  0.4221E-01  0.4221E-01
    -13.718  0.4751E-02  0.4751E-02  0.4270E-01  0.4270E-01
    -13.614  0.4364E-02  0.4364E-02  0.4315E-01  0.4315E-01
    -13.511  0.7446E-02  0.7446E-02  0.4392E-01  0.4392E-01
    -13.408  0.9441E-02  0.9441E-02  0.4489E-01  0.4489E-01
    -13.305  0.6808E-02  0.6808E-02  0.4559E-01  0.4559E-01
    -13.201  0.5912E-02  0.5912E-02  0.4620E-01  0.4620E-01
    -13.098  0.7493E-02  0.7493E-02  0.4698E-01  0.4698E-01
    -12.995  0.8508E-02  0.8508E-02  0.4786E-01  0.4786E-01
    -12.892  0.6707E-02  0.6707E-02  0.4855E-01  0.4855E-01
    -12.788  0.8124E-02  0.8124E-02  0.4939E-01  0.4939E-01
    -12.685  0.8589E-02  0.8589E-02  0.5027E-01  0.5027E-01
    -12.582  0.1035E-01  0.1035E-01  0.5134E-01  0.5134E-01
    -12.479  0.1410E-01  0.1410E-01  0.5280E-01  0.5280E-01
    -12.376  0.1068E-01  0.1068E-01  0.5390E-01  0.5390E-01
    -12.272  0.1373E-01  0.1373E-01  0.5532E-01  0.5532E-01
    -12.169  0.1224E-01  0.1224E-01  0.5658E-01  0.5658E-01
    -12.066  0.1283E-01  0.1283E-01  0.5791E-01  0.5791E-01
    -11.963  0.2010E-01  0.2010E-01  0.5998E-01  0.5998E-01
    -11.859  0.1637E-01  0.1637E-01  0.6167E-01  0.6167E-01
    -11.756  0.1206E-01  0.1206E-01  0.6292E-01  0.6292E-01
    -11.653  0.1128E-01  0.1128E-01  0.6408E-01  0.6408E-01
    -11.550  0.1074E-01  0.1074E-01  0.6519E-01  0.6519E-01
    -11.446  0.8292E-02  0.8292E-02  0.6605E-01  0.6605E-01
    -11.343  0.4626E-02  0.4626E-02  0.6652E-01  0.6652E-01
    -11.240  0.3087E-02  0.3087E-02  0.6684E-01  0.6684E-01
    -11.137  0.4950E-02  0.4950E-02  0.6735E-01  0.6735E-01
    -11.033  0.5651E-02  0.5651E-02  0.6794E-01  0.6794E-01
    -10.930  0.6162E-02  0.6162E-02  0.6857E-01  0.6857E-01
    -10.827  0.6966E-02  0.6966E-02  0.6929E-01  0.6929E-01
    -10.724  0.8933E-02  0.8933E-02  0.7021E-01  0.7021E-01
    -10.621  0.8734E-02  0.8734E-02  0.7112E-01  0.7112E-01
    -10.517  0.1357E-01  0.1357E-01  0.7252E-01  0.7252E-01
    -10.414  0.2067E-01  0.2067E-01  0.7465E-01  0.7465E-01
    -10.311  0.1661E-01  0.1661E-01  0.7636E-01  0.7636E-01
    -10.208  0.6469E-02  0.6469E-02  0.7703E-01  0.7703E-01
    -10.104  0.3648E-02  0.3648E-02  0.7741E-01  0.7741E-01
    -10.001  0.1098E-01  0.1098E-01  0.7854E-01  0.7854E-01
     -9.898  0.1889E-01  0.1889E-01  0.8049E-01  0.8049E-01
     -9.795  0.1002E-01  0.1002E-01  0.8153E-01  0.8153E-01
     -9.691  0.4852E-02  0.4852E-02  0.8203E-01  0.8203E-01
     -9.588  0.6239E-02  0.6239E-02  0.8267E-01  0.8267E-01
     -9.485  0.1302E-01  0.1302E-01  0.8402E-01  0.8402E-01
     -9.382  0.1989E-01  0.1989E-01  0.8607E-01  0.8607E-01
     -9.278  0.1607E-01  0.1607E-01  0.8773E-01  0.8773E-01
     -9.175  0.1787E-01  0.1787E-01  0.8957E-01  0.8957E-01
     -9.072  0.1446E-01  0.1446E-01  0.9107E-01  0.9107E-01
     -8.969  0.1147E-01  0.1147E-01  0.9225E-01  0.9225E-01
     -8.866  0.1474E-01  0.1474E-01  0.9377E-01  0.9377E-01
     -8.762  0.1709E-01  0.1709E-01  0.9554E-01  0.9554E-01
     -8.659  0.1430E-01  0.1430E-01  0.9701E-01  0.9701E-01
     -8.556  0.1001E-01  0.1001E-01  0.9805E-01  0.9805E-01
     -8.453  0.1361E-01  0.1361E-01  0.9945E-01  0.9945E-01
     -8.349  0.2112E-01  0.2112E-01  0.1016E+00  0.1016E+00
     -8.246  0.1574E-01  0.1574E-01  0.1033E+00  0.1033E+00
     -8.143  0.8448E-02  0.8448E-02  0.1041E+00  0.1041E+00
     -8.040  0.1383E-01  0.1383E-01  0.1056E+00  0.1056E+00
     -7.936  0.1429E-01  0.1429E-01  0.1070E+00  0.1070E+00
     -7.833  0.1813E-01  0.1813E-01  0.1089E+00  0.1089E+00
     -7.730  0.2580E-01  0.2580E-01  0.1116E+00  0.1116E+00
     -7.627  0.1795E-01  0.1795E-01  0.1134E+00  0.1134E+00
     -7.523  0.1362E-01  0.1362E-01  0.1148E+00  0.1148E+00
     -7.420  0.1542E-01  0.1542E-01  0.1164E+00  0.1164E+00
     -7.317  0.2027E-01  0.2027E-01  0.1185E+00  0.1185E+00
     -7.214  0.1931E-01  0.1931E-01  0.1205E+00  0.1205E+00
     -7.110  0.1498E-01  0.1498E-01  0.1221E+00  0.1221E+00
     -7.007  0.1469E-01  0.1469E-01  0.1236E+00  0.1236E+00
     -6.904  0.1828E-01  0.1827E-01  0.1255E+00  0.1255E+00
     -6.801  0.2463E-01  0.2463E-01  0.1280E+00  0.1280E+00
     -6.698  0.2581E-01  0.2581E-01  0.1307E+00  0.1307E+00
     -6.594  0.2759E-01  0.2759E-01  0.1335E+00  0.1335E+00
     -6.491  0.2461E-01  0.2461E-01  0.1361E+00  0.1361E+00
     -6.388  0.2672E-01  0.2672E-01  0.1388E+00  0.1388E+00
     -6.285  0.2763E-01  0.2763E-01  0.1417E+00  0.1417E+00
     -6.181  0.2170E-01  0.2170E-01  0.1439E+00  0.1439E+00
     -6.078  0.1670E-01  0.1670E-01  0.1456E+00  0.1456E+00
     -5.975  0.1531E-01  0.1531E-01  0.1472E+00  0.1472E+00
     -5.872  0.1558E-01  0.1558E-01  0.1488E+00  0.1488E+00
     -5.768  0.1684E-01  0.1684E-01  0.1506E+00  0.1506E+00
     -5.665  0.1939E-01  0.1939E-01  0.1526E+00  0.1526E+00
     -5.562  0.1254E-01  0.1254E-01  0.1539E+00  0.1539E+00
     -5.459  0.7993E-02  0.7993E-02  0.1547E+00  0.1547E+00
     -5.355  0.1480E-01  0.1480E-01  0.1562E+00  0.1562E+00
     -5.252  0.1956E-01  0.1956E-01  0.1582E+00  0.1582E+00
     -5.149  0.1623E-01  0.1623E-01  0.1599E+00  0.1599E+00
     -5.046  0.1166E-01  0.1166E-01  0.1611E+00  0.1611E+00
     -4.943  0.1607E-01  0.1607E-01  0.1628E+00  0.1628E+00
     -4.839  0.1748E-01  0.1748E-01  0.1646E+00  0.1646E+00
     -4.736  0.1121E-01  0.1121E-01  0.1657E+00  0.1657E+00
     -4.633  0.1084E-01  0.1084E-01  0.1668E+00  0.1668E+00
     -4.530  0.1396E-01  0.1396E-01  0.1683E+00  0.1683E+00
     -4.426  0.1918E-01  0.1918E-01  0.1703E+00  0.1703E+00
     -4.323  0.1809E-01  0.1809E-01  0.1721E+00  0.1721E+00
     -4.220  0.1767E-01  0.1767E-01  0.1740E+00  0.1740E+00
     -4.117  0.1866E-01  0.1866E-01  0.1759E+00  0.1759E+00
     -4.013  0.1987E-01  0.1987E-01  0.1779E+00  0.1779E+00
     -3.910  0.2281E-01  0.2281E-01  0.1803E+00  0.1803E+00
     -3.807  0.2456E-01  0.2456E-01  0.1828E+00  0.1828E+00
     -3.704  0.2776E-01  0.2776E-01  0.1857E+00  0.1857E+00
     -3.600  0.2859E-01  0.2859E-01  0.1886E+00  0.1886E+00
     -3.497  0.2229E-01  0.2229E-01  0.1909E+00  0.1909E+00
     -3.394  0.1407E-01  0.1407E-01  0.1924E+00  0.1924E+00
     -3.291  0.1306E-01  0.1306E-01  0.1937E+00  0.1937E+00
     -3.188  0.1353E-01  0.1353E-01  0.1951E+00  0.1951E+00
     -3.084  0.1177E-01  0.1177E-01  0.1964E+00  0.1964E+00
     -2.981  0.1358E-01  0.1358E-01  0.1978E+00  0.1978E+00
     -2.878  0.1527E-01  0.1527E-01  0.1993E+00  0.1993E+00
     -2.775  0.1075E-01  0.1075E-01  0.2004E+00  0.2004E+00
     -2.671  0.7948E-02  0.7948E-02  0.2013E+00  0.2013E+00
     -2.568  0.1034E-01  0.1034E-01  0.2023E+00  0.2023E+00
     -2.465  0.1914E-01  0.1914E-01  0.2043E+00  0.2043E+00
     -2.362  0.1511E-01  0.1511E-01  0.2059E+00  0.2059E+00
     -2.258  0.6262E-02  0.6262E-02  0.2065E+00  0.2065E+00
     -2.155  0.7611E-02  0.7611E-02  0.2073E+00  0.2073E+00
     -2.052  0.9323E-02  0.9323E-02  0.2083E+00  0.2083E+00
     -1.949  0.8681E-02  0.8681E-02  0.2092E+00  0.2092E+00
     -1.845  0.9691E-02  0.9691E-02  0.2102E+00  0.2102E+00
     -1.742  0.9078E-02  0.9078E-02  0.2111E+00  0.2111E+00
     -1.639  0.6163E-02  0.6163E-02  0.2117E+00  0.2117E+00
     -1.536  0.7353E-02  0.7353E-02  0.2125E+00  0.2125E+00
     -1.433  0.1046E-01  0.1046E-01  0.2136E+00  0.2136E+00
     -1.329  0.5961E-02  0.5961E-02  0.2142E+00  0.2142E+00
     -1.226  0.5168E-02  0.5168E-02  0.2147E+00  0.2147E+00
     -1.123  0.7566E-02  0.7566E-02  0.2155E+00  0.2155E+00
     -1.020  0.6160E-02  0.6160E-02  0.2161E+00  0.2161E+00
     -0.916  0.6552E-02  0.6552E-02  0.2168E+00  0.2168E+00
     -0.813  0.4768E-02  0.4768E-02  0.2173E+00  0.2173E+00
     -0.710  0.2059E-02  0.2059E-02  0.2175E+00  0.2175E+00
     -0.607  0.1387E-02  0.1387E-02  0.2177E+00  0.2177E+00
     -0.503  0.3900E-02  0.3900E-02  0.2181E+00  0.2181E+00
     -0.400  0.4095E-02  0.4095E-02  0.2185E+00  0.2185E+00
     -0.297  0.2856E-02  0.2856E-02  0.2188E+00  0.2188E+00
     -0.194  0.1790E-02  0.1790E-02  0.2190E+00  0.2190E+00
     -0.090  0.2803E-02  0.2803E-02  0.2193E+00  0.2193E+00
      0.013  0.3236E-02  0.3236E-02  0.2196E+00  0.2196E+00
      0.116  0.3543E-02  0.3543E-02  0.2200E+00  0.2200E+00
      0.219  0.6723E-02  0.6723E-02  0.2206E+00  0.2206E+00
      0.322  0.8237E-02  0.8237E-02  0.2215E+00  0.2215E+00
      0.426  0.1016E-01  0.1016E-01  0.2225E+00  0.2225E+00
      0.529  0.9729E-02  0.9729E-02  0.2236E+00  0.2236E+00
      0.632  0.7562E-02  0.7562E-02  0.2243E+00  0.2243E+00
      0.735  0.5594E-02  0.5594E-02  0.2249E+00  0.2249E+00
      0.839  0.1054E-01  0.1054E-01  0.2260E+00  0.2260E+00
      0.942  0.1003E-01  0.1003E-01  0.2270E+00  0.2270E+00
      1.045  0.7362E-02  0.7362E-02  0.2278E+00  0.2278E+00
      1.148  0.1086E-01  0.1086E-01  0.2289E+00  0.2289E+00
      1.252  0.1672E-01  0.1672E-01  0.2306E+00  0.2306E+00
      1.355  0.1681E-01  0.1681E-01  0.2324E+00  0.2324E+00
      1.458  0.1281E-01  0.1281E-01  0.2337E+00  0.2337E+00
      1.561  0.8347E-02  0.8347E-02  0.2346E+00  0.2346E+00
      1.665  0.6124E-02  0.6124E-02  0.2352E+00  0.2352E+00
      1.768  0.8180E-02  0.8180E-02  0.2360E+00  0.2360E+00
      1.871  0.1103E-01  0.1103E-01  0.2372E+00  0.2372E+00
      1.974  0.1034E-01  0.1034E-01  0.2382E+00  0.2382E+00
      2.077  0.1297E-01  0.1297E-01  0.2396E+00  0.2396E+00
      2.181  0.1127E-01  0.1127E-01  0.2407E+00  0.2407E+00
      2.284  0.1178E-01  0.1178E-01  0.2420E+00  0.2420E+00
      2.387  0.7412E-02  0.7412E-02  0.2427E+00  0.2427E+00
      2.490  0.4716E-02  0.4716E-02  0.2432E+00  0.2432E+00
      2.594  0.1261E-01  0.1261E-01  0.2445E+00  0.2445E+00
      2.697  0.1471E-01  0.1471E-01  0.2460E+00  0.2460E+00
      2.800  0.1212E-01  0.1212E-01  0.2473E+00  0.2473E+00
      2.903  0.1272E-01  0.1272E-01  0.2486E+00  0.2486E+00
      3.007  0.8651E-02  0.8652E-02  0.2495E+00  0.2495E+00
      3.110  0.1146E-01  0.1146E-01  0.2507E+00  0.2507E+00
      3.213  0.1728E-01  0.1729E-01  0.2525E+00  0.2525E+00
      3.316  0.1834E-01  0.1834E-01  0.2544E+00  0.2544E+00
      3.420  0.1824E-01  0.1824E-01  0.2562E+00  0.2562E+00
      3.523  0.1342E-01  0.1342E-01  0.2576E+00  0.2576E+00
      3.626  0.2009E-01  0.2009E-01  0.2597E+00  0.2597E+00
      3.729  0.2224E-01  0.2224E-01  0.2620E+00  0.2620E+00
      3.832  0.2095E-01  0.2095E-01  0.2642E+00  0.2642E+00
      3.936  0.1893E-01  0.1892E-01  0.2661E+00  0.2661E+00
      4.039  0.1669E-01  0.1668E-01  0.2678E+00  0.2678E+00
      4.142  0.1783E-01  0.1783E-01  0.2697E+00  0.2697E+00
      4.245  0.2337E-01  0.2337E-01  0.2721E+00  0.2721E+00
      4.349  0.2724E-01  0.2725E-01  0.2749E+00  0.2749E+00
      4.452  0.2139E-01  0.2139E-01  0.2771E+00  0.2771E+00
      4.555  0.1641E-01  0.1641E-01  0.2788E+00  0.2788E+00
      4.658  0.2802E-01  0.2802E-01  0.2817E+00  0.2817E+00
      4.762  0.2789E-01  0.2790E-01  0.2846E+00  0.2846E+00
      4.865  0.1881E-01  0.1881E-01  0.2865E+00  0.2865E+00
      4.968  0.2154E-01  0.2154E-01  0.2887E+00  0.2887E+00
      5.071  0.2861E-01  0.2862E-01  0.2917E+00  0.2917E+00
      5.175  0.3281E-01  0.3281E-01  0.2951E+00  0.2951E+00
      5.278  0.2837E-01  0.2836E-01  0.2980E+00  0.2980E+00
      5.381  0.2563E-01  0.2563E-01  0.3007E+00  0.3007E+00
      5.484  0.2185E-01  0.2186E-01  0.3029E+00  0.3029E+00
      5.588  0.2628E-01  0.2627E-01  0.3056E+00  0.3056E+00
      5.691  0.2907E-01  0.2907E-01  0.3086E+00  0.3086E+00
      5.794  0.2437E-01  0.2437E-01  0.3111E+00  0.3111E+00
      5.897  0.2188E-01  0.2188E-01  0.3134E+00  0.3134E+00
      6.000  0.1713E-01  0.1713E-01  0.3152E+00  0.3152E+00
      6.104  0.2426E-01  0.2426E-01  0.3177E+00  0.3177E+00
      6.207  0.2225E-01  0.2224E-01  0.3200E+00  0.3200E+00
      6.310  0.1731E-01  0.1731E-01  0.3218E+00  0.3218E+00
      6.413  0.2058E-01  0.2058E-01  0.3239E+00  0.3239E+00
      6.517  0.2267E-01  0.2267E-01  0.3262E+00  0.3262E+00
      6.620  0.2386E-01  0.2386E-01  0.3287E+00  0.3287E+00
      6.723  0.2862E-01  0.2862E-01  0.3316E+00  0.3316E+00
      6.826  0.3009E-01  0.3009E-01  0.3347E+00  0.3347E+00
      6.930  0.3087E-01  0.3087E-01  0.3379E+00  0.3379E+00
      7.033  0.2623E-01  0.2623E-01  0.3406E+00  0.3406E+00
      7.136  0.2512E-01  0.2512E-01  0.3432E+00  0.3432E+00
      7.239  0.3019E-01  0.3018E-01  0.3463E+00  0.3463E+00
      7.343  0.3364E-01  0.3365E-01  0.3498E+00  0.3498E+00
      7.446  0.4015E-01  0.4015E-01  0.3540E+00  0.3540E+00
      7.549  0.4032E-01  0.4032E-01  0.3581E+00  0.3581E+00
      7.652  0.3017E-01  0.3018E-01  0.3612E+00  0.3612E+00
      7.755  0.3327E-01  0.3327E-01  0.3647E+00  0.3647E+00
      7.859  0.3492E-01  0.3492E-01  0.3683E+00  0.3683E+00
      7.962  0.2719E-01  0.2718E-01  0.3711E+00  0.3711E+00
      8.065  0.1791E-01  0.1791E-01  0.3729E+00  0.3729E+00
      8.168  0.1429E-01  0.1428E-01  0.3744E+00  0.3744E+00
      8.272  0.4761E-02  0.4760E-02  0.3749E+00  0.3749E+00
      8.375  0.5381E-03  0.5380E-03  0.3750E+00  0.3750E+00
      8.478  0.2832E-03  0.2832E-03  0.3750E+00  0.3750E+00
      8.581  0.8830E-04  0.8829E-04  0.3750E+00  0.3750E+00
      8.685  0.4407E-05  0.4407E-05  0.3750E+00  0.3750E+00
      8.788  0.3113E-07  0.3113E-07  0.3750E+00  0.3750E+00
      8.891  0.2896E-10  0.2895E-10  0.3750E+00  0.3750E+00
      8.994  0.3408E-14  0.3407E-14  0.3750E+00  0.3750E+00
      9.098  0.5835E-19  0.5835E-19  0.3750E+00  0.3750E+00
      9.201  0.0000E+00  0.0000E+00  0.3750E+00  0.3750E+00
      9.304  0.0000E+00  0.0000E+00  0.3750E+00  0.3750E+00
      9.407  0.0000E+00  0.0000E+00  0.3750E+00  0.3750E+00
      9.510  0.0000E+00  0.0000E+00  0.3750E+00  0.3750E+00
      9.614  0.0000E+00  0.0000E+00  0.3750E+00  0.3750E+00
      9.717  0.0000E+00  0.0000E+00  0.3750E+00  0.3750E+00
      9.820  0.0000E+00  0.0000E+00  0.3750E+00  0.3750E+00
