Lattice                                 
           1
     4.356108    2.515000    0.000000
    -4.356108    2.515000    0.000000
     0.000000    0.000000   15.000000
   B    C 
     8     8
Direct configuration=     1
   0.66888689  0.00000000  0.10000000
   0.33111211  0.00000000  0.10000000
   0.00000000  0.33111211  0.10000000
   0.00000000  0.66888689  0.10000000
   0.33111211  0.33111211  0.10000000
   0.66888689  0.66888689  0.10000000
   0.66666600  0.33333300  0.09922189
   0.33333300  0.66666600  0.10077811
   0.33333267  0.16666633  0.47060000
   0.49999967  0.99999933  0.47060000
   0.33333267  0.66666633  0.47060000
   0.49999967  0.49999933  0.47060000
   0.83333267  0.16666633  0.47060000
   0.99999967  0.99999933  0.47060000
   0.83333267  0.66666633  0.47060000
   0.99999967  0.49999933  0.47060000
Direct configuration=     2
   0.66933836 -0.00000005  0.10002514
   0.33066059 -0.00000005  0.10002514
   0.00000005  0.33066064  0.10002514
   0.00000005  0.66933841  0.10002514
   0.33066059  0.33066064  0.10002514
   0.66933836  0.66933841  0.10002514
   0.66666600  0.33333300  0.09925652
   0.33333300  0.66666600  0.10080119
   0.33332680  0.16666340  0.47057420
   0.50000087  0.00000175  0.47057368
   0.33333267  0.66666633  0.47057301
   0.50000087  0.49999813  0.47057368
   0.83333560  0.16666340  0.47057420
   0.99999967  0.99999933  0.47057480
   0.83333560  0.66667220  0.47057420
   0.99999725  0.49999813  0.47057368
Direct configuration=     3
   0.66915895 -0.00000003  0.10001515
   0.33084002 -0.00000003  0.10001515
   0.00000003  0.33084005  0.10001515
   0.00000003  0.66915898  0.10001515
   0.33084002  0.33084005  0.10001515
   0.66915895  0.66915898  0.10001515
   0.66666600  0.33333300  0.09924276
   0.33333300  0.66666600  0.10079202
   0.33332913  0.16666457  0.47058445
   0.50000039  0.00000079  0.47058414
   0.33333267  0.66666633  0.47058374
   0.50000039  0.49999861  0.47058414
   0.83333443  0.16666457  0.47058445
   0.99999967  0.99999933  0.47058481
   0.83333443  0.66666987  0.47058445
   0.99999821  0.49999861  0.47058414
Direct configuration=     4
   0.66915899 -0.00000005  0.10004018
   0.33083996 -0.00000005  0.10004018
   0.00000005  0.33084001  0.10004018
   0.00000005  0.66915904  0.10004018
   0.33083996  0.33084001  0.10004018
   0.66915899  0.66915904  0.10004018
   0.66666600  0.33333300  0.09927787
   0.33333300  0.66666600  0.10081376
   0.33333436  0.16666718  0.47055878
   0.49999921 -0.00000157  0.47055806
   0.33333267  0.66666633  0.47055721
   0.49999921  0.49999979  0.47055806
   0.83333182  0.16666718  0.47055878
   0.99999967  0.99999933  0.47055954
   0.83333182  0.66666464  0.47055878
   0.00000057  0.49999979  0.47055806
Direct configuration=     5
   0.66915914 -0.00000010  0.10011529
   0.33083976 -0.00000010  0.10011529
   0.00000010  0.33083986  0.10011529
   0.00000010  0.66915924  0.10011529
   0.33083976  0.33083986  0.10011529
   0.66915914  0.66915924  0.10011529
   0.66666600  0.33333300  0.09938320
   0.33333300  0.66666600  0.10087899
   0.33335004  0.16667502  0.47048176
   0.49999567 -0.00000866  0.47047981
   0.33333267  0.66666633  0.47047764
   0.49999567  0.50000333  0.47047981
   0.83332398  0.16667502  0.47048176
   0.99999967  0.99999933  0.47048371
   0.83332398  0.66664896  0.47048176
   0.00000766  0.50000333  0.47047981
Direct configuration=     6
   0.66915943 -0.00000021  0.10026550
   0.33083936 -0.00000021  0.10026550
   0.00000021  0.33083957  0.10026550
   0.00000021  0.66915964  0.10026550
   0.33083936  0.33083957  0.10026550
   0.66915943  0.66915964  0.10026550
   0.66666600  0.33333300  0.09959386
   0.33333300  0.66666600  0.10100945
   0.33338141  0.16669071  0.47032772
   0.49998858 -0.00002284  0.47032332
   0.33333267  0.66666633  0.47031850
   0.49998858  0.50001042  0.47032332
   0.83330829  0.16669071  0.47032772
   0.99999967  0.99999933  0.47033206
   0.83330829  0.66661759  0.47032772
   0.00002184  0.50001042  0.47032332
Direct configuration=     7
   0.66916000 -0.00000043  0.10056592
   0.33083856 -0.00000043  0.10056592
   0.00000043  0.33083900  0.10056592
   0.00000043  0.66916044  0.10056592
   0.33083856  0.33083900  0.10056592
   0.66916000  0.66916044  0.10056592
   0.66666600  0.33333300  0.10001518
   0.33333300  0.66666600  0.10127037
   0.33344415  0.16672207  0.47001964
   0.49997441 -0.00005119  0.47001033
   0.33333267  0.66666633  0.47000021
   0.49997441  0.50002459  0.47001033
   0.83327693  0.16672207  0.47001964
   0.99999967  0.99999933  0.47002876
   0.83327693  0.66655485  0.47001964
   0.00005019  0.50002459  0.47001033
Direct configuration=     8
   0.66916116 -0.00000087  0.10116677
   0.33083697 -0.00000087  0.10116677
   0.00000087  0.33083784  0.10116677
   0.00000087  0.66916203  0.10116677
   0.33083697  0.33083784  0.10116677
   0.66916116  0.66916203  0.10116677
   0.66666600  0.33333300  0.10085781
   0.33333300  0.66666600  0.10179222
   0.33356962  0.16678481  0.46940349
   0.49994606 -0.00010789  0.46938437
   0.33333267  0.66666633  0.46936363
   0.49994606  0.50005294  0.46938437
   0.83321419  0.16678481  0.46940349
   0.99999967  0.99999933  0.46942215
   0.83321419  0.66642938  0.46940349
   0.00010689  0.50005294  0.46938437
Direct configuration=     9
   0.66916347 -0.00000174  0.10236847
   0.33083379 -0.00000174  0.10236847
   0.00000174  0.33083553  0.10236847
   0.00000174  0.66916521  0.10236847
   0.33083379  0.33083553  0.10236847
   0.66916347  0.66916521  0.10236847
   0.66666600  0.33333300  0.10254309
   0.33333300  0.66666600  0.10283590
   0.33382057  0.16691029  0.46817117
   0.49988935 -0.00022129  0.46813243
   0.33333267  0.66666633  0.46809048
   0.49988935  0.50010965  0.46813243
   0.83308871  0.16691029  0.46817117
   0.99999967  0.99999933  0.46820893
   0.83308871  0.66617843  0.46817117
   0.00022029  0.50010965  0.46813243
Direct configuration=    10
   0.66916808 -0.00000349  0.10477185
   0.33082743 -0.00000349  0.10477185
   0.00000349  0.33083092  0.10477185
   0.00000349  0.66917157  0.10477185
   0.33082743  0.33083092  0.10477185
   0.66916808  0.66917157  0.10477185
   0.66666600  0.33333300  0.10591364
   0.33333300  0.66666600  0.10492327
   0.33432247  0.16716124  0.46570654
   0.49977595 -0.00044810  0.46562856
   0.33333267  0.66666633  0.46554417
   0.49977595  0.50022305  0.46562856
   0.83283776  0.16716124  0.46570654
   0.99999967  0.99999933  0.46578250
   0.83283776  0.66567653  0.46570654
   0.00044710  0.50022305  0.46562856
Direct configuration=    11
   0.66917732 -0.00000698  0.10957863
   0.33081470 -0.00000698  0.10957863
   0.00000698  0.33082168  0.10957863
   0.00000698  0.66918430  0.10957863
   0.33081470  0.33082168  0.10957863
   0.66917732  0.66918430  0.10957863
   0.66666600  0.33333300  0.11265474
   0.33333300  0.66666600  0.10909801
   0.33532627  0.16766313  0.46077729
   0.49954915 -0.00090171  0.46062081
   0.33333267  0.66666633  0.46045156
   0.49954915  0.50044985  0.46062081
   0.83233587  0.16766313  0.46077729
   0.99999967  0.99999933  0.46092964
   0.83233587  0.66467273  0.46077729
   0.00090071  0.50044985  0.46062081
Direct configuration=    12
   0.66919578 -0.00001397  0.11919218
   0.33078925 -0.00001397  0.11919218
   0.00001397  0.33080322  0.11919218
   0.00001397  0.66920975  0.11919218
   0.33078925  0.33080322  0.11919218
   0.66919578  0.66920975  0.11919218
   0.66666600  0.33333300  0.12613694
   0.33333300  0.66666600  0.11744749
   0.33733386  0.16866693  0.45091877
   0.49909554 -0.00180892  0.45060531
   0.33333267  0.66666633  0.45026633
   0.49909554  0.50090346  0.45060531
   0.83133207  0.16866693  0.45091877
   0.99999967  0.99999933  0.45122392
   0.83133207  0.66266514  0.45091877
   0.00180792  0.50090346  0.45060531
Direct configuration=    13
   0.66918353 -0.00000933  0.11281091
   0.33080614 -0.00000933  0.11281091
   0.00000933  0.33081547  0.11281091
   0.00000933  0.66919286  0.11281091
   0.33080614  0.33081547  0.11281091
   0.66918353  0.66919286  0.11281091
   0.66666600  0.33333300  0.11718775
   0.33333300  0.66666600  0.11190529
   0.33600127  0.16800063  0.45746264
   0.49939663 -0.00120673  0.45725338
   0.33333267  0.66666633  0.45702706
   0.49939663  0.50060237  0.45725338
   0.83199837  0.16800063  0.45746264
   0.99999967  0.99999933  0.45766637
   0.83199837  0.66399773  0.45746264
   0.00120573  0.50060237  0.45725338
Direct configuration=    14
   0.66918353 -0.00000933  0.11281213
   0.33080615 -0.00000933  0.11281213
   0.00000933  0.33081547  0.11281213
   0.00000933  0.66919285  0.11281213
   0.33080615  0.33081547  0.11281213
   0.66918353  0.66919285  0.11281213
   0.66666600  0.33333300  0.11718945
   0.33333300  0.66666600  0.11190634
   0.33600133  0.16800067  0.45746139
   0.49939662 -0.00120676  0.45725211
   0.33333267  0.66666633  0.45702578
   0.49939662  0.50060238  0.45725211
   0.83199833  0.16800067  0.45746139
   0.99999967  0.99999933  0.45766514
   0.83199833  0.66399767  0.45746139
   0.00120576  0.50060238  0.45725211
Direct configuration=    15
   0.66918353 -0.00000932  0.11281578
   0.33080615 -0.00000932  0.11281578
   0.00000932  0.33081547  0.11281578
   0.00000932  0.66919285  0.11281578
   0.33080615  0.33081547  0.11281578
   0.66918353  0.66919285  0.11281578
   0.66666600  0.33333300  0.11719455
   0.33333300  0.66666600  0.11190950
   0.33600153  0.16800076  0.45745765
   0.49939659 -0.00120683  0.45724832
   0.33333267  0.66666633  0.45702192
   0.49939659  0.50060241  0.45724832
   0.83199824  0.16800076  0.45745765
   0.99999967  0.99999933  0.45766145
   0.83199824  0.66399747  0.45745765
   0.00120583  0.50060241  0.45724832
Direct configuration=    16
   0.66918353 -0.00000931  0.11282308
   0.33080616 -0.00000931  0.11282308
   0.00000931  0.33081547  0.11282308
   0.00000931  0.66919284  0.11282308
   0.33080616  0.33081547  0.11282308
   0.66918353  0.66919284  0.11282308
   0.66666600  0.33333300  0.11720476
   0.33333300  0.66666600  0.11191582
   0.33600192  0.16800096  0.45745016
   0.49939651 -0.00120697  0.45724072
   0.33333267  0.66666633  0.45701422
   0.49939651  0.50060249  0.45724072
   0.83199804  0.16800096  0.45745016
   0.99999967  0.99999933  0.45765406
   0.83199804  0.66399708  0.45745016
   0.00120597  0.50060249  0.45724072
Direct configuration=    17
   0.66918354 -0.00000928  0.11283768
   0.33080619 -0.00000928  0.11283768
   0.00000928  0.33081546  0.11283768
   0.00000928  0.66919281  0.11283768
   0.33080619  0.33081546  0.11283768
   0.66918354  0.66919281  0.11283768
   0.66666600  0.33333300  0.11722517
   0.33333300  0.66666600  0.11192847
   0.33600270  0.16800135  0.45743519
   0.49939637 -0.00120727  0.45722554
   0.33333267  0.66666633  0.45699880
   0.49939637  0.50060263  0.45722554
   0.83199765  0.16800135  0.45743519
   0.99999967  0.99999933  0.45763929
   0.83199765  0.66399630  0.45743519
   0.00120627  0.50060263  0.45722554
Direct configuration=    18
   0.66918355 -0.00000922  0.11286688
   0.33080623 -0.00000922  0.11286688
   0.00000922  0.33081545  0.11286688
   0.00000922  0.66919277  0.11286688
   0.33080623  0.33081545  0.11286688
   0.66918355  0.66919277  0.11286688
   0.66666600  0.33333300  0.11726600
   0.33333300  0.66666600  0.11195376
   0.33600426  0.16800213  0.45740524
   0.49939608 -0.00120785  0.45719516
   0.33333267  0.66666633  0.45696797
   0.49939608  0.50060292  0.45719516
   0.83199687  0.16800213  0.45740524
   0.99999967  0.99999933  0.45760976
   0.83199687  0.66399474  0.45740524
   0.00120685  0.50060292  0.45719516
Direct configuration=    19
   0.66918358 -0.00000910  0.11292529
   0.33080632 -0.00000910  0.11292529
   0.00000910  0.33081542  0.11292529
   0.00000910  0.66919268  0.11292529
   0.33080632  0.33081542  0.11292529
   0.66918358  0.66919268  0.11292529
   0.66666600  0.33333300  0.11734766
   0.33333300  0.66666600  0.11200434
   0.33600739  0.16800370  0.45734534
   0.49939549 -0.00120901  0.45713441
   0.33333267  0.66666633  0.45690631
   0.49939549  0.50060351  0.45713441
   0.83199530  0.16800370  0.45734534
   0.99999967  0.99999933  0.45755068
   0.83199530  0.66399161  0.45734534
   0.00120801  0.50060351  0.45713441
Direct configuration=    20
   0.66918364 -0.00000886  0.11304210
   0.33080650 -0.00000886  0.11304210
   0.00000886  0.33081536  0.11304210
   0.00000886  0.66919250  0.11304210
   0.33080650  0.33081536  0.11304210
   0.66918364  0.66919250  0.11304210
   0.66666600  0.33333300  0.11751099
   0.33333300  0.66666600  0.11210550
   0.33601365  0.16800682  0.45722555
   0.49939433 -0.00121135  0.45701292
   0.33333267  0.66666633  0.45678299
   0.49939433  0.50060467  0.45701292
   0.83199218  0.16800682  0.45722555
   0.99999967  0.99999933  0.45743254
   0.83199218  0.66398535  0.45722555
   0.00121035  0.50060467  0.45701292
Direct configuration=    21
   0.66918376 -0.00000838  0.11327571
   0.33080686 -0.00000838  0.11327571
   0.00000838  0.33081524  0.11327571
   0.00000838  0.66919214  0.11327571
   0.33080686  0.33081524  0.11327571
   0.66918376  0.66919214  0.11327571
   0.66666600  0.33333300  0.11783763
   0.33333300  0.66666600  0.11230782
   0.33602616  0.16801308  0.45698596
   0.49939200 -0.00121601  0.45676993
   0.33333267  0.66666633  0.45653636
   0.49939200  0.50060700  0.45676993
   0.83198592  0.16801308  0.45698596
   0.99999967  0.99999933  0.45719624
   0.83198592  0.66397284  0.45698596
   0.00121501  0.50060700  0.45676993
Direct configuration=    22
   0.66918399 -0.00000742  0.11374295
   0.33080759 -0.00000742  0.11374295
   0.00000742  0.33081501  0.11374295
   0.00000742  0.66919141  0.11374295
   0.33080759  0.33081501  0.11374295
   0.66918399  0.66919141  0.11374295
   0.66666600  0.33333300  0.11849091
   0.33333300  0.66666600  0.11271247
   0.33605118  0.16802559  0.45650679
   0.49938733 -0.00122533  0.45628394
   0.33333267  0.66666633  0.45604308
   0.49938733  0.50061167  0.45628394
   0.83197341  0.16802559  0.45650679
   0.99999967  0.99999933  0.45672365
   0.83197341  0.66394782  0.45650679
   0.00122433  0.50061167  0.45628394
Direct configuration=    23
   0.66918446 -0.00000551  0.11467742
   0.33080903 -0.00000551  0.11467742
   0.00000551  0.33081454  0.11467742
   0.00000551  0.66918997  0.11467742
   0.33080903  0.33081454  0.11467742
   0.66918446  0.66918997  0.11467742
   0.66666600  0.33333300  0.11979748
   0.33333300  0.66666600  0.11352176
   0.33610122  0.16805061  0.45554845
   0.49937801 -0.00124398  0.45531197
   0.33333267  0.66666633  0.45505653
   0.49937801  0.50062099  0.45531197
   0.83194839  0.16805061  0.45554845
   0.99999967  0.99999933  0.45577847
   0.83194839  0.66389778  0.45554845
   0.00124298  0.50062099  0.45531197
Direct configuration=    24
   0.66918539 -0.00000168  0.11654635
   0.33081193 -0.00000168  0.11654635
   0.00000168  0.33081361  0.11654635
   0.00000168  0.66918707  0.11654635
   0.33081193  0.33081361  0.11654635
   0.66918539  0.66918707  0.11654635
   0.66666600  0.33333300  0.12241061
   0.33333300  0.66666600  0.11514034
   0.33620130  0.16810065  0.45363178
   0.49935936 -0.00128128  0.45336802
   0.33333267  0.66666633  0.45308343
   0.49935936  0.50063964  0.45336802
   0.83189835  0.16810065  0.45363178
   0.99999967  0.99999933  0.45388811
   0.83189835  0.66379770  0.45363178
   0.00128028  0.50063964  0.45336802
Direct configuration=    25
   0.66918726  0.00000598  0.12028423
   0.33081771  0.00000598  0.12028423
  -0.00000598  0.33081174  0.12028423
  -0.00000598  0.66918129  0.12028423
   0.33081771  0.33081174  0.12028423
   0.66918726  0.66918129  0.12028423
   0.66666600  0.33333300  0.12763689
   0.33333300  0.66666600  0.11837750
   0.33640146  0.16820073  0.44979842
   0.49932207 -0.00135587  0.44948013
   0.33333267  0.66666633  0.44913722
   0.49932207  0.50067693  0.44948013
   0.83179827  0.16820073  0.44979842
   0.99999967  0.99999933  0.45010739
   0.83179827  0.66359754  0.44979842
   0.00135487  0.50067693  0.44948013
Direct configuration=    26
   0.66919101  0.00002129  0.12775998
   0.33082928  0.00002129  0.12775998
  -0.00002129  0.33080799  0.12775998
  -0.00002129  0.66916972  0.12775998
   0.33082928  0.33080799  0.12775998
   0.66919101  0.66916972  0.12775998
   0.66666600  0.33333300  0.13808943
   0.33333300  0.66666600  0.12485182
   0.33680178  0.16840089  0.44213170
   0.49924747 -0.00150505  0.44170434
   0.33333267  0.66666633  0.44124482
   0.49924747  0.50075153  0.44170434
   0.83159811  0.16840089  0.44213170
   0.99999967  0.99999933  0.44254595
   0.83159811  0.66319722  0.44213170
   0.00150405  0.50075153  0.44170434
Direct configuration=    27
   0.66919849  0.00005191  0.14271148
   0.33085242  0.00005191  0.14271148
  -0.00005191  0.33080051  0.14271148
  -0.00005191  0.66914658  0.14271148
   0.33085242  0.33080051  0.14271148
   0.66919849  0.66914658  0.14271148
   0.66666600  0.33333300  0.15899451
   0.33333300  0.66666600  0.13780046
   0.33760241  0.16880121  0.42679826
   0.49909829 -0.00180342  0.42615277
   0.33333267  0.66666633  0.42546000
   0.49909829  0.50090071  0.42615277
   0.83119779  0.16880121  0.42679826
   0.99999967  0.99999933  0.42742306
   0.83119779  0.66239659  0.42679826
   0.00180242  0.50090071  0.42615277
Direct configuration=    28
   0.66921345  0.00011315  0.17261448
   0.33089870  0.00011315  0.17261448
  -0.00011315  0.33078555  0.17261448
  -0.00011315  0.66910030  0.17261448
   0.33089870  0.33078555  0.17261448
   0.66921345  0.66910030  0.17261448
   0.66666600  0.33333300  0.20080468
   0.33333300  0.66666600  0.16369774
   0.33920369  0.16960185  0.39613138
   0.49879992 -0.00240015  0.39504963
   0.33333267  0.66666633  0.39389038
   0.49879992  0.50119908  0.39504963
   0.83039715  0.16960185  0.39613138
   0.99999967  0.99999933  0.39717729
   0.83039715  0.66079531  0.39613138
   0.00239915  0.50119908  0.39504963
Direct configuration=    29
   0.66920023  0.00005905  0.14619743
   0.33085781  0.00005905  0.14619743
  -0.00005905  0.33079877  0.14619743
  -0.00005905  0.66914119  0.14619743
   0.33085781  0.33079877  0.14619743
   0.66920023  0.66914119  0.14619743
   0.66666600  0.33333300  0.16386854
   0.33333300  0.66666600  0.14081945
   0.33778908  0.16889454  0.42322326
   0.49906351 -0.00187298  0.42252691
   0.33333267  0.66666633  0.42177977
   0.49906351  0.50093549  0.42252691
   0.83110446  0.16889454  0.42322326
   0.99999967  0.99999933  0.42389715
   0.83110446  0.66220992  0.42322326
   0.00187198  0.50093549  0.42252691
Direct configuration=    30
   0.66920684  0.00008610  0.15940596
   0.33087826  0.00008610  0.15940596
  -0.00008610  0.33079216  0.15940596
  -0.00008610  0.66912074  0.15940596
   0.33087826  0.33079216  0.15940596
   0.66920684  0.66912074  0.15940596
   0.66666600  0.33333300  0.18233661
   0.33333300  0.66666600  0.15225859
   0.33849639  0.16924819  0.40967732
   0.49893172 -0.00213657  0.40878827
   0.33333267  0.66666633  0.40783507
   0.49893172  0.50106728  0.40878827
   0.83075081  0.16924819  0.40967732
   0.99999967  0.99999933  0.41053722
   0.83075081  0.66150261  0.40967732
   0.00213557  0.50106728  0.40878827
Direct configuration=    31
   0.66920447  0.00007640  0.15467031
   0.33087093  0.00007640  0.15467031
  -0.00007640  0.33079453  0.15467031
  -0.00007640  0.66912807  0.15467031
   0.33087093  0.33079453  0.15467031
   0.66920447  0.66912807  0.15467031
   0.66666600  0.33333300  0.17571526
   0.33333300  0.66666600  0.14815732
   0.33824280  0.16912140  0.41453394
   0.49897897 -0.00204207  0.41371399
   0.33333267  0.66666633  0.41283466
   0.49897897  0.50102003  0.41371399
   0.83087760  0.16912140  0.41453394
   0.99999967  0.99999933  0.41532715
   0.83087760  0.66175620  0.41453394
   0.00204107  0.50102003  0.41371399
