  15  15   0   0
  0.2033749E+02  0.4846000E-09  0.4846000E-09  0.1500000E-08  0.5000000E-15
  1.000000000000000E-004
  CAR 
 Dielectric                              
     27.37487200    -22.50824852 4000     -0.46647987      1.00000000
    -22.508  0.0000E+00  0.0000E+00
    -22.496  0.0000E+00  0.0000E+00
    -22.483  0.0000E+00  0.0000E+00
    -22.471  0.0000E+00  0.0000E+00
    -22.458  0.0000E+00  0.0000E+00
    -22.446  0.0000E+00  0.0000E+00
    -22.433  0.0000E+00  0.0000E+00
    -22.421  0.0000E+00  0.0000E+00
    -22.408  0.0000E+00  0.0000E+00
    -22.396  0.0000E+00  0.0000E+00
    -22.384  0.0000E+00  0.0000E+00
    -22.371  0.0000E+00  0.0000E+00
    -22.359  0.0000E+00  0.0000E+00
    -22.346  0.0000E+00  0.0000E+00
    -22.334  0.0000E+00  0.0000E+00
    -22.321  0.0000E+00  0.0000E+00
    -22.309  0.0000E+00  0.0000E+00
    -22.296  0.0000E+00  0.0000E+00
    -22.284  0.0000E+00  0.0000E+00
    -22.271  0.0000E+00  0.0000E+00
    -22.259  0.0000E+00  0.0000E+00
    -22.246  0.0000E+00  0.0000E+00
    -22.234  0.0000E+00  0.0000E+00
    -22.221  0.0000E+00  0.0000E+00
    -22.209  0.0000E+00  0.0000E+00
    -22.196  0.0000E+00  0.0000E+00
    -22.184  0.0000E+00  0.0000E+00
    -22.171  0.0000E+00  0.0000E+00
    -22.159  0.0000E+00  0.0000E+00
    -22.147  0.0000E+00  0.0000E+00
    -22.134  0.0000E+00  0.0000E+00
    -22.122  0.0000E+00  0.0000E+00
    -22.109  0.0000E+00  0.0000E+00
    -22.097  0.0000E+00  0.0000E+00
    -22.084  0.0000E+00  0.0000E+00
    -22.072  0.0000E+00  0.0000E+00
    -22.059  0.0000E+00  0.0000E+00
    -22.047  0.0000E+00  0.0000E+00
    -22.034  0.0000E+00  0.0000E+00
    -22.022  0.0000E+00  0.0000E+00
    -22.009  0.0000E+00  0.0000E+00
    -21.997  0.0000E+00  0.0000E+00
    -21.984  0.0000E+00  0.0000E+00
    -21.972  0.0000E+00  0.0000E+00
    -21.959  0.0000E+00  0.0000E+00
    -21.947  0.0000E+00  0.0000E+00
    -21.934  0.0000E+00  0.0000E+00
    -21.922  0.0000E+00  0.0000E+00
    -21.910  0.0000E+00  0.0000E+00
    -21.897  0.0000E+00  0.0000E+00
    -21.885  0.0000E+00  0.0000E+00
    -21.872  0.0000E+00  0.0000E+00
    -21.860  0.0000E+00  0.0000E+00
    -21.847  0.0000E+00  0.0000E+00
    -21.835  0.0000E+00  0.0000E+00
    -21.822  0.0000E+00  0.0000E+00
    -21.810  0.0000E+00  0.0000E+00
    -21.797  0.0000E+00  0.0000E+00
    -21.785  0.0000E+00  0.0000E+00
    -21.772  0.0000E+00  0.0000E+00
    -21.760  0.0000E+00  0.0000E+00
    -21.747  0.0000E+00  0.0000E+00
    -21.735  0.0000E+00  0.0000E+00
    -21.722  0.0000E+00  0.0000E+00
    -21.710  0.0000E+00  0.0000E+00
    -21.697  0.0000E+00  0.0000E+00
    -21.685  0.0000E+00  0.0000E+00
    -21.672  0.0000E+00  0.0000E+00
    -21.660  0.0000E+00  0.0000E+00
    -21.648  0.0000E+00  0.0000E+00
    -21.635  0.0000E+00  0.0000E+00
    -21.623  0.0000E+00  0.0000E+00
    -21.610  0.0000E+00  0.0000E+00
    -21.598  0.0000E+00  0.0000E+00
    -21.585  0.0000E+00  0.0000E+00
    -21.573  0.0000E+00  0.0000E+00
    -21.560  0.0000E+00  0.0000E+00
    -21.548  0.0000E+00  0.0000E+00
    -21.535  0.0000E+00  0.0000E+00
    -21.523  0.0000E+00  0.0000E+00
    -21.510  0.0000E+00  0.0000E+00
    -21.498  0.0000E+00  0.0000E+00
    -21.485  0.0000E+00  0.0000E+00
    -21.473  0.0000E+00  0.0000E+00
    -21.460  0.0000E+00  0.0000E+00
    -21.448  0.0000E+00  0.0000E+00
    -21.435  0.0000E+00  0.0000E+00
    -21.423  0.0000E+00  0.0000E+00
    -21.411  0.0000E+00  0.0000E+00
    -21.398  0.0000E+00  0.0000E+00
    -21.386  0.0000E+00  0.0000E+00
    -21.373  0.0000E+00  0.0000E+00
    -21.361  0.0000E+00  0.0000E+00
    -21.348  0.0000E+00  0.0000E+00
    -21.336  0.0000E+00  0.0000E+00
    -21.323  0.0000E+00  0.0000E+00
    -21.311  0.0000E+00  0.0000E+00
    -21.298  0.0000E+00  0.0000E+00
    -21.286  0.0000E+00  0.0000E+00
    -21.273  0.0000E+00  0.0000E+00
    -21.261  0.0000E+00  0.0000E+00
    -21.248  0.0000E+00  0.0000E+00
    -21.236  0.0000E+00  0.0000E+00
    -21.223  0.0000E+00  0.0000E+00
    -21.211  0.0000E+00  0.0000E+00
    -21.198  0.0000E+00  0.0000E+00
    -21.186  0.0000E+00  0.0000E+00
    -21.174  0.0000E+00  0.0000E+00
    -21.161  0.0000E+00  0.0000E+00
    -21.149  0.0000E+00  0.0000E+00
    -21.136  0.0000E+00  0.0000E+00
    -21.124  0.0000E+00  0.0000E+00
    -21.111  0.0000E+00  0.0000E+00
    -21.099  0.0000E+00  0.0000E+00
    -21.086  0.0000E+00  0.0000E+00
    -21.074  0.0000E+00  0.0000E+00
    -21.061  0.0000E+00  0.0000E+00
    -21.049  0.0000E+00  0.0000E+00
    -21.036  0.0000E+00  0.0000E+00
    -21.024  0.0000E+00  0.0000E+00
    -21.011  0.0000E+00  0.0000E+00
    -20.999  0.0000E+00  0.0000E+00
    -20.986  0.0000E+00  0.0000E+00
    -20.974  0.0000E+00  0.0000E+00
    -20.961  0.0000E+00  0.0000E+00
    -20.949  0.0000E+00  0.0000E+00
    -20.937  0.0000E+00  0.0000E+00
    -20.924  0.0000E+00  0.0000E+00
    -20.912  0.0000E+00  0.0000E+00
    -20.899  0.0000E+00  0.0000E+00
    -20.887  0.0000E+00  0.0000E+00
    -20.874  0.0000E+00  0.0000E+00
    -20.862  0.0000E+00  0.0000E+00
    -20.849  0.0000E+00  0.0000E+00
    -20.837  0.0000E+00  0.0000E+00
    -20.824  0.0000E+00  0.0000E+00
    -20.812  0.0000E+00  0.0000E+00
    -20.799  0.0000E+00  0.0000E+00
    -20.787  0.0000E+00  0.0000E+00
    -20.774  0.0000E+00  0.0000E+00
    -20.762  0.0000E+00  0.0000E+00
    -20.749  0.0000E+00  0.0000E+00
    -20.737  0.0000E+00  0.0000E+00
    -20.724  0.0000E+00  0.0000E+00
    -20.712  0.0000E+00  0.0000E+00
    -20.700  0.0000E+00  0.0000E+00
    -20.687  0.0000E+00  0.0000E+00
    -20.675  0.0000E+00  0.0000E+00
    -20.662  0.0000E+00  0.0000E+00
    -20.650  0.0000E+00  0.0000E+00
    -20.637  0.0000E+00  0.0000E+00
    -20.625  0.0000E+00  0.0000E+00
    -20.612  0.0000E+00  0.0000E+00
    -20.600  0.0000E+00  0.0000E+00
    -20.587  0.0000E+00  0.0000E+00
    -20.575  0.0000E+00  0.0000E+00
    -20.562  0.0000E+00  0.0000E+00
    -20.550  0.0000E+00  0.0000E+00
    -20.537  0.0000E+00  0.0000E+00
    -20.525  0.0000E+00  0.0000E+00
    -20.512  0.0000E+00  0.0000E+00
    -20.500  0.0000E+00  0.0000E+00
    -20.487  0.0000E+00  0.0000E+00
    -20.475  0.0000E+00  0.0000E+00
    -20.463  0.0000E+00  0.0000E+00
    -20.450  0.0000E+00  0.0000E+00
    -20.438  0.0000E+00  0.0000E+00
    -20.425  0.0000E+00  0.0000E+00
    -20.413  0.0000E+00  0.0000E+00
    -20.400  0.0000E+00  0.0000E+00
    -20.388  0.0000E+00  0.0000E+00
    -20.375  0.0000E+00  0.0000E+00
    -20.363  0.0000E+00  0.0000E+00
    -20.350  0.0000E+00  0.0000E+00
    -20.338  0.0000E+00  0.0000E+00
    -20.325  0.0000E+00  0.0000E+00
    -20.313  0.0000E+00  0.0000E+00
    -20.300  0.0000E+00  0.0000E+00
    -20.288  0.3625E-11  0.4522E-13
    -20.275  0.1288E-06  0.1606E-08
    -20.263  0.2313E-03  0.2887E-05
    -20.250  0.2663E-01  0.3351E-03
    -20.238  0.3938E+00  0.5248E-02
    -20.226  0.1077E+01  0.1868E-01
    -20.213  0.1019E+01  0.3138E-01
    -20.201  0.1603E+01  0.5138E-01
    -20.188  0.7567E+00  0.6082E-01
    -20.176  0.1022E+01  0.7357E-01
    -20.163  0.1890E+01  0.9715E-01
    -20.151  0.1133E+01  0.1113E+00
    -20.138  0.5762E+00  0.1185E+00
    -20.126  0.7516E+00  0.1278E+00
    -20.113  0.2357E+01  0.1572E+00
    -20.101  0.1428E+01  0.1751E+00
    -20.088  0.5547E+00  0.1820E+00
    -20.076  0.9100E+00  0.1933E+00
    -20.063  0.5672E+00  0.2004E+00
    -20.051  0.1940E+01  0.2246E+00
    -20.038  0.1847E+01  0.2476E+00
    -20.026  0.1722E+01  0.2691E+00
    -20.013  0.2446E+00  0.2722E+00
    -20.001  0.4407E+00  0.2777E+00
    -19.989  0.1017E+01  0.2904E+00
    -19.976  0.1368E+01  0.3074E+00
    -19.964  0.2461E+01  0.3381E+00
    -19.951  0.9545E+00  0.3500E+00
    -19.939  0.1468E+01  0.3684E+00
    -19.926  0.1397E+01  0.3858E+00
    -19.914  0.1138E+00  0.3872E+00
    -19.901  0.9589E-01  0.3884E+00
    -19.889  0.1167E+01  0.4030E+00
    -19.876  0.2511E+01  0.4343E+00
    -19.864  0.1882E+01  0.4577E+00
    -19.851  0.1777E+01  0.4799E+00
    -19.839  0.2883E+00  0.4835E+00
    -19.826  0.8187E+00  0.4937E+00
    -19.814  0.1858E+01  0.5169E+00
    -19.801  0.3712E+00  0.5215E+00
    -19.789  0.2881E-01  0.5219E+00
    -19.776  0.6705E+00  0.5303E+00
    -19.764  0.2975E+01  0.5674E+00
    -19.752  0.2324E+01  0.5964E+00
    -19.739  0.9914E+00  0.6087E+00
    -19.727  0.1865E+01  0.6320E+00
    -19.714  0.3801E+00  0.6367E+00
    -19.702  0.4978E-01  0.6374E+00
    -19.689  0.9921E+00  0.6497E+00
    -19.677  0.1766E+01  0.6718E+00
    -19.664  0.2999E+00  0.6755E+00
    -19.652  0.8062E+00  0.6856E+00
    -19.639  0.2035E+01  0.7109E+00
    -19.627  0.2129E+01  0.7375E+00
    -19.614  0.2177E+01  0.7647E+00
    -19.602  0.6223E+00  0.7724E+00
    -19.589  0.1412E+01  0.7900E+00
    -19.577  0.1442E+01  0.8080E+00
    -19.564  0.1252E+00  0.8096E+00
    -19.552  0.5512E-02  0.8097E+00
    -19.539  0.3549E+00  0.8141E+00
    -19.527  0.1871E+01  0.8374E+00
    -19.515  0.1469E+01  0.8557E+00
    -19.502  0.2321E+01  0.8847E+00
    -19.490  0.1583E+01  0.9044E+00
    -19.477  0.9527E+00  0.9163E+00
    -19.465  0.1943E+01  0.9406E+00
    -19.452  0.1164E+01  0.9551E+00
    -19.440  0.6637E+00  0.9634E+00
    -19.427  0.1079E+01  0.9768E+00
    -19.415  0.1735E+01  0.9984E+00
    -19.402  0.2505E+00  0.1002E+01
    -19.390  0.2483E-02  0.1002E+01
    -19.377  0.1190E-01  0.1002E+01
    -19.365  0.7910E+00  0.1012E+01
    -19.352  0.3802E+01  0.1059E+01
    -19.340  0.2647E+01  0.1092E+01
    -19.327  0.1752E+01  0.1114E+01
    -19.315  0.2656E+00  0.1117E+01
    -19.302  0.9110E+00  0.1129E+01
    -19.290  0.1817E+01  0.1151E+01
    -19.278  0.5278E+00  0.1158E+01
    -19.265  0.9481E+00  0.1170E+01
    -19.253  0.5222E+00  0.1176E+01
    -19.240  0.1541E+01  0.1195E+01
    -19.228  0.1303E+01  0.1212E+01
    -19.215  0.9298E-01  0.1213E+01
    -19.203  0.1314E+00  0.1214E+01
    -19.190  0.1339E+01  0.1231E+01
    -19.178  0.2505E+01  0.1262E+01
    -19.165  0.2072E+01  0.1288E+01
    -19.153  0.3232E+01  0.1329E+01
    -19.140  0.1415E+01  0.1346E+01
    -19.128  0.8179E-01  0.1347E+01
    -19.115  0.2755E+00  0.1351E+01
    -19.103  0.1768E+01  0.1373E+01
    -19.090  0.9889E+00  0.1385E+01
    -19.078  0.1443E+00  0.1387E+01
    -19.065  0.8244E+00  0.1397E+01
    -19.053  0.6406E+00  0.1405E+01
    -19.041  0.1151E+01  0.1419E+01
    -19.028  0.1695E+01  0.1441E+01
    -19.016  0.8256E+00  0.1451E+01
    -19.003  0.2027E+01  0.1476E+01
    -18.991  0.1920E+01  0.1500E+01
    -18.978  0.1462E+01  0.1518E+01
    -18.966  0.2802E+00  0.1522E+01
    -18.953  0.2443E+01  0.1552E+01
    -18.941  0.3200E+01  0.1592E+01
    -18.928  0.3584E+00  0.1597E+01
    -18.916  0.6024E-02  0.1597E+01
    -18.903  0.2944E+00  0.1601E+01
    -18.891  0.1791E+01  0.1623E+01
    -18.878  0.9497E+00  0.1635E+01
    -18.866  0.4348E-01  0.1635E+01
    -18.853  0.2211E+00  0.1638E+01
    -18.841  0.9489E+00  0.1650E+01
    -18.828  0.6220E+00  0.1658E+01
    -18.816  0.2762E+01  0.1692E+01
    -18.804  0.3720E+01  0.1738E+01
    -18.791  0.1064E+01  0.1752E+01
    -18.779  0.1500E+01  0.1770E+01
    -18.766  0.1366E+01  0.1787E+01
    -18.754  0.1075E+00  0.1789E+01
    -18.741  0.2353E+00  0.1792E+01
    -18.729  0.2148E+01  0.1819E+01
    -18.716  0.2946E+01  0.1855E+01
    -18.704  0.7997E+00  0.1865E+01
    -18.691  0.2626E-01  0.1866E+01
    -18.679  0.5889E-01  0.1866E+01
    -18.666  0.1050E+01  0.1879E+01
    -18.654  0.1699E+01  0.1901E+01
    -18.641  0.2673E+00  0.1904E+01
    -18.629  0.6621E-02  0.1904E+01
    -18.616  0.3554E+00  0.1908E+01
    -18.604  0.2598E+01  0.1941E+01
    -18.591  0.2511E+01  0.1972E+01
    -18.579  0.3125E+01  0.2011E+01
    -18.566  0.2010E+01  0.2036E+01
    -18.554  0.9172E+00  0.2048E+01
    -18.542  0.1854E+01  0.2071E+01
    -18.529  0.4687E+00  0.2077E+01
    -18.517  0.1031E-01  0.2077E+01
    -18.504  0.1110E+00  0.2078E+01
    -18.492  0.1397E+01  0.2096E+01
    -18.479  0.1925E+01  0.2120E+01
    -18.467  0.2031E+01  0.2145E+01
    -18.454  0.6744E+00  0.2153E+01
    -18.442  0.1823E-01  0.2154E+01
    -18.429  0.6342E-01  0.2154E+01
    -18.417  0.1141E+01  0.2169E+01
    -18.404  0.1674E+01  0.2189E+01
    -18.392  0.6216E+00  0.2197E+01
    -18.379  0.2045E+01  0.2223E+01
    -18.367  0.1916E+01  0.2247E+01
    -18.354  0.1103E+01  0.2260E+01
    -18.342  0.2877E+01  0.2296E+01
    -18.329  0.1083E+01  0.2310E+01
    -18.317  0.1746E+01  0.2332E+01
    -18.305  0.1949E+01  0.2356E+01
    -18.292  0.1899E+01  0.2380E+01
    -18.280  0.3483E+00  0.2384E+01
    -18.267  0.4635E-02  0.2384E+01
    -18.255  0.4707E-02  0.2384E+01
    -18.242  0.3509E+00  0.2388E+01
    -18.230  0.1844E+01  0.2411E+01
    -18.217  0.9689E+00  0.2424E+01
    -18.205  0.1455E+01  0.2442E+01
    -18.192  0.1415E+01  0.2459E+01
    -18.180  0.1178E+00  0.2461E+01
    -18.167  0.2456E-01  0.2461E+01
    -18.155  0.1063E+01  0.2474E+01
    -18.142  0.3882E+01  0.2523E+01
    -18.130  0.2614E+01  0.2555E+01
    -18.117  0.1515E+01  0.2574E+01
    -18.105  0.2182E+00  0.2577E+01
    -18.092  0.1253E+01  0.2593E+01
    -18.080  0.1750E+01  0.2614E+01
    -18.068  0.1091E+01  0.2628E+01
    -18.055  0.5716E+00  0.2635E+01
    -18.043  0.1854E+01  0.2658E+01
    -18.030  0.3191E+01  0.2698E+01
    -18.018  0.9517E+00  0.2710E+01
    -18.005  0.3101E-01  0.2710E+01
    -17.993  0.6710E-04  0.2710E+01
    -17.980  0.2540E-02  0.2710E+01
    -17.968  0.2542E+00  0.2714E+01
    -17.955  0.1740E+01  0.2735E+01
    -17.943  0.1034E+01  0.2748E+01
    -17.930  0.2457E+00  0.2751E+01
    -17.918  0.1658E+01  0.2772E+01
    -17.905  0.1728E+01  0.2794E+01
    -17.893  0.2312E+01  0.2822E+01
    -17.880  0.1710E+01  0.2844E+01
    -17.868  0.1703E+01  0.2865E+01
    -17.855  0.3706E+01  0.2911E+01
    -17.843  0.8240E+00  0.2921E+01
    -17.831  0.8148E-01  0.2922E+01
    -17.818  0.1168E+01  0.2937E+01
    -17.806  0.1643E+01  0.2958E+01
    -17.793  0.2188E+00  0.2960E+01
    -17.781  0.4818E+00  0.2966E+01
    -17.768  0.9185E+00  0.2978E+01
    -17.756  0.1300E+01  0.2994E+01
    -17.743  0.3829E+01  0.3042E+01
    -17.731  0.1123E+01  0.3056E+01
    -17.718  0.2448E-01  0.3056E+01
    -17.706  0.3098E-04  0.3056E+01
    -17.693  0.7368E-04  0.3056E+01
    -17.681  0.3279E-01  0.3056E+01
    -17.668  0.8766E+00  0.3067E+01
    -17.656  0.1844E+01  0.3090E+01
    -17.643  0.9208E+00  0.3102E+01
    -17.631  0.2105E+01  0.3128E+01
    -17.618  0.3144E+01  0.3167E+01
    -17.606  0.3074E+01  0.3206E+01
    -17.594  0.4141E+00  0.3211E+01
    -17.581  0.1348E+01  0.3228E+01
    -17.569  0.1887E+01  0.3251E+01
    -17.556  0.2011E+01  0.3276E+01
    -17.544  0.7968E+00  0.3286E+01
    -17.531  0.4939E+00  0.3292E+01
    -17.519  0.1847E+01  0.3315E+01
    -17.506  0.7279E+00  0.3324E+01
    -17.494  0.2518E-01  0.3325E+01
    -17.481  0.2435E-01  0.3325E+01
    -17.469  0.5203E+00  0.3332E+01
    -17.456  0.1269E+01  0.3347E+01
    -17.444  0.2612E+01  0.3380E+01
    -17.431  0.2712E+01  0.3414E+01
    -17.419  0.5478E+00  0.3421E+01
    -17.406  0.1176E-01  0.3421E+01
    -17.394  0.9904E-01  0.3422E+01
    -17.381  0.8955E+00  0.3433E+01
    -17.369  0.2159E+01  0.3460E+01
    -17.357  0.5098E+01  0.3524E+01
    -17.344  0.5038E+01  0.3587E+01
    -17.332  0.3424E+01  0.3629E+01
    -17.319  0.3165E+01  0.3669E+01
    -17.307  0.2546E+01  0.3701E+01
    -17.294  0.4328E+01  0.3755E+01
    -17.282  0.3385E+01  0.3797E+01
    -17.269  0.3075E+01  0.3835E+01
    -17.257  0.2954E+01  0.3872E+01
    -17.244  0.3280E+01  0.3913E+01
    -17.232  0.2604E+01  0.3945E+01
    -17.219  0.2623E+01  0.3978E+01
    -17.207  0.4795E+01  0.4038E+01
    -17.194  0.2693E+01  0.4071E+01
    -17.182  0.1748E+01  0.4093E+01
    -17.169  0.6371E+00  0.4101E+01
    -17.157  0.2597E+01  0.4134E+01
    -17.144  0.3859E+01  0.4182E+01
    -17.132  0.3843E+01  0.4230E+01
    -17.120  0.4392E+01  0.4285E+01
    -17.107  0.3001E+01  0.4322E+01
    -17.095  0.2412E+01  0.4352E+01
    -17.082  0.3987E+01  0.4402E+01
    -17.070  0.4128E+01  0.4453E+01
    -17.057  0.3817E+01  0.4501E+01
    -17.045  0.4414E+01  0.4556E+01
    -17.032  0.3004E+01  0.4593E+01
    -17.020  0.3636E+01  0.4639E+01
    -17.007  0.6438E+01  0.4719E+01
    -16.995  0.3147E+01  0.4758E+01
    -16.982  0.1107E+01  0.4772E+01
    -16.970  0.3008E+01  0.4810E+01
    -16.957  0.6949E+01  0.4896E+01
    -16.945  0.5465E+01  0.4965E+01
    -16.932  0.3103E+01  0.5003E+01
    -16.920  0.2242E+01  0.5031E+01
    -16.907  0.2110E+01  0.5058E+01
    -16.895  0.5359E+01  0.5124E+01
    -16.883  0.6782E+01  0.5209E+01
    -16.870  0.5590E+01  0.5279E+01
    -16.858  0.2864E+01  0.5314E+01
    -16.845  0.2106E+01  0.5341E+01
    -16.833  0.4593E+01  0.5398E+01
    -16.820  0.7290E+01  0.5489E+01
    -16.808  0.5142E+01  0.5553E+01
    -16.795  0.6708E+01  0.5637E+01
    -16.783  0.1250E+02  0.5793E+01
    -16.770  0.8686E+01  0.5901E+01
    -16.758  0.6010E+01  0.5976E+01
    -16.745  0.7748E+01  0.6073E+01
    -16.733  0.7341E+01  0.6164E+01
    -16.720  0.3952E+01  0.6213E+01
    -16.708  0.3995E+01  0.6263E+01
    -16.695  0.3637E+01  0.6309E+01
    -16.683  0.3713E+01  0.6355E+01
    -16.670  0.1888E+01  0.6379E+01
    -16.658  0.1811E+00  0.6381E+01
    -16.646  0.1866E-01  0.6381E+01
    -16.633  0.6611E+00  0.6389E+01
    -16.621  0.1991E+01  0.6414E+01
    -16.608  0.1749E+01  0.6436E+01
    -16.596  0.1573E+01  0.6456E+01
    -16.583  0.1648E+00  0.6458E+01
    -16.571  0.1515E-01  0.6458E+01
    -16.558  0.6693E+00  0.6466E+01
    -16.546  0.3131E+01  0.6505E+01
    -16.533  0.2149E+01  0.6532E+01
    -16.521  0.1925E+00  0.6534E+01
    -16.508  0.1374E-02  0.6534E+01
    -16.496  0.6647E-05  0.6534E+01
    -16.483  0.6734E-02  0.6534E+01
    -16.471  0.4212E+00  0.6540E+01
    -16.458  0.2008E+01  0.6565E+01
    -16.446  0.2993E+01  0.6602E+01
    -16.433  0.3999E+01  0.6652E+01
    -16.421  0.1387E+01  0.6669E+01
    -16.409  0.2319E+01  0.6698E+01
    -16.396  0.3327E+01  0.6740E+01
    -16.384  0.4668E+00  0.6746E+01
    -16.371  0.1818E-01  0.6746E+01
    -16.359  0.5853E+00  0.6753E+01
    -16.346  0.1917E+01  0.6777E+01
    -16.334  0.7619E+00  0.6786E+01
    -16.321  0.1676E+01  0.6807E+01
    -16.309  0.1140E+01  0.6822E+01
    -16.296  0.8517E-01  0.6823E+01
    -16.284  0.7364E+00  0.6832E+01
    -16.271  0.1888E+01  0.6855E+01
    -16.259  0.4388E+00  0.6861E+01
    -16.246  0.5859E+00  0.6868E+01
    -16.234  0.1915E+01  0.6892E+01
    -16.221  0.5590E+00  0.6899E+01
    -16.209  0.1760E-01  0.6899E+01
    -16.196  0.5183E+00  0.6906E+01
    -16.184  0.3451E+01  0.6949E+01
    -16.172  0.2076E+01  0.6975E+01
    -16.159  0.1300E+00  0.6976E+01
    -16.147  0.6460E+00  0.6984E+01
    -16.134  0.2361E+01  0.7014E+01
    -16.122  0.1544E+01  0.7033E+01
    -16.109  0.1234E+01  0.7048E+01
    -16.097  0.1684E+01  0.7069E+01
    -16.084  0.7748E+00  0.7079E+01
    -16.072  0.2191E+01  0.7106E+01
    -16.059  0.2942E+01  0.7143E+01
    -16.047  0.1916E+01  0.7167E+01
    -16.034  0.1197E+01  0.7182E+01
    -16.022  0.1717E+01  0.7203E+01
    -16.009  0.3892E+00  0.7208E+01
    -15.997  0.1529E+01  0.7227E+01
    -15.984  0.1307E+01  0.7244E+01
    -15.972  0.9771E-01  0.7245E+01
    -15.959  0.3696E+00  0.7249E+01
    -15.947  0.1857E+01  0.7273E+01
    -15.935  0.8334E+00  0.7283E+01
    -15.922  0.6333E+00  0.7291E+01
    -15.910  0.1914E+01  0.7315E+01
    -15.897  0.5338E+00  0.7321E+01
    -15.885  0.1244E-01  0.7322E+01
    -15.872  0.1907E+00  0.7324E+01
    -15.860  0.1626E+01  0.7344E+01
    -15.847  0.1189E+01  0.7359E+01
    -15.835  0.9149E-01  0.7360E+01
    -15.822  0.8773E+00  0.7371E+01
    -15.810  0.4410E+01  0.7426E+01
    -15.797  0.4181E+01  0.7478E+01
    -15.785  0.2250E+01  0.7506E+01
    -15.772  0.5889E+00  0.7514E+01
    -15.760  0.7813E+00  0.7524E+01
    -15.747  0.1858E+01  0.7547E+01
    -15.735  0.4191E+00  0.7552E+01
    -15.722  0.1673E-01  0.7552E+01
    -15.710  0.6873E+00  0.7561E+01
    -15.697  0.3649E+01  0.7606E+01
    -15.685  0.1876E+01  0.7630E+01
    -15.673  0.9447E+00  0.7641E+01
    -15.660  0.6893E+00  0.7650E+01
    -15.648  0.1620E+01  0.7670E+01
    -15.635  0.1963E+01  0.7695E+01
    -15.623  0.1956E+01  0.7719E+01
    -15.610  0.4495E+00  0.7725E+01
    -15.598  0.8431E-02  0.7725E+01
    -15.585  0.4060E-01  0.7725E+01
    -15.573  0.9578E+00  0.7737E+01
    -15.560  0.1803E+01  0.7760E+01
    -15.548  0.9098E+00  0.7771E+01
    -15.535  0.1895E+01  0.7795E+01
    -15.523  0.5390E+00  0.7801E+01
    -15.510  0.1208E-01  0.7802E+01
    -15.498  0.2677E-02  0.7802E+01
    -15.485  0.2813E+00  0.7805E+01
    -15.473  0.2401E+01  0.7835E+01
    -15.460  0.3433E+01  0.7878E+01
    -15.448  0.1809E+01  0.7900E+01
    -15.436  0.3213E+01  0.7941E+01
    -15.423  0.4074E+01  0.7991E+01
    -15.411  0.1612E+01  0.8011E+01
    -15.398  0.6053E+00  0.8019E+01
    -15.386  0.1909E+01  0.8043E+01
    -15.373  0.6525E+00  0.8051E+01
    -15.361  0.1683E-01  0.8051E+01
    -15.348  0.1897E-01  0.8051E+01
    -15.336  0.7140E+00  0.8060E+01
    -15.323  0.2663E+01  0.8094E+01
    -15.311  0.2327E+01  0.8123E+01
    -15.298  0.6526E+00  0.8131E+01
    -15.286  0.9599E+00  0.8143E+01
    -15.273  0.7182E+00  0.8152E+01
    -15.261  0.2326E+01  0.8181E+01
    -15.248  0.2744E+01  0.8215E+01
    -15.236  0.7101E+00  0.8224E+01
    -15.223  0.1847E-01  0.8224E+01
    -15.211  0.1396E-02  0.8224E+01
    -15.199  0.1739E+00  0.8226E+01
    -15.186  0.1560E+01  0.8246E+01
    -15.174  0.1414E+01  0.8263E+01
    -15.161  0.1635E+01  0.8284E+01
    -15.149  0.1284E+01  0.8300E+01
    -15.136  0.1097E+00  0.8301E+01
    -15.124  0.7413E+00  0.8310E+01
    -15.111  0.2329E+01  0.8339E+01
    -15.099  0.3714E+01  0.8386E+01
    -15.086  0.2304E+01  0.8414E+01
    -15.074  0.8509E+00  0.8425E+01
    -15.061  0.2942E+01  0.8462E+01
    -15.049  0.3601E+01  0.8507E+01
    -15.036  0.1832E+01  0.8530E+01
    -15.024  0.8712E+00  0.8540E+01
    -15.011  0.1894E+01  0.8564E+01
    -14.999  0.4402E+00  0.8570E+01
    -14.986  0.2250E-01  0.8570E+01
    -14.974  0.6281E+00  0.8578E+01
    -14.962  0.2509E+01  0.8609E+01
    -14.949  0.5152E+01  0.8673E+01
    -14.937  0.6911E+01  0.8759E+01
    -14.924  0.2956E+01  0.8796E+01
    -14.912  0.3448E+01  0.8839E+01
    -14.899  0.4943E+01  0.8901E+01
    -14.887  0.3770E+01  0.8948E+01
    -14.874  0.4950E+01  0.9010E+01
    -14.862  0.2953E+01  0.9047E+01
    -14.849  0.1152E+01  0.9061E+01
    -14.837  0.5742E+01  0.9133E+01
    -14.824  0.6160E+01  0.9209E+01
    -14.812  0.3630E+01  0.9255E+01
    -14.799  0.3846E+01  0.9303E+01
    -14.787  0.4428E+01  0.9358E+01
    -14.774  0.5278E+01  0.9424E+01
    -14.762  0.8413E+01  0.9529E+01
    -14.749  0.7828E+01  0.9626E+01
    -14.737  0.5679E+01  0.9697E+01
    -14.725  0.8395E+01  0.9802E+01
    -14.712  0.6260E+01  0.9880E+01
    -14.700  0.5987E+01  0.9955E+01
    -14.687  0.4979E+01  0.1002E+02
    -14.675  0.3147E+01  0.1006E+02
    -14.662  0.3572E+01  0.1010E+02
    -14.650  0.4992E+01  0.1016E+02
    -14.637  0.3606E+01  0.1021E+02
    -14.625  0.1893E+01  0.1023E+02
    -14.612  0.4796E+01  0.1029E+02
    -14.600  0.2841E+01  0.1033E+02
    -14.587  0.1987E+01  0.1035E+02
    -14.575  0.1057E+01  0.1036E+02
    -14.562  0.6928E+00  0.1037E+02
    -14.550  0.2646E+01  0.1041E+02
    -14.537  0.5759E+01  0.1048E+02
    -14.525  0.4540E+01  0.1053E+02
    -14.512  0.1756E+01  0.1056E+02
    -14.500  0.1771E+01  0.1058E+02
    -14.488  0.2109E+01  0.1061E+02
    -14.475  0.1313E+01  0.1062E+02
    -14.463  0.4052E+01  0.1067E+02
    -14.450  0.4051E+01  0.1072E+02
    -14.438  0.5910E+00  0.1073E+02
    -14.425  0.8622E+00  0.1074E+02
    -14.413  0.2520E+01  0.1077E+02
    -14.400  0.2889E+01  0.1081E+02
    -14.388  0.3316E+01  0.1085E+02
    -14.375  0.5503E+01  0.1092E+02
    -14.363  0.5734E+01  0.1099E+02
    -14.350  0.2224E+01  0.1102E+02
    -14.338  0.3034E+01  0.1106E+02
    -14.325  0.3414E+01  0.1110E+02
    -14.313  0.3227E+01  0.1114E+02
    -14.300  0.4633E+01  0.1120E+02
    -14.288  0.4339E+01  0.1125E+02
    -14.275  0.2581E+01  0.1128E+02
    -14.263  0.1735E+01  0.1130E+02
    -14.251  0.1045E+01  0.1132E+02
    -14.238  0.2332E+01  0.1135E+02
    -14.226  0.1637E+01  0.1137E+02
    -14.213  0.2568E+01  0.1140E+02
    -14.201  0.3576E+01  0.1144E+02
    -14.188  0.1833E+01  0.1147E+02
    -14.176  0.1540E+01  0.1149E+02
    -14.163  0.2343E+01  0.1151E+02
    -14.151  0.2356E+01  0.1154E+02
    -14.138  0.1458E+01  0.1156E+02
    -14.126  0.2191E+01  0.1159E+02
    -14.113  0.4317E+01  0.1164E+02
    -14.101  0.3058E+01  0.1168E+02
    -14.088  0.1655E+01  0.1170E+02
    -14.076  0.3164E+01  0.1174E+02
    -14.063  0.2443E+01  0.1177E+02
    -14.051  0.5453E+01  0.1184E+02
    -14.038  0.7645E+01  0.1194E+02
    -14.026  0.6916E+01  0.1202E+02
    -14.014  0.3179E+01  0.1206E+02
    -14.001  0.2959E+01  0.1210E+02
    -13.989  0.3103E+01  0.1214E+02
    -13.976  0.2774E+01  0.1217E+02
    -13.964  0.2640E+01  0.1220E+02
    -13.951  0.3751E+01  0.1225E+02
    -13.939  0.2511E+01  0.1228E+02
    -13.926  0.4228E+00  0.1229E+02
    -13.914  0.3290E+01  0.1233E+02
    -13.901  0.7291E+01  0.1242E+02
    -13.889  0.4830E+01  0.1248E+02
    -13.876  0.2589E+01  0.1251E+02
    -13.864  0.3773E+01  0.1256E+02
    -13.851  0.7007E+01  0.1265E+02
    -13.839  0.5765E+01  0.1272E+02
    -13.826  0.4424E+01  0.1277E+02
    -13.814  0.6373E+01  0.1285E+02
    -13.801  0.8739E+01  0.1296E+02
    -13.789  0.5187E+01  0.1303E+02
    -13.777  0.4553E+01  0.1308E+02
    -13.764  0.5947E+01  0.1316E+02
    -13.752  0.6222E+01  0.1324E+02
    -13.739  0.5888E+01  0.1331E+02
    -13.727  0.3219E+01  0.1335E+02
    -13.714  0.6021E+01  0.1342E+02
    -13.702  0.6196E+01  0.1350E+02
    -13.689  0.2250E+01  0.1353E+02
    -13.677  0.2845E+01  0.1357E+02
    -13.664  0.8021E+01  0.1367E+02
    -13.652  0.5992E+01  0.1374E+02
    -13.639  0.2582E+01  0.1377E+02
    -13.627  0.2528E+01  0.1380E+02
    -13.614  0.4048E+01  0.1385E+02
    -13.602  0.3146E+01  0.1389E+02
    -13.589  0.3758E+01  0.1394E+02
    -13.577  0.3598E+01  0.1399E+02
    -13.564  0.1829E+01  0.1401E+02
    -13.552  0.3304E+01  0.1405E+02
    -13.540  0.4162E+01  0.1410E+02
    -13.527  0.2474E+01  0.1413E+02
    -13.515  0.3169E+01  0.1417E+02
    -13.502  0.3294E+01  0.1421E+02
    -13.490  0.2066E+01  0.1424E+02
    -13.477  0.8469E+00  0.1425E+02
    -13.465  0.2787E+01  0.1428E+02
    -13.452  0.1529E+01  0.1430E+02
    -13.440  0.2003E+01  0.1433E+02
    -13.427  0.2391E+01  0.1436E+02
    -13.415  0.3641E+01  0.1440E+02
    -13.402  0.7985E+00  0.1441E+02
    -13.390  0.5052E+00  0.1442E+02
    -13.377  0.8852E+00  0.1443E+02
    -13.365  0.1385E+00  0.1443E+02
    -13.352  0.2408E-02  0.1443E+02
    -13.340  0.1458E+00  0.1443E+02
    -13.327  0.1630E+01  0.1445E+02
    -13.315  0.2756E+01  0.1449E+02
    -13.303  0.1508E+01  0.1451E+02
    -13.290  0.2907E+00  0.1451E+02
    -13.278  0.1810E+01  0.1453E+02
    -13.265  0.2615E+01  0.1457E+02
    -13.253  0.1905E+01  0.1459E+02
    -13.240  0.2109E+01  0.1462E+02
    -13.228  0.6071E+00  0.1462E+02
    -13.215  0.1431E-01  0.1462E+02
    -13.203  0.2941E-01  0.1462E+02
    -13.190  0.9151E+00  0.1464E+02
    -13.178  0.3412E+01  0.1468E+02
    -13.165  0.2930E+01  0.1471E+02
    -13.153  0.4043E+00  0.1472E+02
    -13.140  0.4793E-02  0.1472E+02
    -13.128  0.3572E-04  0.1472E+02
    -13.115  0.1957E-01  0.1472E+02
    -13.103  0.6998E+00  0.1473E+02
    -13.090  0.1975E+01  0.1475E+02
    -13.078  0.1684E+01  0.1477E+02
    -13.066  0.1960E+01  0.1480E+02
    -13.053  0.2191E+01  0.1483E+02
    -13.041  0.2900E+01  0.1486E+02
    -13.028  0.2220E+01  0.1489E+02
    -13.016  0.3718E+00  0.1489E+02
    -13.003  0.1857E+01  0.1492E+02
    -12.991  0.3049E+01  0.1496E+02
    -12.978  0.1041E+01  0.1497E+02
    -12.966  0.4092E-01  0.1497E+02
    -12.953  0.8583E-03  0.1497E+02
    -12.941  0.9583E-01  0.1497E+02
    -12.928  0.8144E+00  0.1498E+02
    -12.916  0.6713E+00  0.1499E+02
    -12.903  0.1826E+01  0.1501E+02
    -12.891  0.4674E+01  0.1507E+02
    -12.878  0.2538E+01  0.1510E+02
    -12.866  0.1655E+01  0.1512E+02
    -12.853  0.2566E+01  0.1515E+02
    -12.841  0.5417E+00  0.1516E+02
    -12.829  0.4375E-01  0.1516E+02
    -12.816  0.6428E+00  0.1517E+02
    -12.804  0.2455E+01  0.1520E+02
    -12.791  0.5193E+01  0.1527E+02
    -12.779  0.2410E+01  0.1530E+02
    -12.766  0.1740E+01  0.1532E+02
    -12.754  0.2496E+01  0.1535E+02
    -12.741  0.4283E+00  0.1535E+02
    -12.729  0.6002E+00  0.1536E+02
    -12.716  0.2154E+01  0.1539E+02
    -12.704  0.2734E+01  0.1542E+02
    -12.691  0.3006E+01  0.1546E+02
    -12.679  0.7158E+00  0.1547E+02
    -12.666  0.1738E-01  0.1547E+02
    -12.654  0.2624E-04  0.1547E+02
    -12.641  0.2981E-04  0.1547E+02
    -12.629  0.1778E-01  0.1547E+02
    -12.616  0.7411E+00  0.1548E+02
    -12.604  0.3451E+01  0.1552E+02
    -12.591  0.3634E+01  0.1557E+02
    -12.579  0.1597E+01  0.1559E+02
    -12.567  0.2016E+01  0.1561E+02
    -12.554  0.2603E+01  0.1564E+02
    -12.542  0.1282E+01  0.1566E+02
    -12.529  0.8674E+00  0.1567E+02
    -12.517  0.2191E+01  0.1570E+02
    -12.504  0.2208E+01  0.1573E+02
    -12.492  0.9055E+00  0.1574E+02
    -12.479  0.4537E-01  0.1574E+02
    -12.467  0.5226E+00  0.1574E+02
    -12.454  0.1930E+01  0.1577E+02
    -12.442  0.1280E+01  0.1578E+02
    -12.429  0.1921E+01  0.1581E+02
    -12.417  0.5402E+00  0.1581E+02
    -12.404  0.1130E+01  0.1583E+02
    -12.392  0.2542E+01  0.1586E+02
    -12.379  0.2075E+01  0.1589E+02
    -12.367  0.3568E+00  0.1589E+02
    -12.354  0.5415E-02  0.1589E+02
    -12.342  0.8508E-01  0.1589E+02
    -12.330  0.7988E+00  0.1590E+02
    -12.317  0.1328E+01  0.1592E+02
    -12.305  0.3922E+01  0.1597E+02
    -12.292  0.2973E+01  0.1600E+02
    -12.280  0.2205E+01  0.1603E+02
    -12.267  0.9662E+00  0.1604E+02
    -12.255  0.5573E+00  0.1605E+02
    -12.242  0.3450E+01  0.1609E+02
    -12.230  0.2078E+01  0.1612E+02
    -12.217  0.1048E+00  0.1612E+02