  15  15   0   4
  0.2050571E+02  0.4866000E-09  0.4866000E-09  0.1500000E-08  0.5000000E-15
  1.000000000000000E-004
  CAR 
 Lattice                                 
     10.24928962    -21.63181591  301     -0.36128362      1.00000000
    -21.632  0.0000E+00  0.0000E+00  0.0000E+00  0.0000E+00
    -21.526  0.0000E+00  0.0000E+00  0.0000E+00  0.0000E+00
    -21.419  0.0000E+00  0.0000E+00  0.0000E+00  0.0000E+00
    -21.313  0.0000E+00  0.0000E+00  0.0000E+00  0.0000E+00
    -21.207  0.0000E+00  0.0000E+00  0.0000E+00  0.0000E+00
    -21.100  0.0000E+00  0.0000E+00  0.0000E+00  0.0000E+00
    -20.994  0.0000E+00  0.0000E+00  0.0000E+00  0.0000E+00
    -20.888  0.0000E+00  0.0000E+00  0.0000E+00  0.0000E+00
    -20.782  0.0000E+00  0.0000E+00  0.0000E+00  0.0000E+00
    -20.675  0.8815E-15  0.8815E-15  0.9368E-16  0.9367E-16
    -20.569  0.1390E-10  0.1390E-10  0.1478E-11  0.1478E-11
    -20.463  0.2692E-07  0.2692E-07  0.2862E-08  0.2862E-08
    -20.357  0.7024E-05  0.7024E-05  0.7493E-06  0.7493E-06
    -20.250  0.2754E-03  0.2754E-03  0.3002E-04  0.3002E-04
    -20.144  0.1987E-02  0.1987E-02  0.2412E-03  0.2412E-03
    -20.038  0.4172E-02  0.4172E-02  0.6846E-03  0.6846E-03
    -19.931  0.4554E-02  0.4554E-02  0.1168E-02  0.1168E-02
    -19.825  0.4959E-02  0.4959E-02  0.1695E-02  0.1695E-02
    -19.719  0.4194E-02  0.4194E-02  0.2141E-02  0.2141E-02
    -19.613  0.5412E-02  0.5412E-02  0.2716E-02  0.2716E-02
    -19.506  0.4225E-02  0.4225E-02  0.3165E-02  0.3165E-02
    -19.400  0.4323E-02  0.4323E-02  0.3625E-02  0.3625E-02
    -19.294  0.6025E-02  0.6025E-02  0.4265E-02  0.4265E-02
    -19.188  0.3798E-02  0.3798E-02  0.4669E-02  0.4669E-02
    -19.081  0.3972E-02  0.3972E-02  0.5091E-02  0.5091E-02
    -18.975  0.6156E-02  0.6156E-02  0.5745E-02  0.5745E-02
    -18.869  0.5186E-02  0.5186E-02  0.6296E-02  0.6296E-02
    -18.763  0.2945E-02  0.2945E-02  0.6609E-02  0.6609E-02
    -18.656  0.4542E-02  0.4542E-02  0.7092E-02  0.7092E-02
    -18.550  0.6911E-02  0.6911E-02  0.7826E-02  0.7826E-02
    -18.444  0.4528E-02  0.4528E-02  0.8307E-02  0.8307E-02
    -18.337  0.3781E-02  0.3781E-02  0.8709E-02  0.8709E-02
    -18.231  0.3078E-02  0.3078E-02  0.9036E-02  0.9036E-02
    -18.125  0.6806E-02  0.6806E-02  0.9760E-02  0.9760E-02
    -18.019  0.6508E-02  0.6508E-02  0.1045E-01  0.1045E-01
    -17.912  0.3449E-02  0.3449E-02  0.1082E-01  0.1082E-01
    -17.806  0.3389E-02  0.3389E-02  0.1118E-01  0.1118E-01
    -17.700  0.4177E-02  0.4177E-02  0.1162E-01  0.1162E-01
    -17.594  0.6409E-02  0.6409E-02  0.1230E-01  0.1230E-01
    -17.487  0.6710E-02  0.6710E-02  0.1302E-01  0.1302E-01
    -17.381  0.5756E-02  0.5756E-02  0.1363E-01  0.1363E-01
    -17.275  0.6936E-02  0.6937E-02  0.1436E-01  0.1436E-01
    -17.168  0.1074E-01  0.1074E-01  0.1551E-01  0.1551E-01
    -17.062  0.1493E-01  0.1493E-01  0.1709E-01  0.1709E-01
    -16.956  0.1589E-01  0.1589E-01  0.1878E-01  0.1878E-01
    -16.850  0.1784E-01  0.1784E-01  0.2068E-01  0.2068E-01
    -16.743  0.2123E-01  0.2123E-01  0.2293E-01  0.2293E-01
    -16.637  0.1463E-01  0.1463E-01  0.2449E-01  0.2449E-01
    -16.531  0.4421E-02  0.4421E-02  0.2496E-01  0.2496E-01
    -16.425  0.7773E-02  0.7773E-02  0.2578E-01  0.2578E-01
    -16.318  0.7770E-02  0.7770E-02  0.2661E-01  0.2661E-01
    -16.212  0.4521E-02  0.4521E-02  0.2709E-01  0.2709E-01
    -16.106  0.4107E-02  0.4107E-02  0.2753E-01  0.2753E-01
    -15.999  0.3977E-02  0.3977E-02  0.2795E-01  0.2795E-01
    -15.893  0.3657E-02  0.3657E-02  0.2834E-01  0.2834E-01
    -15.787  0.4089E-02  0.4089E-02  0.2877E-01  0.2877E-01
    -15.681  0.8573E-02  0.8573E-02  0.2968E-01  0.2968E-01
    -15.574  0.7556E-02  0.7556E-02  0.3049E-01  0.3049E-01
    -15.468  0.3826E-02  0.3826E-02  0.3089E-01  0.3089E-01
    -15.362  0.3863E-02  0.3863E-02  0.3130E-01  0.3130E-01
    -15.256  0.3538E-02  0.3538E-02  0.3168E-01  0.3168E-01
    -15.149  0.4826E-02  0.4826E-02  0.3219E-01  0.3219E-01
    -15.043  0.6607E-02  0.6607E-02  0.3289E-01  0.3289E-01
    -14.937  0.1184E-01  0.1184E-01  0.3415E-01  0.3415E-01
    -14.831  0.1733E-01  0.1733E-01  0.3599E-01  0.3599E-01
    -14.724  0.1865E-01  0.1865E-01  0.3798E-01  0.3798E-01
    -14.618  0.1677E-01  0.1677E-01  0.3976E-01  0.3976E-01
    -14.512  0.9838E-02  0.9838E-02  0.4080E-01  0.4080E-01
    -14.405  0.8525E-02  0.8525E-02  0.4171E-01  0.4171E-01
    -14.299  0.1631E-01  0.1631E-01  0.4344E-01  0.4344E-01
    -14.193  0.1432E-01  0.1432E-01  0.4496E-01  0.4496E-01
    -14.087  0.1078E-01  0.1078E-01  0.4611E-01  0.4611E-01
    -13.980  0.1070E-01  0.1070E-01  0.4725E-01  0.4725E-01
    -13.874  0.1348E-01  0.1348E-01  0.4868E-01  0.4868E-01
    -13.768  0.2022E-01  0.2022E-01  0.5083E-01  0.5083E-01
    -13.662  0.1950E-01  0.1950E-01  0.5290E-01  0.5290E-01
    -13.555  0.1744E-01  0.1744E-01  0.5475E-01  0.5475E-01
    -13.449  0.9761E-02  0.9761E-02  0.5579E-01  0.5579E-01
    -13.343  0.6334E-02  0.6334E-02  0.5646E-01  0.5646E-01
    -13.236  0.3408E-02  0.3408E-02  0.5683E-01  0.5683E-01
    -13.130  0.4346E-02  0.4346E-02  0.5729E-01  0.5729E-01
    -13.024  0.7192E-02  0.7192E-02  0.5805E-01  0.5805E-01
    -12.918  0.6620E-02  0.6620E-02  0.5876E-01  0.5876E-01
    -12.811  0.4939E-02  0.4939E-02  0.5928E-01  0.5928E-01
    -12.705  0.7346E-02  0.7346E-02  0.6006E-01  0.6006E-01
    -12.599  0.6869E-02  0.6869E-02  0.6079E-01  0.6079E-01
    -12.493  0.5501E-02  0.5501E-02  0.6138E-01  0.6138E-01
    -12.386  0.5298E-02  0.5298E-02  0.6194E-01  0.6194E-01
    -12.280  0.3218E-02  0.3218E-02  0.6228E-01  0.6228E-01
    -12.174  0.7102E-02  0.7102E-02  0.6304E-01  0.6304E-01
    -12.067  0.7710E-02  0.7710E-02  0.6386E-01  0.6386E-01
    -11.961  0.2922E-02  0.2922E-02  0.6417E-01  0.6417E-01
    -11.855  0.3461E-02  0.3461E-02  0.6453E-01  0.6453E-01
    -11.749  0.3565E-02  0.3565E-02  0.6491E-01  0.6491E-01
    -11.642  0.6669E-02  0.6669E-02  0.6562E-01  0.6562E-01
    -11.536  0.6279E-02  0.6279E-02  0.6629E-01  0.6629E-01
    -11.430  0.3289E-02  0.3289E-02  0.6664E-01  0.6664E-01
    -11.324  0.2157E-02  0.2157E-02  0.6687E-01  0.6687E-01
    -11.217  0.4860E-02  0.4860E-02  0.6738E-01  0.6738E-01
    -11.111  0.5802E-02  0.5802E-02  0.6800E-01  0.6800E-01
    -11.005  0.4988E-02  0.4988E-02  0.6853E-01  0.6853E-01
    -10.899  0.7541E-02  0.7541E-02  0.6933E-01  0.6933E-01
    -10.792  0.5924E-02  0.5924E-02  0.6996E-01  0.6996E-01
    -10.686  0.2664E-02  0.2664E-02  0.7024E-01  0.7024E-01
    -10.580  0.8349E-02  0.8349E-02  0.7113E-01  0.7113E-01
    -10.473  0.1357E-01  0.1357E-01  0.7257E-01  0.7257E-01
    -10.367  0.1526E-01  0.1526E-01  0.7420E-01  0.7420E-01
    -10.261  0.1386E-01  0.1386E-01  0.7567E-01  0.7567E-01
    -10.155  0.1498E-01  0.1498E-01  0.7726E-01  0.7726E-01
    -10.048  0.1885E-01  0.1885E-01  0.7926E-01  0.7926E-01
     -9.942  0.1834E-01  0.1834E-01  0.8121E-01  0.8121E-01
     -9.836  0.9444E-02  0.9444E-02  0.8222E-01  0.8222E-01
     -9.730  0.7259E-02  0.7259E-02  0.8299E-01  0.8299E-01
     -9.623  0.1465E-01  0.1465E-01  0.8454E-01  0.8454E-01
     -9.517  0.1536E-01  0.1536E-01  0.8618E-01  0.8618E-01
     -9.411  0.1649E-01  0.1649E-01  0.8793E-01  0.8793E-01
     -9.304  0.1542E-01  0.1542E-01  0.8957E-01  0.8957E-01
     -9.198  0.1387E-01  0.1387E-01  0.9104E-01  0.9104E-01
     -9.092  0.1050E-01  0.1050E-01  0.9216E-01  0.9216E-01
     -8.986  0.8683E-02  0.8683E-02  0.9308E-01  0.9308E-01
     -8.879  0.1571E-01  0.1571E-01  0.9475E-01  0.9475E-01
     -8.773  0.1965E-01  0.1965E-01  0.9684E-01  0.9684E-01
     -8.667  0.1463E-01  0.1463E-01  0.9839E-01  0.9839E-01
     -8.561  0.7695E-02  0.7695E-02  0.9921E-01  0.9921E-01
     -8.454  0.1221E-01  0.1221E-01  0.1005E+00  0.1005E+00
     -8.348  0.2017E-01  0.2017E-01  0.1027E+00  0.1027E+00
     -8.242  0.1655E-01  0.1655E-01  0.1044E+00  0.1044E+00
     -8.135  0.1233E-01  0.1233E-01  0.1057E+00  0.1057E+00
     -8.029  0.1723E-01  0.1722E-01  0.1076E+00  0.1076E+00
     -7.923  0.2543E-01  0.2543E-01  0.1103E+00  0.1103E+00
     -7.817  0.2545E-01  0.2545E-01  0.1130E+00  0.1130E+00
     -7.710  0.1760E-01  0.1760E-01  0.1148E+00  0.1148E+00
     -7.604  0.1025E-01  0.1025E-01  0.1159E+00  0.1159E+00
     -7.498  0.9050E-02  0.9050E-02  0.1169E+00  0.1169E+00
     -7.392  0.1817E-01  0.1817E-01  0.1188E+00  0.1188E+00
     -7.285  0.1829E-01  0.1829E-01  0.1208E+00  0.1208E+00
     -7.179  0.1249E-01  0.1249E-01  0.1221E+00  0.1221E+00
     -7.073  0.1024E-01  0.1024E-01  0.1232E+00  0.1232E+00
     -6.967  0.1626E-01  0.1626E-01  0.1249E+00  0.1249E+00
     -6.860  0.1916E-01  0.1916E-01  0.1269E+00  0.1269E+00
     -6.754  0.2140E-01  0.2140E-01  0.1292E+00  0.1292E+00
     -6.648  0.2053E-01  0.2053E-01  0.1314E+00  0.1314E+00
     -6.541  0.1652E-01  0.1652E-01  0.1331E+00  0.1331E+00
     -6.435  0.2062E-01  0.2062E-01  0.1353E+00  0.1353E+00
     -6.329  0.1817E-01  0.1817E-01  0.1373E+00  0.1373E+00
     -6.223  0.1994E-01  0.1994E-01  0.1394E+00  0.1394E+00
     -6.116  0.2674E-01  0.2674E-01  0.1422E+00  0.1422E+00
     -6.010  0.2152E-01  0.2152E-01  0.1445E+00  0.1445E+00
     -5.904  0.3155E-01  0.3155E-01  0.1479E+00  0.1479E+00
     -5.798  0.2970E-01  0.2970E-01  0.1510E+00  0.1510E+00
     -5.691  0.1694E-01  0.1694E-01  0.1528E+00  0.1528E+00
     -5.585  0.1836E-01  0.1836E-01  0.1548E+00  0.1548E+00
     -5.479  0.3329E-01  0.3329E-01  0.1583E+00  0.1583E+00
     -5.372  0.3708E-01  0.3708E-01  0.1623E+00  0.1623E+00
     -5.266  0.2189E-01  0.2190E-01  0.1646E+00  0.1646E+00
     -5.160  0.1546E-01  0.1546E-01  0.1662E+00  0.1662E+00
     -5.054  0.1092E-01  0.1092E-01  0.1674E+00  0.1674E+00
     -4.947  0.1235E-01  0.1235E-01  0.1687E+00  0.1687E+00
     -4.841  0.1379E-01  0.1379E-01  0.1702E+00  0.1702E+00
     -4.735  0.9604E-02  0.9604E-02  0.1712E+00  0.1712E+00
     -4.629  0.7139E-02  0.7139E-02  0.1719E+00  0.1719E+00
     -4.522  0.1012E-01  0.1012E-01  0.1730E+00  0.1730E+00
     -4.416  0.1910E-01  0.1910E-01  0.1750E+00  0.1750E+00
     -4.310  0.2188E-01  0.2188E-01  0.1774E+00  0.1774E+00
     -4.203  0.1955E-01  0.1955E-01  0.1795E+00  0.1795E+00
     -4.097  0.1818E-01  0.1818E-01  0.1814E+00  0.1814E+00
     -3.991  0.2145E-01  0.2145E-01  0.1837E+00  0.1837E+00
     -3.885  0.2297E-01  0.2297E-01  0.1861E+00  0.1861E+00
     -3.778  0.1822E-01  0.1822E-01  0.1880E+00  0.1880E+00
     -3.672  0.1907E-01  0.1907E-01  0.1901E+00  0.1901E+00
     -3.566  0.2062E-01  0.2062E-01  0.1923E+00  0.1923E+00
     -3.460  0.1589E-01  0.1589E-01  0.1939E+00  0.1939E+00
     -3.353  0.1305E-01  0.1305E-01  0.1953E+00  0.1953E+00
     -3.247  0.1226E-01  0.1226E-01  0.1966E+00  0.1966E+00
     -3.141  0.1742E-01  0.1742E-01  0.1985E+00  0.1985E+00
     -3.035  0.1843E-01  0.1843E-01  0.2004E+00  0.2004E+00
     -2.928  0.1193E-01  0.1193E-01  0.2017E+00  0.2017E+00
     -2.822  0.1206E-01  0.1206E-01  0.2030E+00  0.2030E+00
     -2.716  0.7797E-02  0.7797E-02  0.2038E+00  0.2038E+00
     -2.609  0.9756E-02  0.9756E-02  0.2049E+00  0.2049E+00
     -2.503  0.1878E-01  0.1878E-01  0.2069E+00  0.2069E+00
     -2.397  0.1555E-01  0.1555E-01  0.2085E+00  0.2085E+00
     -2.291  0.4444E-02  0.4444E-02  0.2090E+00  0.2090E+00
     -2.184  0.5313E-02  0.5313E-02  0.2095E+00  0.2095E+00
     -2.078  0.1072E-01  0.1072E-01  0.2107E+00  0.2107E+00
     -1.972  0.9922E-02  0.9921E-02  0.2117E+00  0.2117E+00
     -1.866  0.1123E-01  0.1123E-01  0.2129E+00  0.2129E+00
     -1.759  0.1126E-01  0.1126E-01  0.2141E+00  0.2141E+00
     -1.653  0.9698E-02  0.9699E-02  0.2152E+00  0.2152E+00
     -1.547  0.7241E-02  0.7241E-02  0.2159E+00  0.2159E+00
     -1.440  0.4152E-02  0.4151E-02  0.2164E+00  0.2164E+00
     -1.334  0.4146E-02  0.4146E-02  0.2168E+00  0.2168E+00
     -1.228  0.4010E-02  0.4010E-02  0.2172E+00  0.2172E+00
     -1.122  0.3887E-02  0.3887E-02  0.2177E+00  0.2177E+00
     -1.015  0.5792E-02  0.5792E-02  0.2183E+00  0.2183E+00
     -0.909  0.2885E-02  0.2885E-02  0.2186E+00  0.2186E+00
     -0.803  0.5806E-03  0.5806E-03  0.2186E+00  0.2186E+00
     -0.697  0.6285E-04  0.6284E-04  0.2186E+00  0.2186E+00
     -0.590  0.2608E-05  0.2608E-05  0.2186E+00  0.2186E+00
     -0.484  0.8378E-04  0.8378E-04  0.2187E+00  0.2187E+00
     -0.378  0.7485E-03  0.7484E-03  0.2187E+00  0.2187E+00
     -0.271  0.9993E-03  0.9993E-03  0.2188E+00  0.2188E+00
     -0.165  0.2036E-03  0.2036E-03  0.2189E+00  0.2189E+00
     -0.059  0.5756E-05  0.5757E-05  0.2189E+00  0.2189E+00
      0.047  0.4140E-06  0.4140E-06  0.2189E+00  0.2189E+00
      0.154  0.6074E-04  0.6073E-04  0.2189E+00  0.2189E+00
      0.260  0.1192E-02  0.1192E-02  0.2190E+00  0.2190E+00
      0.366  0.3347E-02  0.3347E-02  0.2193E+00  0.2193E+00
      0.472  0.1543E-02  0.1543E-02  0.2195E+00  0.2195E+00
      0.579  0.1341E-02  0.1341E-02  0.2197E+00  0.2197E+00
      0.685  0.3801E-02  0.3801E-02  0.2201E+00  0.2201E+00
      0.791  0.5837E-02  0.5838E-02  0.2207E+00  0.2207E+00
      0.897  0.1198E-01  0.1198E-01  0.2220E+00  0.2220E+00
      1.004  0.2556E-01  0.2556E-01  0.2247E+00  0.2247E+00
      1.110  0.1728E-01  0.1728E-01  0.2265E+00  0.2265E+00
      1.216  0.5057E-02  0.5057E-02  0.2270E+00  0.2270E+00
      1.323  0.3754E-02  0.3754E-02  0.2274E+00  0.2274E+00
      1.429  0.8736E-02  0.8736E-02  0.2284E+00  0.2284E+00
      1.535  0.1568E-01  0.1568E-01  0.2300E+00  0.2300E+00
      1.641  0.2005E-01  0.2005E-01  0.2322E+00  0.2322E+00
      1.748  0.1290E-01  0.1290E-01  0.2335E+00  0.2335E+00
      1.854  0.6141E-02  0.6141E-02  0.2342E+00  0.2342E+00
      1.960  0.8484E-02  0.8484E-02  0.2351E+00  0.2351E+00
      2.066  0.9662E-02  0.9662E-02  0.2361E+00  0.2361E+00
      2.173  0.6873E-02  0.6873E-02  0.2368E+00  0.2368E+00
      2.279  0.8947E-02  0.8947E-02  0.2378E+00  0.2378E+00
      2.385  0.7166E-02  0.7166E-02  0.2386E+00  0.2386E+00
      2.492  0.1140E-01  0.1140E-01  0.2398E+00  0.2398E+00
      2.598  0.1037E-01  0.1037E-01  0.2409E+00  0.2409E+00
      2.704  0.5808E-02  0.5808E-02  0.2415E+00  0.2415E+00
      2.810  0.4775E-02  0.4773E-02  0.2420E+00  0.2420E+00
      2.917  0.9847E-02  0.9840E-02  0.2430E+00  0.2430E+00
      3.023  0.1152E-01  0.1152E-01  0.2443E+00  0.2443E+00
      3.129  0.8566E-02  0.8566E-02  0.2452E+00  0.2452E+00
      3.235  0.1033E-01  0.1033E-01  0.2463E+00  0.2463E+00
      3.342  0.1065E-01  0.1065E-01  0.2474E+00  0.2474E+00
      3.448  0.1182E-01  0.1183E-01  0.2487E+00  0.2487E+00
      3.554  0.1943E-01  0.1943E-01  0.2507E+00  0.2507E+00
      3.661  0.2599E-01  0.2599E-01  0.2535E+00  0.2535E+00
      3.767  0.2478E-01  0.2477E-01  0.2561E+00  0.2561E+00
      3.873  0.2178E-01  0.2178E-01  0.2584E+00  0.2584E+00
      3.979  0.2441E-01  0.2441E-01  0.2610E+00  0.2610E+00
      4.086  0.2458E-01  0.2457E-01  0.2636E+00  0.2636E+00
      4.192  0.2405E-01  0.2404E-01  0.2662E+00  0.2662E+00
      4.298  0.2371E-01  0.2371E-01  0.2687E+00  0.2687E+00
      4.404  0.2238E-01  0.2238E-01  0.2711E+00  0.2711E+00
      4.511  0.2110E-01  0.2111E-01  0.2733E+00  0.2733E+00
      4.617  0.2119E-01  0.2116E-01  0.2756E+00  0.2756E+00
      4.723  0.2732E-01  0.2730E-01  0.2785E+00  0.2785E+00
      4.830  0.2335E-01  0.2336E-01  0.2810E+00  0.2810E+00
      4.936  0.2113E-01  0.2114E-01  0.2832E+00  0.2832E+00
      5.042  0.2542E-01  0.2539E-01  0.2859E+00  0.2859E+00
      5.148  0.2893E-01  0.2895E-01  0.2890E+00  0.2890E+00
      5.255  0.2534E-01  0.2535E-01  0.2917E+00  0.2917E+00
      5.361  0.2074E-01  0.2073E-01  0.2939E+00  0.2939E+00
      5.467  0.2295E-01  0.2294E-01  0.2963E+00  0.2963E+00
      5.573  0.2442E-01  0.2443E-01  0.2989E+00  0.2989E+00
      5.680  0.1971E-01  0.1968E-01  0.3010E+00  0.3010E+00
      5.786  0.2336E-01  0.2338E-01  0.3035E+00  0.3035E+00
      5.892  0.2073E-01  0.2075E-01  0.3057E+00  0.3057E+00
      5.998  0.2011E-01  0.2011E-01  0.3078E+00  0.3078E+00
      6.105  0.1613E-01  0.1613E-01  0.3096E+00  0.3096E+00
      6.211  0.2010E-01  0.2007E-01  0.3117E+00  0.3117E+00
      6.317  0.2204E-01  0.2205E-01  0.3140E+00  0.3140E+00
      6.424  0.2289E-01  0.2289E-01  0.3165E+00  0.3165E+00
      6.530  0.2761E-01  0.2762E-01  0.3194E+00  0.3194E+00
      6.636  0.2893E-01  0.2890E-01  0.3225E+00  0.3225E+00
      6.742  0.3097E-01  0.3096E-01  0.3258E+00  0.3258E+00
      6.849  0.2518E-01  0.2517E-01  0.3284E+00  0.3284E+00
      6.955  0.2677E-01  0.2677E-01  0.3313E+00  0.3313E+00
      7.061  0.2387E-01  0.2390E-01  0.3338E+00  0.3338E+00
      7.167  0.2178E-01  0.2178E-01  0.3361E+00  0.3361E+00
      7.274  0.2015E-01  0.2017E-01  0.3383E+00  0.3383E+00
      7.380  0.1868E-01  0.1862E-01  0.3403E+00  0.3403E+00
      7.486  0.2596E-01  0.2596E-01  0.3430E+00  0.3430E+00
      7.593  0.2594E-01  0.2595E-01  0.3458E+00  0.3458E+00
      7.699  0.3420E-01  0.3417E-01  0.3494E+00  0.3494E+00
      7.805  0.3154E-01  0.3155E-01  0.3528E+00  0.3528E+00
      7.911  0.2493E-01  0.2494E-01  0.3554E+00  0.3554E+00
      8.018  0.3327E-01  0.3324E-01  0.3590E+00  0.3589E+00
      8.124  0.3845E-01  0.3850E-01  0.3630E+00  0.3630E+00
      8.230  0.3694E-01  0.3697E-01  0.3670E+00  0.3670E+00
      8.336  0.3320E-01  0.3320E-01  0.3705E+00  0.3705E+00
      8.443  0.2220E-01  0.2223E-01  0.3729E+00  0.3729E+00
      8.549  0.1058E-01  0.1060E-01  0.3740E+00  0.3740E+00
      8.655  0.4034E-02  0.4045E-02  0.3744E+00  0.3744E+00
      8.762  0.2871E-02  0.2873E-02  0.3747E+00  0.3747E+00
      8.868  0.2122E-02  0.2123E-02  0.3749E+00  0.3749E+00
      8.974  0.5077E-03  0.5081E-03  0.3750E+00  0.3750E+00
      9.080  0.2064E-04  0.2067E-04  0.3750E+00  0.3750E+00
      9.187  0.1084E-06  0.1087E-06  0.3750E+00  0.3750E+00
      9.293  0.6646E-10  0.6667E-10  0.3750E+00  0.3750E+00
      9.399  0.4543E-14  0.4562E-14  0.3750E+00  0.3750E+00
      9.505  0.0000E+00  0.0000E+00  0.3750E+00  0.3750E+00
      9.612  0.0000E+00  0.0000E+00  0.3750E+00  0.3750E+00
      9.718  0.0000E+00  0.0000E+00  0.3750E+00  0.3750E+00
      9.824  0.0000E+00  0.0000E+00  0.3750E+00  0.3750E+00
      9.930  0.0000E+00  0.0000E+00  0.3750E+00  0.3750E+00
     10.037  0.0000E+00  0.0000E+00  0.3750E+00  0.3750E+00
     10.143  0.0000E+00  0.0000E+00  0.3750E+00  0.3750E+00
     10.249  0.0000E+00  0.0000E+00  0.3750E+00  0.3750E+00
