Lattice                                 
           1
     4.214080    2.433000    0.000000
    -4.214080    2.433000    0.000000
     0.000000    0.000000   15.000000
   B    C 
     4    11
Direct configuration=     1
   0.00415361  0.00267210  0.12034134
   0.35695335  0.00285503  0.09748893
   0.00423858  0.35550699  0.09749256
   0.65142295  0.65006557  0.09747688
   0.32808646  0.32671938  0.10030508
   0.68027775  0.00278085  0.10027562
   0.00416530  0.67883808  0.10026559
   0.11111044  0.38888856  0.33726667
   0.27777744  0.22222156  0.33726667
   0.11111044  0.88888856  0.33726667
   0.27777744  0.72222156  0.33726667
   0.61111044  0.38888856  0.33726667
   0.77777744  0.22222156  0.33726667
   0.61111044  0.88888856  0.33726667
   0.77777744  0.72222156  0.33726667
Direct configuration=     2
   0.00416626  0.00269169  0.11892943
   0.35559640  0.00279406  0.09785662
   0.00419104  0.35438165  0.09791378
   0.65266880  0.65120292  0.09788410
   0.32438562  0.32285677  0.10031492
   0.68424805  0.00279414  0.10032960
   0.00422433  0.68255911  0.10028436
   0.11103756  0.38899063  0.33728132
   0.27791108  0.22234007  0.33735648
   0.11129719  0.88902395  0.33729359
   0.27796954  0.72221898  0.33720654
   0.61107280  0.38883685  0.33720154
   0.77773849  0.22227069  0.33729059
   0.61092597  0.88883607  0.33734455
   0.77741642  0.72208087  0.33729193
Direct configuration=     3
   0.00416018  0.00268227  0.11960852
   0.35624906  0.00282338  0.09767978
   0.00421391  0.35492291  0.09771119
   0.65206958  0.65065589  0.09768824
   0.32616562  0.32471457  0.10031019
   0.68233845  0.00278775  0.10030364
   0.00419594  0.68076940  0.10027533
   0.11107262  0.38894154  0.33727427
   0.27784681  0.22228307  0.33731328
   0.11120737  0.88895883  0.33728064
   0.27787715  0.72222022  0.33723546
   0.61109090  0.38886172  0.33723286
   0.77775723  0.22224706  0.33727908
   0.61101469  0.88886131  0.33730709
   0.77759006  0.72214853  0.33727978
Direct configuration=     4
   0.00416770  0.00271772  0.11835762
   0.35676335  0.00275991  0.09802480
   0.00421099  0.35543416  0.09810998
   0.65162195  0.65007592  0.09807241
   0.32636585  0.32478918  0.10028367
   0.68223051  0.00278350  0.10031904
   0.00424040  0.68061628  0.10025736
   0.11109641  0.38887867  0.33729192
   0.27767637  0.22224715  0.33738802
   0.11097631  0.88885809  0.33731132
   0.27765503  0.72226805  0.33719384
   0.61108656  0.38892597  0.33719011
   0.77773523  0.22222540  0.33730100
   0.61115094  0.88897150  0.33737340
   0.77787198  0.72232692  0.33730486
Direct configuration=     5
   0.00419028  0.00282408  0.11460491
   0.35830622  0.00256950  0.09905988
   0.00420223  0.35696794  0.09930637
   0.65027907  0.64833602  0.09922493
   0.32696652  0.32501300  0.10020411
   0.68190671  0.00277076  0.10036524
   0.00437378  0.68015692  0.10020345
   0.11116778  0.38869008  0.33734487
   0.27716505  0.22213939  0.33761223
   0.11028311  0.88855589  0.33740336
   0.27698866  0.72241155  0.33706896
   0.61107351  0.38911873  0.33706185
   0.77766924  0.22216043  0.33736673
   0.61155966  0.88930207  0.33757232
   0.77871773  0.72286208  0.33738011
Direct configuration=     6
   0.00419739  0.00282755  0.11406503
   0.35846341  0.00255067  0.09917390
   0.00421661  0.35709729  0.09943580
   0.65016128  0.64817518  0.09935004
   0.32709827  0.32511318  0.10023347
   0.68179358  0.00275493  0.10040782
   0.00438597  0.68004018  0.10023595
   0.11108960  0.38881795  0.33735216
   0.27733040  0.22218275  0.33762738
   0.11054482  0.88875788  0.33741497
   0.27722354  0.72239298  0.33707032
   0.61102762  0.38909036  0.33706399
   0.77766966  0.22223211  0.33737381
   0.61133516  0.88918289  0.33758598
   0.77831225  0.72266255  0.33738870
Direct configuration=     7
   0.00421870  0.00283797  0.11244539
   0.35893499  0.00249416  0.09951594
   0.00425975  0.35748535  0.09982408
   0.64980792  0.64769265  0.09972539
   0.32749352  0.32541370  0.10032158
   0.68145418  0.00270747  0.10053556
   0.00442255  0.67968998  0.10033343
   0.11085504  0.38920154  0.33737401
   0.27782645  0.22231281  0.33767283
   0.11132994  0.88936385  0.33744983
   0.27792819  0.72233729  0.33707440
   0.61088996  0.38900526  0.33707043
   0.77767090  0.22244715  0.33739504
   0.61066168  0.88882533  0.33762695
   0.77709579  0.72206393  0.33741447
Direct configuration=     8
   0.00423529  0.00281854  0.11188156
   0.35894138  0.00248852  0.09958464
   0.00429488  0.35744601  0.09989461
   0.64984151  0.64770786  0.09979513
   0.32757678  0.32549569  0.10041395
   0.68137339  0.00267284  0.10063257
   0.00442788  0.67960504  0.10042745
   0.11085997  0.38918730  0.33738107
   0.27783263  0.22242290  0.33766219
   0.11129802  0.88930009  0.33745800
   0.27792831  0.72235987  0.33710633
   0.61088630  0.38896352  0.33710439
   0.77761609  0.22244557  0.33739912
   0.61066042  0.88886240  0.33761789
   0.77707670  0.72210228  0.33742042
Direct configuration=     9
   0.00428506  0.00276026  0.11019008
   0.35896055  0.00247160  0.09979076
   0.00440027  0.35732800  0.10010623
   0.64994226  0.64775351  0.10000433
   0.32782656  0.32574167  0.10069108
   0.68113100  0.00256893  0.10092360
   0.00444388  0.67935024  0.10070950
   0.11087477  0.38914460  0.33740226
   0.27785118  0.22275315  0.33763026
   0.11120224  0.88910881  0.33748250
   0.27792868  0.72242759  0.33720214
   0.61087532  0.38883830  0.33720624
   0.77745166  0.22244084  0.33741137
   0.61065666  0.88897361  0.33759072
   0.77701944  0.72221733  0.33743826
Direct configuration=    10
   0.00438460  0.00264368  0.10680710
   0.35899889  0.00243776  0.10020300
   0.00461106  0.35709198  0.10052946
   0.65014377  0.64784481  0.10042274
   0.32832614  0.32623363  0.10124532
   0.68064623  0.00236112  0.10150567
   0.00447588  0.67884065  0.10127362
   0.11090436  0.38905920  0.33744464
   0.27788829  0.22341366  0.33756639
   0.11101070  0.88872625  0.33753151
   0.27792941  0.72256304  0.33739376
   0.61085336  0.38858786  0.33740995
   0.77712281  0.22243137  0.33743585
   0.61064913  0.88919602  0.33753639
   0.77690492  0.72244742  0.33747394
Direct configuration=    11
   0.00441681  0.00260918  0.10603077
   0.35903403  0.00243321  0.10031798
   0.00464934  0.35710066  0.10063768
   0.65013224  0.64782307  0.10053271
   0.32835772  0.32625288  0.10135812
   0.68064959  0.00232818  0.10161778
   0.00449330  0.67877845  0.10138784
   0.11084301  0.38910960  0.33745431
   0.27770945  0.22306449  0.33755366
   0.11089410  0.88889632  0.33754116
   0.27774089  0.72251622  0.33743947
   0.61083050  0.38882663  0.33745538
   0.77724216  0.22241928  0.33744440
   0.61072311  0.88925029  0.33752409
   0.77713332  0.72246998  0.33748401
Direct configuration=    12
   0.00446252  0.00256022  0.10492904
   0.35908389  0.00242674  0.10048116
   0.00470366  0.35711299  0.10079125
   0.65011588  0.64779222  0.10068878
   0.32840254  0.32628020  0.10151819
   0.68065435  0.00228143  0.10177688
   0.00451802  0.67869019  0.10154992
   0.11075594  0.38918112  0.33746802
   0.27745566  0.22256896  0.33753558
   0.11072863  0.88913767  0.33755485
   0.27747335  0.72244978  0.33750434
   0.61079805  0.38916548  0.33751987
   0.77741153  0.22240212  0.33745654
   0.61082810  0.88932731  0.33750662
   0.77745744  0.72250200  0.33749830
Direct configuration=    13
   0.00447210  0.00255071  0.10486109
   0.35915213  0.00242595  0.10053296
   0.00468884  0.35720164  0.10083156
   0.65002470  0.64771176  0.10073271
   0.32831240  0.32616783  0.10149285
   0.68078454  0.00230312  0.10174227
   0.00453307  0.67875962  0.10152402
   0.11075450  0.38917579  0.33746971
   0.27743634  0.22249807  0.33754353
   0.11077873  0.88919830  0.33755460
   0.27746736  0.72249706  0.33750261
   0.61077758  0.38917861  0.33751427
   0.77744188  0.22248004  0.33746233
   0.61078955  0.88922123  0.33751240
   0.77743583  0.72250869  0.33750241
Direct configuration=    14
   0.00450084  0.00252220  0.10465722
   0.35935684  0.00242357  0.10068837
   0.00464439  0.35746760  0.10095252
   0.64975118  0.64747035  0.10086451
   0.32804196  0.32583073  0.10141683
   0.68117512  0.00236821  0.10163844
   0.00457822  0.67896793  0.10144632
   0.11075018  0.38915980  0.33747479
   0.27737836  0.22228539  0.33756737
   0.11092904  0.88938018  0.33755386
   0.27744941  0.72263891  0.33749743
   0.61071617  0.38921801  0.33749748
   0.77753294  0.22271381  0.33747972
   0.61067390  0.88890300  0.33752972
   0.77737100  0.72252876  0.33751474
Direct configuration=    15
   0.00450677  0.00250143  0.10457770
   0.35950433  0.00241722  0.10077878
   0.00461898  0.35757847  0.10101892
   0.64960829  0.64733555  0.10093842
   0.32798929  0.32574074  0.10136382
   0.68127144  0.00240344  0.10156404
   0.00459887  0.67903035  0.10139203
   0.11077328  0.38919249  0.33747958
   0.27742235  0.22244901  0.33758346
   0.11083332  0.88927495  0.33755459
   0.27745618  0.72257403  0.33748852
   0.61072381  0.38919299  0.33748424
   0.77744204  0.22257712  0.33748957
   0.61071150  0.88909300  0.33754496
   0.77738909  0.72251765  0.33752070
Direct configuration=    16
   0.00451160  0.00248451  0.10451290
   0.35962451  0.00241206  0.10085245
   0.00459828  0.35766880  0.10107302
   0.64949187  0.64722571  0.10099864
   0.32794638  0.32566742  0.10132063
   0.68134992  0.00243215  0.10150342
   0.00461569  0.67908120  0.10134779
   0.11079211  0.38921913  0.33748349
   0.27745818  0.22258233  0.33759657
   0.11075533  0.88918922  0.33755519
   0.27746169  0.72252117  0.33748126
   0.61073003  0.38917260  0.33747344
   0.77736797  0.22246575  0.33749759
   0.61074214  0.88924780  0.33755738
   0.77740384  0.72250860  0.33752556
Direct configuration=    17
   0.00451072  0.00246887  0.10446283
   0.35967901  0.00240633  0.10089854
   0.00459247  0.35765180  0.10110160
   0.64947779  0.64720240  0.10103266
   0.32801510  0.32571955  0.10129918
   0.68128578  0.00243920  0.10146409
   0.00462018  0.67904630  0.10132523
   0.11073866  0.38920024  0.33748910
   0.27743214  0.22255966  0.33760552
   0.11077034  0.88921573  0.33755811
   0.27746151  0.72253500  0.33747434
   0.61074745  0.38917356  0.33746776
   0.77740142  0.22250841  0.33750279
   0.61074350  0.88922642  0.33756992
   0.77737348  0.72252497  0.33752767
Direct configuration=    18
   0.00450984  0.00245320  0.10441264
   0.35973363  0.00240059  0.10094474
   0.00458665  0.35763477  0.10113024
   0.64946367  0.64717904  0.10106675
   0.32808397  0.32577179  0.10127767
   0.68122149  0.00244626  0.10142467
   0.00462467  0.67901133  0.10130262
   0.11068510  0.38918131  0.33749473
   0.27740604  0.22253694  0.33761449
   0.11078539  0.88924229  0.33756105
   0.27746133  0.72254887  0.33746741
   0.61076492  0.38917452  0.33746207
   0.77743495  0.22255117  0.33750800
   0.61074486  0.88920499  0.33758248
   0.77734305  0.72254138  0.33752979
Direct configuration=    19
   0.00451925  0.00244293  0.10435045
   0.35969347  0.00239920  0.10097183
   0.00459243  0.35757070  0.10114079
   0.64952584  0.64722645  0.10108242
   0.32811689  0.32579400  0.10127736
   0.68120393  0.00243888  0.10140522
   0.00462673  0.67897704  0.10130104
   0.11073097  0.38921321  0.33750094
   0.27740852  0.22251988  0.33762081
   0.11078063  0.88926278  0.33756502
   0.27744238  0.72256411  0.33746446
   0.61072457  0.38919902  0.33746140
   0.77740754  0.22255060  0.33751284
   0.61071463  0.88918571  0.33759305
   0.77736178  0.72253393  0.33753170
Direct configuration=    20
   0.00453206  0.00242894  0.10426578
   0.35963878  0.00239729  0.10100872
   0.00460030  0.35748347  0.10115517
   0.64961049  0.64729100  0.10110376
   0.32816170  0.32582425  0.10127694
   0.68118002  0.00242883  0.10137875
   0.00462953  0.67893036  0.10129889
   0.11079342  0.38925664  0.33750939
   0.27741189  0.22249666  0.33762943
   0.11077414  0.88929068  0.33757042
   0.27741659  0.72258487  0.33746044
   0.61066963  0.38923237  0.33746049
   0.77737024  0.22254983  0.33751942
   0.61067348  0.88915945  0.33760743
   0.77738728  0.72252379  0.33753430
Direct configuration=    21
   0.00454339  0.00242281  0.10420794
   0.35960603  0.00239595  0.10102383
   0.00460832  0.35744494  0.10115844
   0.64965494  0.64732195  0.10111066
   0.32817048  0.32582360  0.10128393
   0.68118759  0.00241932  0.10137064
   0.00463308  0.67891095  0.10130486
   0.11077439  0.38925134  0.33751401
   0.27740416  0.22251990  0.33763385
   0.11076167  0.88928201  0.33757345
   0.27741192  0.72258892  0.33746121
   0.61067300  0.38922783  0.33746210
   0.77736616  0.22255454  0.33752376
   0.61067718  0.88917701  0.33761394
   0.77737724  0.72253738  0.33753671
Direct configuration=    22
   0.00457738  0.00240442  0.10403439
   0.35950778  0.00239195  0.10106917
   0.00463240  0.35732935  0.10116825
   0.64978830  0.64741479  0.10113137
   0.32819680  0.32582166  0.10130492
   0.68121030  0.00239078  0.10134632
   0.00464372  0.67885272  0.10132278
   0.11071731  0.38923544  0.33752788
   0.27738097  0.22258960  0.33764712
   0.11072426  0.88925598  0.33758254
   0.27739789  0.72260107  0.33746352
   0.61068310  0.38921420  0.33746691
   0.77735394  0.22256865  0.33753675
   0.61068827  0.88922969  0.33763346
   0.77734715  0.72257815  0.33754395
Direct configuration=    23
   0.00464535  0.00236764  0.10368730
   0.35931128  0.00238393  0.10115983
   0.00468054  0.35709816  0.10118788
   0.65005502  0.64760046  0.10117279
   0.32824944  0.32581777  0.10134690
   0.68125572  0.00233372  0.10129768
   0.00466499  0.67873627  0.10135861
   0.11060313  0.38920364  0.33755562
   0.27733459  0.22272900  0.33767365
   0.11064944  0.88920393  0.33760072
   0.27736983  0.72262536  0.33746813
   0.61070331  0.38918694  0.33747654
   0.77732949  0.22259689  0.33756275
   0.61071046  0.88933505  0.33767251
   0.77728696  0.72265969  0.33755841
Direct configuration=    24
   0.00459709  0.00239376  0.10393376
   0.35945081  0.00238962  0.10109545
   0.00464635  0.35726232  0.10117394
   0.64986564  0.64746862  0.10114338
   0.32821206  0.32582053  0.10131709
   0.68122347  0.00237424  0.10133222
   0.00464989  0.67881896  0.10133316
   0.11068420  0.38922622  0.33753592
   0.27736752  0.22263001  0.33765481
   0.11070257  0.88924089  0.33758781
   0.27738975  0.72260811  0.33746485
   0.61068896  0.38920629  0.33746970
   0.77734685  0.22257684  0.33754429
   0.61069471  0.88926024  0.33764478
   0.77732970  0.72260179  0.33754814
Direct configuration=    25
   0.00461104  0.00238570  0.10384814
   0.35946607  0.00238254  0.10110922
   0.00465900  0.35725691  0.10117618
   0.64987323  0.64745501  0.10114915
   0.32822424  0.32581560  0.10133055
   0.68123004  0.00236069  0.10132818
   0.00465896  0.67880372  0.10134548
   0.11065901  0.38924126  0.33754124
   0.27735478  0.22262056  0.33766012
   0.11070207  0.88926933  0.33759170
   0.27738751  0.72260682  0.33747062
   0.61068643  0.38922348  0.33747463
   0.77734725  0.22258530  0.33755093
   0.61068321  0.88927193  0.33765018
   0.77730672  0.72259960  0.33755301
Direct configuration=    26
   0.00465290  0.00236153  0.10359128
   0.35951185  0.00236127  0.10115054
   0.00469694  0.35724069  0.10118291
   0.64989599  0.64741417  0.10116643
   0.32826076  0.32580080  0.10137091
   0.68124974  0.00232006  0.10131608
   0.00468618  0.67875799  0.10138241
   0.11058341  0.38928636  0.33755720
   0.27731657  0.22259220  0.33767604
   0.11070060  0.88935465  0.33760337
   0.27738080  0.72260295  0.33748793
   0.61067885  0.38927503  0.33748939
   0.77734846  0.22261070  0.33757084
   0.61064874  0.88930701  0.33766638
   0.77723777  0.72259304  0.33756762
Direct configuration=    27
   0.00473663  0.00231320  0.10307756
   0.35960340  0.00231875  0.10123316
   0.00477282  0.35720825  0.10119636
   0.64994153  0.64733248  0.10120100
   0.32833380  0.32577122  0.10145162
   0.68128915  0.00223880  0.10129188
   0.00474062  0.67866654  0.10145629
   0.11043222  0.38937657  0.33758913
   0.27724014  0.22253547  0.33770787
   0.11069764  0.88952528  0.33762671
   0.27736737  0.72259520  0.33752255
   0.61066369  0.38937812  0.33751892
   0.77735086  0.22266149  0.33761066
   0.61057980  0.88937715  0.33769878
   0.77709987  0.72257991  0.33759684
Direct configuration=    28
   0.00474379  0.00230806  0.10302833
   0.35961814  0.00231357  0.10124066
   0.00477982  0.35720927  0.10119851
   0.64994085  0.64731942  0.10120478
   0.32834044  0.32576699  0.10145850
   0.68129358  0.00223162  0.10128996
   0.00474654  0.67866058  0.10146261
   0.11043012  0.38938068  0.33759214
   0.27723513  0.22254222  0.33771074
   0.11069152  0.88952784  0.33762907
   0.27736074  0.72260289  0.33752625
   0.61065605  0.38938176  0.33752215
   0.77734336  0.22266768  0.33761433
   0.61057324  0.88937923  0.33770154
   0.77709623  0.72258663  0.33759974
Direct configuration=    29
   0.00476528  0.00229267  0.10288065
   0.35966235  0.00229804  0.10126318
   0.00480081  0.35721235  0.10120496
   0.64993881  0.64728024  0.10121612
   0.32836035  0.32575432  0.10147915
   0.68130687  0.00221006  0.10128421
   0.00476427  0.67864269  0.10148159
   0.11042383  0.38939301  0.33760120
   0.27722012  0.22256247  0.33771933
   0.11067316  0.88953553  0.33763617
   0.27734086  0.72262595  0.33753733
   0.61063311  0.38939267  0.33753184
   0.77732084  0.22268624  0.33762534
   0.61055357  0.88938545  0.33770984
   0.77708532  0.72260677  0.33760844
Direct configuration=    30
   0.00480826  0.00226187  0.10258529
   0.35975078  0.00226697  0.10130821
   0.00484279  0.35721851  0.10121785
   0.64993472  0.64720186  0.10123880
   0.32840018  0.32572898  0.10152044
   0.68133346  0.00216694  0.10127270
   0.00479973  0.67860690  0.10151954
   0.11041126  0.38941766  0.33761931
   0.27719009  0.22260296  0.33773651
   0.11063644  0.88955090  0.33765036
   0.27730110  0.72267208  0.33755950
   0.61058724  0.38941450  0.33755121
   0.77727581  0.22272338  0.33764735
   0.61051421  0.88939788  0.33772644
   0.77706349  0.72264706  0.33762583
Direct configuration=    31
   0.00489421  0.00220028  0.10199458
   0.35992763  0.00220484  0.10139828
   0.00492676  0.35723081  0.10124363
   0.64992655  0.64704512  0.10128415
   0.32847983  0.32567828  0.10160301
   0.68138662  0.00208070  0.10124968
   0.00487066  0.67853533  0.10159544
   0.11038610  0.38946698  0.33765553
   0.27713003  0.22268395  0.33777087
   0.11056299  0.88958165  0.33767875
   0.27722158  0.72276433  0.33760384
   0.61049550  0.38945815  0.33758995
   0.77718575  0.22279764  0.33769137
   0.61043551  0.88942276  0.33775963
   0.77701983  0.72272763  0.33766063
Direct configuration=    32
   0.00491668  0.00218418  0.10184017
   0.35997385  0.00218860  0.10142182
   0.00494871  0.35723403  0.10125037
   0.64992441  0.64700415  0.10129601
   0.32850065  0.32566503  0.10162460
   0.68140051  0.00205816  0.10124366
   0.00488920  0.67851662  0.10161528
   0.11037953  0.38947987  0.33766499
   0.27711434  0.22270512  0.33777985
   0.11054379  0.88958969  0.33768617
   0.27720080  0.72278845  0.33761543
   0.61047152  0.38946956  0.33760008
   0.77716221  0.22281705  0.33770287
   0.61041494  0.88942926  0.33776831
   0.77700841  0.72274869  0.33766973
Direct configuration=    33
   0.00490854  0.00218077  0.10185753
   0.35997275  0.00218230  0.10142026
   0.00494321  0.35723465  0.10126274
   0.64992229  0.64700541  0.10130406
   0.32848763  0.32564534  0.10160857
   0.68141965  0.00206693  0.10124341
   0.00489315  0.67854108  0.10160044
   0.11041107  0.38946718  0.33766466
   0.27712024  0.22274426  0.33777774
   0.11051803  0.88954426  0.33768770
   0.27718213  0.72279953  0.33761509
   0.61045940  0.38945448  0.33760181
   0.77714195  0.22280610  0.33769966
   0.61042674  0.88943780  0.33776669
   0.77704278  0.72276834  0.33766900
Direct configuration=    34
   0.00488648  0.00217154  0.10190458
   0.35996976  0.00216522  0.10141604
   0.00492830  0.35723633  0.10129627
   0.64991652  0.64700886  0.10132589
   0.32845234  0.32559193  0.10156511
   0.68147153  0.00209071  0.10124272
   0.00490384  0.67860741  0.10156018
   0.11049659  0.38943279  0.33766377
   0.27713627  0.22285042  0.33777202
   0.11044818  0.88942108  0.33769183
   0.27713153  0.72282959  0.33761416
   0.61042652  0.38941358  0.33760650
   0.77708700  0.22277641  0.33769095
   0.61045875  0.88946096  0.33776229
   0.77713596  0.72282161  0.33766702
Direct configuration=    35
   0.00487615  0.00216552  0.10191976
   0.35997779  0.00215134  0.10141350
   0.00492203  0.35724445  0.10132292
   0.64990563  0.64699890  0.10134349
   0.32844244  0.32556389  0.10153433
   0.68149744  0.00210475  0.10124422
   0.00491490  0.67863581  0.10153186
   0.11049334  0.38944288  0.33766385
   0.27713355  0.22283420  0.33776956
   0.11045217  0.88943855  0.33769585
   0.27713163  0.72282314  0.33761563
   0.61042506  0.38942504  0.33761111
   0.77709063  0.22277473  0.33768624
   0.61045424  0.88946258  0.33775961
   0.77713256  0.72281265  0.33766740
Direct configuration=    36
   0.00484514  0.00214747  0.10196531
   0.36000188  0.00210968  0.10140589
   0.00490322  0.35726882  0.10140288
   0.64987298  0.64696903  0.10139629
   0.32841273  0.32547975  0.10144199
   0.68157518  0.00214687  0.10124873
   0.00494809  0.67872098  0.10144690
   0.11048356  0.38947315  0.33766407
   0.27712540  0.22278554  0.33776217
   0.11046415  0.88949097  0.33770792
   0.27713195  0.72280381  0.33762004
   0.61042068  0.38945941  0.33762494
   0.77710153  0.22276971  0.33767212
   0.61044071  0.88946747  0.33775156
   0.77712237  0.72278579  0.33766853
Direct configuration=    37
   0.00485417  0.00215294  0.10196021
   0.36001051  0.00210788  0.10139577
   0.00491098  0.35728018  0.10141361
   0.64986286  0.64695137  0.10140060
   0.32844451  0.32550391  0.10142981
   0.68154785  0.00214484  0.10126219
   0.00495355  0.67867869  0.10143664
   0.11044063  0.38946185  0.33766297
   0.27711922  0.22278116  0.33776453
   0.11048941  0.88951056  0.33770963
   0.27715537  0.72281739  0.33762331
   0.61043844  0.38944770  0.33762606
   0.77711730  0.22280260  0.33767242
   0.61043014  0.88944531  0.33774972
   0.77707461  0.72279205  0.33767186
Direct configuration=    38
   0.00485814  0.00215533  0.10195797
   0.36001430  0.00210709  0.10139133
   0.00491438  0.35728517  0.10141831
   0.64985843  0.64694363  0.10140249
   0.32845846  0.32551451  0.10142447
   0.68153586  0.00214395  0.10126810
   0.00495594  0.67866014  0.10143214
   0.11042179  0.38945689  0.33766248
   0.27711651  0.22277924  0.33776557
   0.11050049  0.88951916  0.33771038
   0.27716565  0.72282335  0.33762474
   0.61044623  0.38944257  0.33762656
   0.77712422  0.22281703  0.33767255
   0.61042551  0.88943559  0.33774892
   0.77705366  0.72279479  0.33767332
Direct configuration=    39
   0.00486855  0.00215821  0.10194560
   0.36001698  0.00210641  0.10137800
   0.00492583  0.35728503  0.10142449
   0.64986194  0.64693484  0.10140269
   0.32848173  0.32553149  0.10141687
   0.68151685  0.00213524  0.10128695
   0.00495929  0.67862653  0.10142650
   0.11042622  0.38946532  0.33766173
   0.27711508  0.22279049  0.33776917
   0.11048635  0.88951511  0.33771224
   0.27715640  0.72282237  0.33762823
   0.61043809  0.38944948  0.33762735
   0.77711213  0.22280779  0.33767402
   0.61042474  0.88945309  0.33774814
   0.77705938  0.72279706  0.33767735
Direct configuration=    40
   0.00489178  0.00216463  0.10191802
   0.36002296  0.00210490  0.10134829
   0.00495136  0.35728472  0.10143827
   0.64986978  0.64691523  0.10140315
   0.32853365  0.32556936  0.10139993
   0.68147444  0.00211581  0.10132899
   0.00496675  0.67855158  0.10141391
   0.11043612  0.38948412  0.33766005
   0.27711189  0.22281558  0.33777721
   0.11045480  0.88950606  0.33771639
   0.27713577  0.72282018  0.33763600
   0.61041994  0.38946489  0.33762911
   0.77708516  0.22278718  0.33767730
   0.61042304  0.88949210  0.33774640
   0.77707214  0.72280211  0.33768632
Direct configuration=    41
   0.00489680  0.00216045  0.10190456
   0.36002181  0.00210144  0.10133707
   0.00496035  0.35727406  0.10144311
   0.64988415  0.64691661  0.10140310
   0.32853505  0.32556291  0.10139340
   0.68148084  0.00210646  0.10134569
   0.00496973  0.67855021  0.10140908
   0.11043299  0.38948679  0.33766051
   0.27710531  0.22281679  0.33778001
   0.11045156  0.88951186  0.33771891
   0.27712903  0.72282709  0.33763844
   0.61041371  0.38946900  0.33763064
   0.77708213  0.22279638  0.33767838
   0.61041706  0.88949017  0.33774708
   0.77706905  0.72280823  0.33768935
Direct configuration=    42
   0.00491188  0.00214789  0.10186420
   0.36001836  0.00209106  0.10130340
   0.00498733  0.35724208  0.10145763
   0.64992728  0.64692074  0.10140295
   0.32853925  0.32554357  0.10137384
   0.68150004  0.00207842  0.10139580
   0.00497867  0.67854611  0.10139461
   0.11042358  0.38949481  0.33766191
   0.27708555  0.22282042  0.33778839
   0.11044181  0.88952925  0.33772646
   0.27710880  0.72284783  0.33764576
   0.61039504  0.38948133  0.33763521
   0.77707306  0.22282401  0.33768162
   0.61039913  0.88948435  0.33774913
   0.77705978  0.72282658  0.33769844
Direct configuration=    43
   0.00494204  0.00212277  0.10178348
   0.36001148  0.00207030  0.10123607
   0.00504129  0.35717814  0.10148667
   0.65001354  0.64692901  0.10140265
   0.32854765  0.32550488  0.10133470
   0.68153845  0.00202234  0.10149602
   0.00499656  0.67853789  0.10136566
   0.11040478  0.38951086  0.33766470
   0.27704603  0.22282768  0.33780517
   0.11042231  0.88956402  0.33774158
   0.27706834  0.72288929  0.33766039
   0.61035768  0.38950600  0.33764435
   0.77705490  0.22287925  0.33768808
   0.61036327  0.88947273  0.33775321
   0.77704124  0.72286328  0.33771661
Direct configuration=    44
   0.00492219  0.00213931  0.10183661
   0.36001601  0.00208397  0.10128039
   0.00500577  0.35722023  0.10146756
   0.64995676  0.64692357  0.10140284
   0.32854212  0.32553035  0.10136046
   0.68151317  0.00205926  0.10143005
   0.00498479  0.67854330  0.10138472
   0.11041716  0.38950030  0.33766286
   0.27707204  0.22282290  0.33779413
   0.11043515  0.88954113  0.33773163
   0.27709497  0.72286200  0.33765076
   0.61038227  0.38948976  0.33763833
   0.77706685  0.22284289  0.33768382
   0.61038687  0.88948038  0.33775052
   0.77705344  0.72283912  0.33770465
Direct configuration=    45
   0.00492057  0.00212493  0.10182313
   0.36002751  0.00207415  0.10128115
   0.00500656  0.35721481  0.10146967
   0.64996305  0.64691926  0.10140468
   0.32853234  0.32550567  0.10135456
   0.68154165  0.00205581  0.10143346
   0.00499233  0.67856683  0.10137945
   0.11039337  0.38950873  0.33766705
   0.27707051  0.22282742  0.33779416
   0.11043605  0.88955308  0.33773566
   0.27710431  0.72285975  0.33765032
   0.61038710  0.38949457  0.33764206
   0.77706417  0.22284121  0.33768403
   0.61038151  0.88949624  0.33775531
   0.77702852  0.72283597  0.33770464
Direct configuration=    46
   0.00491900  0.00211096  0.10181002
   0.36003868  0.00206461  0.10128189
   0.00500732  0.35720955  0.10147173
   0.64996915  0.64691508  0.10140646
   0.32852284  0.32548168  0.10134882
   0.68156934  0.00205247  0.10143678
   0.00499967  0.67858970  0.10137434
   0.11037024  0.38951693  0.33767111
   0.27706903  0.22283182  0.33779419
   0.11043694  0.88956469  0.33773958
   0.27711339  0.72285757  0.33764990
   0.61039180  0.38949924  0.33764568
   0.77706156  0.22283958  0.33768424
   0.61037629  0.88951165  0.33775996
   0.77700430  0.72283292  0.33770463
Direct configuration=    47
   0.00492238  0.00209679  0.10179204
   0.36005954  0.00205272  0.10128833
   0.00500792  0.35721030  0.10147252
   0.64996571  0.64689902  0.10140920
   0.32852464  0.32546212  0.10134261
   0.68159286  0.00205189  0.10143423
   0.00501267  0.67859889  0.10136831
   0.11036945  0.38951950  0.33767669
   0.27706117  0.22284554  0.33779452
   0.11042532  0.88956254  0.33774379
   0.27710125  0.72286865  0.33764992
   0.61038191  0.38950191  0.33765010
   0.77705088  0.22284792  0.33768584
   0.61037053  0.88951574  0.33776635
   0.77700332  0.72284491  0.33770489
Direct configuration=    48
   0.00493110  0.00206025  0.10174566
   0.36011330  0.00202206  0.10130493
   0.00500945  0.35721223  0.10147458
   0.64995684  0.64685761  0.10141627
   0.32852929  0.32541170  0.10132660
   0.68165351  0.00205042  0.10142763
   0.00504620  0.67862258  0.10135276
   0.11036739  0.38952614  0.33769107
   0.27704093  0.22288090  0.33779536
   0.11039536  0.88955702  0.33775464
   0.27706994  0.72289721  0.33764997
   0.61035642  0.38950879  0.33766150
   0.77702335  0.22286942  0.33768999
   0.61035567  0.88952628  0.33778281
   0.77700080  0.72287584  0.33770557
Direct configuration=    49
   0.00493967  0.00205447  0.10173028
   0.36012726  0.00201495  0.10131025
   0.00501350  0.35721158  0.10147424
   0.64995447  0.64684397  0.10141783
   0.32853955  0.32540606  0.10132307
   0.68165992  0.00204886  0.10142461
   0.00505641  0.67861214  0.10134924
   0.11036300  0.38953484  0.33769422
   0.27703342  0.22288002  0.33779702
   0.11038935  0.88956774  0.33775660
   0.27706162  0.72290091  0.33765164
   0.61034779  0.38951842  0.33766387
   0.77701851  0.22287464  0.33769280
   0.61034799  0.88953096  0.33778646
   0.77699709  0.72287889  0.33770721
Direct configuration=    50
   0.00496536  0.00203713  0.10168412
   0.36016914  0.00199361  0.10132620
   0.00502562  0.35720961  0.10147322
   0.64994735  0.64680305  0.10142251
   0.32857035  0.32538914  0.10131250
   0.68167914  0.00204420  0.10141552
   0.00508705  0.67858082  0.10133867
   0.11034983  0.38956095  0.33770369
   0.27701089  0.22287736  0.33780198
   0.11037132  0.88959991  0.33776250
   0.27703666  0.72291201  0.33765665
   0.61032191  0.38954732  0.33767097