  15  15   0  16
  0.1913050E+02  0.4700000E-09  0.4700000E-09  0.1500000E-08  0.5000000E-15
  1.000000000000000E-004
  CAR 
 Lattice                                 
     11.28974137    -21.01255726  301      0.38695035      1.00000000
    -21.013  0.0000E+00  0.0000E+00  0.0000E+00  0.0000E+00
    -20.905  0.0000E+00  0.0000E+00  0.0000E+00  0.0000E+00
    -20.797  0.0000E+00  0.0000E+00  0.0000E+00  0.0000E+00
    -20.690  0.0000E+00  0.0000E+00  0.0000E+00  0.0000E+00
    -20.582  0.0000E+00  0.0000E+00  0.0000E+00  0.0000E+00
    -20.474  0.0000E+00  0.0000E+00  0.0000E+00  0.0000E+00
    -20.367  0.0000E+00  0.0000E+00  0.0000E+00  0.0000E+00
    -20.259  0.0000E+00  0.0000E+00  0.0000E+00  0.0000E+00
    -20.151  0.0000E+00  0.0000E+00  0.0000E+00  0.0000E+00
    -20.043  0.4477E-15  0.4477E-15  0.4820E-16  0.4820E-16
    -19.936  0.9013E-11  0.9013E-11  0.9705E-12  0.9705E-12
    -19.828  0.2098E-07  0.2098E-07  0.2260E-08  0.2260E-08
    -19.720  0.6222E-05  0.6222E-05  0.6722E-06  0.6722E-06
    -19.613  0.2637E-03  0.2637E-03  0.2907E-04  0.2907E-04
    -19.505  0.1966E-02  0.1966E-02  0.2408E-03  0.2408E-03
    -19.397  0.4151E-02  0.4151E-02  0.6877E-03  0.6877E-03
    -19.290  0.4514E-02  0.4514E-02  0.1174E-02  0.1174E-02
    -19.182  0.4924E-02  0.4924E-02  0.1704E-02  0.1704E-02
    -19.074  0.4147E-02  0.4147E-02  0.2150E-02  0.2150E-02
    -18.967  0.5400E-02  0.5400E-02  0.2732E-02  0.2732E-02
    -18.859  0.4131E-02  0.4131E-02  0.3177E-02  0.3177E-02
    -18.751  0.4348E-02  0.4348E-02  0.3645E-02  0.3645E-02
    -18.644  0.5981E-02  0.5981E-02  0.4289E-02  0.4289E-02
    -18.536  0.3654E-02  0.3654E-02  0.4682E-02  0.4682E-02
    -18.428  0.4052E-02  0.4052E-02  0.5119E-02  0.5119E-02
    -18.321  0.6142E-02  0.6142E-02  0.5780E-02  0.5780E-02
    -18.213  0.5039E-02  0.5039E-02  0.6323E-02  0.6323E-02
    -18.105  0.2817E-02  0.2817E-02  0.6626E-02  0.6626E-02
    -17.998  0.4773E-02  0.4773E-02  0.7140E-02  0.7140E-02
    -17.890  0.6803E-02  0.6803E-02  0.7872E-02  0.7872E-02
    -17.782  0.4339E-02  0.4339E-02  0.8340E-02  0.8340E-02
    -17.675  0.3682E-02  0.3682E-02  0.8736E-02  0.8736E-02
    -17.567  0.3172E-02  0.3172E-02  0.9078E-02  0.9078E-02
    -17.459  0.7037E-02  0.7037E-02  0.9835E-02  0.9835E-02
    -17.352  0.6181E-02  0.6181E-02  0.1050E-01  0.1050E-01
    -17.244  0.3200E-02  0.3200E-02  0.1085E-01  0.1085E-01
    -17.136  0.3505E-02  0.3505E-02  0.1122E-01  0.1122E-01
    -17.029  0.4228E-02  0.4228E-02  0.1168E-01  0.1168E-01
    -16.921  0.6632E-02  0.6632E-02  0.1239E-01  0.1239E-01
    -16.813  0.6377E-02  0.6377E-02  0.1308E-01  0.1308E-01
    -16.706  0.4907E-02  0.4907E-02  0.1361E-01  0.1361E-01
    -16.598  0.5470E-02  0.5470E-02  0.1420E-01  0.1420E-01
    -16.490  0.1061E-01  0.1061E-01  0.1534E-01  0.1534E-01
    -16.383  0.1472E-01  0.1472E-01  0.1692E-01  0.1692E-01
    -16.275  0.1508E-01  0.1508E-01  0.1855E-01  0.1855E-01
    -16.167  0.1621E-01  0.1621E-01  0.2029E-01  0.2029E-01
    -16.060  0.2021E-01  0.2021E-01  0.2247E-01  0.2247E-01
    -15.952  0.1700E-01  0.1700E-01  0.2430E-01  0.2430E-01
    -15.844  0.6620E-02  0.6620E-02  0.2501E-01  0.2501E-01
    -15.737  0.8625E-02  0.8625E-02  0.2594E-01  0.2594E-01
    -15.629  0.6993E-02  0.6993E-02  0.2669E-01  0.2669E-01
    -15.521  0.4377E-02  0.4377E-02  0.2717E-01  0.2717E-01
    -15.413  0.3931E-02  0.3931E-02  0.2759E-01  0.2759E-01
    -15.306  0.4037E-02  0.4037E-02  0.2802E-01  0.2802E-01
    -15.198  0.3394E-02  0.3394E-02  0.2839E-01  0.2839E-01
    -15.090  0.4718E-02  0.4718E-02  0.2890E-01  0.2890E-01
    -14.983  0.8886E-02  0.8886E-02  0.2985E-01  0.2985E-01
    -14.875  0.6651E-02  0.6651E-02  0.3057E-01  0.3057E-01
    -14.767  0.3664E-02  0.3664E-02  0.3096E-01  0.3096E-01
    -14.660  0.3672E-02  0.3672E-02  0.3136E-01  0.3136E-01
    -14.552  0.3608E-02  0.3608E-02  0.3175E-01  0.3175E-01
    -14.444  0.5036E-02  0.5036E-02  0.3229E-01  0.3229E-01
    -14.337  0.6797E-02  0.6797E-02  0.3302E-01  0.3302E-01
    -14.229  0.1056E-01  0.1056E-01  0.3416E-01  0.3416E-01
    -14.121  0.1555E-01  0.1555E-01  0.3583E-01  0.3583E-01
    -14.014  0.1765E-01  0.1765E-01  0.3774E-01  0.3774E-01
    -13.906  0.1708E-01  0.1708E-01  0.3957E-01  0.3957E-01
    -13.798  0.1014E-01  0.1014E-01  0.4067E-01  0.4067E-01
    -13.691  0.8786E-02  0.8786E-02  0.4161E-01  0.4161E-01
    -13.583  0.1694E-01  0.1694E-01  0.4344E-01  0.4344E-01
    -13.475  0.1312E-01  0.1312E-01  0.4485E-01  0.4485E-01
    -13.368  0.9389E-02  0.9389E-02  0.4586E-01  0.4586E-01
    -13.260  0.1078E-01  0.1078E-01  0.4702E-01  0.4702E-01
    -13.152  0.1280E-01  0.1280E-01  0.4840E-01  0.4840E-01
    -13.045  0.2063E-01  0.2063E-01  0.5062E-01  0.5062E-01
    -12.937  0.2124E-01  0.2124E-01  0.5291E-01  0.5291E-01
    -12.829  0.1710E-01  0.1710E-01  0.5475E-01  0.5475E-01
    -12.722  0.1155E-01  0.1155E-01  0.5599E-01  0.5599E-01
    -12.614  0.6162E-02  0.6162E-02  0.5665E-01  0.5665E-01
    -12.506  0.3127E-02  0.3127E-02  0.5699E-01  0.5699E-01
    -12.399  0.5426E-02  0.5426E-02  0.5758E-01  0.5758E-01
    -12.291  0.7514E-02  0.7514E-02  0.5838E-01  0.5838E-01
    -12.183  0.5442E-02  0.5442E-02  0.5897E-01  0.5897E-01
    -12.076  0.5546E-02  0.5546E-02  0.5957E-01  0.5957E-01
    -11.968  0.7359E-02  0.7359E-02  0.6036E-01  0.6036E-01
    -11.860  0.6053E-02  0.6053E-02  0.6101E-01  0.6101E-01
    -11.753  0.5663E-02  0.5663E-02  0.6162E-01  0.6162E-01
    -11.645  0.4208E-02  0.4208E-02  0.6207E-01  0.6207E-01
    -11.537  0.4167E-02  0.4167E-02  0.6252E-01  0.6252E-01
    -11.430  0.8401E-02  0.8401E-02  0.6343E-01  0.6343E-01
    -11.322  0.5328E-02  0.5328E-02  0.6400E-01  0.6400E-01
    -11.214  0.2850E-02  0.2850E-02  0.6431E-01  0.6431E-01
    -11.107  0.3544E-02  0.3544E-02  0.6469E-01  0.6469E-01
    -10.999  0.4384E-02  0.4384E-02  0.6516E-01  0.6516E-01
    -10.891  0.7100E-02  0.7100E-02  0.6593E-01  0.6593E-01
    -10.783  0.5261E-02  0.5261E-02  0.6649E-01  0.6649E-01
    -10.676  0.2044E-02  0.2044E-02  0.6671E-01  0.6671E-01
    -10.568  0.3414E-02  0.3414E-02  0.6708E-01  0.6708E-01
    -10.460  0.5782E-02  0.5782E-02  0.6770E-01  0.6770E-01
    -10.353  0.5400E-02  0.5400E-02  0.6829E-01  0.6829E-01
    -10.245  0.6435E-02  0.6435E-02  0.6898E-01  0.6898E-01
    -10.137  0.7822E-02  0.7822E-02  0.6982E-01  0.6982E-01
    -10.030  0.2484E-02  0.2484E-02  0.7009E-01  0.7009E-01
     -9.922  0.4777E-02  0.4777E-02  0.7060E-01  0.7060E-01
     -9.814  0.9814E-02  0.9814E-02  0.7166E-01  0.7166E-01
     -9.707  0.1374E-01  0.1374E-01  0.7314E-01  0.7314E-01
     -9.599  0.1542E-01  0.1542E-01  0.7480E-01  0.7480E-01
     -9.491  0.1432E-01  0.1432E-01  0.7634E-01  0.7634E-01
     -9.384  0.1466E-01  0.1466E-01  0.7792E-01  0.7792E-01
     -9.276  0.2115E-01  0.2115E-01  0.8020E-01  0.8020E-01
     -9.168  0.1492E-01  0.1492E-01  0.8180E-01  0.8180E-01
     -9.061  0.5294E-02  0.5294E-02  0.8237E-01  0.8237E-01
     -8.953  0.8973E-02  0.8972E-02  0.8334E-01  0.8334E-01
     -8.845  0.1778E-01  0.1778E-01  0.8525E-01  0.8525E-01
     -8.738  0.1826E-01  0.1826E-01  0.8722E-01  0.8722E-01
     -8.630  0.1335E-01  0.1335E-01  0.8866E-01  0.8866E-01
     -8.522  0.1319E-01  0.1319E-01  0.9008E-01  0.9008E-01
     -8.415  0.1376E-01  0.1376E-01  0.9156E-01  0.9156E-01
     -8.307  0.8883E-02  0.8883E-02  0.9252E-01  0.9252E-01
     -8.199  0.1144E-01  0.1144E-01  0.9375E-01  0.9375E-01
     -8.092  0.1721E-01  0.1721E-01  0.9560E-01  0.9560E-01
     -7.984  0.2024E-01  0.2024E-01  0.9778E-01  0.9778E-01
     -7.876  0.1097E-01  0.1097E-01  0.9896E-01  0.9896E-01
     -7.769  0.7450E-02  0.7450E-02  0.9977E-01  0.9977E-01
     -7.661  0.1655E-01  0.1655E-01  0.1015E+00  0.1015E+00
     -7.553  0.2301E-01  0.2301E-01  0.1040E+00  0.1040E+00
     -7.446  0.1363E-01  0.1363E-01  0.1055E+00  0.1055E+00
     -7.338  0.1172E-01  0.1172E-01  0.1068E+00  0.1068E+00
     -7.230  0.2343E-01  0.2343E-01  0.1093E+00  0.1093E+00
     -7.123  0.2500E-01  0.2500E-01  0.1120E+00  0.1120E+00
     -7.015  0.2311E-01  0.2311E-01  0.1145E+00  0.1145E+00
     -6.907  0.1343E-01  0.1343E-01  0.1159E+00  0.1159E+00
     -6.800  0.8439E-02  0.8440E-02  0.1168E+00  0.1168E+00
     -6.692  0.1768E-01  0.1768E-01  0.1187E+00  0.1187E+00
     -6.584  0.1875E-01  0.1875E-01  0.1207E+00  0.1207E+00
     -6.477  0.1215E-01  0.1215E-01  0.1220E+00  0.1220E+00
     -6.369  0.1074E-01  0.1074E-01  0.1232E+00  0.1232E+00
     -6.261  0.1647E-01  0.1647E-01  0.1250E+00  0.1250E+00
     -6.153  0.1783E-01  0.1783E-01  0.1269E+00  0.1269E+00
     -6.046  0.1956E-01  0.1956E-01  0.1290E+00  0.1290E+00
     -5.938  0.2055E-01  0.2055E-01  0.1312E+00  0.1312E+00
     -5.830  0.1807E-01  0.1807E-01  0.1332E+00  0.1332E+00
     -5.723  0.1907E-01  0.1907E-01  0.1352E+00  0.1352E+00
     -5.615  0.1739E-01  0.1739E-01  0.1371E+00  0.1371E+00
     -5.507  0.1753E-01  0.1753E-01  0.1390E+00  0.1390E+00
     -5.400  0.2482E-01  0.2482E-01  0.1416E+00  0.1416E+00
     -5.292  0.2212E-01  0.2212E-01  0.1440E+00  0.1440E+00
     -5.184  0.2931E-01  0.2931E-01  0.1472E+00  0.1472E+00
     -5.077  0.3187E-01  0.3187E-01  0.1506E+00  0.1506E+00
     -4.969  0.1631E-01  0.1631E-01  0.1524E+00  0.1524E+00
     -4.861  0.1569E-01  0.1569E-01  0.1541E+00  0.1541E+00
     -4.754  0.2980E-01  0.2980E-01  0.1573E+00  0.1573E+00
     -4.646  0.3628E-01  0.3628E-01  0.1612E+00  0.1612E+00
     -4.538  0.2772E-01  0.2772E-01  0.1642E+00  0.1642E+00
     -4.431  0.1893E-01  0.1893E-01  0.1662E+00  0.1662E+00
     -4.323  0.1148E-01  0.1148E-01  0.1674E+00  0.1674E+00
     -4.215  0.9660E-02  0.9660E-02  0.1685E+00  0.1685E+00
     -4.108  0.1410E-01  0.1410E-01  0.1700E+00  0.1700E+00
     -4.000  0.1194E-01  0.1194E-01  0.1713E+00  0.1713E+00
     -3.892  0.8501E-02  0.8501E-02  0.1722E+00  0.1722E+00
     -3.785  0.9030E-02  0.9030E-02  0.1732E+00  0.1732E+00
     -3.677  0.1506E-01  0.1506E-01  0.1748E+00  0.1748E+00
     -3.569  0.2043E-01  0.2043E-01  0.1770E+00  0.1770E+00
     -3.462  0.1663E-01  0.1663E-01  0.1788E+00  0.1788E+00
     -3.354  0.2043E-01  0.2043E-01  0.1810E+00  0.1810E+00
     -3.246  0.2384E-01  0.2384E-01  0.1835E+00  0.1835E+00
     -3.139  0.2379E-01  0.2379E-01  0.1861E+00  0.1861E+00
     -3.031  0.1833E-01  0.1833E-01  0.1881E+00  0.1881E+00
     -2.923  0.1717E-01  0.1717E-01  0.1899E+00  0.1899E+00
     -2.816  0.2025E-01  0.2025E-01  0.1921E+00  0.1921E+00
     -2.708  0.1598E-01  0.1598E-01  0.1938E+00  0.1938E+00
     -2.600  0.1465E-01  0.1465E-01  0.1954E+00  0.1954E+00
     -2.493  0.1352E-01  0.1352E-01  0.1969E+00  0.1969E+00
     -2.385  0.1693E-01  0.1693E-01  0.1987E+00  0.1987E+00
     -2.277  0.1806E-01  0.1806E-01  0.2006E+00  0.2006E+00
     -2.170  0.1206E-01  0.1206E-01  0.2019E+00  0.2019E+00
     -2.062  0.1147E-01  0.1147E-01  0.2032E+00  0.2032E+00
     -1.954  0.7111E-02  0.7111E-02  0.2039E+00  0.2039E+00
     -1.847  0.1190E-01  0.1190E-01  0.2052E+00  0.2052E+00
     -1.739  0.2034E-01  0.2034E-01  0.2074E+00  0.2074E+00
     -1.631  0.1144E-01  0.1144E-01  0.2086E+00  0.2086E+00
     -1.524  0.3566E-02  0.3566E-02  0.2090E+00  0.2090E+00
     -1.416  0.5446E-02  0.5446E-02  0.2096E+00  0.2096E+00
     -1.308  0.1073E-01  0.1073E-01  0.2108E+00  0.2108E+00
     -1.200  0.1067E-01  0.1067E-01  0.2119E+00  0.2119E+00
     -1.093  0.1150E-01  0.1150E-01  0.2131E+00  0.2131E+00
     -0.985  0.1147E-01  0.1147E-01  0.2144E+00  0.2144E+00
     -0.877  0.8308E-02  0.8308E-02  0.2153E+00  0.2153E+00
     -0.770  0.6694E-02  0.6694E-02  0.2160E+00  0.2160E+00
     -0.662  0.4362E-02  0.4362E-02  0.2165E+00  0.2165E+00
     -0.554  0.3858E-02  0.3858E-02  0.2169E+00  0.2169E+00
     -0.447  0.3866E-02  0.3866E-02  0.2173E+00  0.2173E+00
     -0.339  0.4928E-02  0.4928E-02  0.2178E+00  0.2178E+00
     -0.231  0.5372E-02  0.5372E-02  0.2184E+00  0.2184E+00
     -0.124  0.1802E-02  0.1802E-02  0.2186E+00  0.2186E+00
     -0.016  0.3707E-03  0.3707E-03  0.2186E+00  0.2186E+00
      0.092  0.2767E-04  0.2767E-04  0.2186E+00  0.2186E+00
      0.199  0.8754E-05  0.8754E-05  0.2186E+00  0.2186E+00
      0.307  0.2551E-03  0.2551E-03  0.2187E+00  0.2187E+00
      0.415  0.1049E-02  0.1049E-02  0.2188E+00  0.2188E+00
      0.522  0.6451E-03  0.6451E-03  0.2189E+00  0.2189E+00
      0.630  0.5724E-04  0.5724E-04  0.2189E+00  0.2189E+00
      0.738  0.6558E-06  0.6558E-06  0.2189E+00  0.2189E+00
      0.845  0.3766E-05  0.3766E-05  0.2189E+00  0.2189E+00
      0.953  0.2623E-03  0.2623E-03  0.2189E+00  0.2189E+00
      1.061  0.2315E-02  0.2315E-02  0.2191E+00  0.2191E+00
      1.168  0.2929E-02  0.2929E-02  0.2195E+00  0.2195E+00
      1.276  0.8968E-03  0.8968E-03  0.2195E+00  0.2195E+00
      1.384  0.1954E-02  0.1954E-02  0.2198E+00  0.2198E+00
      1.491  0.3883E-02  0.3883E-02  0.2202E+00  0.2202E+00
      1.599  0.6139E-02  0.6139E-02  0.2208E+00  0.2208E+00
      1.707  0.1637E-01  0.1637E-01  0.2226E+00  0.2226E+00
      1.814  0.2755E-01  0.2755E-01  0.2256E+00  0.2256E+00
      1.922  0.1181E-01  0.1181E-01  0.2268E+00  0.2268E+00
      2.030  0.3431E-02  0.3431E-02  0.2272E+00  0.2272E+00
      2.137  0.6038E-02  0.6038E-02  0.2279E+00  0.2279E+00
      2.245  0.1054E-01  0.1054E-01  0.2290E+00  0.2290E+00
      2.353  0.1592E-01  0.1592E-01  0.2307E+00  0.2307E+00
      2.460  0.1971E-01  0.1971E-01  0.2328E+00  0.2328E+00
      2.568  0.9768E-02  0.9768E-02  0.2339E+00  0.2339E+00
      2.676  0.5794E-02  0.5794E-02  0.2345E+00  0.2345E+00
      2.783  0.9512E-02  0.9512E-02  0.2355E+00  0.2355E+00
      2.891  0.8124E-02  0.8124E-02  0.2364E+00  0.2364E+00
      2.999  0.7434E-02  0.7434E-02  0.2372E+00  0.2372E+00
      3.106  0.9699E-02  0.9699E-02  0.2382E+00  0.2382E+00
      3.214  0.8556E-02  0.8556E-02  0.2392E+00  0.2392E+00
      3.322  0.1067E-01  0.1067E-01  0.2403E+00  0.2403E+00
      3.430  0.7881E-02  0.7881E-02  0.2412E+00  0.2412E+00
      3.537  0.6238E-02  0.6238E-02  0.2418E+00  0.2418E+00
      3.645  0.9006E-02  0.9006E-02  0.2428E+00  0.2428E+00
      3.753  0.1197E-01  0.1197E-01  0.2441E+00  0.2441E+00
      3.860  0.8108E-02  0.8108E-02  0.2450E+00  0.2450E+00
      3.968  0.1090E-01  0.1090E-01  0.2461E+00  0.2461E+00
      4.076  0.9634E-02  0.9634E-02  0.2472E+00  0.2472E+00
      4.183  0.1006E-01  0.1006E-01  0.2483E+00  0.2483E+00
      4.291  0.1361E-01  0.1361E-01  0.2497E+00  0.2497E+00
      4.399  0.1621E-01  0.1621E-01  0.2515E+00  0.2515E+00
      4.506  0.2038E-01  0.2038E-01  0.2537E+00  0.2537E+00
      4.614  0.1888E-01  0.1888E-01  0.2557E+00  0.2557E+00
      4.722  0.1927E-01  0.1927E-01  0.2578E+00  0.2578E+00
      4.829  0.2129E-01  0.2129E-01  0.2601E+00  0.2601E+00
      4.937  0.2692E-01  0.2692E-01  0.2630E+00  0.2630E+00
      5.045  0.2365E-01  0.2365E-01  0.2655E+00  0.2655E+00
      5.152  0.2444E-01  0.2444E-01  0.2681E+00  0.2681E+00
      5.260  0.2148E-01  0.2148E-01  0.2705E+00  0.2705E+00
      5.368  0.2416E-01  0.2416E-01  0.2731E+00  0.2731E+00
      5.475  0.1954E-01  0.1954E-01  0.2752E+00  0.2752E+00
      5.583  0.1687E-01  0.1687E-01  0.2770E+00  0.2770E+00
      5.691  0.2202E-01  0.2202E-01  0.2794E+00  0.2794E+00
      5.798  0.2567E-01  0.2567E-01  0.2821E+00  0.2821E+00
      5.906  0.2349E-01  0.2349E-01  0.2846E+00  0.2846E+00
      6.014  0.2464E-01  0.2464E-01  0.2873E+00  0.2873E+00
      6.121  0.2991E-01  0.2991E-01  0.2905E+00  0.2905E+00
      6.229  0.2486E-01  0.2486E-01  0.2932E+00  0.2932E+00
      6.337  0.2269E-01  0.2269E-01  0.2956E+00  0.2956E+00
      6.444  0.2199E-01  0.2199E-01  0.2980E+00  0.2980E+00
      6.552  0.1702E-01  0.1702E-01  0.2998E+00  0.2998E+00
      6.660  0.1769E-01  0.1769E-01  0.3017E+00  0.3017E+00
      6.767  0.1863E-01  0.1863E-01  0.3037E+00  0.3037E+00
      6.875  0.2254E-01  0.2254E-01  0.3062E+00  0.3062E+00
      6.983  0.2186E-01  0.2186E-01  0.3085E+00  0.3085E+00
      7.090  0.2124E-01  0.2124E-01  0.3108E+00  0.3108E+00
      7.198  0.2261E-01  0.2261E-01  0.3133E+00  0.3133E+00
      7.306  0.1405E-01  0.1405E-01  0.3148E+00  0.3148E+00
      7.413  0.1349E-01  0.1349E-01  0.3162E+00  0.3162E+00
      7.521  0.2668E-01  0.2668E-01  0.3191E+00  0.3191E+00
      7.629  0.3159E-01  0.3159E-01  0.3225E+00  0.3225E+00
      7.736  0.2361E-01  0.2361E-01  0.3250E+00  0.3250E+00
      7.844  0.1779E-01  0.1779E-01  0.3270E+00  0.3270E+00
      7.952  0.1679E-01  0.1679E-01  0.3288E+00  0.3288E+00
      8.060  0.2145E-01  0.2145E-01  0.3311E+00  0.3311E+00
      8.167  0.2687E-01  0.2687E-01  0.3340E+00  0.3340E+00
      8.275  0.2433E-01  0.2433E-01  0.3366E+00  0.3366E+00
      8.383  0.2368E-01  0.2368E-01  0.3391E+00  0.3391E+00
      8.490  0.2200E-01  0.2200E-01  0.3415E+00  0.3415E+00
      8.598  0.3224E-01  0.3224E-01  0.3450E+00  0.3450E+00
      8.706  0.2899E-01  0.2899E-01  0.3481E+00  0.3481E+00
      8.813  0.2717E-01  0.2717E-01  0.3510E+00  0.3510E+00
      8.921  0.2605E-01  0.2605E-01  0.3538E+00  0.3538E+00
      9.029  0.2208E-01  0.2208E-01  0.3562E+00  0.3562E+00
      9.136  0.4205E-01  0.4205E-01  0.3607E+00  0.3607E+00
      9.244  0.4090E-01  0.4090E-01  0.3651E+00  0.3651E+00
      9.352  0.2953E-01  0.2953E-01  0.3683E+00  0.3683E+00
      9.459  0.1725E-01  0.1725E-01  0.3702E+00  0.3702E+00
      9.567  0.1192E-01  0.1192E-01  0.3715E+00  0.3715E+00
      9.675  0.1799E-01  0.1799E-01  0.3734E+00  0.3734E+00
      9.782  0.1148E-01  0.1148E-01  0.3746E+00  0.3746E+00
      9.890  0.2953E-02  0.2953E-02  0.3749E+00  0.3749E+00
      9.998  0.5039E-03  0.5039E-03  0.3750E+00  0.3750E+00
     10.105  0.1868E-04  0.1868E-04  0.3750E+00  0.3750E+00
     10.213  0.8635E-07  0.8634E-07  0.3750E+00  0.3750E+00
     10.321  0.4392E-10  0.4391E-10  0.3750E+00  0.3750E+00
     10.428  0.2346E-14  0.2346E-14  0.3750E+00  0.3750E+00
     10.536  0.0000E+00  0.0000E+00  0.3750E+00  0.3750E+00
     10.644  0.0000E+00  0.0000E+00  0.3750E+00  0.3750E+00
     10.751  0.0000E+00  0.0000E+00  0.3750E+00  0.3750E+00
     10.859  0.0000E+00  0.0000E+00  0.3750E+00  0.3750E+00
     10.967  0.0000E+00  0.0000E+00  0.3750E+00  0.3750E+00
     11.074  0.0000E+00  0.0000E+00  0.3750E+00  0.3750E+00
     11.182  0.0000E+00  0.0000E+00  0.3750E+00  0.3750E+00
     11.290  0.0000E+00  0.0000E+00  0.3750E+00  0.3750E+00
