Lattice                                 
           1
     4.070319    2.350000    0.000000
    -4.070319    2.350000    0.000000
     0.000000    0.000000   15.000000
   B    C 
     4    11
Direct configuration=     1
   0.00415361  0.00267210  0.12034134
   0.35695335  0.00285503  0.09748893
   0.00423858  0.35550699  0.09749256
   0.65142295  0.65006557  0.09747688
   0.32808646  0.32671938  0.10030508
   0.68027775  0.00278085  0.10027562
   0.00416530  0.67883808  0.10026559
   0.99999933  0.49999967  0.32000000
   0.16666633  0.33333267  0.32000000
   0.99999933  0.99999967  0.32000000
   0.16666633  0.83333267  0.32000000
   0.49999933  0.49999967  0.32000000
   0.66666633  0.33333267  0.32000000
   0.49999933  0.99999967  0.32000000
   0.66666633  0.83333267  0.32000000
Lattice                                 
           1
     4.456169    2.572805    0.000051
    -4.456117    2.572716    0.000062
    -0.000020    0.000359   15.031935
   B    C 
     4    11
Direct configuration=     2
   0.00418962  0.00278755  0.12026949
   0.35702455  0.00319824  0.09734572
   0.00375854  0.35517644  0.09734831
   0.65174903  0.64993901  0.09733515
   0.32810079  0.32613012  0.10012992
   0.68081316  0.00335835  0.10010545
   0.00364391  0.67883585  0.10009505
   0.00022493  0.49994547  0.32011127
   0.16694954  0.33427403  0.32022938
   0.00000136  0.99999254  0.31997465
   0.16731390  0.83304729  0.32023369
   0.50007926  0.50030096  0.32011572
   0.66666761  0.33334085  0.32001380
   0.49972371  0.99977269  0.32011037
   0.66572076  0.83266794  0.32022803
Lattice                                 
           1
     4.196695    2.422974    0.000017
    -4.196678    2.422945    0.000020
    -0.000006    0.000118   15.010459
   B    C 
     4    11
Direct configuration=     3
   0.00416750  0.00271663  0.12031770
   0.35698081  0.00298741  0.09744182
   0.00405339  0.35537947  0.09744511
   0.65154873  0.65001675  0.09743026
   0.32809198  0.32649207  0.10024746
   0.68048428  0.00300361  0.10021964
   0.00396416  0.67883721  0.10020949
   0.00008637  0.49997877  0.32003660
   0.16677559  0.33369581  0.32007546
   0.00000011  0.99999692  0.31999166
   0.16691615  0.83322260  0.32007687
   0.50003017  0.50011589  0.32003807
   0.66666683  0.33333582  0.32000454
   0.49989301  0.99991212  0.32003630
   0.66630159  0.83307626  0.32007501
Lattice                                 
           1
     4.189968    2.419090    0.000016
    -4.189952    2.419062    0.000019
    -0.000006    0.000111   15.009903
   B    C 
     4    11
Direct configuration=     4
   0.00416689  0.00271468  0.12031896
   0.35697961  0.00298161  0.09744432
   0.00406151  0.35538506  0.09744762
   0.65154322  0.65001889  0.09743273
   0.32809174  0.32650203  0.10025051
   0.68047523  0.00299385  0.10022261
   0.00397298  0.67883725  0.10021246
   0.00008255  0.49997968  0.32003466
   0.16677080  0.33367989  0.32007146
   0.00000008  0.99999704  0.31999210
   0.16690520  0.83322742  0.32007280
   0.50002882  0.50011080  0.32003605
   0.66666680  0.33333569  0.32000430
   0.49989768  0.99991595  0.32003438
   0.66631757  0.83308750  0.32007104
Lattice                                 
           1
     4.189537    2.418841    0.000016
    -4.189522    2.418814    0.000019
    -0.000006    0.000111   15.009867
   B    C 
     4    11
Direct configuration=     5
   0.00416685  0.00271455  0.12031904
   0.35697953  0.00298124  0.09744448
   0.00406203  0.35538542  0.09744778
   0.65154287  0.65001902  0.09743288
   0.32809172  0.32650267  0.10025070
   0.68047465  0.00299322  0.10022280
   0.00397354  0.67883725  0.10021265
   0.00008231  0.49997974  0.32003454
   0.16677049  0.33367887  0.32007121
   0.00000008  0.99999704  0.31999213
   0.16690450  0.83322773  0.32007254
   0.50002873  0.50011047  0.32003592
   0.66666680  0.33333568  0.32000428
   0.49989797  0.99991620  0.32003426
   0.66631860  0.83308822  0.32007078
Lattice                                 
           1
     4.190861    2.419631    0.000068
    -4.190838    2.419591    0.000047
     0.000037    0.000363   15.031223
   B    C 
     4    11
Direct configuration=     6
   0.00417241  0.00274895  0.11934611
   0.35615972  0.00321052  0.09759405
   0.00376990  0.35431685  0.09759579
   0.65262913  0.65082085  0.09758420
   0.32556269  0.32363572  0.10010198
   0.68332331  0.00330650  0.10008027
   0.00365715  0.68138312  0.10007094
  -0.00009570  0.49999589  0.32014725
   0.16660800  0.33314735  0.32025755
   0.00000079  0.00000337  0.32002040
   0.16655219  0.83340228  0.32026184
   0.49999871  0.49990694  0.32015155
   0.66667196  0.33333381  0.32003211
   0.50008843  0.00009447  0.32014606
   0.66686198  0.83346072  0.32025591
Lattice                                 
           1
     4.190336    2.419318    0.000048
    -4.190316    2.419283    0.000036
     0.000020    0.000263   15.022752
   B    C 
     4    11
Direct configuration=     7
   0.00417018  0.00273530  0.11973147
   0.35648479  0.00311961  0.09753480
   0.00388574  0.35474056  0.09753717
   0.65219841  0.65050291  0.09752427
   0.32656549  0.32477252  0.10016088
   0.68219376  0.00318228  0.10013673
   0.00378261  0.68037363  0.10012707
  -0.00002512  0.49998949  0.32010261
   0.16667243  0.33335811  0.32018374
   0.00000051  0.00000086  0.32000921
   0.16669189  0.83333307  0.32018686
   0.50001061  0.49998764  0.32010575
   0.66666991  0.33333455  0.32002109
   0.50001291  0.00002378  0.32010178
   0.66664653  0.83331302  0.32018258
Lattice                                 
           1
     4.190812    2.419617    0.000116
    -4.190780    2.419561    0.000069
     0.000083    0.000577   15.048626
   B    C 
     4    11
Direct configuration=     8
   0.00417645  0.00277030  0.11874358
   0.35689629  0.00328997  0.09766752
   0.00365924  0.35496674  0.09766826
   0.65198783  0.65007035  0.09765881
   0.32665568  0.32463093  0.09995906
   0.68231933  0.00339103  0.09994184
   0.00356500  0.68029380  0.09993291
   0.00016739  0.49998146  0.32025375
   0.16676179  0.33377423  0.32037715
   0.00000880  0.00000030  0.32010155
   0.16700442  0.83323584  0.32038274
   0.50004189  0.50019734  0.32025932
   0.66666676  0.33333773  0.32007284
   0.49982568 -0.00015827  0.32025196
   0.66622412  0.83298559  0.32037471
Lattice                                 
           1
     4.191310    2.419931    0.000187
    -4.191265    2.419852    0.000104
     0.000148    0.000905   15.075688
   B    C 
     4    11
Direct configuration=     9
   0.00418309  0.00280696  0.11771212
   0.35732660  0.00346812  0.09780609
   0.00342237  0.35520327  0.09780514
   0.65176760  0.64961798  0.09779928
   0.32675001  0.32448288  0.09974834
   0.68245067  0.00360935  0.09973835
   0.00333744  0.68021033  0.09973020
   0.00036869  0.49997305  0.32041154
   0.16685521  0.33420939  0.32057908
   0.00001746 -0.00000030  0.32019797
   0.16733125  0.83313414  0.32058726
   0.50007458  0.50041662  0.32041967
   0.66666346  0.33334105  0.32012688
   0.49962986 -0.00034867  0.32040876
   0.66578237  0.83264316  0.32057532
Lattice                                 
           1
     4.192307    2.420558    0.000329
    -4.192235    2.420434    0.000173
     0.000280    0.001562   15.129812
   B    C 
     4    11
Direct configuration=    10
   0.00419650  0.00288040  0.11565291
   0.35818711  0.00382437  0.09808272
   0.00294866  0.35567625  0.09807841
   0.65132718  0.64871334  0.09807973
   0.32693868  0.32418684  0.09932766
   0.68271334  0.00404595  0.09933211
   0.00288242  0.68004345  0.09932549
   0.00077122  0.49995621  0.32072657
   0.16704201  0.33507958  0.32098222
   0.00003476 -0.00000151  0.32039047
   0.16798478  0.83293074  0.32099556
   0.50013994  0.50085511  0.32073979
   0.66665686  0.33334768  0.32023475
   0.49923826 -0.00072943  0.32072180
   0.66489894  0.83195836  0.32097582
Lattice                                 
           1
     4.191722    2.420190    0.000246
    -4.191666    2.420092    0.000133
     0.000203    0.001176   15.098049
   B    C 
     4    11
Direct configuration=    11
   0.00418845  0.00283717  0.11685705
   0.35768227  0.00361538  0.09792096
   0.00322661  0.35539876  0.09791861
   0.65158560  0.64924412  0.09791573
   0.32682795  0.32436050  0.09957365
   0.68255920  0.00378976  0.09956966
   0.00314935  0.68014133  0.09956214
   0.00053508  0.49996611  0.32054236
   0.16693245  0.33456905  0.32074649
   0.00002463 -0.00000078  0.32027791
   0.16760138  0.83305011  0.32075681
   0.50010163  0.50059786  0.32055260
   0.66666074  0.33334379  0.32017167
   0.49946804 -0.00050601  0.32053874
   0.66541729  0.83236016  0.32074162
Lattice                                 
           1
     4.191784    2.420217    0.000264
    -4.191733    2.420130    0.000140
     0.000222    0.001258   15.104736
   B    C 
     4    11
Direct configuration=    12
   0.00418959  0.00284388  0.11659659
   0.35778702  0.00364136  0.09794528
   0.00319000  0.35547514  0.09794258
   0.65151218  0.64913464  0.09794045
   0.32689917  0.32440093  0.09953051
   0.68251549  0.00381578  0.09952817
   0.00312037  0.68007170  0.09952082
   0.00049093  0.49997347  0.32058308
   0.16692426  0.33449014  0.32079260
   0.00002307 -0.00000029  0.32031069
   0.16753743  0.83306380  0.32080336
   0.50008999  0.50054528  0.32059372
   0.66666363  0.33334427  0.32019144
   0.49951616 -0.00046380  0.32057924
   0.66550138  0.83243106  0.32078748
Lattice                                 
           1
     4.191968    2.420300    0.000320
    -4.191936    2.420244    0.000163
     0.000280    0.001502   15.124795
   B    C 
     4    11
Direct configuration=    13
   0.00419304  0.00286404  0.11581559
   0.35810126  0.00371932  0.09801820
   0.00308016  0.35570426  0.09801444
   0.65129192  0.64880618  0.09801458
   0.32711283  0.32452219  0.09940112
   0.68238436  0.00389381  0.09940373
   0.00303344  0.67986280  0.09939690
   0.00035849  0.49999554  0.32070518
   0.16689968  0.33425339  0.32093089
   0.00001839  0.00000119  0.32040900
   0.16734557  0.83310484  0.32094295
   0.50005509  0.50038754  0.32071705
   0.66667228  0.33334568  0.32025070
   0.49966051 -0.00033718  0.32070068
   0.66575363  0.83264373  0.32092500
Lattice                                 
           1
     4.192338    2.420464    0.000431
    -4.192341    2.420471    0.000210
     0.000397    0.001990   15.164915
   B    C 
     4    11
Direct configuration=    14
   0.00420002  0.00290440  0.11425564
   0.35872972  0.00387522  0.09816384
   0.00286048  0.35616247  0.09815797
   0.65085140  0.64814930  0.09816265
   0.32754016  0.32476472  0.09914268
   0.68212213  0.00404989  0.09915518
   0.00285958  0.67944504  0.09914940
   0.00009362  0.50003966  0.32094906
   0.16685051  0.33377991  0.32120709
   0.00000902  0.00000415  0.32060537
   0.16696185  0.83318691  0.32122177
   0.49998528  0.50007206  0.32096337
   0.66668959  0.33334851  0.32036907
   0.49994920 -0.00008395  0.32094323
   0.66625810  0.83306903  0.32119968
Lattice                                 
           1
     4.193077    2.420794    0.000654
    -4.193152    2.420925    0.000302
     0.000630    0.002967   15.245155
   B    C 
     4    11
Direct configuration=    15
   0.00421433  0.00298540  0.11114400
   0.35998650  0.00418698  0.09845434
   0.00242113  0.35707877  0.09844428
   0.64997039  0.64683562  0.09845800
   0.32839480  0.32524980  0.09862717
   0.68159778  0.00436205  0.09865941
   0.00251195  0.67860963  0.09865572
  -0.00043615  0.50012786  0.32143553
   0.16675212  0.33283300  0.32175805
  -0.00000975  0.00001002  0.32099705
   0.16619442  0.83335098  0.32177793
   0.49984561  0.49944112  0.32145471
   0.66672417  0.33335415  0.32060519
   0.50052646  0.00042242  0.32142705
   0.66726691  0.83391954  0.32174758
Lattice                                 
           1
     4.192687    2.420620    0.000536
    -4.192725    2.420685    0.000253
     0.000507    0.002452   15.202843
   B    C 
     4    11
Direct configuration=    16
   0.00420641  0.00294242  0.11277618
   0.35932392  0.00402263  0.09830197
   0.00265280  0.35659571  0.09829410
   0.65043492  0.64752824  0.09830307
   0.32794414  0.32499400  0.09889758
   0.68187417  0.00419744  0.09891946
   0.00269518  0.67905003  0.09891467
  -0.00015678  0.50008141  0.32118035
   0.16680406  0.33333228  0.32146905
   0.00000019  0.00000696  0.32079160
   0.16659910  0.83326454  0.32148620
   0.49991931  0.49977381  0.32119698
   0.66670596  0.33335120  0.32048134
   0.50022216  0.00015549  0.32117328
   0.66673510  0.83347118  0.32146019
Lattice                                 
           1
     4.192417    2.420484    0.000574
    -4.192433    2.420512    0.000262
     0.000560    0.002595   15.213999
   B    C 
     4    11
Direct configuration=    17
   0.00420396  0.00293570  0.11224116
   0.35928563  0.00395590  0.09827807
   0.00272697  0.35662898  0.09827020
   0.65039717  0.64756320  0.09827933
   0.32795718  0.32512656  0.09889064
   0.68174201  0.00407798  0.09891423
   0.00280749  0.67903507  0.09890964
  -0.00009082  0.50004381  0.32126098
   0.16670302  0.33328575  0.32152897
   0.00001740  0.00001386  0.32090690
   0.16662723  0.83334433  0.32154533
   0.49998039  0.49987377  0.32127660
   0.66669321  0.33334731  0.32056996
   0.50014786  0.00011345  0.32125370
   0.66676199  0.83342166  0.32152027
Lattice                                 
           1
     4.191606    2.420077    0.000688
    -4.191556    2.419991    0.000286
     0.000721    0.003025   15.247464
   B    C 
     4    11
Direct configuration=    18
   0.00419666  0.00291560  0.11063730
   0.35917074  0.00375570  0.09820641
   0.00294948  0.35672877  0.09819856
   0.65028390  0.64766810  0.09820819
   0.32799629  0.32552424  0.09886984
   0.68134548  0.00371957  0.09889854
   0.00314444  0.67899020  0.09889458
   0.00010705  0.49993100  0.32150270
   0.16639985  0.33314617  0.32170862
   0.00006900  0.00003457  0.32125257
   0.16671160  0.83358372  0.32172262
   0.50016366  0.50017366  0.32151530
   0.66665493  0.33333564  0.32083563
   0.49992493 -0.00001268  0.32149480
   0.66684266  0.83327308  0.32170035
Lattice                                 
           1
     4.189984    2.419263    0.000917
    -4.189804    2.418950    0.000336
     0.001043    0.003886   15.314395
   B    C 
     4    11
Direct configuration=    19
   0.00418241  0.00287559  0.10743660
   0.35894094  0.00335523  0.09806340
   0.00339461  0.35692841  0.09805558
   0.65005734  0.64787794  0.09806623
   0.32807453  0.32631978  0.09882832
   0.68055229  0.00300262  0.09886723
   0.00381847  0.67890042  0.09886450
   0.00050282  0.49970530  0.32198508
   0.16579337  0.33286693  0.32206713
   0.00017215  0.00007594  0.32194239
   0.16688033  0.83406259  0.32207640
   0.50053020  0.50077354  0.32199165
   0.66657830  0.33331226  0.32136582
   0.49947892 -0.00026504  0.32197596
   0.66700399  0.83297584  0.32205972
Lattice                                 
           1
     4.190372    2.419389    0.000963
    -4.190263    2.419198    0.000345
     0.001111    0.004057   15.326557
   B    C 
     4    11
Direct configuration=    20
   0.00417664  0.00286166  0.10677974
   0.35888253  0.00325842  0.09802469
   0.00350897  0.35697237  0.09801717
   0.65000544  0.64794070  0.09802755
   0.32803330  0.32642109  0.09882646
   0.68045026  0.00286693  0.09886644
   0.00394974  0.67893011  0.09886388
   0.00041538  0.49979177  0.32207647
   0.16603108  0.33301284  0.32214352
   0.00012751  0.00005829  0.32208246
   0.16686778  0.83389123  0.32215152
   0.50038917  0.50061239  0.32208159
   0.66662196  0.33332902  0.32150051
   0.49957868 -0.00023618  0.32206746
   0.66692225  0.83305668  0.32213652
Lattice                                 
           1
     4.190725    2.419503    0.001005
    -4.190679    2.419424    0.000353
     0.001172    0.004213   15.337596
   B    C 
     4    11
Direct configuration=    21
   0.00417143  0.00284903  0.10618393
   0.35882951  0.00317056  0.09798958
   0.00361278  0.35701227  0.09798234
   0.64995833  0.64799766  0.09799248
   0.32799588  0.32651305  0.09882477
   0.68035764  0.00274377  0.09886573
   0.00406889  0.67895707  0.09886332
   0.00033600  0.49987026  0.32215936
   0.16624685  0.33314527  0.32221282
   0.00008698  0.00004227  0.32220952
   0.16685638  0.83373570  0.32221965
   0.50026115  0.50046612  0.32216318
   0.66666158  0.33334424  0.32162269
   0.49966922 -0.00020998  0.32215045
   0.66684805  0.83313005  0.32220619
Lattice                                 
           1
     4.191429    2.419731    0.001089
    -4.191512    2.419875    0.000369
     0.001295    0.004524   15.359676
   B    C 
     4    11
Direct configuration=    22
   0.00416105  0.00282380  0.10499316
   0.35872348  0.00299485  0.09791942
   0.00382038  0.35709208  0.09791272
   0.64986412  0.64811157  0.09792237
   0.32792105  0.32669695  0.09882140
   0.68017242  0.00249748  0.09886431
   0.00430718  0.67901097  0.09886220
   0.00017724  0.50002721  0.32232503
   0.16667836  0.33341012  0.32235131
   0.00000592  0.00001021  0.32246345
   0.16683359  0.83342466  0.32235581
   0.50000512  0.50017360  0.32232623
   0.66674081  0.33337466  0.32186686
   0.49985030 -0.00015759  0.32231632
   0.66669965  0.83327676  0.32234542
Lattice                                 
           1
     4.192026    2.420161    0.001086
    -4.192060    2.420220    0.000367
     0.001293    0.004513   15.356116
   B    C 
     4    11
Direct configuration=    23
   0.00415804  0.00281973  0.10502060
   0.35877731  0.00301075  0.09792797
   0.00380869  0.35712547  0.09792169
   0.64982601  0.64806618  0.09793066
   0.32787805  0.32657746  0.09880703
   0.68029029  0.00258227  0.09884824
   0.00423130  0.67904589  0.09884606
   0.00012804  0.50002106  0.32231127
   0.16668076  0.33340843  0.32236181
   0.00003393  0.00002122  0.32244048
   0.16678823  0.83339004  0.32236629
   0.50004272  0.50012216  0.32231251
   0.66671426  0.33336385  0.32189227
   0.49993788 -0.00007134  0.32230292
   0.66666516  0.83328415  0.32235620
Lattice                                 
           1
     4.193819    2.421452    0.001079
    -4.193705    2.421254    0.000363
     0.001289    0.004480   15.345435
   B    C 
     4    11
Direct configuration=    24
   0.00414903  0.00280749  0.10510293
   0.35893879  0.00305846  0.09795364
   0.00377360  0.35722562  0.09794861
   0.64971169  0.64793004  0.09795553
   0.32774910  0.32621903  0.09876392
   0.68064382  0.00283663  0.09880004
   0.00400371  0.67915064  0.09879764
  -0.00001956  0.50000263  0.32226998
   0.16668797  0.33340336  0.32239333
   0.00011796  0.00005424  0.32237157
   0.16665219  0.83328621  0.32239771
   0.50015549  0.49996786  0.32227133
   0.66663462  0.33333142  0.32196852
   0.50020057  0.00018738  0.32226274
   0.66656169  0.83330632  0.32238852
Lattice                                 
           1
     4.193880    2.421383    0.001076
    -4.193855    2.421340    0.000359
     0.001291    0.004463   15.337828
   B    C 
     4    11
Direct configuration=    25
   0.00414359  0.00279417  0.10510674
   0.35902420  0.00307940  0.09796256
   0.00376243  0.35728914  0.09795835
   0.64963824  0.64785344  0.09796389
   0.32773174  0.32608574  0.09873737
   0.68077969  0.00296616  0.09876983
   0.00388869  0.67915923  0.09876725
  -0.00001031  0.49999471  0.32226297
   0.16673206  0.33344099  0.32240893
   0.00005386  0.00003060  0.32234872
   0.16674628  0.83332255  0.32241318
   0.50008445  0.50000350  0.32226440
   0.66669665  0.33335560  0.32202041
   0.50007976  0.00009232  0.32225663
   0.66660933  0.83329980  0.32240477
Lattice                                 
           1
     4.193983    2.421266    0.001071
    -4.194111    2.421488    0.000354
     0.001294    0.004434   15.324812
   B    C 
     4    11
Direct configuration=    26
   0.00413430  0.00277139  0.10511327
   0.35917034  0.00311521  0.09797784
   0.00374332  0.35739781  0.09797502
   0.64951256  0.64772238  0.09797819
   0.32770205  0.32585769  0.09869193
   0.68101217  0.00318778  0.09871811
   0.00369190  0.67917392  0.09871524
   0.00000551  0.49998116  0.32225095
   0.16680751  0.33350537  0.32243563
  -0.00005582 -0.00000987  0.32230959
   0.16690725  0.83338472  0.32243967
   0.49996290  0.50006449  0.32225254
   0.66680278  0.33339697  0.32210924
   0.49987306 -0.00007032  0.32224618
   0.66669085  0.83328865  0.32243260
Lattice                                 
           1
     4.193514    2.421101    0.001069
    -4.193566    2.421191    0.000349
     0.001298    0.004415   15.314625
   B    C 
     4    11
Direct configuration=    27
   0.00412930  0.00275483  0.10509383
   0.35923051  0.00313109  0.09797834
   0.00373787  0.35744350  0.09797648
   0.64945376  0.64766480  0.09797794
   0.32774680  0.32581868  0.09866503
   0.68105787  0.00328281  0.09868664
   0.00360835  0.67912919  0.09868360
   0.00008570  0.50001264  0.32226367
   0.16674645  0.33346901  0.32244353
  -0.00000766  0.00000763  0.32230349
   0.16685326  0.83337926  0.32244743
   0.49999894  0.50010203  0.32226532
   0.66675512  0.33337884  0.32215962
   0.49990278 -0.00008405  0.32225983
   0.66666162  0.83327706  0.32244125
Lattice                                 
           1
     4.192107    2.420605    0.001062
    -4.191930    2.420298    0.000337
     0.001310    0.004360   15.284063
   B    C 
     4    11
Direct configuration=    28
   0.00411428  0.00270516  0.10503549
   0.35941102  0.00317873  0.09797985
   0.00372150  0.35758060  0.09798084
   0.64927736  0.64749204  0.09797716
   0.32788107  0.32570163  0.09858430
   0.68119498  0.00356794  0.09859217
   0.00335770  0.67899500  0.09858863
   0.00032632  0.50010711  0.32230184
   0.16656328  0.33335993  0.32246724
   0.00013683  0.00006013  0.32228516
   0.16669128  0.83336291  0.32247074
   0.50010707  0.50021469  0.32230370
   0.66661213  0.33332444  0.32231086
   0.49999194 -0.00012528  0.32230080
   0.66657393  0.83324229  0.32246721
Lattice                                 
           1
     4.192042    2.420521    0.001060
    -4.191894    2.420263    0.000333
     0.001314    0.004348   15.273984
   B    C 
     4    11
Direct configuration=    29
   0.00411103  0.00269370  0.10500450
   0.35942126  0.00318787  0.09797121
   0.00372129  0.35758431  0.09797295
   0.64926583  0.64748407  0.09796790
   0.32792164  0.32571480  0.09856444
   0.68118553  0.00360196  0.09856828
   0.00332888  0.67895297  0.09856457
   0.00026826  0.50009142  0.32232557
   0.16659196  0.33336363  0.32247036
   0.00012200  0.00005460  0.32229203
   0.16669455  0.83336022  0.32247385
   0.50009777  0.50017497  0.32232757
   0.66662843  0.33333008  0.32234655
   0.50000890 -0.00008885  0.32232528
   0.66659332  0.83326159  0.32247095
Lattice                                 
           1
     4.191849    2.420266    0.001056
    -4.191786    2.420158    0.000323
     0.001328    0.004310   15.243749
   B    C 
     4    11
Direct configuration=    30
   0.00410127  0.00265931  0.10491145
   0.35945200  0.00321527  0.09794530
   0.00372067  0.35759545  0.09794925
   0.64923126  0.64746015  0.09794008
   0.32804338  0.32575431  0.09850481
   0.68115718  0.00370400  0.09849657
   0.00324244  0.67882687  0.09849236
   0.00009408  0.50004436  0.32239682
   0.16667799  0.33337471  0.32247969
   0.00007752  0.00003802  0.32231267
   0.16670435  0.83335217  0.32248317
   0.50006988  0.50005583  0.32239925
   0.66667732  0.33334699  0.32245367
   0.50005979  0.00002042  0.32239875
   0.66665151  0.83331949  0.32248217
Lattice                                 
           1
     4.191461    2.419757    0.001047
    -4.191571    2.419947    0.000303
     0.001354    0.004234   15.183278
   B    C 
     4    11
Direct configuration=    31
   0.00408175  0.00259054  0.10472499
   0.35951348  0.00327009  0.09789336
   0.00371943  0.35761773  0.09790177
   0.64916212  0.64741231  0.09788433
   0.32828688  0.32583333  0.09838531
   0.68110049  0.00390808  0.09835285
   0.00306954  0.67857466  0.09834765
  -0.00025431  0.49995023  0.32253958
   0.16685008  0.33339687  0.32249841
  -0.00001146  0.00000485  0.32235401
   0.16672396  0.83333605  0.32250185
   0.50001410  0.49981753  0.32254288
   0.66677512  0.33338080  0.32266834
   0.50016159  0.00023897  0.32254600
   0.66676791  0.83343530  0.32250466
Lattice                                 
           1
     4.191815    2.419976    0.001045
    -4.191910    2.420140    0.000299
     0.001358    0.004221   15.167769
   B    C 
     4    11
Direct configuration=    32
   0.00407916  0.00258399  0.10466288
   0.35947579  0.00327649  0.09786757
   0.00372186  0.35757411  0.09787680
   0.64920055  0.64745508  0.09785775
   0.32827886  0.32584480  0.09836123
   0.68108829  0.00389315  0.09832359
   0.00308497  0.67857659  0.09831816
  -0.00020856  0.49995148  0.32258039
   0.16683034  0.33341761  0.32251037
  -0.00000332  0.00000875  0.32237285
   0.16674877  0.83333982  0.32251394
   0.50003017  0.49986053  0.32258407
   0.66676640  0.33337947  0.32271152
   0.50013222  0.00020604  0.32258759
   0.66673515  0.83339943  0.32251729
Lattice                                 
           1
     4.192878    2.420632    0.001038
    -4.192928    2.420717    0.000289
     0.001369    0.004183   15.121242
   B    C 
     4    11
Direct configuration=    33
   0.00407139  0.00256434  0.10447635
   0.35936274  0.00329568  0.09779010
   0.00372917  0.35744326  0.09780183
   0.64931584  0.64758341  0.09777793
   0.32825481  0.32587920  0.09828889
   0.68105170  0.00384834  0.09823571
   0.00313126  0.67858239  0.09822961
  -0.00007131  0.49995524  0.32270294
   0.16677113  0.33347982  0.32254628
   0.00002111  0.00002045  0.32242942
   0.16682320  0.83335111  0.32255027
   0.50007838  0.49998955  0.32270776
   0.66674025  0.33337548  0.32284119
   0.50004412  0.00010725  0.32271248
   0.66663688  0.83329181  0.32255524
Lattice                                 
           1
     4.195004    2.421945    0.001025
    -4.194963    2.421873    0.000269
     0.001391    0.004105   15.028189
   B    C 
     4    11
Direct configuration=    34
   0.00405586  0.00252505  0.10410215
   0.35913669  0.00333406  0.09763470
   0.00374377  0.35718164  0.09765142
   0.64954637  0.64783999  0.09761779
   0.32820672  0.32594799  0.09814376
   0.68097853  0.00375876  0.09805941
   0.00322382  0.67859400  0.09805196
   0.00020311  0.49996276  0.32294879
   0.16665275  0.33360422  0.32261833
   0.00006995  0.00004383  0.32254290
   0.16697202  0.83337370  0.32262316
   0.50017476  0.50024752  0.32295590
   0.66668797  0.33336749  0.32310133
   0.49986796 -0.00009028  0.32296304
   0.66644039  0.83307663  0.32263138
Lattice                                 
           1
     4.194446    2.421600    0.001029
    -4.194429    2.421570    0.000274
     0.001385    0.004126   15.052605
   B    C 
     4    11
Direct configuration=    35
   0.00405994  0.00253535  0.10420094
   0.35919597  0.00332400  0.09767573
   0.00373994  0.35725025  0.09769113
   0.64948591  0.64777269  0.09766007
   0.32821933  0.32592995  0.09818208
   0.68099772  0.00378225  0.09810595
   0.00319955  0.67859096  0.09809886
   0.00013114  0.49996079  0.32288388
   0.16668380  0.33357159  0.32259931
   0.00005714  0.00003769  0.32251294
   0.16693299  0.83336777  0.32260391
   0.50014948  0.50017986  0.32289039
   0.66670168  0.33336958  0.32303265
   0.49991416 -0.00003848  0.32289689
   0.66649192  0.83313306  0.32261128
Lattice                                 
           1
     4.194192    2.421496    0.001025
    -4.194166    2.421451    0.000274
     0.001382    0.004121   15.029666
   B    C 
     4    11
Direct configuration=    36
   0.00406448  0.00255592  0.10406736
   0.35912470  0.00331359  0.09760294
   0.00373894  0.35718536  0.09761824
   0.64956155  0.64784158  0.09758693
   0.32808016  0.32592658  0.09815013
   0.68099073  0.00363434  0.09807099
   0.00333002  0.67872327  0.09806368
   0.00014040  0.50002027  0.32293702
   0.16669900  0.33348308  0.32266855
   0.00006050  0.00003482  0.32255458
   0.16683146  0.83336279  0.32267369
   0.50008412  0.50013269  0.32294424
   0.66670537  0.33336481  0.32307763
   0.49996564 -0.00004571  0.32294969
   0.66658361  0.83323396  0.32268032
Lattice                                 
           1
     4.193818    2.421344    0.001021
    -4.193778    2.421275    0.000273
     0.001378    0.004113   14.995880
   B    C 
     4    11
Direct configuration=    37
   0.00407116  0.00258621  0.10387032
   0.35901972  0.00329826  0.09749557
   0.00373746  0.35708979  0.09751073
   0.64967295  0.64794303  0.09747906
   0.32787517  0.32592161  0.09810301
   0.68098044  0.00341647  0.09801941
   0.00352218  0.67891814  0.09801179
   0.00015403  0.50010788  0.32301540
   0.16672138  0.33335270  0.32277067
   0.00006544  0.00003059  0.32261600
   0.16668192  0.83335545  0.32277663
   0.49998786  0.50006321  0.32302369
   0.66671081  0.33335778  0.32314398
   0.50004147 -0.00005636  0.32302757
   0.66671867  0.83338258  0.32278216
Lattice                                 
           1
     4.193069    2.421039    0.001011
    -4.193002    2.420924    0.000272
     0.001369    0.004098   14.928309
   B    C 
     4    11
Direct configuration=    38
   0.00408453  0.00264679  0.10347536
   0.35880975  0.00326759  0.09728036
   0.00373450  0.35689862  0.09729522
   0.64989576  0.64814595  0.09726282
   0.32746517  0.32591169  0.09800855
   0.68095987  0.00298070  0.09791603
   0.00390654  0.67930791  0.09790778
   0.00018129  0.50028311  0.32317252
   0.16676616  0.33309194  0.32297539
   0.00007534  0.00002212  0.32273912
   0.16638281  0.83334078  0.32298295
   0.49979532  0.49992423  0.32318294
   0.66672168  0.33334373  0.32327698
   0.50019314 -0.00007766  0.32318367