<?xml version="1.0" encoding="ISO-8859-1"?>
<modeling>
 <generator>
  <i name="program" type="string">vasp </i>
  <i name="version" type="string">6.3.2  </i>
  <i name="subversion" type="string">27Jun22 (build Dec 22 2022 13:13:19) complex                          parallel </i>
  <i name="platform" type="string">LinuxIFC </i>
  <i name="date" type="string">2023 08 22 </i>
  <i name="time" type="string">23:19:23 </i>
 </generator>
 <incar>
  <i type="string" name="SYSTEM">Lattice</i>
  <i type="int" name="ISTART">     0</i>
  <i type="string" name="PREC">Accurate</i>
  <i type="string" name="ALGO">Normal</i>
  <i type="int" name="ISPIN">     2</i>
  <i type="int" name="ICHARG">     2</i>
  <i type="int" name="NELM">    64</i>
  <i type="int" name="IBRION">     2</i>
  <i name="EDIFF">      0.00000100</i>
  <i name="EDIFFG">     -0.00100000</i>
  <i type="int" name="NSW">   128</i>
  <i type="int" name="ISIF">     2</i>
  <i name="ENCUT">    450.00000000</i>
  <i name="POTIM">      0.50000000</i>
  <i type="int" name="ISMEAR">     0</i>
  <i name="SIGMA">      0.10000000</i>
  <i type="logical" name="LWAVE"> F  </i>
  <i type="logical" name="LCHARG"> F  </i>
  <i type="string" name="GGA">PE</i>
  <i type="int" name="IVDW">    12</i>
 </incar>
 <primitive_cell>
  <structure name="primitive_cell" >
   <crystal>
    <varray name="basis" >
     <v>       4.31107446       2.48900000       0.00000000 </v>
     <v>      -4.31107446       2.48900000       0.00000000 </v>
     <v>       0.00000000       0.00000000      15.00000000 </v>
    </varray>
    <i name="volume">    321.90792993 </i>
    <varray name="rec_basis" >
     <v>       0.11598037       0.20088389       0.00000000 </v>
     <v>      -0.11598037       0.20088389       0.00000000 </v>
     <v>       0.00000000       0.00000000       0.06666667 </v>
    </varray>
   </crystal>
   <varray name="positions" >
    <v>       0.66888689       1.00000000       0.10000000 </v>
    <v>       0.33111211       1.00000000       0.10000000 </v>
    <v>       1.00000000       0.33111211       0.10000000 </v>
    <v>       1.00000000       0.66888689       0.10000000 </v>
    <v>       0.33111211       0.33111211       0.10000000 </v>
    <v>       0.66888689       0.66888689       0.10000000 </v>
    <v>       0.66666600       0.33333300       0.09922189 </v>
    <v>       0.33333300       0.66666600       0.10077811 </v>
    <v>       0.27777711       0.22222189       0.46960000 </v>
    <v>       0.44444411       0.05555489       0.46960000 </v>
    <v>       0.27777711       0.72222189       0.46960000 </v>
    <v>       0.44444411       0.55555489       0.46960000 </v>
    <v>       0.77777711       0.22222189       0.46960000 </v>
    <v>       0.94444411       0.05555489       0.46960000 </v>
    <v>       0.77777711       0.72222189       0.46960000 </v>
    <v>       0.94444411       0.55555489       0.46960000 </v>
   </varray>
  </structure>
  <varray name="primitive_index" >
   <v type="int" >        1 </v>
   <v type="int" >        2 </v>
   <v type="int" >        3 </v>
   <v type="int" >        4 </v>
   <v type="int" >        5 </v>
   <v type="int" >        6 </v>
   <v type="int" >        7 </v>
   <v type="int" >        8 </v>
   <v type="int" >        9 </v>
   <v type="int" >       10 </v>
   <v type="int" >       11 </v>
   <v type="int" >       12 </v>
   <v type="int" >       13 </v>
   <v type="int" >       14 </v>
   <v type="int" >       15 </v>
   <v type="int" >       16 </v>
  </varray>
 </primitive_cell>
 <kpoints>
  <generation param="Gamma">
   <v type="int" name="divisions">      12       12        1 </v>
   <v name="usershift">      0.00000000       0.00000000       0.00000000 </v>
   <v name="genvec1">      0.08333333      -0.00000000       0.00000000 </v>
   <v name="genvec2">     -0.00000000       0.08333333       0.00000000 </v>
   <v name="genvec3">      0.00000000       0.00000000       1.00000000 </v>
   <v name="shift">      0.00000000       0.00000000       0.00000000 </v>
  </generation>
  <varray name="kpointlist" >
   <v>       0.00000000       0.00000000       0.00000000 </v>
   <v>       0.08333333      -0.00000000       0.00000000 </v>
   <v>      -0.08333333       0.08333333       0.00000000 </v>
   <v>       0.16666667       0.00000000       0.00000000 </v>
   <v>      -0.16666667       0.16666667       0.00000000 </v>
   <v>       0.25000000      -0.00000000       0.00000000 </v>
   <v>      -0.25000000       0.25000000       0.00000000 </v>
   <v>       0.33333333       0.00000000       0.00000000 </v>
   <v>      -0.33333333       0.33333333       0.00000000 </v>
   <v>       0.41666667      -0.00000000       0.00000000 </v>
   <v>      -0.41666667       0.41666667       0.00000000 </v>
   <v>       0.50000000      -0.00000000       0.00000000 </v>
   <v>       0.50000000       0.50000000       0.00000000 </v>
   <v>       0.08333333       0.08333333       0.00000000 </v>
   <v>      -0.08333333       0.16666667       0.00000000 </v>
   <v>       0.16666667       0.08333333       0.00000000 </v>
   <v>      -0.08333333       0.25000000       0.00000000 </v>
   <v>      -0.25000000       0.16666667       0.00000000 </v>
   <v>       0.25000000       0.08333333       0.00000000 </v>
   <v>      -0.08333333       0.33333333       0.00000000 </v>
   <v>      -0.33333333       0.25000000       0.00000000 </v>
   <v>       0.33333333       0.08333333       0.00000000 </v>
   <v>      -0.08333333       0.41666667       0.00000000 </v>
   <v>      -0.41666667       0.33333333       0.00000000 </v>
   <v>       0.41666667       0.08333333       0.00000000 </v>
   <v>      -0.08333333       0.50000000       0.00000000 </v>
   <v>       0.50000000       0.41666667       0.00000000 </v>
   <v>       0.16666667       0.16666667       0.00000000 </v>
   <v>      -0.16666667       0.33333333       0.00000000 </v>
   <v>       0.25000000       0.16666667       0.00000000 </v>
   <v>      -0.16666667       0.41666667       0.00000000 </v>
   <v>      -0.41666667       0.25000000       0.00000000 </v>
   <v>       0.33333333       0.16666667       0.00000000 </v>
   <v>      -0.16666667       0.50000000       0.00000000 </v>
   <v>       0.50000000       0.33333333       0.00000000 </v>
   <v>       0.41666667       0.16666667       0.00000000 </v>
   <v>       0.41666667       0.41666667       0.00000000 </v>
   <v>       0.25000000       0.25000000       0.00000000 </v>
   <v>      -0.25000000       0.50000000       0.00000000 </v>
   <v>       0.33333333       0.25000000       0.00000000 </v>
   <v>      -0.25000000      -0.41666667       0.00000000 </v>
   <v>       0.41666667       0.33333333       0.00000000 </v>
   <v>       0.33333333       0.33333333       0.00000000 </v>
  </varray>
  <varray name="weights" >
   <v>       0.00694444 </v>
   <v>       0.02777778 </v>
   <v>       0.01388889 </v>
   <v>       0.02777778 </v>
   <v>       0.01388889 </v>
   <v>       0.02777778 </v>
   <v>       0.01388889 </v>
   <v>       0.02777778 </v>
   <v>       0.01388889 </v>
   <v>       0.02777778 </v>
   <v>       0.01388889 </v>
   <v>       0.01388889 </v>
   <v>       0.00694444 </v>
   <v>       0.01388889 </v>
   <v>       0.02777778 </v>
   <v>       0.02777778 </v>
   <v>       0.02777778 </v>
   <v>       0.02777778 </v>
   <v>       0.02777778 </v>
   <v>       0.02777778 </v>
   <v>       0.02777778 </v>
   <v>       0.02777778 </v>
   <v>       0.02777778 </v>
   <v>       0.02777778 </v>
   <v>       0.02777778 </v>
   <v>       0.02777778 </v>
   <v>       0.02777778 </v>
   <v>       0.01388889 </v>
   <v>       0.02777778 </v>
   <v>       0.02777778 </v>
   <v>       0.02777778 </v>
   <v>       0.02777778 </v>
   <v>       0.02777778 </v>
   <v>       0.02777778 </v>
   <v>       0.02777778 </v>
   <v>       0.02777778 </v>
   <v>       0.01388889 </v>
   <v>       0.01388889 </v>
   <v>       0.02777778 </v>
   <v>       0.02777778 </v>
   <v>       0.02777778 </v>
   <v>       0.02777778 </v>
   <v>       0.01388889 </v>
  </varray>
 </kpoints>
 <parameters>
  <separator name="general" >
   <i type="string" name="SYSTEM">Lattice</i>
   <i type="logical" name="LCOMPAT"> F  </i>
  </separator>
  <separator name="electronic" >
   <i type="string" name="PREC">accura</i>
   <i name="ENMAX">    450.00000000</i>
   <i name="ENAUG">    644.87300000</i>
   <i name="EDIFF">      0.00000100</i>
   <i type="int" name="IALGO">    38</i>
   <i type="int" name="IWAVPR">    11</i>
   <i type="int" name="NBANDS">    48</i>
   <i type="int" name="NBANDSLOW">    -1</i>
   <i type="int" name="NBANDSHIGH">    -1</i>
   <i name="NELECT">     56.00000000</i>
   <i type="int" name="TURBO">     0</i>
   <i type="int" name="IRESTART">     0</i>
   <i type="int" name="NREBOOT">     0</i>
   <i type="int" name="NMIN">     0</i>
   <i name="EREF">      0.00000000</i>
   <separator name="electronic smearing" >
    <i type="int" name="ISMEAR">     0</i>
    <i name="SIGMA">      0.10000000</i>
    <i name="KSPACING">      0.50000000</i>
    <i type="logical" name="KGAMMA"> T  </i>
    <i type="logical" name="KBLOWUP"> T  </i>
   </separator>
   <separator name="electronic projectors" >
    <i type="logical" name="LREAL"> F  </i>
    <v name="ROPT">      0.00000000      0.00000000</v>
    <i type="int" name="LMAXPAW">  -100</i>
    <i type="int" name="LMAXMIX">     2</i>
    <i type="logical" name="NLSPLINE"> F  </i>
   </separator>
   <separator name="electronic startup" >
    <i type="int" name="ISTART">     0</i>
    <i type="int" name="ICHARG">     2</i>
    <i type="int" name="INIWAV">     1</i>
   </separator>
   <separator name="electronic spin" >
    <i type="int" name="ISPIN">     2</i>
    <i type="logical" name="LNONCOLLINEAR"> F  </i>
    <v name="MAGMOM">      1.00000000      1.00000000      1.00000000      1.00000000      1.00000000      1.00000000      1.00000000      1.00000000      1.00000000      1.00000000      1.00000000      1.00000000      1.00000000      1.00000000      1.00000000      1.00000000</v>
    <i name="NUPDOWN">     -1.00000000</i>
    <i type="logical" name="LSORBIT"> F  </i>
    <v name="SAXIS">      0.00000000      0.00000000      1.00000000</v>
    <i type="logical" name="LSPIRAL"> F  </i>
    <v name="QSPIRAL">      0.00000000      0.00000000      0.00000000</v>
    <i type="logical" name="LZEROZ"> F  </i>
   </separator>
   <separator name="electronic exchange-correlation" >
    <i type="logical" name="LASPH"> F  </i>
    <i type="logical" name="LMETAGGA"> F  </i>
   </separator>
   <separator name="electronic convergence" >
    <i type="int" name="NELM">    64</i>
    <i type="int" name="NELMDL">    -5</i>
    <i type="int" name="NELMIN">     2</i>
    <i name="ENINI">    450.00000000</i>
    <separator name="electronic convergence detail" >
     <i type="logical" name="LDIAG"> T  </i>
     <i type="logical" name="LSUBROT"> F  </i>
     <i name="WEIMIN">      0.00100000</i>
     <i name="EBREAK">      0.00000001</i>
     <i name="DEPER">      0.30000000</i>
     <i type="int" name="NRMM">     4</i>
     <i name="TIME">      0.40000000</i>
    </separator>
   </separator>
   <separator name="electronic mixer" >
    <i name="AMIX">      0.40000000</i>
    <i name="BMIX">      1.00000000</i>
    <i name="AMIN">      0.10000000</i>
    <i name="AMIX_MAG">      1.60000000</i>
    <i name="BMIX_MAG">      1.00000000</i>
    <separator name="electronic mixer details" >
     <i type="int" name="IMIX">     4</i>
     <i type="logical" name="MIXFIRST"> F  </i>
     <i type="int" name="MAXMIX">   -45</i>
     <i name="WC">    100.00000000</i>
     <i type="int" name="INIMIX">     1</i>
     <i type="int" name="MIXPRE">     1</i>
     <i type="int" name="MREMOVE">     5</i>
    </separator>
   </separator>
   <separator name="electronic dipolcorrection" >
    <i type="logical" name="LDIPOL"> F  </i>
    <i type="logical" name="LMONO"> F  </i>
    <i type="int" name="IDIPOL">     0</i>
    <i name="EPSILON">      1.00000000</i>
    <v name="DIPOL">   -100.00000000   -100.00000000   -100.00000000</v>
    <i name="EFIELD">      0.00000000</i>
   </separator>
  </separator>
  <separator name="grids" >
   <i type="int" name="NGX">    36</i>
   <i type="int" name="NGY">    36</i>
   <i type="int" name="NGZ">   108</i>
   <i type="int" name="NGXF">    72</i>
   <i type="int" name="NGYF">    72</i>
   <i type="int" name="NGZF">   216</i>
   <i type="logical" name="ADDGRID"> F  </i>
  </separator>
  <separator name="ionic" >
   <i type="int" name="NSW">   128</i>
   <i type="int" name="IBRION">     2</i>
   <i type="int" name="MDALGO">     0</i>
   <i type="int" name="ISIF">     2</i>
   <i name="PSTRESS">      0.00000000</i>
   <i name="EDIFFG">     -0.00100000</i>
   <i type="int" name="NFREE">     1</i>
   <i name="POTIM">      0.50000000</i>
   <i name="SMASS">     -3.00000000</i>
   <i name="SCALEE">      1.00000000</i>
  </separator>
  <separator name="ionic md" >
   <i name="TEBEG">      0.00010000</i>
   <i name="TEEND">      0.00010000</i>
   <i type="int" name="NBLOCK">     1</i>
   <i type="int" name="KBLOCK">   128</i>
   <i type="int" name="NPACO">   256</i>
   <i name="APACO">     10.00000000</i>
  </separator>
  <separator name="symmetry" >
   <i type="int" name="ISYM">     2</i>
   <i name="SYMPREC">      0.00001000</i>
  </separator>
  <separator name="dos" >
   <i type="int" name="LORBIT">     0</i>
   <v name="RWIGS">     -1.00000000     -1.00000000</v>
   <i type="int" name="NEDOS">   301</i>
   <i name="EMIN">     10.00000000</i>
   <i name="EMAX">    -10.00000000</i>
   <i name="EFERMI">      0.00000000</i>
  </separator>
  <separator name="writing" >
   <i type="int" name="NWRITE">     2</i>
   <i type="logical" name="LWAVE"> F  </i>
   <i type="logical" name="LDOWNSAMPLE"> F  </i>
   <i type="logical" name="LCHARG"> F  </i>
   <i type="logical" name="LPARD"> F  </i>
   <i type="logical" name="LVTOT"> F  </i>
   <i type="logical" name="LVHAR"> F  </i>
   <i type="logical" name="LELF"> F  </i>
   <i type="logical" name="LOPTICS"> F  </i>
   <v name="STM">      0.00000000      0.00000000      0.00000000      0.00000000      0.00000000      0.00000000      0.00000000</v>
  </separator>
  <separator name="performance" >
   <i type="int" name="NPAR">    48</i>
   <i type="int" name="NSIM">     4</i>
   <i type="int" name="NBLK">    -1</i>
   <i type="logical" name="LPLANE"> T  </i>
   <i type="logical" name="LSCALAPACK"> T  </i>
   <i type="logical" name="LSCAAWARE"> F  </i>
   <i type="logical" name="LSCALU"> F  </i>
   <i type="logical" name="LASYNC"> F  </i>
   <i type="logical" name="LORBITALREAL"> F  </i>
  </separator>
  <separator name="miscellaneous" >
   <i type="int" name="IDIOT">     3</i>
   <i type="int" name="PHON_NSTRUCT">    -1</i>
   <i type="logical" name="LMUSIC"> F  </i>
   <v name="POMASS">     10.81100000     12.01100000</v>
   <v name="DARWINR">      0.00000000      0.00000000</v>
   <v name="DARWINV">      1.00000000      1.00000000</v>
   <i type="logical" name="LCORR"> T  </i>
  </separator>
  <i type="logical" name="GGA_COMPAT"> T  </i>
  <i type="logical" name="LBERRY"> F  </i>
  <i type="int" name="ICORELEVEL">     0</i>
  <i type="logical" name="LDAU"> F  </i>
  <i type="int" name="I_CONSTRAINED_M">     0</i>
  <separator name="electronic exchange-correlation" >
   <i type="string" name="GGA">PE</i>
   <i type="int" name="VOSKOWN">     0</i>
   <i type="logical" name="LHFCALC"> F  </i>
   <i type="string" name="PRECFOCK"></i>
   <i type="logical" name="LSYMGRAD"> F  </i>
   <i type="logical" name="LHFONE"> F  </i>
   <i type="logical" name="LRHFCALC"> F  </i>
   <i type="logical" name="LTHOMAS"> F  </i>
   <i type="logical" name="LMODELHF"> F  </i>
   <i type="logical" name="LFOCKACE"> F  </i>
   <i name="ENCUT4O">     -1.00000000</i>
   <i type="int" name="EXXOEP">     0</i>
   <i type="int" name="FOURORBIT">     0</i>
   <i name="AEXX">      0.00000000</i>
   <i name="HFALPHA">      0.00000000</i>
   <i name="MCALPHA">      0.00000000</i>
   <i name="ALDAX">      1.00000000</i>
   <i name="AGGAX">      1.00000000</i>
   <i name="ALDAC">      1.00000000</i>
   <i name="AGGAC">      1.00000000</i>
   <i type="int" name="NKREDX">     1</i>
   <i type="int" name="NKREDY">     1</i>
   <i type="int" name="NKREDZ">     1</i>
   <i type="logical" name="SHIFTRED"> F  </i>
   <i type="logical" name="ODDONLY"> F  </i>
   <i type="logical" name="EVENONLY"> F  </i>
   <i type="int" name="LMAXFOCK">     0</i>
   <i type="int" name="NMAXFOCKAE">     0</i>
   <i type="logical" name="LFOCKAEDFT"> F  </i>
   <i name="HFSCREEN">      0.00000000</i>
   <i name="HFSCREENC">      0.00000000</i>
   <i type="int" name="NBANDSGWLOW">     0</i>
  </separator>
  <separator name="vdW DFT" >
   <i type="logical" name="LUSE_VDW"> F  </i>
   <i name="Zab_VDW">     -0.84910000</i>
   <i name="PARAM1">      0.12340000</i>
   <i name="PARAM2">      1.00000000</i>
   <i name="PARAM3">      0.00000000</i>
  </separator>
  <separator name="model GW" >
   <i type="int" name="MODEL_GW">     0</i>
   <i name="MODEL_EPS0">     12.07154737</i>
   <i name="MODEL_ALPHA">      1.00000000</i>
  </separator>
  <separator name="linear response parameters" >
   <i type="logical" name="LEPSILON"> F  </i>
   <i type="logical" name="LRPA"> F  </i>
   <i type="logical" name="LNABLA"> F  </i>
   <i type="logical" name="LVEL"> F  </i>
   <i name="CSHIFT">      0.10000000</i>
   <i name="OMEGAMAX">     -1.00000000</i>
   <i name="DEG_THRESHOLD">      0.00200000</i>
   <i name="RTIME">     -0.10000000</i>
   <i name="WPLASMAI">      0.00000000</i>
   <v name="DFIELD">      0.00000000      0.00000000      0.00000000</v>
   <v name="WPLASMA">      0.00000000      0.00000000      0.00000000      0.00000000      0.00000000      0.00000000      0.00000000      0.00000000      0.00000000</v>
  </separator>
  <separator name="orbital magnetization" >
   <i type="logical" name="NUCIND"> F  </i>
   <v name="MAGPOS">      0.00000000      0.00000000      0.00000000</v>
   <i type="logical" name="LNICSALL"> T  </i>
   <i type="logical" name="ORBITALMAG"> F  </i>
   <i type="logical" name="LMAGBLOCH"> F  </i>
   <i type="logical" name="LCHIMAG"> F  </i>
   <i type="logical" name="LGAUGE"> T  </i>
   <i type="int" name="MAGATOM">     0</i>
   <v name="MAGDIPOL">      0.00000000      0.00000000      0.00000000</v>
   <v name="AVECCONST">      0.00000000      0.00000000      0.00000000</v>
  </separator>
  <separator name="response functions" >
   <i type="logical" name="LFINITE_TEMPERATURE"> F  </i>
   <i type="logical" name="LADDER"> F  </i>
   <i type="logical" name="LRPAFORCE"> F  </i>
   <i type="logical" name="LFXC"> F  </i>
   <i type="logical" name="LHARTREE"> T  </i>
   <i type="int" name="IBSE">     0</i>
   <v type="int" name="KPOINT">    -1     0     0     0</v>
   <i type="logical" name="LTCTC"> F  </i>
   <i type="logical" name="LTCTE"> F  </i>
   <i type="logical" name="LTETE"> F  </i>
   <i type="logical" name="LTRIPLET"> F  </i>
   <i type="logical" name="LFXCEPS"> F  </i>
   <i type="logical" name="LFXHEG"> F  </i>
   <i type="int" name="NATURALO">     2</i>
   <i type="logical" name="LHOLEGF"> F  </i>
   <i type="logical" name="L2ORDER"> F  </i>
   <i type="logical" name="LDMP1"> F  </i>
   <i type="logical" name="LMP2LT"> F  </i>
   <i type="logical" name="LSMP2LT"> F  </i>
   <i type="logical" name="LGWLF"> F  </i>
   <i name="ENCUTGW">     -2.00000000</i>
   <i name="ENCUTGWSOFT">     -2.00000000</i>
   <i name="ENCUTLF">     -1.00000000</i>
   <i type="logical" name="LESF_SPLINES"> F  </i>
   <i type="int" name="LMAXMP2">    -1</i>
   <i name="SCISSOR">      0.00000000</i>
   <i type="int" name="NOMEGA">     0</i>
   <i type="int" name="NOMEGAR">     0</i>
   <i type="int" name="NBANDSGW">    -1</i>
   <i type="int" name="NBANDSO">    -1</i>
   <i type="int" name="NBANDSV">    -1</i>
   <i type="int" name="NELMGW">     1</i>
   <i type="int" name="NELMHF">     1</i>
   <i type="int" name="DIM">     3</i>
   <i type="int" name="IESPILON">     4</i>
   <i type="int" name="ANTIRES">     0</i>
   <i name="OMEGAMAX">    -30.00000000</i>
   <i name="OMEGAMIN">    -30.00000000</i>
   <i name="OMEGATL">   -200.00000000</i>
   <i type="int" name="OMEGAGRID">     0</i>
   <i name="CSHIFT">     -0.10000000</i>
   <i type="logical" name="LSELFENERGY"> F  </i>
   <i type="logical" name="LSPECTRAL"> F  </i>
   <i type="logical" name="LSPECTRALGW"> F  </i>
   <i type="logical" name="LSINGLES"> F  </i>
   <i type="logical" name="LFERMIGW"> F  </i>
   <i type="logical" name="ODDONLYGW"> F  </i>
   <i type="logical" name="EVENONLYGW"> F  </i>
   <i type="int" name="NKREDLFX">     1</i>
   <i type="int" name="NKREDLFY">     1</i>
   <i type="int" name="NKREDLFZ">     1</i>
   <i type="int" name="MAXMEM">  2800</i>
   <i type="int" name="TELESCOPE">     0</i>
   <i type="int" name="NTAUPAR">    -1</i>
   <i type="int" name="NOMEGAPAR">    -1</i>
   <i name="DAMP_NEWTON">      0.80000001</i>
   <i name="LAMBDA">      1.00000000</i>
  </separator>
  <separator name="External order field" >
   <i name="OFIELD_KAPPA">      0.00000000</i>
   <v name="OFIELD_K">      0.00000000      0.00000000      0.00000000</v>
   <i name="OFIELD_Q6_NEAR">      0.00000000</i>
   <i name="OFIELD_Q6_FAR">      0.00000000</i>
   <i name="OFIELD_A">      0.00000000</i>
  </separator>
  <separator name="optional k-points parameters" >
   <i type="int" name="KPOINTS_OPT_MODE">     1</i>
   <i type="logical" name="LKPOINTS_OPT"> F  </i>
  </separator>
  <separator name="solvation model" >
   <i type="logical" name="LSOL"> F  </i>
  </separator>
 </parameters>
 <atominfo>
  <atoms>      16 </atoms>
  <types>       2 </types>
  <array name="atoms" >
   <dimension dim="1">ion</dimension>
   <field type="string">element</field>
   <field type="int">atomtype</field>
   <set>
    <rc><c>B </c><c>   1</c></rc>
    <rc><c>B </c><c>   1</c></rc>
    <rc><c>B </c><c>   1</c></rc>
    <rc><c>B </c><c>   1</c></rc>
    <rc><c>B </c><c>   1</c></rc>
    <rc><c>B </c><c>   1</c></rc>
    <rc><c>B </c><c>   1</c></rc>
    <rc><c>B </c><c>   1</c></rc>
    <rc><c>C </c><c>   2</c></rc>
    <rc><c>C </c><c>   2</c></rc>
    <rc><c>C </c><c>   2</c></rc>
    <rc><c>C </c><c>   2</c></rc>
    <rc><c>C </c><c>   2</c></rc>
    <rc><c>C </c><c>   2</c></rc>
    <rc><c>C </c><c>   2</c></rc>
    <rc><c>C </c><c>   2</c></rc>
   </set>
  </array>
  <array name="atomtypes" >
   <dimension dim="1">type</dimension>
   <field type="int">atomspertype</field>
   <field type="string">element</field>
   <field>mass</field>
   <field>valence</field>
   <field type="string">pseudopotential</field>
   <set>
    <rc><c>   8</c><c>B </c><c>     10.81100000</c><c>      3.00000000</c><c>  PAW_PBE B 06Sep2000                   </c></rc>
    <rc><c>   8</c><c>C </c><c>     12.01100000</c><c>      4.00000000</c><c>  PAW_PBE C 08Apr2002                   </c></rc>
   </set>
  </array>
 </atominfo>
 <structure name="initialpos" >
  <crystal>
   <varray name="basis" >
    <v>       4.31107446       2.48900000       0.00000000 </v>
    <v>      -4.31107446       2.48900000       0.00000000 </v>
    <v>       0.00000000       0.00000000      15.00000000 </v>
   </varray>
   <i name="volume">    321.90792993 </i>
   <varray name="rec_basis" >
    <v>       0.11598037       0.20088389       0.00000000 </v>
    <v>      -0.11598037       0.20088389       0.00000000 </v>
    <v>       0.00000000       0.00000000       0.06666667 </v>
   </varray>
  </crystal>
  <varray name="positions" >
   <v>       0.66888689       0.00000000       0.10000000 </v>
   <v>       0.33111211       0.00000000       0.10000000 </v>
   <v>       0.00000000       0.33111211       0.10000000 </v>
   <v>       0.00000000       0.66888689       0.10000000 </v>
   <v>       0.33111211       0.33111211       0.10000000 </v>
   <v>       0.66888689       0.66888689       0.10000000 </v>
   <v>       0.66666600       0.33333300       0.09922189 </v>
   <v>       0.33333300       0.66666600       0.10077811 </v>
   <v>       0.27777711       0.22222189       0.46960000 </v>
   <v>       0.44444411       0.05555489       0.46960000 </v>
   <v>       0.27777711       0.72222189       0.46960000 </v>
   <v>       0.44444411       0.55555489       0.46960000 </v>
   <v>       0.77777711       0.22222189       0.46960000 </v>
   <v>       0.94444411       0.05555489       0.46960000 </v>
   <v>       0.77777711       0.72222189       0.46960000 </v>
   <v>       0.94444411       0.55555489       0.46960000 </v>
  </varray>
 </structure>
 <calculation>
  <scstep>
   <time name="dav">    3.29    3.33</time>
   <time name="total">    3.34    3.38</time>
   <energy>
    <i name="alphaZ">     60.49504077 </i>
    <i name="ewald">   1870.36609616 </i>
    <i name="hartreedc">  -3284.25042913 </i>
    <i name="XCdc">    163.48931267 </i>
    <i name="pawpsdc">   1214.24570090 </i>
    <i name="pawaedc">  -1211.68112031 </i>
    <i name="eentropy">     -0.01756964 </i>
    <i name="bandstr">   -371.60991871 </i>
    <i name="atom">   1746.50554237 </i>
    <i name="e_fr_energy">    187.54265507 </i>
    <i name="e_wo_entrp">    187.56022472 </i>
    <i name="e_0_energy">    187.55143990 </i>
   </energy>
  </scstep>
  <scstep>
   <time name="dav">    5.31    5.37</time>
   <time name="total">    5.31    5.37</time>
   <energy>
    <i name="e_fr_energy">   -118.65126846 </i>
    <i name="e_wo_entrp">   -118.63966271 </i>
    <i name="e_0_energy">   -118.64546559 </i>
   </energy>
  </scstep>
  <scstep>
   <time name="dav">    5.93    5.97</time>
   <time name="total">    5.93    5.97</time>
   <energy>
    <i name="e_fr_energy">   -127.93344742 </i>
    <i name="e_wo_entrp">   -127.92122885 </i>
    <i name="e_0_energy">   -127.92733814 </i>
   </energy>
  </scstep>
  <scstep>
   <time name="dav">    5.49    5.54</time>
   <time name="total">    5.49    5.54</time>
   <energy>
    <i name="e_fr_energy">   -127.96409026 </i>
    <i name="e_wo_entrp">   -127.95172934 </i>
    <i name="e_0_energy">   -127.95790980 </i>
   </energy>
  </scstep>
  <scstep>
   <time name="dav">    5.52    5.56</time>
   <time name="total">    5.70    5.77</time>
   <energy>
    <i name="e_fr_energy">   -127.96412552 </i>
    <i name="e_wo_entrp">   -127.95176458 </i>
    <i name="e_0_energy">   -127.95794505 </i>
   </energy>
  </scstep>
  <scstep>
   <time name="dav">    4.26    4.30</time>
   <time name="total">    4.48    4.54</time>
   <energy>
    <i name="e_fr_energy">    -94.59214724 </i>
    <i name="e_wo_entrp">    -94.58105281 </i>
    <i name="e_0_energy">    -94.58660002 </i>
   </energy>
  </scstep>
  <scstep>
   <time name="dav">    5.45    5.50</time>
   <time name="total">    5.66    5.73</time>
   <energy>
    <i name="e_fr_energy">   -105.72198664 </i>
    <i name="e_wo_entrp">   -105.71244593 </i>
    <i name="e_0_energy">   -105.71721629 </i>
   </energy>
  </scstep>
  <scstep>
   <time name="dav">    5.14    5.18</time>
   <time name="total">    5.36    5.41</time>
   <energy>
    <i name="e_fr_energy">   -111.49831352 </i>
    <i name="e_wo_entrp">   -111.48895015 </i>
    <i name="e_0_energy">   -111.49363184 </i>
   </energy>
  </scstep>
  <scstep>
   <time name="dav">    4.22    4.27</time>
   <time name="total">    4.44    4.49</time>
   <energy>
    <i name="e_fr_energy">   -116.80200215 </i>
    <i name="e_wo_entrp">   -116.79949892 </i>
    <i name="e_0_energy">   -116.80075053 </i>
   </energy>
  </scstep>
  <scstep>
   <time name="dav">    5.46    5.49</time>
   <time name="total">    5.68    5.72</time>
   <energy>
    <i name="e_fr_energy">   -120.92502250 </i>
    <i name="e_wo_entrp">   -120.92015732 </i>
    <i name="e_0_energy">   -120.92258991 </i>
   </energy>
  </scstep>
  <scstep>
   <time name="dav">    4.97    5.01</time>
   <time name="total">    5.19    5.24</time>
   <energy>
    <i name="e_fr_energy">   -122.77834687 </i>
    <i name="e_wo_entrp">   -122.77514269 </i>
    <i name="e_0_energy">   -122.77674478 </i>
   </energy>
  </scstep>
  <scstep>
   <time name="dav">    5.54    5.58</time>
   <time name="total">    5.76    5.81</time>
   <energy>
    <i name="e_fr_energy">   -123.75945006 </i>
    <i name="e_wo_entrp">   -123.75472758 </i>
    <i name="e_0_energy">   -123.75708882 </i>
   </energy>
  </scstep>
  <scstep>
   <time name="dav">    5.33    5.36</time>
   <time name="total">    5.53    5.58</time>
   <energy>
    <i name="e_fr_energy">   -124.06285252 </i>
    <i name="e_wo_entrp">   -124.05679476 </i>
    <i name="e_0_energy">   -124.05982364 </i>
   </energy>
  </scstep>
  <scstep>
   <time name="dav">    4.01    4.05</time>
   <time name="total">    4.22    4.26</time>
   <energy>
    <i name="e_fr_energy">   -124.11719232 </i>
    <i name="e_wo_entrp">   -124.11110167 </i>
    <i name="e_0_energy">   -124.11414700 </i>
   </energy>
  </scstep>
  <scstep>
   <time name="dav">    4.08    4.10</time>
   <time name="total">    4.28    4.32</time>
   <energy>
    <i name="e_fr_energy">   -124.14068859 </i>
    <i name="e_wo_entrp">   -124.13461331 </i>
    <i name="e_0_energy">   -124.13765095 </i>
   </energy>
  </scstep>
  <scstep>
   <time name="dav">    4.03    4.06</time>
   <time name="total">    4.24    4.28</time>
   <energy>
    <i name="e_fr_energy">   -124.14216030 </i>
    <i name="e_wo_entrp">   -124.13610412 </i>
    <i name="e_0_energy">   -124.13913221 </i>
   </energy>
  </scstep>
  <scstep>
   <time name="dav">    3.74    3.77</time>
   <time name="total">    3.95    3.99</time>
   <energy>
    <i name="e_fr_energy">   -124.14266777 </i>
    <i name="e_wo_entrp">   -124.13662069 </i>
    <i name="e_0_energy">   -124.13964423 </i>
   </energy>
  </scstep>
  <scstep>
   <time name="dav">    3.56    3.58</time>
   <time name="total">    3.77    3.80</time>
   <energy>
    <i name="e_fr_energy">   -124.14269211 </i>
    <i name="e_wo_entrp">   -124.13663380 </i>
    <i name="e_0_energy">   -124.13966296 </i>
   </energy>
  </scstep>
  <scstep>
   <time name="dav">    3.29    3.31</time>
   <time name="total">    3.49    3.53</time>
   <energy>
    <i name="e_fr_energy">   -124.14274288 </i>
    <i name="e_wo_entrp">   -124.13667988 </i>
    <i name="e_0_energy">   -124.13971138 </i>
   </energy>
  </scstep>
  <scstep>
   <time name="dav">    3.53    3.55</time>
   <time name="total">    3.73    3.77</time>
   <energy>
    <i name="e_fr_energy">   -124.14276554 </i>
    <i name="e_wo_entrp">   -124.13670557 </i>
    <i name="e_0_energy">   -124.13973556 </i>
   </energy>
  </scstep>
  <scstep>
   <time name="dav">    3.41    3.44</time>
   <time name="total">    3.62    3.65</time>
   <energy>
    <i name="e_fr_energy">   -124.14281817 </i>
    <i name="e_wo_entrp">   -124.13675995 </i>
    <i name="e_0_energy">   -124.13978906 </i>
   </energy>
  </scstep>
  <scstep>
   <time name="dav">    3.82    3.84</time>
   <time name="total">    4.02    4.06</time>
   <energy>
    <i name="e_fr_energy">   -124.14284495 </i>
    <i name="e_wo_entrp">   -124.13678600 </i>
    <i name="e_0_energy">   -124.13981547 </i>
   </energy>
  </scstep>
  <scstep>
   <time name="dav">    4.67    4.70</time>
   <time name="total">    4.88    4.92</time>
   <energy>
    <i name="e_fr_energy">   -124.14284913 </i>
    <i name="e_wo_entrp">   -124.13678999 </i>
    <i name="e_0_energy">   -124.13981956 </i>
   </energy>
  </scstep>
  <scstep>
   <time name="dav">    4.46    4.50</time>
   <time name="total">    4.67    4.71</time>
   <energy>
    <i name="e_fr_energy">   -124.14285224 </i>
    <i name="e_wo_entrp">   -124.13679302 </i>
    <i name="e_0_energy">   -124.13982263 </i>
   </energy>
  </scstep>
  <scstep>
   <time name="dav">    4.75    4.78</time>
   <time name="total">    4.96    5.00</time>
   <energy>
    <i name="e_fr_energy">   -124.14285356 </i>
    <i name="e_wo_entrp">   -124.13679441 </i>
    <i name="e_0_energy">   -124.13982398 </i>
   </energy>
  </scstep>
  <scstep>
   <time name="dav">    5.26    5.30</time>
   <time name="total">    5.30    5.33</time>
   <energy>
    <i name="alphaZ">     60.49504077 </i>
    <i name="ewald">   1870.36609616 </i>
    <i name="hartreedc">  -3480.32066363 </i>
    <i name="XCdc">    168.34269325 </i>
    <i name="pawpsdc">   5812.19830659 </i>
    <i name="pawaedc">  -5811.57663683 </i>
    <i name="eentropy">     -0.00605901 </i>
    <i name="bandstr">   -490.14717352 </i>
    <i name="atom">   1746.50554237 </i>
    <i name="e_fr_energy">   -124.14285388 </i>
    <i name="e_wo_entrp">   -124.13679486 </i>
    <i name="e_0_energy">   -124.13982437 </i>
   </energy>
  </scstep>
  <structure>
   <crystal>
    <varray name="basis" >
     <v>       4.31107446       2.48900000       0.00000000 </v>
     <v>      -4.31107446       2.48900000       0.00000000 </v>
     <v>       0.00000000       0.00000000      15.00000000 </v>
    </varray>
    <i name="volume">    321.90792993 </i>
    <varray name="rec_basis" >
     <v>       0.11598037       0.20088389       0.00000000 </v>
     <v>      -0.11598037       0.20088389       0.00000000 </v>
     <v>       0.00000000       0.00000000       0.06666667 </v>
    </varray>
   </crystal>
   <varray name="positions" >
    <v>       0.66888689       0.00000000       0.10000000 </v>
    <v>       0.33111211       0.00000000       0.10000000 </v>
    <v>       0.00000000       0.33111211       0.10000000 </v>
    <v>       0.00000000       0.66888689       0.10000000 </v>
    <v>       0.33111211       0.33111211       0.10000000 </v>
    <v>       0.66888689       0.66888689       0.10000000 </v>
    <v>       0.66666600       0.33333300       0.09922189 </v>
    <v>       0.33333300       0.66666600       0.10077811 </v>
    <v>       0.27777711       0.22222189       0.46960000 </v>
    <v>       0.44444411       0.05555489       0.46960000 </v>
    <v>       0.27777711       0.72222189       0.46960000 </v>
    <v>       0.44444411       0.55555489       0.46960000 </v>
    <v>       0.77777711       0.22222189       0.46960000 </v>
    <v>       0.94444411       0.05555489       0.46960000 </v>
    <v>       0.77777711       0.72222189       0.46960000 </v>
    <v>       0.94444411       0.55555489       0.46960000 </v>
   </varray>
  </structure>
  <varray name="forces" >
   <v>       0.15381574       0.08879509       0.00814227 </v>
   <v>      -0.15378592      -0.08880073       0.00815946 </v>
   <v>       0.15381574      -0.08879509       0.00814227 </v>
   <v>      -0.15378592       0.08880073       0.00815946 </v>
   <v>       0.00000161      -0.17762384       0.00816824 </v>
   <v>       0.00000161       0.17762384       0.00816824 </v>
   <v>       0.00002518       0.00000000       0.00687758 </v>
   <v>      -0.00007263       0.00000000       0.01127361 </v>
   <v>      -0.00003672      -0.00047881      -0.00829025 </v>
   <v>      -0.00040345       0.00000024      -0.00848246 </v>
   <v>       0.00001450      -0.00000000      -0.00863672 </v>
   <v>       0.00014297       0.00000000      -0.00841364 </v>
   <v>       0.00061081       0.00000000      -0.00834760 </v>
   <v>       0.00009665      -0.00000000      -0.00814774 </v>
   <v>      -0.00003672       0.00047881      -0.00829025 </v>
   <v>      -0.00040345      -0.00000024      -0.00848246 </v>
  </varray>
  <varray name="stress" >
   <v>       3.95360085       0.00000000      -0.00052076 </v>
   <v>       0.00000000       3.95416832       0.00000000 </v>
   <v>      -0.00052076       0.00000000      -3.62945696 </v>
  </varray>
  <energy>
   <i name="e_fr_energy">   -125.63342136 </i>
   <i name="e_wo_entrp">   -125.62736234 </i>
   <i name="e_0_energy">   -125.63039185 </i>
  </energy>
  <time name="totalsc">  126.13  127.31</time>
 </calculation>
 <calculation>
  <scstep>
   <time name="dav">    3.52    3.55</time>
   <time name="total">    3.73    3.77</time>
   <energy>
    <i name="alphaZ">     60.49504077 </i>
    <i name="ewald">   1869.36642899 </i>
    <i name="hartreedc">  -3480.03823329 </i>
    <i name="XCdc">    168.30677003 </i>
    <i name="pawpsdc">   5812.19855126 </i>
    <i name="pawaedc">  -5811.57688461 </i>
    <i name="eentropy">     -0.00607395 </i>
    <i name="bandstr">   -489.39797994 </i>
    <i name="atom">   1746.50554237 </i>
    <i name="e_fr_energy">   -124.14683837 </i>
    <i name="e_wo_entrp">   -124.14076442 </i>
    <i name="e_0_energy">   -124.14380140 </i>
   </energy>
  </scstep>
  <scstep>
   <time name="dav">    5.17    5.21</time>
   <time name="total">    5.39    5.44</time>
   <energy>
    <i name="e_fr_energy">   -124.14340518 </i>
    <i name="e_wo_entrp">   -124.13731394 </i>
    <i name="e_0_energy">   -124.14035956 </i>
   </energy>
  </scstep>
  <scstep>
   <time name="dav">    4.92    4.95</time>
   <time name="total">    5.13    5.18</time>
   <energy>
    <i name="e_fr_energy">   -124.14286826 </i>
    <i name="e_wo_entrp">   -124.13681294 </i>
    <i name="e_0_energy">   -124.13984060 </i>
   </energy>
  </scstep>
  <scstep>
   <time name="dav">    5.35    5.38</time>
   <time name="total">    5.56    5.60</time>
   <energy>
    <i name="e_fr_energy">   -124.14284887 </i>
    <i name="e_wo_entrp">   -124.13680362 </i>
    <i name="e_0_energy">   -124.13982625 </i>
   </energy>
  </scstep>
  <scstep>
   <time name="dav">    5.19    5.22</time>
   <time name="total">    5.40    5.44</time>
   <energy>
    <i name="e_fr_energy">   -124.14284846 </i>
    <i name="e_wo_entrp">   -124.13680106 </i>
    <i name="e_0_energy">   -124.13982476 </i>
   </energy>
  </scstep>
  <scstep>
   <time name="dav">    3.90    3.93</time>
   <time name="total">    4.11    4.15</time>
   <energy>
    <i name="e_fr_energy">   -124.14284958 </i>
    <i name="e_wo_entrp">   -124.13680186 </i>
    <i name="e_0_energy">   -124.13982572 </i>
   </energy>
  </scstep>
  <scstep>
   <time name="dav">    4.19    4.22</time>
   <time name="total">    4.40    4.44</time>
   <energy>
    <i name="e_fr_energy">   -124.14285092 </i>
    <i name="e_wo_entrp">   -124.13680376 </i>
    <i name="e_0_energy">   -124.13982734 </i>
   </energy>
  </scstep>
  <scstep>
   <time name="dav">    3.83    3.86</time>
   <time name="total">    4.04    4.08</time>
   <energy>
    <i name="e_fr_energy">   -124.14285310 </i>
    <i name="e_wo_entrp">   -124.13680688 </i>
    <i name="e_0_energy">   -124.13982999 </i>
   </energy>
  </scstep>
  <scstep>
   <time name="dav">    4.25    4.28</time>
   <time name="total">    4.46    4.50</time>
   <energy>
    <i name="e_fr_energy">   -124.14285466 </i>
    <i name="e_wo_entrp">   -124.13680847 </i>
    <i name="e_0_energy">   -124.13983157 </i>
   </energy>
  </scstep>
  <scstep>
   <time name="dav">    3.95    4.62</time>
   <time name="total">    3.99    4.66</time>
   <energy>
    <i name="alphaZ">     60.49504077 </i>
    <i name="ewald">   1869.36642899 </i>
    <i name="hartreedc">  -3479.40259001 </i>
    <i name="XCdc">    168.29462418 </i>
    <i name="pawpsdc">   5795.16616814 </i>
    <i name="pawaedc">  -5794.53926366 </i>
    <i name="eentropy">     -0.00604619 </i>
    <i name="bandstr">   -490.02276004 </i>
    <i name="atom">   1746.50554237 </i>
    <i name="e_fr_energy">   -124.14285545 </i>
    <i name="e_wo_entrp">   -124.13680926 </i>
    <i name="e_0_energy">   -124.13983235 </i>
   </energy>
  </scstep>
  <structure>
   <crystal>
    <varray name="basis" >
     <v>       4.31107446       2.48900000       0.00000000 </v>
     <v>      -4.31107446       2.48900000       0.00000000 </v>
     <v>       0.00000000       0.00000000      15.00000000 </v>
    </varray>
    <i name="volume">    321.90792993 </i>
    <varray name="rec_basis" >
     <v>       0.11598037       0.20088389       0.00000000 </v>
     <v>      -0.11598037       0.20088389       0.00000000 </v>
     <v>       0.00000000       0.00000000       0.06666667 </v>
    </varray>
   </crystal>
   <varray name="positions" >
    <v>       0.67060805      -0.00000010       0.10002619 </v>
    <v>       0.32939107      -0.00000012       0.10002624 </v>
    <v>       0.00000010       0.32939095       0.10002619 </v>
    <v>       0.00000012       0.67060793       0.10002624 </v>
    <v>       0.32939074       0.32939072       0.10002627 </v>
    <v>       0.67060828       0.67060826       0.10002627 </v>
    <v>       0.66666614       0.33333286       0.09924401 </v>
    <v>       0.33333259       0.66666641       0.10081437 </v>
    <v>       0.27777227       0.22221745       0.46957334 </v>
    <v>       0.44444186       0.05555715       0.46957272 </v>
    <v>       0.27777719       0.72222181       0.46957222 </v>
    <v>       0.44444491       0.55555409       0.46957294 </v>
    <v>       0.77778053       0.22221847       0.46957315 </v>
    <v>       0.94444465       0.05555435       0.46957380 </v>
    <v>       0.77778155       0.72222673       0.46957334 </v>
    <v>       0.94444185       0.55555714       0.46957272 </v>
   </varray>
  </structure>
  <varray name="forces" >
   <v>      -0.14600699      -0.08429122       0.00822174 </v>
   <v>       0.14599684       0.08431079       0.00823706 </v>
   <v>      -0.14600699       0.08429122       0.00822174 </v>
   <v>       0.14599684      -0.08431079       0.00823706 </v>
   <v>       0.00000137       0.16864207       0.00824514 </v>
   <v>       0.00000137      -0.16864207       0.00824514 </v>
   <v>      -0.00003058       0.00000000       0.00877109 </v>
   <v>       0.00006253       0.00000000       0.00894739 </v>
   <v>      -0.00005595       0.00123039      -0.00833658 </v>
   <v>       0.00118485      -0.00000825      -0.00844601 </v>
   <v>      -0.00018932       0.00000000      -0.00851504 </v>
   <v>      -0.00024099      -0.00000000      -0.00840949 </v>
   <v>      -0.00173878      -0.00000000      -0.00836556 </v>
   <v>      -0.00010307       0.00000000      -0.00827109 </v>
   <v>      -0.00005595      -0.00123039      -0.00833658 </v>
   <v>       0.00118485       0.00000825      -0.00844601 </v>
  </varray>
  <varray name="stress" >
   <v>       2.47986317       0.00000000      -0.00047782 </v>
   <v>       0.00000000       2.47673057       0.00000000 </v>
   <v>      -0.00047783       0.00000000      -3.63216140 </v>
  </varray>
  <energy>
   <i name="e_fr_energy">   -125.63366792 </i>
   <i name="e_wo_entrp">   -125.62762173 </i>
   <i name="e_0_energy">   -125.63064482 </i>
  </energy>
  <time name="totalsc">   49.31   50.38</time>
 </calculation>
 <calculation>
  <scstep>
   <time name="dav">    3.37    3.39</time>
   <time name="total">    3.58    3.61</time>
   <energy>
    <i name="alphaZ">     60.49504077 </i>
    <i name="ewald">   1869.84087805 </i>
    <i name="hartreedc">  -3479.52716413 </i>
    <i name="XCdc">    168.31175292 </i>
    <i name="pawpsdc">   5795.15486015 </i>
    <i name="pawaedc">  -5794.52795792 </i>
    <i name="eentropy">     -0.00594495 </i>
    <i name="bandstr">   -490.39301434 </i>
    <i name="atom">   1746.50554237 </i>
    <i name="e_fr_energy">   -124.14600709 </i>
    <i name="e_wo_entrp">   -124.14006214 </i>
    <i name="e_0_energy">   -124.14303461 </i>
   </energy>
  </scstep>
  <scstep>
   <time name="dav">    5.50    5.53</time>
   <time name="total">    5.71    5.75</time>
   <energy>
    <i name="e_fr_energy">   -124.14520860 </i>
    <i name="e_wo_entrp">   -124.13920942 </i>
    <i name="e_0_energy">   -124.14220901 </i>
   </energy>
  </scstep>
  <scstep>
   <time name="dav">    6.09    6.13</time>
   <time name="total">    6.30    6.35</time>
   <energy>
    <i name="e_fr_energy">   -124.14508127 </i>
    <i name="e_wo_entrp">   -124.13904827 </i>
    <i name="e_0_energy">   -124.14206477 </i>
   </energy>
  </scstep>
  <scstep>
   <time name="dav">    5.00    5.03</time>
   <time name="total">    5.21    5.25</time>
   <energy>
    <i name="e_fr_energy">   -124.14507681 </i>
    <i name="e_wo_entrp">   -124.13904114 </i>
    <i name="e_0_energy">   -124.14205898 </i>
   </energy>
  </scstep>
  <scstep>
   <time name="dav">    6.00    6.04</time>
   <time name="total">    6.04    6.07</time>
   <energy>
    <i name="alphaZ">     60.49504077 </i>
    <i name="ewald">   1869.84087805 </i>
    <i name="hartreedc">  -3479.82096601 </i>
    <i name="XCdc">    168.31748330 </i>
    <i name="pawpsdc">   5803.24921395 </i>
    <i name="pawaedc">  -5802.62475955 </i>
    <i name="eentropy">     -0.00603546 </i>
    <i name="bandstr">   -490.10147427 </i>
    <i name="atom">   1746.50554237 </i>
    <i name="e_fr_energy">   -124.14507686 </i>
    <i name="e_wo_entrp">   -124.13904140 </i>
    <i name="e_0_energy">   -124.14205913 </i>
   </energy>
  </scstep>
  <structure>
   <crystal>
    <varray name="basis" >
     <v>       4.31107446       2.48900000       0.00000000 </v>
     <v>      -4.31107446       2.48900000       0.00000000 </v>
     <v>       0.00000000       0.00000000      15.00000000 </v>
    </varray>
    <i name="volume">    321.90792993 </i>
    <varray name="rec_basis" >
     <v>       0.11598037       0.20088389       0.00000000 </v>
     <v>      -0.11598037       0.20088389       0.00000000 </v>
     <v>       0.00000000       0.00000000       0.06666667 </v>
    </varray>
   </crystal>
   <varray name="positions" >
    <v>       0.66976942      -0.00000005       0.10001343 </v>
    <v>       0.33022964      -0.00000006       0.10001346 </v>
    <v>       0.00000005       0.33022958       0.10001343 </v>
    <v>       0.00000006       0.66976936       0.10001346 </v>
    <v>       0.33022947       0.33022946       0.10001347 </v>
    <v>       0.66976954       0.66976953       0.10001347 </v>
    <v>       0.66666607       0.33333293       0.09923323 </v>
    <v>       0.33333279       0.66666621       0.10079670 </v>
    <v>       0.27777463       0.22221961       0.46958633 </v>
    <v>       0.44444295       0.05555605       0.46958601 </v>
    <v>       0.27777715       0.72222185       0.46958576 </v>
    <v>       0.44444452       0.55555448       0.46958613 </v>
    <v>       0.77777886       0.22222014       0.46958623 </v>
    <v>       0.94444439       0.05555461       0.46958656 </v>
    <v>       0.77777939       0.72222437       0.46958633 </v>
    <v>       0.94444295       0.55555605       0.46958601 </v>
   </varray>
  </structure>
  <varray name="forces" >
   <v>      -0.00000608      -0.00000736       0.00818580 </v>
   <v>       0.00001613       0.00001264       0.00820235 </v>
   <v>      -0.00000608       0.00000736       0.00818580 </v>
   <v>       0.00001613      -0.00001264       0.00820235 </v>
   <v>       0.00000060       0.00002615       0.00821075 </v>
   <v>       0.00000060      -0.00002615       0.00821075 </v>
   <v>      -0.00000423      -0.00000000       0.00784240 </v>
   <v>      -0.00000282       0.00000000       0.01005076 </v>
   <v>      -0.00004659       0.00039582      -0.00831135 </v>
   <v>       0.00040993      -0.00000439      -0.00846182 </v>
   <v>      -0.00009059      -0.00000000      -0.00857275 </v>
   <v>      -0.00005319      -0.00000000      -0.00840956 </v>
   <v>      -0.00059243       0.00000000      -0.00835454 </v>
   <v>      -0.00000473      -0.00000000      -0.00820777 </v>
   <v>      -0.00004659      -0.00039582      -0.00831135 </v>
   <v>       0.00040993       0.00000439      -0.00846182 </v>
  </varray>
  <varray name="stress" >
   <v>       3.15292361       0.00000000      -0.00048871 </v>
   <v>       0.00000000       3.15164284       0.00000000 </v>
   <v>      -0.00048871       0.00000000      -3.62289033 </v>
  </varray>
  <energy>
   <i name="e_fr_energy">   -125.63577106 </i>
   <i name="e_wo_entrp">   -125.62973560 </i>
   <i name="e_0_energy">   -125.63275333 </i>
  </energy>
  <time name="totalsc">   29.93   30.17</time>
 </calculation>
 <calculation>
  <scstep>
   <time name="dav">    3.69    3.71</time>
   <time name="total">    3.90    3.94</time>
   <energy>
    <i name="alphaZ">     60.49504077 </i>
    <i name="ewald">   1869.83787154 </i>
    <i name="hartreedc">  -3479.82208409 </i>
    <i name="XCdc">    168.31730234 </i>
    <i name="pawpsdc">   5803.30895558 </i>
    <i name="pawaedc">  -5802.68449696 </i>
    <i name="eentropy">     -0.00603562 </i>
    <i name="bandstr">   -490.09717211 </i>
    <i name="atom">   1746.50554237 </i>
    <i name="e_fr_energy">   -124.14507618 </i>
    <i name="e_wo_entrp">   -124.13904056 </i>
    <i name="e_0_energy">   -124.14205837 </i>
   </energy>
  </scstep>
  <scstep>
   <time name="dav">    4.64    4.67</time>
   <time name="total">    4.67    4.71</time>
   <energy>
    <i name="alphaZ">     60.49504077 </i>
    <i name="ewald">   1869.83787154 </i>
    <i name="hartreedc">  -3479.82337409 </i>
    <i name="XCdc">    168.31731650 </i>
    <i name="pawpsdc">   5803.27595976 </i>
    <i name="pawaedc">  -5802.65149801 </i>
    <i name="eentropy">     -0.00603574 </i>
    <i name="bandstr">   -490.09589935 </i>
    <i name="atom">   1746.50554237 </i>
    <i name="e_fr_energy">   -124.14507625 </i>
    <i name="e_wo_entrp">   -124.13904051 </i>
    <i name="e_0_energy">   -124.14205838 </i>
   </energy>
  </scstep>
  <structure>
   <crystal>
    <varray name="basis" >
     <v>       4.31107446       2.48900000       0.00000000 </v>
     <v>      -4.31107446       2.48900000       0.00000000 </v>
     <v>       0.00000000       0.00000000      15.00000000 </v>
    </varray>
    <i name="volume">    321.90792993 </i>
    <varray name="rec_basis" >
     <v>       0.11598037       0.20088389       0.00000000 </v>
     <v>      -0.11598037       0.20088389       0.00000000 </v>
     <v>       0.00000000       0.00000000       0.06666667 </v>
    </varray>
   </crystal>
   <varray name="positions" >
    <v>       0.66977460      -0.00000005       0.10001351 </v>
    <v>       0.33022446      -0.00000006       0.10001353 </v>
    <v>       0.00000005       0.33022440       0.10001351 </v>
    <v>       0.00000006       0.66977454       0.10001353 </v>
    <v>       0.33022429       0.33022428       0.10001355 </v>
    <v>       0.66977472       0.66977471       0.10001355 </v>
    <v>       0.66666607       0.33333293       0.09923330 </v>
    <v>       0.33333279       0.66666621       0.10079681 </v>
    <v>       0.27777461       0.22221960       0.46958625 </v>
    <v>       0.44444295       0.05555605       0.46958593 </v>
    <v>       0.27777715       0.72222185       0.46958567 </v>
    <v>       0.44444452       0.55555448       0.46958604 </v>
    <v>       0.77777887       0.22222013       0.46958615 </v>
    <v>       0.94444439       0.05555461       0.46958648 </v>
    <v>       0.77777940       0.72222439       0.46958625 </v>
    <v>       0.94444295       0.55555605       0.46958593 </v>
   </varray>
  </structure>
  <varray name="forces" >
   <v>      -0.00153310      -0.00088714       0.00817849 </v>
   <v>       0.00154192       0.00089473       0.00819476 </v>
   <v>      -0.00153310       0.00088714       0.00817849 </v>
   <v>       0.00154192      -0.00089473       0.00819476 </v>
   <v>       0.00000143       0.00178943       0.00820318 </v>
   <v>       0.00000143      -0.00178943       0.00820318 </v>
   <v>      -0.00000381      -0.00000000       0.00785358 </v>
   <v>      -0.00000223      -0.00000000       0.01003485 </v>
   <v>      -0.00004667       0.00040306      -0.00830566 </v>
   <v>       0.00041630      -0.00000426      -0.00845512 </v>
   <v>      -0.00009089      -0.00000000      -0.00856548 </v>
   <v>      -0.00005502       0.00000000      -0.00840289 </v>
   <v>      -0.00060157      -0.00000000      -0.00834815 </v>
   <v>      -0.00000624      -0.00000000      -0.00820325 </v>
   <v>      -0.00004667      -0.00040306      -0.00830566 </v>
   <v>       0.00041630       0.00000426      -0.00845512 </v>
  </varray>
  <varray name="stress" >
   <v>       3.15292020       0.00000000      -0.00048887 </v>
   <v>       0.00000000       3.15160024       0.00000000 </v>
   <v>      -0.00048884       0.00000000      -3.62458562 </v>
  </varray>
  <energy>
   <i name="e_fr_energy">   -125.63577120 </i>
   <i name="e_wo_entrp">   -125.62973545 </i>
   <i name="e_0_energy">   -125.63275333 </i>
  </energy>
  <time name="totalsc">   11.70   11.80</time>
 </calculation>
 <calculation>
  <scstep>
   <time name="dav">    3.92    3.94</time>
   <time name="total">    4.13    4.16</time>
   <energy>
    <i name="alphaZ">     60.49504077 </i>
    <i name="ewald">   1869.83910123 </i>
    <i name="hartreedc">  -3479.82553513 </i>
    <i name="XCdc">    168.31738487 </i>
    <i name="pawpsdc">   5803.25055641 </i>
    <i name="pawaedc">  -5802.62609160 </i>
    <i name="eentropy">     -0.00603556 </i>
    <i name="bandstr">   -490.09504009 </i>
    <i name="atom">   1746.50554237 </i>
    <i name="e_fr_energy">   -124.14507674 </i>
    <i name="e_wo_entrp">   -124.13904118 </i>
    <i name="e_0_energy">   -124.14205896 </i>
   </energy>
  </scstep>
  <scstep>
   <time name="dav">    4.61    4.64</time>
   <time name="total">    4.65    4.67</time>
   <energy>
    <i name="alphaZ">     60.49504077 </i>
    <i name="ewald">   1869.83910123 </i>
    <i name="hartreedc">  -3479.82717488 </i>
    <i name="XCdc">    168.31741253 </i>
    <i name="pawpsdc">   5803.25208041 </i>
    <i name="pawaedc">  -5802.62761786 </i>
    <i name="eentropy">     -0.00603570 </i>
    <i name="bandstr">   -490.09342566 </i>
    <i name="atom">   1746.50554237 </i>
    <i name="e_fr_energy">   -124.14507681 </i>
    <i name="e_wo_entrp">   -124.13904111 </i>
    <i name="e_0_energy">   -124.14205896 </i>
   </energy>
  </scstep>
  <structure>
   <crystal>
    <varray name="basis" >
     <v>       4.31107446       2.48900000       0.00000000 </v>
     <v>      -4.31107446       2.48900000       0.00000000 </v>
     <v>       0.00000000       0.00000000      15.00000000 </v>
    </varray>
    <i name="volume">    321.90792993 </i>
    <varray name="rec_basis" >
     <v>       0.11598037       0.20088389       0.00000000 </v>
     <v>      -0.11598037       0.20088389       0.00000000 </v>
     <v>       0.00000000       0.00000000       0.06666667 </v>
    </varray>
   </crystal>
   <varray name="positions" >
    <v>       0.66977248      -0.00000005       0.10001347 </v>
    <v>       0.33022658      -0.00000006       0.10001350 </v>
    <v>       0.00000005       0.33022652       0.10001347 </v>
    <v>       0.00000006       0.66977242       0.10001350 </v>
    <v>       0.33022641       0.33022640       0.10001352 </v>
    <v>       0.66977260       0.66977259       0.10001352 </v>
    <v>       0.66666607       0.33333293       0.09923327 </v>
    <v>       0.33333279       0.66666621       0.10079677 </v>
    <v>       0.27777462       0.22221961       0.46958628 </v>
    <v>       0.44444295       0.05555605       0.46958596 </v>
    <v>       0.27777715       0.72222185       0.46958571 </v>
    <v>       0.44444452       0.55555448       0.46958608 </v>
    <v>       0.77777887       0.22222013       0.46958619 </v>
    <v>       0.94444439       0.05555461       0.46958652 </v>
    <v>       0.77777939       0.72222438       0.46958628 </v>
    <v>       0.94444295       0.55555605       0.46958596 </v>
   </varray>
  </structure>
  <varray name="forces" >
   <v>      -0.00138682      -0.00080280       0.00817695 </v>
   <v>       0.00139582       0.00081025       0.00819311 </v>
   <v>      -0.00138682       0.00080280       0.00817695 </v>
   <v>       0.00139582      -0.00081025       0.00819311 </v>
   <v>       0.00000132       0.00162056       0.00820149 </v>
   <v>       0.00000132      -0.00162056       0.00820149 </v>
   <v>      -0.00000378       0.00000000       0.00785876 </v>
   <v>      -0.00000235       0.00000000       0.01003959 </v>
   <v>      -0.00004691       0.00040069      -0.00830567 </v>
   <v>       0.00041426      -0.00000408      -0.00845512 </v>
   <v>      -0.00009074       0.00000000      -0.00856576 </v>
   <v>      -0.00005421      -0.00000000      -0.00840299 </v>
   <v>      -0.00059850      -0.00000000      -0.00834832 </v>
   <v>      -0.00000577      -0.00000000      -0.00820280 </v>
   <v>      -0.00004691      -0.00040069      -0.00830567 </v>
   <v>       0.00041426       0.00000408      -0.00845512 </v>
  </varray>
  <varray name="stress" >
   <v>       3.15480405       0.00000000      -0.00048930 </v>
   <v>       0.00000000       3.15346939       0.00000000 </v>
   <v>      -0.00048930       0.00000000      -3.62372786 </v>
  </varray>
  <energy>
   <i name="e_fr_energy">   -125.63577145 </i>
   <i name="e_wo_entrp">   -125.62973575 </i>
   <i name="e_0_energy">   -125.63275360 </i>
  </energy>
  <time name="totalsc">   11.87   11.96</time>
 </calculation>
 <calculation>
  <scstep>
   <time name="dav">    4.34    4.37</time>
   <time name="total">    4.55    4.59</time>
   <energy>
    <i name="alphaZ">     60.49504077 </i>
    <i name="ewald">   1869.83998960 </i>
    <i name="hartreedc">  -3479.82893930 </i>
    <i name="XCdc">    168.31746596 </i>
    <i name="pawpsdc">   5803.25084212 </i>
    <i name="pawaedc">  -5802.62638069 </i>
    <i name="eentropy">     -0.00603567 </i>
    <i name="bandstr">   -490.09260228 </i>
    <i name="atom">   1746.50554237 </i>
    <i name="e_fr_energy">   -124.14507713 </i>
    <i name="e_wo_entrp">   -124.13904146 </i>
    <i name="e_0_energy">   -124.14205929 </i>
   </energy>
  </scstep>
  <scstep>
   <time name="dav">    4.62    4.65</time>
   <time name="total">    4.65    4.69</time>
   <energy>
    <i name="alphaZ">     60.49504077 </i>
    <i name="ewald">   1869.83998960 </i>
    <i name="hartreedc">  -3479.83011932 </i>
    <i name="XCdc">    168.31748424 </i>
    <i name="pawpsdc">   5803.25701797 </i>
    <i name="pawaedc">  -5802.63255877 </i>
    <i name="eentropy">     -0.00603579 </i>
    <i name="bandstr">   -490.09143824 </i>
    <i name="atom">   1746.50554237 </i>
    <i name="e_fr_energy">   -124.14507717 </i>
    <i name="e_wo_entrp">   -124.13904138 </i>
    <i name="e_0_energy">   -124.14205928 </i>
   </energy>
  </scstep>
  <structure>
   <crystal>
    <varray name="basis" >
     <v>       4.31107446       2.48900000       0.00000000 </v>
     <v>      -4.31107446       2.48900000       0.00000000 </v>
     <v>       0.00000000       0.00000000      15.00000000 </v>
    </varray>
    <i name="volume">    321.90792993 </i>
    <varray name="rec_basis" >
     <v>       0.11598037       0.20088389       0.00000000 </v>
     <v>      -0.11598037       0.20088389       0.00000000 </v>
     <v>       0.00000000       0.00000000       0.06666667 </v>
    </varray>
   </crystal>
   <varray name="positions" >
    <v>       0.66977095      -0.00000005       0.10001345 </v>
    <v>       0.33022811      -0.00000006       0.10001348 </v>
    <v>       0.00000005       0.33022805       0.10001345 </v>
    <v>       0.00000006       0.66977089       0.10001348 </v>
    <v>       0.33022794       0.33022793       0.10001349 </v>
    <v>       0.66977107       0.66977106       0.10001349 </v>
    <v>       0.66666607       0.33333293       0.09923325 </v>
    <v>       0.33333279       0.66666621       0.10079674 </v>
    <v>       0.27777462       0.22221961       0.46958630 </v>
    <v>       0.44444295       0.05555605       0.46958599 </v>
    <v>       0.27777715       0.72222185       0.46958573 </v>
    <v>       0.44444452       0.55555448       0.46958610 </v>
    <v>       0.77777887       0.22222013       0.46958621 </v>
    <v>       0.94444439       0.05555461       0.46958654 </v>
    <v>       0.77777939       0.72222438       0.46958630 </v>
    <v>       0.94444295       0.55555605       0.46958599 </v>
   </varray>
  </structure>
  <varray name="forces" >
   <v>      -0.00111375      -0.00064519       0.00817741 </v>
   <v>       0.00112284       0.00065256       0.00819357 </v>
   <v>      -0.00111375       0.00064519       0.00817741 </v>
   <v>       0.00112284      -0.00065256       0.00819357 </v>
   <v>       0.00000130       0.00130530       0.00820197 </v>
   <v>       0.00000130      -0.00130530       0.00820197 </v>
   <v>      -0.00000375       0.00000000       0.00786008 </v>
   <v>      -0.00000247       0.00000000       0.01004529 </v>
   <v>      -0.00004694       0.00039915      -0.00830677 </v>
   <v>       0.00041288      -0.00000411      -0.00845644 </v>
   <v>      -0.00009058       0.00000000      -0.00856719 </v>
   <v>      -0.00005386       0.00000000      -0.00840413 </v>
   <v>      -0.00059646       0.00000000      -0.00834957 </v>
   <v>      -0.00000552       0.00000000      -0.00820395 </v>
   <v>      -0.00004694      -0.00039915      -0.00830677 </v>
   <v>       0.00041288       0.00000411      -0.00845644 </v>
  </varray>
  <varray name="stress" >
   <v>       3.15615008       0.00000000      -0.00048937 </v>
   <v>       0.00000000       3.15481630       0.00000000 </v>
   <v>      -0.00048934       0.00000000      -3.62555262 </v>
  </varray>
  <energy>
   <i name="e_fr_energy">   -125.63577159 </i>
   <i name="e_wo_entrp">   -125.62973580 </i>
   <i name="e_0_energy">   -125.63275370 </i>
  </energy>
  <time name="totalsc">   12.31   12.40</time>
 </calculation>
 <calculation>
  <scstep>
   <time name="dav">    4.38    4.40</time>
   <time name="total">    4.58    4.62</time>
   <energy>
    <i name="alphaZ">     60.49504077 </i>
    <i name="ewald">   1869.84043381 </i>
    <i name="hartreedc">  -3479.83149158 </i>
    <i name="XCdc">    168.31751607 </i>
    <i name="pawpsdc">   5803.26107865 </i>
    <i name="pawaedc">  -5802.63662072 </i>
    <i name="eentropy">     -0.00603580 </i>
    <i name="bandstr">   -490.09054089 </i>
    <i name="atom">   1746.50554237 </i>
    <i name="e_fr_energy">   -124.14507733 </i>
    <i name="e_wo_entrp">   -124.13904153 </i>
    <i name="e_0_energy">   -124.14205943 </i>
   </energy>
  </scstep>
  <scstep>
   <time name="dav">    5.11    5.13</time>
   <time name="total">    5.14    5.17</time>
   <energy>
    <i name="alphaZ">     60.49504077 </i>
    <i name="ewald">   1869.84043381 </i>
    <i name="hartreedc">  -3479.83221729 </i>
    <i name="XCdc">    168.31752582 </i>
    <i name="pawpsdc">   5803.26537313 </i>
    <i name="pawaedc">  -5802.64091627 </i>
    <i name="eentropy">     -0.00603586 </i>
    <i name="bandstr">   -490.08982383 </i>
    <i name="atom">   1746.50554237 </i>
    <i name="e_fr_energy">   -124.14507735 </i>
    <i name="e_wo_entrp">   -124.13904149 </i>
    <i name="e_0_energy">   -124.14205942 </i>
   </energy>
  </scstep>
  <structure>
   <crystal>
    <varray name="basis" >
     <v>       4.31107446       2.48900000       0.00000000 </v>
     <v>      -4.31107446       2.48900000       0.00000000 </v>
     <v>       0.00000000       0.00000000      15.00000000 </v>
    </varray>
    <i name="volume">    321.90792993 </i>
    <varray name="rec_basis" >
     <v>       0.11598037       0.20088389       0.00000000 </v>
     <v>      -0.11598037       0.20088389       0.00000000 </v>
     <v>       0.00000000       0.00000000       0.06666667 </v>
    </varray>
   </crystal>
   <varray name="positions" >
    <v>       0.66977018      -0.00000005       0.10001344 </v>
    <v>       0.33022887      -0.00000006       0.10001347 </v>
    <v>       0.00000005       0.33022882       0.10001344 </v>
    <v>       0.00000006       0.66977013       0.10001347 </v>
    <v>       0.33022871       0.33022870       0.10001348 </v>
    <v>       0.66977030       0.66977029       0.10001348 </v>
    <v>       0.66666607       0.33333293       0.09923324 </v>
    <v>       0.33333279       0.66666621       0.10079672 </v>
    <v>       0.27777462       0.22221961       0.46958632 </v>
    <v>       0.44444295       0.05555605       0.46958600 </v>
    <v>       0.27777715       0.72222185       0.46958574 </v>
    <v>       0.44444452       0.55555448       0.46958611 </v>
    <v>       0.77777887       0.22222013       0.46958622 </v>
    <v>       0.94444439       0.05555461       0.46958655 </v>
    <v>       0.77777939       0.72222438       0.46958632 </v>
    <v>       0.94444295       0.55555605       0.46958600 </v>
   </varray>
  </structure>
  <varray name="forces" >
   <v>      -0.00095389      -0.00055293       0.00817845 </v>
   <v>       0.00096300       0.00056025       0.00819462 </v>
   <v>      -0.00095389       0.00055293       0.00817845 </v>
   <v>       0.00096300      -0.00056025       0.00819462 </v>
   <v>       0.00000127       0.00112066       0.00820300 </v>
   <v>       0.00000127      -0.00112066       0.00820300 </v>
   <v>      -0.00000371       0.00000000       0.00786108 </v>
   <v>      -0.00000255       0.00000000       0.01004848 </v>
   <v>      -0.00004694       0.00039839      -0.00830803 </v>
   <v>       0.00041219      -0.00000411      -0.00845777 </v>
   <v>      -0.00009049       0.00000000      -0.00856859 </v>
   <v>      -0.00005368       0.00000000      -0.00840552 </v>
   <v>      -0.00059541       0.00000000      -0.00835082 </v>
   <v>      -0.00000544       0.00000000      -0.00820517 </v>
   <v>      -0.00004694      -0.00039839      -0.00830803 </v>
   <v>       0.00041219       0.00000411      -0.00845777 </v>
  </varray>
  <varray name="stress" >
   <v>       3.15688209       0.00000000      -0.00048968 </v>
   <v>       0.00000000       3.15555180       0.00000000 </v>
   <v>      -0.00048969       0.00000000      -3.62720063 </v>
  </varray>
  <energy>
   <i name="e_fr_energy">   -125.63577167 </i>
   <i name="e_wo_entrp">   -125.62973581 </i>
   <i name="e_0_energy">   -125.63275374 </i>
  </energy>
  <time name="totalsc">   12.81   12.91</time>
 </calculation>
 <calculation>
  <scstep>
   <time name="dav">    3.52    3.55</time>
   <time name="total">    3.73    3.77</time>
   <energy>
    <i name="alphaZ">     60.49504077 </i>
    <i name="ewald">   1870.46080822 </i>
    <i name="hartreedc">  -3480.45334694 </i>
    <i name="XCdc">    168.31753411 </i>
    <i name="pawpsdc">   5803.26820046 </i>
    <i name="pawaedc">  -5802.64374415 </i>
    <i name="eentropy">     -0.00603592 </i>
    <i name="bandstr">   -490.08908295 </i>
    <i name="atom">   1746.50554237 </i>
    <i name="e_fr_energy">   -124.14508404 </i>
    <i name="e_wo_entrp">   -124.13904812 </i>
    <i name="e_0_energy">   -124.14206608 </i>
   </energy>
  </scstep>
  <scstep>
   <time name="dav">    3.68    3.71</time>
   <time name="total">    3.89    3.93</time>
   <energy>
    <i name="e_fr_energy">   -124.14508298 </i>
    <i name="e_wo_entrp">   -124.13904678 </i>
    <i name="e_0_energy">   -124.14206488 </i>
   </energy>
  </scstep>
  <scstep>
   <time name="dav">    3.97    4.00</time>
   <time name="total">    4.01    4.03</time>
   <energy>
    <i name="alphaZ">     60.49504077 </i>
    <i name="ewald">   1870.46080822 </i>
    <i name="hartreedc">  -3480.46214372 </i>
    <i name="XCdc">    168.31755994 </i>
    <i name="pawpsdc">   5803.25984110 </i>
    <i name="pawaedc">  -5802.63538263 </i>
    <i name="eentropy">     -0.00603601 </i>
    <i name="bandstr">   -490.08031237 </i>
    <i name="atom">   1746.50554237 </i>
    <i name="e_fr_energy">   -124.14508234 </i>
    <i name="e_wo_entrp">   -124.13904633 </i>
    <i name="e_0_energy">   -124.14206433 </i>
   </energy>
  </scstep>
  <structure>
   <crystal>
    <varray name="basis" >
     <v>       4.31107446       2.48900000       0.00000000 </v>
     <v>      -4.31107446       2.48900000       0.00000000 </v>
     <v>       0.00000000       0.00000000      15.00000000 </v>
    </varray>
    <i name="volume">    321.90792993 </i>
    <varray name="rec_basis" >
     <v>       0.11598037       0.20088389       0.00000000 </v>
     <v>      -0.11598037       0.20088389       0.00000000 </v>
     <v>       0.00000000       0.00000000       0.06666667 </v>
    </varray>
   </crystal>
   <varray name="positions" >
    <v>       0.66977025      -0.00000007       0.10003733 </v>
    <v>       0.33022891      -0.00000003       0.10003741 </v>
    <v>       0.00000007       0.33022875       0.10003733 </v>
    <v>       0.00000003       0.66977009       0.10003741 </v>
    <v>       0.33022879       0.33022877       0.10003744 </v>
    <v>       0.66977023       0.66977021       0.10003744 </v>
    <v>       0.66666605       0.33333295       0.09925618 </v>
    <v>       0.33333278       0.66666622       0.10082610 </v>
    <v>       0.27777784       0.22222331       0.46956205 </v>
    <v>       0.44444499       0.05555394       0.46956129 </v>
    <v>       0.27777670       0.72222230       0.46956071 </v>
    <v>       0.44444426       0.55555474       0.46956156 </v>
    <v>       0.77777588       0.22222312       0.46956183 </v>
    <v>       0.94444436       0.05555464       0.46956258 </v>
    <v>       0.77777569       0.72222116       0.46956205 </v>
    <v>       0.94444506       0.55555401       0.46956129 </v>
   </varray>
  </structure>
  <varray name="forces" >
   <v>      -0.00093546      -0.00054805       0.00789387 </v>
   <v>       0.00094418       0.00053287       0.00790906 </v>
   <v>      -0.00093546       0.00054805       0.00789387 </v>
   <v>       0.00094418      -0.00053287       0.00790906 </v>
   <v>      -0.00000333       0.00107995       0.00791657 </v>
   <v>      -0.00000333      -0.00107995       0.00791657 </v>
   <v>       0.00000761      -0.00000000       0.00756684 </v>
   <v>      -0.00000489      -0.00000000       0.00977685 </v>
   <v>       0.00026599      -0.00093226      -0.00805622 </v>
   <v>      -0.00112806       0.00000345      -0.00813969 </v>
   <v>       0.00036035      -0.00000000      -0.00819556 </v>
   <v>      -0.00004165       0.00000000      -0.00811385 </v>
   <v>       0.00154429      -0.00000000      -0.00808239 </v>
   <v>      -0.00015235      -0.00000000      -0.00799908 </v>
   <v>       0.00026599       0.00093226      -0.00805622 </v>
   <v>      -0.00112806      -0.00000345      -0.00813969 </v>
  </varray>
  <varray name="stress" >
   <v>       3.15497020       0.00000000      -0.00048929 </v>
   <v>       0.00000000       3.15730822       0.00000000 </v>
   <v>      -0.00048931       0.00000000      -3.63169442 </v>
  </varray>
  <energy>
   <i name="e_fr_energy">   -125.63582111 </i>
   <i name="e_wo_entrp">   -125.62978510 </i>
   <i name="e_0_energy">   -125.63280311 </i>
  </energy>
  <time name="totalsc">   14.73   14.86</time>
 </calculation>
 <calculation>
  <scstep>
   <time name="dav">    3.33    3.35</time>
   <time name="total">    3.54    3.57</time>
   <energy>
    <i name="alphaZ">     60.49504077 </i>
    <i name="ewald">   1872.32332425 </i>
    <i name="hartreedc">  -3482.32262136 </i>
    <i name="XCdc">    168.31755619 </i>
    <i name="pawpsdc">   5803.26453749 </i>
    <i name="pawaedc">  -5802.64007875 </i>
    <i name="eentropy">     -0.00603598 </i>
    <i name="bandstr">   -490.08237618 </i>
    <i name="atom">   1746.50554237 </i>
    <i name="e_fr_energy">   -124.14511120 </i>
    <i name="e_wo_entrp">   -124.13907523 </i>
    <i name="e_0_energy">   -124.14209321 </i>
   </energy>
  </scstep>
  <scstep>
   <time name="dav">    3.65    3.67</time>
   <time name="total">    3.85    3.89</time>
   <energy>
    <i name="e_fr_energy">   -124.14510128 </i>
    <i name="e_wo_entrp">   -124.13906452 </i>
    <i name="e_0_energy">   -124.14208290 </i>
   </energy>
  </scstep>
  <scstep>
   <time name="dav">    4.70    4.73</time>
   <time name="total">    4.91    4.95</time>
   <energy>
    <i name="e_fr_energy">   -124.14509562 </i>
    <i name="e_wo_entrp">   -124.13905944 </i>
    <i name="e_0_energy">   -124.14207753 </i>
   </energy>
  </scstep>
  <scstep>
   <time name="dav">    3.81    3.84</time>
   <time name="total">    3.85    3.88</time>
   <energy>
    <i name="alphaZ">     60.49504077 </i>
    <i name="ewald">   1872.32332425 </i>
    <i name="hartreedc">  -3482.33760934 </i>
    <i name="XCdc">    168.31760145 </i>
    <i name="pawpsdc">   5803.25163625 </i>
    <i name="pawaedc">  -5802.62717150 </i>
    <i name="eentropy">     -0.00603596 </i>
    <i name="bandstr">   -490.06742433 </i>
    <i name="atom">   1746.50554237 </i>
    <i name="e_fr_energy">   -124.14509604 </i>
    <i name="e_wo_entrp">   -124.13906008 </i>
    <i name="e_0_energy">   -124.14207806 </i>
   </energy>
  </scstep>
  <structure>
   <crystal>
    <varray name="basis" >
     <v>       4.31107446       2.48900000       0.00000000 </v>
     <v>      -4.31107446       2.48900000       0.00000000 </v>
     <v>       0.00000000       0.00000000      15.00000000 </v>
    </varray>
    <i name="volume">    321.90792993 </i>
    <varray name="rec_basis" >
     <v>       0.11598037       0.20088389       0.00000000 </v>
     <v>      -0.11598037       0.20088389       0.00000000 </v>
     <v>       0.00000000       0.00000000       0.06666667 </v>
    </varray>
   </crystal>
   <varray name="positions" >
    <v>       0.66977047      -0.00000013       0.10010900 </v>
    <v>       0.33022903       0.00000008       0.10010922 </v>
    <v>       0.00000013       0.33022853       0.10010900 </v>
    <v>      -0.00000008       0.66976997       0.10010922 </v>
    <v>       0.33022904       0.33022898       0.10010933 </v>
    <v>       0.66977002       0.66976996       0.10010933 </v>
    <v>       0.66666600       0.33333300       0.09932502 </v>
    <v>       0.33333273       0.66666627       0.10091422 </v>
    <v>       0.27778751       0.22223440       0.46948924 </v>
    <v>       0.44445109       0.05554763       0.46948717 </v>
    <v>       0.27777533       0.72222367       0.46948562 </v>
    <v>       0.44444346       0.55555554       0.46948789 </v>
    <v>       0.77776691       0.22223209       0.46948864 </v>
    <v>       0.94444429       0.05555471       0.46949068 </v>
    <v>       0.77776460       0.72221149       0.46948924 </v>
    <v>       0.94445137       0.55554791       0.46948717 </v>
   </varray>
  </structure>
  <varray name="forces" >
   <v>      -0.00096351      -0.00058764       0.00824492 </v>
   <v>       0.00097611       0.00050095       0.00825686 </v>
   <v>      -0.00096351       0.00058764       0.00824492 </v>
   <v>       0.00097611      -0.00050095       0.00825686 </v>
   <v>      -0.00002416       0.00105900       0.00826136 </v>
   <v>      -0.00002416      -0.00105900       0.00826136 </v>
   <v>       0.00004435       0.00000000       0.00772913 </v>
   <v>      -0.00000624      -0.00000000       0.00997096 </v>
   <v>       0.00123302      -0.00476068      -0.00845552 </v>
   <v>      -0.00567035       0.00006314      -0.00835236 </v>
   <v>       0.00176859      -0.00000000      -0.00825172 </v>
   <v>      -0.00005240       0.00000000      -0.00839768 </v>
   <v>       0.00782803      -0.00000000      -0.00843006 </v>
   <v>      -0.00068452      -0.00000000      -0.00853113 </v>
   <v>       0.00123302       0.00476068      -0.00845552 </v>
   <v>      -0.00567035      -0.00006314      -0.00835236 </v>
  </varray>
  <varray name="stress" >
   <v>       3.14736407       0.00000000      -0.00049277 </v>
   <v>       0.00000000       3.16463141       0.00000000 </v>
   <v>      -0.00049278       0.00000000      -3.63622121 </v>
  </varray>
  <energy>
   <i name="e_fr_energy">   -125.63596840 </i>
   <i name="e_wo_entrp">   -125.62993244 </i>
   <i name="e_0_energy">   -125.63295042 </i>
  </energy>
  <time name="totalsc">   19.24   19.40</time>
 </calculation>
 <calculation>
  <scstep>
   <time name="dav">    3.30    3.32</time>
   <time name="total">    3.51    3.54</time>
   <energy>
    <i name="alphaZ">     60.49504077 </i>
    <i name="ewald">   1876.05462401 </i>
    <i name="hartreedc">  -3486.06251336 </i>
    <i name="XCdc">    168.31759738 </i>
    <i name="pawpsdc">   5803.25803744 </i>
    <i name="pawaedc">  -5802.63357546 </i>
    <i name="eentropy">     -0.00603589 </i>
    <i name="bandstr">   -490.07389453 </i>
    <i name="atom">   1746.50554237 </i>
    <i name="e_fr_energy">   -124.14517726 </i>
    <i name="e_wo_entrp">   -124.13914137 </i>
    <i name="e_0_energy">   -124.14215931 </i>
   </energy>
  </scstep>
  <scstep>
   <time name="dav">    3.66    3.68</time>
   <time name="total">    3.87    3.90</time>
   <energy>
    <i name="e_fr_energy">   -124.14514346 </i>
    <i name="e_wo_entrp">   -124.13910601 </i>
    <i name="e_0_energy">   -124.14212474 </i>
   </energy>
  </scstep>
  <scstep>
   <time name="dav">    4.66    4.69</time>
   <time name="total">    4.87    4.91</time>
   <energy>
    <i name="e_fr_energy">   -124.14511584 </i>
    <i name="e_wo_entrp">   -124.13907952 </i>
    <i name="e_0_energy">   -124.14209768 </i>
   </energy>
  </scstep>
  <scstep>
   <time name="dav">    4.48    4.50</time>
   <time name="total">    4.68    4.72</time>
   <energy>
    <i name="e_fr_energy">   -124.14511737 </i>
    <i name="e_wo_entrp">   -124.13908150 </i>
    <i name="e_0_energy">   -124.14209944 </i>
   </energy>
  </scstep>
  <scstep>
   <time name="dav">    3.59    3.61</time>
   <time name="total">    3.62    3.64</time>
   <energy>
    <i name="alphaZ">     60.49504077 </i>
    <i name="ewald">   1876.05462401 </i>
    <i name="hartreedc">  -3486.07870139 </i>
    <i name="XCdc">    168.31766685 </i>
    <i name="pawpsdc">   5803.24985690 </i>
    <i name="pawaedc">  -5802.62538917 </i>
    <i name="eentropy">     -0.00603578 </i>
    <i name="bandstr">   -490.05772253 </i>
    <i name="atom">   1746.50554237 </i>
    <i name="e_fr_energy">   -124.14511798 </i>
    <i name="e_wo_entrp">   -124.13908221 </i>
    <i name="e_0_energy">   -124.14210009 </i>
   </energy>
  </scstep>
  <structure>
   <crystal>
    <varray name="basis" >
     <v>       4.31107446       2.48900000       0.00000000 </v>
     <v>      -4.31107446       2.48900000       0.00000000 </v>
     <v>       0.00000000       0.00000000      15.00000000 </v>
    </varray>
    <i name="volume">    321.90792993 </i>
    <varray name="rec_basis" >
     <v>       0.11598037       0.20088389       0.00000000 </v>
     <v>      -0.11598037       0.20088389       0.00000000 </v>
     <v>       0.00000000       0.00000000       0.06666667 </v>
    </varray>
   </crystal>
   <varray name="positions" >
    <v>       0.66977089      -0.00000025       0.10025234 </v>
    <v>       0.33022927       0.00000030       0.10025284 </v>
    <v>       0.00000025       0.33022811       0.10025234 </v>
    <v>      -0.00000030       0.66976973       0.10025284 </v>
    <v>       0.33022954       0.33022940       0.10025310 </v>
    <v>       0.66976960       0.66976946       0.10025310 </v>
    <v>       0.66666589       0.33333311       0.09946270 </v>
    <v>       0.33333264       0.66666636       0.10109048 </v>
    <v>       0.27780683       0.22225658       0.46934362 </v>
    <v>       0.44446328       0.05553500       0.46933892 </v>
    <v>       0.27777259       0.72222641       0.46933543 </v>
    <v>       0.44444186       0.55555714       0.46934057 </v>
    <v>       0.77774899       0.22225001       0.46934228 </v>
    <v>       0.94444414       0.05555486       0.46934687 </v>
    <v>       0.77774242       0.72219217       0.46934362 </v>
    <v>       0.94446400       0.55553572       0.46933892 </v>
   </varray>
  </structure>
  <varray name="forces" >
   <v>      -0.00102254      -0.00065513       0.00825272 </v>
   <v>       0.00103012       0.00044270       0.00825842 </v>
   <v>      -0.00102254       0.00065513       0.00825272 </v>
   <v>       0.00103012      -0.00044270       0.00825842 </v>
   <v>      -0.00005288       0.00101135       0.00825649 </v>
[...]
       <r>     2.4946     0.7777    31.1666 </r>
       <r>     2.5972     1.5964    31.3303 </r>
       <r>     2.6998     2.1738    31.5533 </r>
       <r>     2.8024     1.6317    31.7207 </r>
       <r>     2.9050     1.2035    31.8442 </r>
       <r>     3.0075     1.0152    31.9484 </r>
       <r>     3.1101     1.6831    32.1210 </r>
       <r>     3.2127     2.7178    32.3998 </r>
       <r>     3.3153     2.3216    32.6380 </r>
       <r>     3.4179     1.7358    32.8161 </r>
       <r>     3.5205     2.2209    33.0439 </r>
       <r>     3.6231     3.0783    33.3597 </r>
       <r>     3.7257     2.4809    33.6142 </r>
       <r>     3.8282     2.1868    33.8386 </r>
       <r>     3.9308     2.4446    34.0894 </r>
       <r>     4.0334     2.7986    34.3765 </r>
       <r>     4.1360     2.7401    34.6576 </r>
       <r>     4.2386     2.6495    34.9294 </r>
       <r>     4.3412     3.1864    35.2562 </r>
       <r>     4.4438     2.8702    35.5507 </r>
       <r>     4.5464     2.2209    35.7785 </r>
       <r>     4.6489     3.1976    36.1066 </r>
       <r>     4.7515     3.1751    36.4323 </r>
       <r>     4.8541     2.5100    36.6898 </r>
       <r>     4.9567     3.3401    37.0324 </r>
       <r>     5.0593     3.7459    37.4167 </r>
       <r>     5.1619     3.9482    37.8218 </r>
       <r>     5.2645     3.4720    38.1779 </r>
       <r>     5.3671     2.9202    38.4775 </r>
       <r>     5.4696     2.9596    38.7811 </r>
       <r>     5.5722     3.3214    39.1219 </r>
       <r>     5.6748     3.5698    39.4881 </r>
       <r>     5.7774     2.9826    39.7941 </r>
       <r>     5.8800     2.9356    40.0952 </r>
       <r>     5.9826     3.1612    40.4195 </r>
       <r>     6.0852     3.2099    40.7488 </r>
       <r>     6.1878     2.5355    41.0089 </r>
       <r>     6.2904     2.5253    41.2680 </r>
       <r>     6.3929     2.2238    41.4961 </r>
       <r>     6.4955     2.8654    41.7901 </r>
       <r>     6.5981     3.3483    42.1336 </r>
       <r>     6.7007     4.0797    42.5521 </r>
       <r>     6.8033     3.5494    42.9162 </r>
       <r>     6.9059     3.2267    43.2472 </r>
       <r>     7.0085     3.5745    43.6139 </r>
       <r>     7.1111     3.3807    43.9608 </r>
       <r>     7.2136     4.0122    44.3724 </r>
       <r>     7.3162     5.1043    44.8960 </r>
       <r>     7.4188     5.3768    45.4476 </r>
       <r>     7.5214     4.2806    45.8867 </r>
       <r>     7.6240     3.2487    46.2200 </r>
       <r>     7.7266     4.1080    46.6414 </r>
       <r>     7.8292     4.6306    47.1165 </r>
       <r>     7.9318     3.7518    47.5014 </r>
       <r>     8.0343     2.6517    47.7734 </r>
       <r>     8.1369     1.6430    47.9420 </r>
       <r>     8.2395     0.4856    47.9918 </r>
       <r>     8.3421     0.0677    47.9987 </r>
       <r>     8.4447     0.0119    47.9999 </r>
       <r>     8.5473     0.0006    48.0000 </r>
       <r>     8.6499     0.0000    48.0000 </r>
       <r>     8.7525     0.0000    48.0000 </r>
       <r>     8.8550     0.0000    48.0000 </r>
       <r>     8.9576     0.0000    48.0000 </r>
       <r>     9.0602     0.0000    48.0000 </r>
       <r>     9.1628     0.0000    48.0000 </r>
       <r>     9.2654     0.0000    48.0000 </r>
       <r>     9.3680     0.0000    48.0000 </r>
       <r>     9.4706     0.0000    48.0000 </r>
       <r>     9.5732     0.0000    48.0000 </r>
       <r>     9.6757     0.0000    48.0000 </r>
      </set>
      <set comment="spin 2">
       <r>   -21.1006     0.0000     0.0000 </r>
       <r>   -20.9980     0.0000     0.0000 </r>
       <r>   -20.8954     0.0000     0.0000 </r>
       <r>   -20.7928     0.0000     0.0000 </r>
       <r>   -20.6902     0.0000     0.0000 </r>
       <r>   -20.5877     0.0000     0.0000 </r>
       <r>   -20.4851     0.0000     0.0000 </r>
       <r>   -20.3825     0.0000     0.0000 </r>
       <r>   -20.2799     0.0000     0.0000 </r>
       <r>   -20.1773     0.0000     0.0000 </r>
       <r>   -20.0747     0.0000     0.0000 </r>
       <r>   -19.9721     0.0000     0.0000 </r>
       <r>   -19.8695     0.0013     0.0001 </r>
       <r>   -19.7669     0.0402     0.0043 </r>
       <r>   -19.6644     0.2662     0.0316 </r>
       <r>   -19.5618     0.5503     0.0880 </r>
       <r>   -19.4592     0.6093     0.1505 </r>
       <r>   -19.3566     0.6540     0.2176 </r>
       <r>   -19.2540     0.5685     0.2759 </r>
       <r>   -19.1514     0.7125     0.3490 </r>
       <r>   -19.0488     0.5622     0.4067 </r>
       <r>   -18.9462     0.5911     0.4674 </r>
       <r>   -18.8437     0.7867     0.5481 </r>
       <r>   -18.7411     0.5027     0.5996 </r>
       <r>   -18.6385     0.5517     0.6562 </r>
       <r>   -18.5359     0.8135     0.7397 </r>
       <r>   -18.4333     0.6724     0.8087 </r>
       <r>   -18.3307     0.3943     0.8491 </r>
       <r>   -18.2281     0.6456     0.9154 </r>
       <r>   -18.1255     0.8954     1.0072 </r>
       <r>   -18.0230     0.5935     1.0681 </r>
       <r>   -17.9204     0.4881     1.1182 </r>
       <r>   -17.8178     0.4526     1.1646 </r>
       <r>   -17.7152     0.9297     1.2600 </r>
       <r>   -17.6126     0.8209     1.3442 </r>
       <r>   -17.5100     0.4405     1.3894 </r>
       <r>   -17.4074     0.4731     1.4379 </r>
       <r>   -17.3048     0.5828     1.4977 </r>
       <r>   -17.2023     0.8898     1.5890 </r>
       <r>   -17.0997     0.8469     1.6759 </r>
       <r>   -16.9971     0.5794     1.7353 </r>
       <r>   -16.8945     0.3005     1.7661 </r>
       <r>   -16.7919     0.5629     1.8239 </r>
       <r>   -16.6893     0.9196     1.9182 </r>
       <r>   -16.5867     0.8349     2.0039 </r>
       <r>   -16.4841     0.6897     2.0746 </r>
       <r>   -16.3816     0.5799     2.1341 </r>
       <r>   -16.2790     0.3624     2.1713 </r>
       <r>   -16.1764     0.4351     2.2159 </r>
       <r>   -16.0738     1.1677     2.3357 </r>
       <r>   -15.9712     1.1388     2.4525 </r>
       <r>   -15.8686     1.2401     2.5798 </r>
       <r>   -15.7660     1.3246     2.7156 </r>
       <r>   -15.6634     1.3485     2.8540 </r>
       <r>   -15.5608     1.3007     2.9874 </r>
       <r>   -15.4583     1.5958     3.1511 </r>
       <r>   -15.3557     2.2035     3.3772 </r>
       <r>   -15.2531     1.7300     3.5547 </r>
       <r>   -15.1505     1.8027     3.7396 </r>
       <r>   -15.0479     1.6089     3.9047 </r>
       <r>   -14.9453     1.2564     4.0335 </r>
       <r>   -14.8427     1.0546     4.1417 </r>
       <r>   -14.7401     1.2597     4.2710 </r>
       <r>   -14.6376     1.4233     4.4170 </r>
       <r>   -14.5350     1.1747     4.5375 </r>
       <r>   -14.4324     1.4075     4.6819 </r>
       <r>   -14.3298     1.1207     4.7969 </r>
       <r>   -14.2272     1.2528     4.9254 </r>
       <r>   -14.1246     1.7233     5.1022 </r>
       <r>   -14.0220     1.6431     5.2707 </r>
       <r>   -13.9194     0.9591     5.3691 </r>
       <r>   -13.8169     0.6373     5.4345 </r>
       <r>   -13.7143     0.4324     5.4789 </r>
       <r>   -13.6117     0.5729     5.5376 </r>
       <r>   -13.5091     0.9636     5.6365 </r>
       <r>   -13.4065     1.0093     5.7400 </r>
       <r>   -13.3039     0.8559     5.8278 </r>
       <r>   -13.2013     0.8247     5.9124 </r>
       <r>   -13.0987     0.9725     6.0122 </r>
       <r>   -12.9962     1.0138     6.1162 </r>
       <r>   -12.8936     0.7244     6.1905 </r>
       <r>   -12.7910     1.0707     6.3004 </r>
       <r>   -12.6884     1.2840     6.4321 </r>
       <r>   -12.5858     1.4392     6.5797 </r>
       <r>   -12.4832     1.8279     6.7672 </r>
       <r>   -12.3806     1.6273     6.9342 </r>
       <r>   -12.2780     1.7302     7.1117 </r>
       <r>   -12.1755     1.8055     7.2969 </r>
       <r>   -12.0729     1.7179     7.4731 </r>
       <r>   -11.9703     2.4948     7.7291 </r>
       <r>   -11.8677     2.2469     7.9596 </r>
       <r>   -11.7651     1.3836     8.1015 </r>
       <r>   -11.6625     1.2363     8.2283 </r>
       <r>   -11.5599     0.9690     8.3278 </r>
       <r>   -11.4573     0.9636     8.4266 </r>
       <r>   -11.3547     0.6645     8.4948 </r>
       <r>   -11.2522     0.5104     8.5471 </r>
       <r>   -11.1496     0.6280     8.6116 </r>
       <r>   -11.0470     0.6263     8.6758 </r>
       <r>   -10.9444     0.7011     8.7477 </r>
       <r>   -10.8418     1.0795     8.8585 </r>
       <r>   -10.7392     1.4156     9.0037 </r>
       <r>   -10.6366     1.2312     9.1300 </r>
       <r>   -10.5340     1.7424     9.3088 </r>
       <r>   -10.4315     2.5728     9.5727 </r>
       <r>   -10.3289     1.6773     9.7448 </r>
       <r>   -10.2263     1.0119     9.8486 </r>
       <r>   -10.1237     0.7561     9.9261 </r>
       <r>   -10.0211     1.3511    10.0647 </r>
       <r>    -9.9185     1.8021    10.2496 </r>
       <r>    -9.8159     1.4381    10.3971 </r>
       <r>    -9.7133     0.7549    10.4746 </r>
       <r>    -9.6108     1.2180    10.5995 </r>
       <r>    -9.5082     2.1608    10.8212 </r>
       <r>    -9.4056     1.9110    11.0172 </r>
       <r>    -9.3030     2.0324    11.2258 </r>
       <r>    -9.2004     2.4945    11.4817 </r>
       <r>    -9.0978     1.8570    11.6722 </r>
       <r>    -8.9952     0.9983    11.7746 </r>
       <r>    -8.8926     2.0709    11.9870 </r>
       <r>    -8.7901     2.9583    12.2905 </r>
       <r>    -8.6875     1.4190    12.4361 </r>
       <r>    -8.5849     0.7412    12.5121 </r>
       <r>    -8.4823     1.9621    12.7134 </r>
       <r>    -8.3797     2.6151    12.9817 </r>
       <r>    -8.2771     2.0481    13.1918 </r>
       <r>    -8.1745     1.1789    13.3127 </r>
       <r>    -8.0719     1.8857    13.5062 </r>
       <r>    -7.9694     1.5631    13.6665 </r>
       <r>    -7.8668     1.8264    13.8539 </r>
       <r>    -7.7642     3.2659    14.1890 </r>
       <r>    -7.6616     2.7267    14.4687 </r>
       <r>    -7.5590     1.8253    14.6559 </r>
       <r>    -7.4564     1.6263    14.8228 </r>
       <r>    -7.3538     2.1943    15.0479 </r>
       <r>    -7.2512     2.5455    15.3090 </r>
       <r>    -7.1487     2.1638    15.5310 </r>
       <r>    -7.0461     1.9323    15.7292 </r>
       <r>    -6.9435     2.3538    15.9707 </r>
       <r>    -6.8409     2.7153    16.2493 </r>
       <r>    -6.7383     3.0823    16.5655 </r>
       <r>    -6.6357     3.7060    16.9456 </r>
       <r>    -6.5331     4.1094    17.3672 </r>
       <r>    -6.4305     3.6297    17.7396 </r>
       <r>    -6.3279     2.8278    18.0297 </r>
       <r>    -6.2254     2.6604    18.3026 </r>
       <r>    -6.1228     2.1886    18.5271 </r>
       <r>    -6.0202     2.2004    18.7529 </r>
       <r>    -5.9176     1.9449    18.9524 </r>
       <r>    -5.8150     1.9028    19.1476 </r>
       <r>    -5.7124     2.5369    19.4078 </r>
       <r>    -5.6098     2.2032    19.6339 </r>
       <r>    -5.5072     1.0046    19.7369 </r>
       <r>    -5.4047     1.3735    19.8778 </r>
       <r>    -5.3021     2.4141    20.1255 </r>
       <r>    -5.1995     2.5183    20.3838 </r>
       <r>    -5.0969     1.5952    20.5475 </r>
       <r>    -4.9943     1.5706    20.7086 </r>
       <r>    -4.8917     2.3868    20.9535 </r>
       <r>    -4.7891     2.1811    21.1772 </r>
       <r>    -4.6865     1.0307    21.2830 </r>
       <r>    -4.5840     1.3764    21.4242 </r>
       <r>    -4.4814     2.4617    21.6767 </r>
       <r>    -4.3788     2.6908    21.9527 </r>
       <r>    -4.2762     2.4572    22.2048 </r>
       <r>    -4.1736     2.4538    22.4566 </r>
       <r>    -4.0710     2.4471    22.7076 </r>
       <r>    -3.9684     2.7645    22.9912 </r>
       <r>    -3.8658     3.2869    23.3284 </r>
       <r>    -3.7633     3.5793    23.6956 </r>
       <r>    -3.6607     3.5175    24.0564 </r>
       <r>    -3.5581     2.9023    24.3542 </r>
       <r>    -3.4555     2.2022    24.5801 </r>
       <r>    -3.3529     1.6822    24.7527 </r>
       <r>    -3.2503     1.5369    24.9104 </r>
       <r>    -3.1477     1.1820    25.0316 </r>
       <r>    -3.0451     1.5557    25.1912 </r>
       <r>    -2.9426     2.1593    25.4127 </r>
       <r>    -2.8400     1.6332    25.5803 </r>
       <r>    -2.7374     1.3278    25.7165 </r>
       <r>    -2.6348     1.1759    25.8371 </r>
       <r>    -2.5322     1.6631    26.0077 </r>
       <r>    -2.4296     2.2749    26.2411 </r>
       <r>    -2.3270     1.6136    26.4067 </r>
       <r>    -2.2244     0.9013    26.4991 </r>
       <r>    -2.1218     1.3007    26.6326 </r>
       <r>    -2.0193     1.0796    26.7433 </r>
       <r>    -1.9167     0.9682    26.8426 </r>
       <r>    -1.8141     0.8657    26.9315 </r>
       <r>    -1.7115     1.1254    27.0469 </r>
       <r>    -1.6089     1.0591    27.1556 </r>
       <r>    -1.5063     1.1795    27.2766 </r>
       <r>    -1.4037     1.0634    27.3857 </r>
       <r>    -1.3011     0.6077    27.4480 </r>
       <r>    -1.1986     0.7166    27.5215 </r>
       <r>    -1.0960     0.8248    27.6061 </r>
       <r>    -0.9934     0.9304    27.7016 </r>
       <r>    -0.8908     0.8267    27.7864 </r>
       <r>    -0.7882     0.4117    27.8286 </r>
       <r>    -0.6856     0.1752    27.8466 </r>
       <r>    -0.5830     0.1985    27.8669 </r>
       <r>    -0.4804     0.4957    27.9178 </r>
       <r>    -0.3779     0.3831    27.9571 </r>
       <r>    -0.2753     0.3091    27.9888 </r>
       <r>    -0.1727     0.5543    28.0457 </r>
       <r>    -0.0701     0.5136    28.0984 </r>
       <r>     0.0325     0.3467    28.1339 </r>
       <r>     0.1351     0.4834    28.1835 </r>
       <r>     0.2377     1.0722    28.2935 </r>
       <r>     0.3403     1.4479    28.4421 </r>
       <r>     0.4428     1.4462    28.5904 </r>
       <r>     0.5454     1.1354    28.7069 </r>
       <r>     0.6480     0.6035    28.7688 </r>
       <r>     0.7506     0.9576    28.8670 </r>
       <r>     0.8532     1.5001    29.0209 </r>
       <r>     0.9558     0.7211    29.0949 </r>
       <r>     1.0584     0.3580    29.1316 </r>
       <r>     1.1610     1.0143    29.2357 </r>
       <r>     1.2635     2.1101    29.4522 </r>
       <r>     1.3661     2.2297    29.6809 </r>
       <r>     1.4687     1.8417    29.8698 </r>
       <r>     1.5713     1.4868    30.0224 </r>
       <r>     1.6739     0.8499    30.1095 </r>
       <r>     1.7765     1.0588    30.2182 </r>
       <r>     1.8791     1.5413    30.3763 </r>
       <r>     1.9817     1.6386    30.5444 </r>
       <r>     2.0843     1.8661    30.7358 </r>
       <r>     2.1868     1.0120    30.8397 </r>
       <r>     2.2894     1.2747    30.9704 </r>
       <r>     2.3920     1.1343    31.0868 </r>
       <r>     2.4946     0.7777    31.1666 </r>
       <r>     2.5972     1.5964    31.3303 </r>
       <r>     2.6998     2.1738    31.5533 </r>
       <r>     2.8024     1.6317    31.7207 </r>
       <r>     2.9050     1.2036    31.8442 </r>
       <r>     3.0075     1.0154    31.9484 </r>
       <r>     3.1101     1.6833    32.1211 </r>
       <r>     3.2127     2.7181    32.3999 </r>
       <r>     3.3153     2.3213    32.6381 </r>
       <r>     3.4179     1.7355    32.8161 </r>
       <r>     3.5205     2.2213    33.0440 </r>
       <r>     3.6231     3.0789    33.3598 </r>
       <r>     3.7257     2.4810    33.6144 </r>
       <r>     3.8282     2.1867    33.8387 </r>
       <r>     3.9308     2.4443    34.0894 </r>
       <r>     4.0334     2.7988    34.3766 </r>
       <r>     4.1360     2.7402    34.6577 </r>
       <r>     4.2386     2.6501    34.9295 </r>
       <r>     4.3412     3.1861    35.2564 </r>
       <r>     4.4438     2.8695    35.5508 </r>
       <r>     4.5464     2.2208    35.7786 </r>
       <r>     4.6489     3.1987    36.1067 </r>
       <r>     4.7515     3.1751    36.4325 </r>
       <r>     4.8541     2.5099    36.6900 </r>
       <r>     4.9567     3.3399    37.0326 </r>
       <r>     5.0593     3.7467    37.4169 </r>
       <r>     5.1619     3.9482    37.8220 </r>
       <r>     5.2645     3.4712    38.1781 </r>
       <r>     5.3671     2.9201    38.4777 </r>
       <r>     5.4696     2.9602    38.7813 </r>
       <r>     5.5722     3.3212    39.1221 </r>
       <r>     5.6748     3.5697    39.4883 </r>
       <r>     5.7774     2.9823    39.7942 </r>
       <r>     5.8800     2.9355    40.0954 </r>
       <r>     5.9826     3.1615    40.4197 </r>
       <r>     6.0852     3.2098    40.7490 </r>
       <r>     6.1878     2.5353    41.0091 </r>
       <r>     6.2904     2.5254    41.2681 </r>
       <r>     6.3929     2.2241    41.4963 </r>
       <r>     6.4955     2.8659    41.7903 </r>
       <r>     6.5981     3.3480    42.1338 </r>
       <r>     6.7007     4.0798    42.5523 </r>
       <r>     6.8033     3.5489    42.9164 </r>
       <r>     6.9059     3.2269    43.2474 </r>
       <r>     7.0085     3.5745    43.6141 </r>
       <r>     7.1111     3.3813    43.9610 </r>
       <r>     7.2136     4.0126    44.3726 </r>
       <r>     7.3162     5.1044    44.8963 </r>
       <r>     7.4188     5.3758    45.4478 </r>
       <r>     7.5214     4.2803    45.8869 </r>
       <r>     7.6240     3.2498    46.2203 </r>
       <r>     7.7266     4.1090    46.6418 </r>
       <r>     7.8292     4.6297    47.1168 </r>
       <r>     7.9318     3.7512    47.5016 </r>
       <r>     8.0343     2.6515    47.7736 </r>
       <r>     8.1369     1.6425    47.9421 </r>
       <r>     8.2395     0.4844    47.9918 </r>
       <r>     8.3421     0.0675    47.9987 </r>
       <r>     8.4447     0.0118    47.9999 </r>
       <r>     8.5473     0.0006    48.0000 </r>
       <r>     8.6499     0.0000    48.0000 </r>
       <r>     8.7525     0.0000    48.0000 </r>
       <r>     8.8550     0.0000    48.0000 </r>
       <r>     8.9576     0.0000    48.0000 </r>
       <r>     9.0602     0.0000    48.0000 </r>
       <r>     9.1628     0.0000    48.0000 </r>
       <r>     9.2654     0.0000    48.0000 </r>
       <r>     9.3680     0.0000    48.0000 </r>
       <r>     9.4706     0.0000    48.0000 </r>
       <r>     9.5732     0.0000    48.0000 </r>
       <r>     9.6757     0.0000    48.0000 </r>
      </set>
     </set>
    </array>
   </total>
  </dos>
 </calculation>
 <structure name="finalpos" >
  <crystal>
   <varray name="basis" >
    <v>       4.31107446       2.48900000       0.00000000 </v>
    <v>      -4.31107446       2.48900000       0.00000000 </v>
    <v>       0.00000000       0.00000000      15.00000000 </v>
   </varray>
   <i name="volume">    321.90792993 </i>
   <varray name="rec_basis" >
    <v>       0.11598037       0.20088389       0.00000000 </v>
    <v>      -0.11598037       0.20088389       0.00000000 </v>
    <v>       0.00000000       0.00000000       0.06666667 </v>
   </varray>
  </crystal>
  <varray name="positions" >
   <v>       0.67152478      -0.00278547       0.16764206 </v>
   <v>       0.33380655      -0.00264968       0.16751100 </v>
   <v>       0.00278547       0.32847422       0.16764206 </v>
   <v>       0.00264968       0.66619245       0.16751100 </v>
   <v>       0.33360079       0.32836833       0.16698798 </v>
   <v>       0.67163067       0.66639821       0.16698798 </v>
   <v>       0.66906480       0.33093420       0.15650367 </v>
   <v>       0.33573298       0.66426602       0.17853475 </v>
   <v>       0.27533691       0.22492092       0.40213863 </v>
   <v>       0.44184554       0.05816113       0.40225080 </v>
   <v>       0.27519127       0.72480773       0.40225684 </v>
   <v>       0.44183836       0.55816064       0.40230254 </v>
   <v>       0.77513555       0.22486345       0.40214708 </v>
   <v>       0.94182259       0.05817641       0.40199417 </v>
   <v>       0.77507808       0.72466209       0.40213863 </v>
   <v>       0.94183787       0.55815346       0.40225080 </v>
  </varray>
 </structure>
</modeling>
