  16  16   0  16
  0.2063171E+02  0.5041000E-09  0.5041000E-09  0.1500000E-08  0.5000000E-15
  1.000000000000000E-004
  CAR 
 Lattice                                 
      9.69701432    -21.33475018  301     -0.97969221      1.00000000
    -21.335  0.0000E+00  0.0000E+00  0.0000E+00  0.0000E+00
    -21.231  0.0000E+00  0.0000E+00  0.0000E+00  0.0000E+00
    -21.128  0.0000E+00  0.0000E+00  0.0000E+00  0.0000E+00
    -21.024  0.0000E+00  0.0000E+00  0.0000E+00  0.0000E+00
    -20.921  0.0000E+00  0.0000E+00  0.0000E+00  0.0000E+00
    -20.818  0.0000E+00  0.0000E+00  0.0000E+00  0.0000E+00
    -20.714  0.0000E+00  0.0000E+00  0.0000E+00  0.0000E+00
    -20.611  0.0000E+00  0.0000E+00  0.0000E+00  0.0000E+00
    -20.507  0.2912E-19  0.2912E-19  0.3012E-20  0.3012E-20
    -20.404  0.3436E-14  0.3436E-14  0.3554E-15  0.3554E-15
    -20.300  0.3383E-10  0.3383E-10  0.3500E-11  0.3500E-11
    -20.197  0.4605E-07  0.4605E-07  0.4767E-08  0.4767E-08
    -20.093  0.9371E-05  0.9371E-05  0.9741E-06  0.9741E-06
    -19.990  0.3144E-03  0.3144E-03  0.3349E-04  0.3349E-04
    -19.887  0.2126E-02  0.2126E-02  0.2534E-03  0.2534E-03
    -19.783  0.4401E-02  0.4401E-02  0.7087E-03  0.7087E-03
    -19.680  0.4900E-02  0.4900E-02  0.1215E-02  0.1215E-02
    -19.576  0.5166E-02  0.5166E-02  0.1750E-02  0.1750E-02
    -19.473  0.4639E-02  0.4639E-02  0.2230E-02  0.2230E-02
    -19.369  0.5673E-02  0.5673E-02  0.2816E-02  0.2816E-02
    -19.266  0.4278E-02  0.4278E-02  0.3259E-02  0.3259E-02
    -19.163  0.5232E-02  0.5232E-02  0.3800E-02  0.3800E-02
    -19.059  0.5923E-02  0.5923E-02  0.4413E-02  0.4413E-02
    -18.956  0.3665E-02  0.3665E-02  0.4792E-02  0.4792E-02
    -18.852  0.5279E-02  0.5279E-02  0.5338E-02  0.5338E-02
    -18.749  0.6368E-02  0.6368E-02  0.5997E-02  0.5997E-02
    -18.645  0.4474E-02  0.4474E-02  0.6460E-02  0.6460E-02
    -18.542  0.3354E-02  0.3354E-02  0.6806E-02  0.6806E-02
    -18.438  0.6694E-02  0.6694E-02  0.7499E-02  0.7499E-02
    -18.335  0.6061E-02  0.6061E-02  0.8126E-02  0.8126E-02
    -18.232  0.4249E-02  0.4249E-02  0.8565E-02  0.8565E-02
    -18.128  0.3373E-02  0.3373E-02  0.8914E-02  0.8914E-02
    -18.025  0.6317E-02  0.6317E-02  0.9568E-02  0.9568E-02
    -17.921  0.1060E-01  0.1060E-01  0.1066E-01  0.1066E-01
    -17.818  0.1070E-01  0.1070E-01  0.1177E-01  0.1177E-01
    -17.714  0.1085E-01  0.1085E-01  0.1289E-01  0.1289E-01
    -17.611  0.1261E-01  0.1261E-01  0.1420E-01  0.1420E-01
    -17.507  0.1581E-01  0.1581E-01  0.1583E-01  0.1583E-01
    -17.404  0.1926E-01  0.1926E-01  0.1783E-01  0.1783E-01
    -17.301  0.2063E-01  0.2063E-01  0.1996E-01  0.1996E-01
    -17.197  0.1321E-01  0.1321E-01  0.2133E-01  0.2133E-01
    -17.094  0.6338E-02  0.6338E-02  0.2198E-01  0.2198E-01
    -16.990  0.7300E-02  0.7300E-02  0.2274E-01  0.2274E-01
    -16.887  0.6814E-02  0.6814E-02  0.2344E-01  0.2344E-01
    -16.783  0.5591E-02  0.5591E-02  0.2402E-01  0.2402E-01
    -16.680  0.4629E-02  0.4629E-02  0.2450E-01  0.2450E-01
    -16.577  0.2817E-02  0.2817E-02  0.2479E-01  0.2479E-01
    -16.473  0.4054E-02  0.4054E-02  0.2521E-01  0.2521E-01
    -16.370  0.9213E-02  0.9213E-02  0.2616E-01  0.2616E-01
    -16.266  0.6512E-02  0.6512E-02  0.2684E-01  0.2684E-01
    -16.163  0.4809E-02  0.4809E-02  0.2733E-01  0.2733E-01
    -16.059  0.4308E-02  0.4308E-02  0.2778E-01  0.2778E-01
    -15.956  0.4248E-02  0.4248E-02  0.2822E-01  0.2822E-01
    -15.852  0.3651E-02  0.3651E-02  0.2860E-01  0.2860E-01
    -15.749  0.8299E-02  0.8299E-02  0.2945E-01  0.2945E-01
    -15.646  0.1078E-01  0.1078E-01  0.3057E-01  0.3057E-01
    -15.542  0.1169E-01  0.1169E-01  0.3178E-01  0.3178E-01
    -15.439  0.1509E-01  0.1509E-01  0.3334E-01  0.3334E-01
    -15.335  0.1603E-01  0.1603E-01  0.3500E-01  0.3500E-01
    -15.232  0.1314E-01  0.1314E-01  0.3636E-01  0.3636E-01
    -15.128  0.1437E-01  0.1437E-01  0.3784E-01  0.3784E-01
    -15.025  0.1754E-01  0.1754E-01  0.3966E-01  0.3966E-01
    -14.922  0.1631E-01  0.1631E-01  0.4135E-01  0.4135E-01
    -14.818  0.1294E-01  0.1294E-01  0.4269E-01  0.4269E-01
    -14.715  0.9747E-02  0.9747E-02  0.4369E-01  0.4369E-01
    -14.611  0.9558E-02  0.9558E-02  0.4468E-01  0.4468E-01
    -14.508  0.1512E-01  0.1512E-01  0.4625E-01  0.4625E-01
    -14.404  0.1886E-01  0.1886E-01  0.4820E-01  0.4820E-01
    -14.301  0.1544E-01  0.1544E-01  0.4979E-01  0.4979E-01
    -14.197  0.1119E-01  0.1119E-01  0.5095E-01  0.5095E-01
    -14.094  0.9022E-02  0.9022E-02  0.5188E-01  0.5188E-01
    -13.991  0.7962E-02  0.7962E-02  0.5271E-01  0.5271E-01
    -13.887  0.8842E-02  0.8842E-02  0.5362E-01  0.5362E-01
    -13.784  0.7603E-02  0.7603E-02  0.5441E-01  0.5441E-01
    -13.680  0.4317E-02  0.4317E-02  0.5486E-01  0.5486E-01
    -13.577  0.4677E-02  0.4677E-02  0.5534E-01  0.5534E-01
    -13.473  0.4398E-02  0.4398E-02  0.5579E-01  0.5579E-01
    -13.370  0.5902E-02  0.5902E-02  0.5641E-01  0.5641E-01
    -13.266  0.6011E-02  0.6011E-02  0.5703E-01  0.5703E-01
    -13.163  0.6169E-02  0.6169E-02  0.5766E-01  0.5766E-01
    -13.060  0.8078E-02  0.8078E-02  0.5850E-01  0.5850E-01
    -12.956  0.7361E-02  0.7361E-02  0.5926E-01  0.5926E-01
    -12.853  0.8527E-02  0.8527E-02  0.6014E-01  0.6014E-01
    -12.749  0.6136E-02  0.6136E-02  0.6078E-01  0.6078E-01
    -12.646  0.6573E-02  0.6573E-02  0.6146E-01  0.6146E-01
    -12.542  0.5668E-02  0.5668E-02  0.6205E-01  0.6205E-01
    -12.439  0.3749E-02  0.3749E-02  0.6243E-01  0.6243E-01
    -12.336  0.8319E-02  0.8319E-02  0.6329E-01  0.6329E-01
    -12.232  0.6531E-02  0.6531E-02  0.6397E-01  0.6397E-01
    -12.129  0.4909E-02  0.4909E-02  0.6448E-01  0.6448E-01
    -12.025  0.9314E-02  0.9314E-02  0.6544E-01  0.6544E-01
    -11.922  0.1480E-01  0.1480E-01  0.6697E-01  0.6697E-01
    -11.818  0.1609E-01  0.1609E-01  0.6864E-01  0.6864E-01
    -11.715  0.1387E-01  0.1387E-01  0.7007E-01  0.7007E-01
    -11.611  0.1434E-01  0.1434E-01  0.7155E-01  0.7155E-01
    -11.508  0.1715E-01  0.1715E-01  0.7333E-01  0.7333E-01
    -11.405  0.1298E-01  0.1298E-01  0.7467E-01  0.7467E-01
    -11.301  0.9534E-02  0.9534E-02  0.7566E-01  0.7566E-01
    -11.198  0.9221E-02  0.9221E-02  0.7661E-01  0.7661E-01
    -11.094  0.1090E-01  0.1090E-01  0.7774E-01  0.7774E-01
    -10.991  0.9612E-02  0.9612E-02  0.7873E-01  0.7873E-01
    -10.887  0.6783E-02  0.6783E-02  0.7943E-01  0.7943E-01
    -10.784  0.1178E-01  0.1178E-01  0.8065E-01  0.8065E-01
    -10.681  0.1554E-01  0.1554E-01  0.8226E-01  0.8226E-01
    -10.577  0.1228E-01  0.1228E-01  0.8353E-01  0.8353E-01
    -10.474  0.7124E-02  0.7124E-02  0.8427E-01  0.8427E-01
    -10.370  0.8983E-02  0.8983E-02  0.8520E-01  0.8520E-01
    -10.267  0.1736E-01  0.1736E-01  0.8699E-01  0.8699E-01
    -10.163  0.1744E-01  0.1744E-01  0.8880E-01  0.8880E-01
    -10.060  0.1091E-01  0.1091E-01  0.8992E-01  0.8992E-01
     -9.956  0.9590E-02  0.9590E-02  0.9092E-01  0.9092E-01
     -9.853  0.8887E-02  0.8887E-02  0.9184E-01  0.9184E-01
     -9.750  0.1158E-01  0.1158E-01  0.9303E-01  0.9303E-01
     -9.646  0.9114E-02  0.9114E-02  0.9398E-01  0.9398E-01
     -9.543  0.1113E-01  0.1113E-01  0.9513E-01  0.9513E-01
     -9.439  0.1080E-01  0.1080E-01  0.9624E-01  0.9624E-01
     -9.336  0.1035E-01  0.1035E-01  0.9732E-01  0.9732E-01
     -9.232  0.1016E-01  0.1016E-01  0.9837E-01  0.9837E-01
     -9.129  0.3461E-02  0.3461E-02  0.9872E-01  0.9872E-01
     -9.025  0.1793E-02  0.1793E-02  0.9891E-01  0.9891E-01
     -8.922  0.1048E-01  0.1048E-01  0.9999E-01  0.9999E-01
     -8.819  0.1927E-01  0.1927E-01  0.1020E+00  0.1020E+00
     -8.715  0.1758E-01  0.1758E-01  0.1038E+00  0.1038E+00
     -8.612  0.1054E-01  0.1054E-01  0.1049E+00  0.1049E+00
     -8.508  0.7742E-02  0.7742E-02  0.1057E+00  0.1057E+00
     -8.405  0.8891E-02  0.8891E-02  0.1066E+00  0.1066E+00
     -8.301  0.1265E-01  0.1265E-01  0.1079E+00  0.1079E+00
     -8.198  0.2469E-01  0.2469E-01  0.1105E+00  0.1105E+00
     -8.095  0.2296E-01  0.2296E-01  0.1129E+00  0.1129E+00
     -7.991  0.1905E-01  0.1905E-01  0.1148E+00  0.1148E+00
     -7.888  0.1546E-01  0.1546E-01  0.1164E+00  0.1164E+00
     -7.784  0.1310E-01  0.1310E-01  0.1178E+00  0.1178E+00
     -7.681  0.2066E-01  0.2066E-01  0.1199E+00  0.1199E+00
     -7.577  0.2523E-01  0.2523E-01  0.1225E+00  0.1225E+00
     -7.474  0.2330E-01  0.2330E-01  0.1249E+00  0.1249E+00
     -7.370  0.2248E-01  0.2248E-01  0.1273E+00  0.1273E+00
     -7.267  0.2594E-01  0.2594E-01  0.1299E+00  0.1299E+00
     -7.164  0.2302E-01  0.2302E-01  0.1323E+00  0.1323E+00
     -7.060  0.2521E-01  0.2521E-01  0.1349E+00  0.1349E+00
     -6.957  0.2537E-01  0.2537E-01  0.1376E+00  0.1376E+00
     -6.853  0.1749E-01  0.1749E-01  0.1394E+00  0.1394E+00
     -6.750  0.2258E-01  0.2258E-01  0.1417E+00  0.1417E+00
     -6.646  0.2675E-01  0.2675E-01  0.1445E+00  0.1445E+00
     -6.543  0.2376E-01  0.2376E-01  0.1469E+00  0.1469E+00
     -6.440  0.2454E-01  0.2454E-01  0.1495E+00  0.1495E+00
     -6.336  0.2292E-01  0.2292E-01  0.1518E+00  0.1518E+00
     -6.233  0.2511E-01  0.2511E-01  0.1544E+00  0.1544E+00
     -6.129  0.1976E-01  0.1976E-01  0.1565E+00  0.1565E+00
     -6.026  0.1620E-01  0.1620E-01  0.1582E+00  0.1582E+00
     -5.922  0.1952E-01  0.1952E-01  0.1602E+00  0.1602E+00
     -5.819  0.2578E-01  0.2578E-01  0.1628E+00  0.1628E+00
     -5.715  0.2225E-01  0.2225E-01  0.1651E+00  0.1651E+00
     -5.612  0.1774E-01  0.1774E-01  0.1670E+00  0.1670E+00
     -5.509  0.2194E-01  0.2194E-01  0.1692E+00  0.1692E+00
     -5.405  0.2639E-01  0.2639E-01  0.1720E+00  0.1720E+00
     -5.302  0.2867E-01  0.2867E-01  0.1749E+00  0.1749E+00
     -5.198  0.2057E-01  0.2057E-01  0.1771E+00  0.1771E+00
     -5.095  0.1257E-01  0.1257E-01  0.1784E+00  0.1784E+00
     -4.991  0.1506E-01  0.1506E-01  0.1799E+00  0.1799E+00
     -4.888  0.1858E-01  0.1858E-01  0.1818E+00  0.1818E+00
     -4.784  0.1697E-01  0.1697E-01  0.1836E+00  0.1836E+00
     -4.681  0.1653E-01  0.1653E-01  0.1853E+00  0.1853E+00
     -4.578  0.1732E-01  0.1732E-01  0.1871E+00  0.1871E+00
     -4.474  0.1645E-01  0.1645E-01  0.1888E+00  0.1888E+00
     -4.371  0.1870E-01  0.1870E-01  0.1907E+00  0.1907E+00
     -4.267  0.2294E-01  0.2294E-01  0.1931E+00  0.1931E+00
     -4.164  0.3060E-01  0.3060E-01  0.1963E+00  0.1963E+00
     -4.060  0.4018E-01  0.4018E-01  0.2004E+00  0.2004E+00
     -3.957  0.3354E-01  0.3354E-01  0.2039E+00  0.2039E+00
     -3.854  0.2265E-01  0.2265E-01  0.2062E+00  0.2062E+00
     -3.750  0.1531E-01  0.1531E-01  0.2078E+00  0.2078E+00
     -3.647  0.1579E-01  0.1579E-01  0.2095E+00  0.2095E+00
     -3.543  0.1659E-01  0.1659E-01  0.2112E+00  0.2112E+00
     -3.440  0.2032E-01  0.2032E-01  0.2133E+00  0.2133E+00
     -3.336  0.2077E-01  0.2077E-01  0.2154E+00  0.2154E+00
     -3.233  0.1435E-01  0.1435E-01  0.2169E+00  0.2169E+00
     -3.129  0.1310E-01  0.1310E-01  0.2183E+00  0.2183E+00
     -3.026  0.1812E-01  0.1812E-01  0.2201E+00  0.2201E+00
     -2.923  0.2548E-01  0.2548E-01  0.2228E+00  0.2228E+00
     -2.819  0.1999E-01  0.1999E-01  0.2248E+00  0.2248E+00
     -2.716  0.1023E-01  0.1023E-01  0.2259E+00  0.2259E+00
     -2.612  0.1280E-01  0.1280E-01  0.2272E+00  0.2272E+00
     -2.509  0.2114E-01  0.2114E-01  0.2294E+00  0.2294E+00
     -2.405  0.2057E-01  0.2057E-01  0.2315E+00  0.2315E+00
     -2.302  0.1842E-01  0.1842E-01  0.2334E+00  0.2334E+00
     -2.198  0.2294E-01  0.2294E-01  0.2358E+00  0.2358E+00
     -2.095  0.1743E-01  0.1743E-01  0.2376E+00  0.2376E+00
     -1.992  0.5029E-02  0.5029E-02  0.2381E+00  0.2381E+00
     -1.888  0.5177E-02  0.5177E-02  0.2387E+00  0.2387E+00
     -1.785  0.7434E-02  0.7434E-02  0.2394E+00  0.2394E+00
     -1.681  0.5569E-02  0.5569E-02  0.2400E+00  0.2400E+00
     -1.578  0.6551E-02  0.6551E-02  0.2407E+00  0.2407E+00
     -1.474  0.6223E-02  0.6223E-02  0.2413E+00  0.2413E+00
     -1.371  0.4185E-02  0.4185E-02  0.2418E+00  0.2418E+00
     -1.268  0.2326E-02  0.2326E-02  0.2420E+00  0.2420E+00
     -1.164  0.5391E-03  0.5391E-03  0.2421E+00  0.2421E+00
     -1.061  0.2383E-03  0.2383E-03  0.2421E+00  0.2421E+00
     -0.957  0.1223E-02  0.1223E-02  0.2422E+00  0.2422E+00
     -0.854  0.2572E-02  0.2572E-02  0.2425E+00  0.2425E+00
     -0.750  0.3249E-02  0.3249E-02  0.2428E+00  0.2428E+00
     -0.647  0.4377E-02  0.4377E-02  0.2433E+00  0.2433E+00
     -0.543  0.8738E-02  0.8738E-02  0.2442E+00  0.2442E+00
     -0.440  0.9513E-02  0.9513E-02  0.2452E+00  0.2452E+00
     -0.337  0.9000E-02  0.9000E-02  0.2461E+00  0.2461E+00
     -0.233  0.1001E-01  0.1001E-01  0.2471E+00  0.2471E+00
     -0.130  0.1053E-01  0.1053E-01  0.2482E+00  0.2482E+00
     -0.026  0.1018E-01  0.1018E-01  0.2493E+00  0.2493E+00
      0.077  0.3837E-02  0.3837E-02  0.2497E+00  0.2497E+00
      0.181  0.4597E-02  0.4597E-02  0.2502E+00  0.2502E+00
      0.284  0.9587E-02  0.9587E-02  0.2511E+00  0.2511E+00
      0.387  0.8347E-02  0.8347E-02  0.2520E+00  0.2520E+00
      0.491  0.6384E-02  0.6384E-02  0.2527E+00  0.2527E+00
      0.594  0.7529E-02  0.7529E-02  0.2534E+00  0.2534E+00
      0.698  0.1042E-01  0.1042E-01  0.2545E+00  0.2545E+00
      0.801  0.9461E-02  0.9461E-02  0.2555E+00  0.2555E+00
      0.905  0.1038E-01  0.1038E-01  0.2566E+00  0.2566E+00
      1.008  0.8994E-02  0.8994E-02  0.2575E+00  0.2575E+00
      1.112  0.4588E-02  0.4588E-02  0.2580E+00  0.2580E+00
      1.215  0.5589E-02  0.5589E-02  0.2586E+00  0.2586E+00
      1.318  0.5012E-02  0.5012E-02  0.2591E+00  0.2591E+00
      1.422  0.4114E-02  0.4114E-02  0.2595E+00  0.2595E+00
      1.525  0.3982E-02  0.3982E-02  0.2599E+00  0.2599E+00
      1.629  0.9020E-02  0.9020E-02  0.2608E+00  0.2608E+00
      1.732  0.1171E-01  0.1171E-01  0.2621E+00  0.2621E+00
      1.836  0.3840E-02  0.3840E-02  0.2625E+00  0.2625E+00
      1.939  0.3264E-02  0.3264E-02  0.2628E+00  0.2628E+00
      2.043  0.5248E-02  0.5248E-02  0.2633E+00  0.2633E+00
      2.146  0.6100E-02  0.6100E-02  0.2640E+00  0.2640E+00
      2.249  0.1254E-01  0.1254E-01  0.2653E+00  0.2653E+00
      2.353  0.1558E-01  0.1558E-01  0.2669E+00  0.2669E+00
      2.456  0.1228E-01  0.1228E-01  0.2681E+00  0.2681E+00
      2.560  0.1315E-01  0.1315E-01  0.2695E+00  0.2695E+00
      2.663  0.1182E-01  0.1182E-01  0.2707E+00  0.2707E+00
      2.767  0.7953E-02  0.7953E-02  0.2716E+00  0.2716E+00
      2.870  0.8925E-02  0.8925E-02  0.2725E+00  0.2725E+00
      2.973  0.1087E-01  0.1087E-01  0.2736E+00  0.2736E+00
      3.077  0.1258E-01  0.1258E-01  0.2749E+00  0.2749E+00
      3.180  0.1521E-01  0.1521E-01  0.2765E+00  0.2765E+00
      3.284  0.1439E-01  0.1439E-01  0.2780E+00  0.2780E+00
      3.387  0.9326E-02  0.9326E-02  0.2789E+00  0.2789E+00
      3.491  0.7541E-02  0.7540E-02  0.2797E+00  0.2797E+00
      3.594  0.1267E-01  0.1267E-01  0.2810E+00  0.2810E+00
      3.698  0.1230E-01  0.1230E-01  0.2823E+00  0.2823E+00
      3.801  0.8847E-02  0.8847E-02  0.2832E+00  0.2832E+00
      3.904  0.1341E-01  0.1341E-01  0.2846E+00  0.2846E+00
      4.008  0.1824E-01  0.1824E-01  0.2865E+00  0.2865E+00
      4.111  0.1529E-01  0.1529E-01  0.2881E+00  0.2881E+00
      4.215  0.1456E-01  0.1456E-01  0.2896E+00  0.2896E+00
      4.318  0.1438E-01  0.1438E-01  0.2911E+00  0.2911E+00
      4.422  0.1590E-01  0.1590E-01  0.2927E+00  0.2927E+00
      4.525  0.1323E-01  0.1323E-01  0.2941E+00  0.2941E+00
      4.628  0.1266E-01  0.1266E-01  0.2954E+00  0.2954E+00
      4.732  0.1577E-01  0.1577E-01  0.2970E+00  0.2970E+00
      4.835  0.1904E-01  0.1904E-01  0.2990E+00  0.2990E+00
      4.939  0.1892E-01  0.1892E-01  0.3009E+00  0.3009E+00
      5.042  0.1806E-01  0.1806E-01  0.3028E+00  0.3028E+00
      5.146  0.1624E-01  0.1624E-01  0.3045E+00  0.3045E+00
      5.249  0.1488E-01  0.1488E-01  0.3060E+00  0.3060E+00
      5.353  0.1550E-01  0.1550E-01  0.3076E+00  0.3076E+00
      5.456  0.2053E-01  0.2053E-01  0.3097E+00  0.3097E+00
      5.559  0.1875E-01  0.1875E-01  0.3117E+00  0.3117E+00
      5.663  0.1412E-01  0.1412E-01  0.3131E+00  0.3131E+00
      5.766  0.1544E-01  0.1544E-01  0.3147E+00  0.3147E+00
      5.870  0.2376E-01  0.2376E-01  0.3172E+00  0.3172E+00
      5.973  0.2216E-01  0.2216E-01  0.3195E+00  0.3195E+00
      6.077  0.2496E-01  0.2496E-01  0.3221E+00  0.3221E+00
      6.180  0.2889E-01  0.2889E-01  0.3251E+00  0.3251E+00
      6.284  0.2590E-01  0.2590E-01  0.3277E+00  0.3277E+00
      6.387  0.2438E-01  0.2438E-01  0.3303E+00  0.3303E+00
      6.490  0.1890E-01  0.1890E-01  0.3322E+00  0.3322E+00
      6.594  0.1977E-01  0.1977E-01  0.3343E+00  0.3343E+00
      6.697  0.2976E-01  0.2976E-01  0.3373E+00  0.3373E+00
      6.801  0.3131E-01  0.3131E-01  0.3406E+00  0.3406E+00
      6.904  0.2922E-01  0.2922E-01  0.3436E+00  0.3436E+00
      7.008  0.3332E-01  0.3332E-01  0.3471E+00  0.3471E+00
      7.111  0.3414E-01  0.3414E-01  0.3506E+00  0.3506E+00
      7.214  0.2971E-01  0.2971E-01  0.3537E+00  0.3537E+00
      7.318  0.3222E-01  0.3222E-01  0.3570E+00  0.3570E+00
      7.421  0.3759E-01  0.3759E-01  0.3609E+00  0.3609E+00
      7.525  0.3082E-01  0.3082E-01  0.3641E+00  0.3641E+00
      7.628  0.2429E-01  0.2429E-01  0.3666E+00  0.3666E+00
      7.732  0.2877E-01  0.2877E-01  0.3696E+00  0.3696E+00
      7.835  0.2038E-01  0.2038E-01  0.3717E+00  0.3717E+00
      7.939  0.1453E-01  0.1453E-01  0.3732E+00  0.3732E+00
      8.042  0.9866E-02  0.9866E-02  0.3742E+00  0.3742E+00
      8.145  0.3373E-02  0.3373E-02  0.3745E+00  0.3745E+00
      8.249  0.1953E-02  0.1953E-02  0.3747E+00  0.3747E+00
      8.352  0.1981E-02  0.1981E-02  0.3749E+00  0.3749E+00
      8.456  0.5465E-03  0.5465E-03  0.3750E+00  0.3750E+00
      8.559  0.2622E-04  0.2622E-04  0.3750E+00  0.3750E+00
      8.663  0.1809E-06  0.1809E-06  0.3750E+00  0.3750E+00
      8.766  0.1637E-09  0.1638E-09  0.3750E+00  0.3750E+00
      8.870  0.1860E-13  0.1861E-13  0.3750E+00  0.3750E+00
      8.973  0.0000E+00  0.0000E+00  0.3750E+00  0.3750E+00
      9.076  0.0000E+00  0.0000E+00  0.3750E+00  0.3750E+00
      9.180  0.0000E+00  0.0000E+00  0.3750E+00  0.3750E+00
      9.283  0.0000E+00  0.0000E+00  0.3750E+00  0.3750E+00
      9.387  0.0000E+00  0.0000E+00  0.3750E+00  0.3750E+00
      9.490  0.0000E+00  0.0000E+00  0.3750E+00  0.3750E+00
      9.594  0.0000E+00  0.0000E+00  0.3750E+00  0.3750E+00
      9.697  0.0000E+00  0.0000E+00  0.3750E+00  0.3750E+00
