Lattice                                 
           1
     4.205419    2.428000    0.000000
    -4.205419    2.428000    0.000000
     0.000000    0.000000   15.000000
   B    C 
     4    11
Direct configuration=     1
   0.00415361  0.00267210  0.12034134
   0.35695335  0.00285503  0.09748893
   0.00423858  0.35550699  0.09749256
   0.65142295  0.65006557  0.09747688
   0.32808646  0.32671938  0.10030508
   0.68027775  0.00278085  0.10027562
   0.00416530  0.67883808  0.10026559
   0.16666600  0.33333300  0.33720000
   0.33333300  0.16666600  0.33720000
   0.16666600  0.83333300  0.33720000
   0.33333300  0.66666600  0.33720000
   0.66666600  0.33333300  0.33720000
   0.83333300  0.16666600  0.33720000
   0.66666600  0.83333300  0.33720000
   0.83333300  0.66666600  0.33720000
Direct configuration=     2
   0.00418404  0.00274841  0.11891146
   0.35582556  0.00280430  0.09786738
   0.00419631  0.35439190  0.09787022
   0.65252232  0.65113420  0.09786300
   0.32452341  0.32312127  0.10032261
   0.68386079  0.00280153  0.10030389
   0.00420225  0.68244767  0.10029764
   0.16659090  0.33342253  0.33726244
   0.33342294  0.16659362  0.33726350
   0.16682281  0.83339501  0.33726521
   0.33333494  0.66667220  0.33711443
   0.66667134  0.33333140  0.33711442
   0.83339232  0.16682045  0.33726508
   0.66657435  0.83317438  0.33726283
   0.83316973  0.66657512  0.33726190
Direct configuration=     3
   0.00416976  0.00271260  0.11958250
   0.35635483  0.00282811  0.09768977
   0.00421614  0.35491521  0.09769299
   0.65200639  0.65063270  0.09768179
   0.32619553  0.32480984  0.10031438
   0.68217928  0.00279183  0.10029063
   0.00418491  0.68075371  0.10028260
   0.16662614  0.33338051  0.33723314
   0.33338073  0.16662759  0.33723370
   0.16674922  0.83336591  0.33723461
   0.33333403  0.66666929  0.33715459
   0.66666883  0.33333215  0.33715458
   0.83336448  0.16674797  0.33723454
   0.66661736  0.83324882  0.33723334
   0.83324635  0.66661777  0.33723285
Direct configuration=     4
   0.00418589  0.00277126  0.11824190
   0.35690750  0.00278443  0.09806382
   0.00418367  0.35548885  0.09806622
   0.65145613  0.65005339  0.09806387
   0.32636505  0.32495146  0.10029343
   0.68202411  0.00279704  0.10028084
   0.00420471  0.68061119  0.10027611
   0.16670819  0.33328611  0.33729359
   0.33328460  0.16670891  0.33729504
   0.16657169  0.83328767  0.33729729
   0.33332876  0.66666044  0.33709508
   0.66665941  0.33333133  0.33709506
   0.83328747  0.16657416  0.33729706
   0.66670663  0.83341997  0.33729396
   0.83342020  0.66670777  0.33729274
Direct configuration=     5
   0.00423427  0.00294727  0.11422009
   0.35856552  0.00265338  0.09918594
   0.00408624  0.35720976  0.09918590
   0.64980536  0.64831547  0.09921011
   0.32687358  0.32537632  0.10023060
   0.68155860  0.00281268  0.10025147
   0.00426411  0.68018366  0.10025663
   0.16695432  0.33300289  0.33747495
   0.33299620  0.16695288  0.33747905
   0.16603910  0.83305297  0.33748535
   0.33331295  0.66663390  0.33691655
   0.66663114  0.33332887  0.33691651
   0.83305643  0.16605276  0.33748462
   0.66697442  0.83393342  0.33747581
   0.83394175  0.66697778  0.33747241
Direct configuration=     6
   0.00423456  0.00295059  0.11350958
   0.35870640  0.00264843  0.09932629
   0.00408808  0.35735866  0.09932608
   0.64967429  0.64817689  0.09935277
   0.32703803  0.32553900  0.10027849
   0.68139821  0.00280460  0.10030355
   0.00425914  0.68002783  0.10030978
   0.16674019  0.33319649  0.33749284
   0.33319090  0.16674150  0.33749703
   0.16644475  0.83324956  0.33750337
   0.33331530  0.66664842  0.33692999
   0.66664440  0.33332447  0.33692996
   0.83324775  0.16645247  0.33750257
   0.66677999  0.83353126  0.33749356
   0.83353202  0.66678384  0.33749014
Direct configuration=     7
   0.00423501  0.00295571  0.11241184
   0.35892407  0.00264079  0.09954312
   0.00409093  0.35758871  0.09954265
   0.64947179  0.64796277  0.09957318
   0.32729211  0.32579033  0.10035249
   0.68115040  0.00279210  0.10038402
   0.00425145  0.67978707  0.10039189
   0.16640936  0.33349561  0.33752046
   0.33349169  0.16641493  0.33752481
   0.16707147  0.83355329  0.33753122
   0.33331892  0.66667087  0.33695076
   0.66666489  0.33331768  0.33695075
   0.83354333  0.16707003  0.33753029
   0.66647959  0.83290992  0.33752099
   0.83289899  0.66648420  0.33751753
Direct configuration=     8
   0.00423036  0.00293397  0.11160488
   0.35888564  0.00265767  0.09964030
   0.00411370  0.35755164  0.09964001
   0.64952407  0.64801803  0.09967043
   0.32743281  0.32594355  0.10047066
   0.68100865  0.00277683  0.10050448
   0.00423358  0.67964459  0.10051267
   0.16643260  0.33353366  0.33752465
   0.33353032  0.16644076  0.33752868
   0.16707413  0.83352135  0.33753442
   0.33332206  0.66667164  0.33701740
   0.66666496  0.33331877  0.33701740
   0.83351076  0.16707242  0.33753344
   0.66643969  0.83290386  0.33752483
   0.83289067  0.66644527  0.33752176
Direct configuration=     9
   0.00421640  0.00286872  0.10918400
   0.35877037  0.00270831  0.09993182
   0.00418202  0.35744043  0.09993207
   0.64968090  0.64818382  0.09996217
   0.32785488  0.32640321  0.10082519
   0.68058339  0.00273100  0.10086587
   0.00417999  0.67921716  0.10087502
   0.16650234  0.33364780  0.33753721
   0.33364620  0.16651826  0.33754029
   0.16708210  0.83342553  0.33754403
   0.33333149  0.66667398  0.33721731
   0.66666516  0.33332204  0.33721735
   0.83341308  0.16707960  0.33754288
   0.66631999  0.83288567  0.33753635
   0.83286570  0.66632847  0.33753443
Direct configuration=    10
   0.00418848  0.00273824  0.10434225
   0.35853982  0.00280959  0.10051487
   0.00431867  0.35721802  0.10051620
   0.64999458  0.64851539  0.10054565
   0.32869904  0.32732252  0.10153423
   0.67973287  0.00263935  0.10158865
   0.00407280  0.67836229  0.10159972
   0.16664180  0.33387609  0.33756233
   0.33387795  0.16667327  0.33756350
   0.16709804  0.83323390  0.33756324
   0.33335035  0.66667864  0.33761712
   0.66666556  0.33332858  0.33761727
   0.83321770  0.16709395  0.33756177
   0.66608057  0.83284929  0.33755941
   0.83281577  0.66609488  0.33755979
Direct configuration=    11
   0.00419935  0.00278906  0.10622826
   0.35862963  0.00277014  0.10028775
   0.00426544  0.35730466  0.10028867
   0.64987240  0.64838624  0.10031837
   0.32837021  0.32696442  0.10125804
   0.68006417  0.00267505  0.10130711
   0.00411455  0.67869528  0.10131743
   0.16658748  0.33378716  0.33755254
   0.33378768  0.16661289  0.33755446
   0.16709183  0.83330854  0.33755576
   0.33334301  0.66667682  0.33746138
   0.66666540  0.33332604  0.33746149
   0.83329380  0.16708836  0.33755442
   0.66617383  0.83286346  0.33755043
   0.83283522  0.66618587  0.33754991
Direct configuration=    12
   0.00423484  0.00282195  0.10477687
   0.35884369  0.00281743  0.10054538
   0.00428767  0.35746413  0.10054710
   0.64961867  0.64816979  0.10057125
   0.32799632  0.32660680  0.10138296
   0.68041262  0.00272533  0.10142914
   0.00414926  0.67899789  0.10143836
   0.16672408  0.33284582  0.33756888
   0.33282632  0.16672008  0.33757021
   0.16614713  0.83326989  0.33757064
   0.33326745  0.66662465  0.33757118
   0.66661959  0.33330076  0.33757127
   0.83326422  0.16616576  0.33756935
   0.66710096  0.83379809  0.33756669
   0.83380115  0.66710562  0.33756673
Direct configuration=    13
   0.00422013  0.00280832  0.10537855
   0.35875495  0.00279783  0.10043858
   0.00427846  0.35739802  0.10043996
   0.64972385  0.64825952  0.10046642
   0.32815132  0.32675505  0.10133118
   0.68026817  0.00270449  0.10137855
   0.00413487  0.67887244  0.10138823
   0.16666745  0.33323605  0.33756211
   0.33322485  0.16667565  0.33756368
   0.16653876  0.83328591  0.33756447
   0.33329877  0.66664628  0.33752566
   0.66663858  0.33331124  0.33752576
   0.83327649  0.16654823  0.33756316
   0.66671662  0.83341064  0.33755995
   0.83340072  0.66672434  0.33755976
Direct configuration=    14
   0.00423986  0.00283977  0.10508260
   0.35905765  0.00280753  0.10057171
   0.00425888  0.35765950  0.10057346
   0.64938178  0.64794354  0.10059486
   0.32776566  0.32636117  0.10127086
   0.68064878  0.00276476  0.10131158
   0.00418824  0.67922560  0.10131972
   0.16657349  0.33321966  0.33757771
   0.33320865  0.16657939  0.33757927
   0.16661569  0.83338782  0.33758035
   0.33329638  0.66663825  0.33752642
   0.66662652  0.33331013  0.33752649
   0.83337909  0.16662890  0.33757915
   0.66672348  0.83333359  0.33757606
   0.83332986  0.66673439  0.33757576
Direct configuration=    15
   0.00425448  0.00286308  0.10486324
   0.35928200  0.00281472  0.10067038
   0.00424437  0.35785330  0.10067240
   0.64912823  0.64770934  0.10069007
   0.32747981  0.32606922  0.10122615
   0.68093089  0.00280943  0.10126195
   0.00422780  0.67948737  0.10126894
   0.16650384  0.33320751  0.33758927
   0.33319664  0.16650805  0.33759082
   0.16667271  0.83346336  0.33759212
   0.33329461  0.66663230  0.33752699
   0.66661758  0.33330931  0.33752703
   0.83345514  0.16668869  0.33759101
   0.66672857  0.83327648  0.33758800
   0.83327734  0.66674185  0.33758762
Direct configuration=    16
   0.00422065  0.00280750  0.10463237
   0.35953079  0.00280339  0.10079220
   0.00421667  0.35809840  0.10079434
   0.64889049  0.64748184  0.10080656
   0.32759962  0.32617313  0.10115597
   0.68084752  0.00283125  0.10118261
   0.00425219  0.67941814  0.10118763
   0.16670890  0.33343285  0.33761019
   0.33342239  0.16672256  0.33761184
   0.16667531  0.83321766  0.33761375
   0.33330416  0.66665853  0.33751357
   0.66665083  0.33330983  0.33751357
   0.83320271  0.16667851  0.33761274
   0.66652058  0.83327207  0.33760964
   0.83325118  0.66652833  0.33760902
Direct configuration=    17
   0.00422857  0.00282051  0.10468642
   0.35947254  0.00280605  0.10076368
   0.00422316  0.35804101  0.10076579
   0.64894616  0.64753511  0.10077928
   0.32757157  0.32614880  0.10117240
   0.68086704  0.00282614  0.10120119
   0.00424648  0.67943435  0.10120667
   0.16666089  0.33338008  0.33760529
   0.33336953  0.16667233  0.33760692
   0.16667470  0.83327519  0.33760868
   0.33330192  0.66665239  0.33751671
   0.66664304  0.33330971  0.33751672
   0.83326182  0.16668089  0.33760766
   0.66656928  0.83327310  0.33760457
   0.83325731  0.66657833  0.33760401
Direct configuration=    18
   0.00419940  0.00277064  0.10455317
   0.35945906  0.00279736  0.10081605
   0.00421378  0.35804023  0.10081813
   0.64898452  0.64756987  0.10082824
   0.32780009  0.32637050  0.10114620
   0.68066552  0.00281698  0.10116813
   0.00424075  0.67925157  0.10117218
   0.16661582  0.33330999  0.33762041
   0.33330080  0.16662950  0.33762215
   0.16663890  0.83332081  0.33762433
   0.33330507  0.66664591  0.33750708
   0.66663485  0.33331291  0.33750708
   0.83331097  0.16664976  0.33762336
   0.66663419  0.83330230  0.33762012
   0.83329028  0.66664568  0.33761935
Direct configuration=    19
   0.00419346  0.00276048  0.10452605
   0.35945631  0.00279559  0.10082671
   0.00421187  0.35804008  0.10082879
   0.64899233  0.64757695  0.10083821
   0.32784661  0.32641564  0.10114087
   0.68062449  0.00281512  0.10116140
   0.00423958  0.67921436  0.10116516
   0.16660665  0.33329572  0.33762349
   0.33328681  0.16662078  0.33762525
   0.16663162  0.83333009  0.33762751
   0.33330572  0.66664459  0.33750512
   0.66663318  0.33331356  0.33750512
   0.83332098  0.16664342  0.33762656
   0.66664741  0.83330824  0.33762328
   0.83329699  0.66665939  0.33762248
Direct configuration=    20
   0.00420035  0.00276819  0.10438264
   0.35931365  0.00280194  0.10085359
   0.00421839  0.35789577  0.10085565
   0.64913860  0.64772010  0.10086211
   0.32785062  0.32642271  0.10113999
   0.68061870  0.00281117  0.10115370
   0.00423346  0.67920482  0.10115609
   0.16658736  0.33328719  0.33763786
   0.33327411  0.16659475  0.33763969
   0.16666633  0.83336089  0.33764224
   0.33329249  0.66664227  0.33750312
   0.66663115  0.33330601  0.33750310
   0.83334770  0.16667656  0.33764136
   0.66665261  0.83327873  0.33763791
   0.83326847  0.66666292  0.33763694
Direct configuration=    21
   0.00420825  0.00277702  0.10421837
   0.35915023  0.00280921  0.10088439
   0.00422586  0.35773046  0.10088642
   0.64930614  0.64788407  0.10088950
   0.32785522  0.32643082  0.10113899
   0.68061208  0.00280665  0.10114489
   0.00422645  0.67919388  0.10114570
   0.16656526  0.33327741  0.33765432
   0.33325956  0.16656494  0.33765623
   0.16670610  0.83339618  0.33765910
   0.33327735  0.66663961  0.33750082
   0.66662883  0.33329735  0.33750080
   0.83337831  0.16671451  0.33765831
   0.66665857  0.83324493  0.33765466
   0.83323580  0.66666696  0.33765350
Direct configuration=    22
   0.00421970  0.00279366  0.10409214
   0.35911672  0.00281512  0.10089729
   0.00423233  0.35769307  0.10089933
   0.64933869  0.64791515  0.10090053
   0.32783544  0.32641417  0.10114748
   0.68062489  0.00280652  0.10114847
   0.00422475  0.67920025  0.10114831
   0.16660230  0.33330844  0.33766487
   0.33329620  0.16661164  0.33766679
   0.16666298  0.83333997  0.33766974
   0.33329232  0.66664001  0.33750636
   0.66662642  0.33330477  0.33750635
   0.83332697  0.16667466  0.33766901
   0.66662625  0.83327793  0.33766528
   0.83326803  0.66663867  0.33766405
Direct configuration=    23
   0.00423512  0.00281606  0.10392216
   0.35907160  0.00282307  0.10091467
   0.00424105  0.35764272  0.10091670
   0.64938252  0.64795699  0.10091539
   0.32780881  0.32639175  0.10115891
   0.68064215  0.00280634  0.10115329
   0.00422247  0.67920882  0.10115182
   0.16665218  0.33335023  0.33767908
   0.33334554  0.16667452  0.33768101
   0.16660491  0.83326428  0.33768406
   0.33331249  0.66664055  0.33751383
   0.66662318  0.33331475  0.33751382
   0.83325784  0.16662098  0.33768342
   0.66658272  0.83332236  0.33767959
   0.83331142  0.66660058  0.33767826
Direct configuration=    24
   0.00424048  0.00282387  0.10381381
   0.35910069  0.00282509  0.10092254
   0.00424425  0.35767073  0.10092458
   0.64935438  0.64792776  0.10092216
   0.32780636  0.32639038  0.10116814
   0.68064264  0.00280613  0.10115913
   0.00422237  0.67920699  0.10115698
   0.16665125  0.33334688  0.33768712
   0.33334100  0.16667405  0.33768903
   0.16660341  0.83326150  0.33769206
   0.33331153  0.66664241  0.33752253
   0.66662673  0.33331448  0.33752252
   0.83325393  0.16661839  0.33769147
   0.66658684  0.83332181  0.33768763
   0.83330814  0.66660355  0.33768628
Direct configuration=    25
   0.00425655  0.00284728  0.10348877
   0.35918794  0.00283116  0.10094618
   0.00425385  0.35775477  0.10094821
   0.64926995  0.64784009  0.10094249
   0.32779903  0.32638626  0.10119582
   0.68064411  0.00280548  0.10117662
   0.00422206  0.67920151  0.10117248
   0.16664846  0.33333682  0.33771125
   0.33332740  0.16667262  0.33771311
   0.16659892  0.83325316  0.33771607
   0.33330866  0.66664797  0.33754864
   0.66663740  0.33331366  0.33754863
   0.83324220  0.16661059  0.33771561
   0.66659921  0.83332016  0.33771176
   0.83329827  0.66661246  0.33771034
Direct configuration=    26
   0.00428868  0.00289412  0.10283869
   0.35936245  0.00284330  0.10099345
   0.00427306  0.35792285  0.10099548
   0.64910110  0.64766473  0.10098315
   0.32778437  0.32637803  0.10125120
   0.68064705  0.00280420  0.10121161
   0.00422143  0.67919055  0.10120348
   0.16664288  0.33331670  0.33775949
   0.33330018  0.16666976  0.33776127
   0.16658994  0.83323649  0.33776409
   0.33330292  0.66665911  0.33760085
   0.66665872  0.33331204  0.33760085
   0.83321874  0.16659499  0.33776389
   0.66662393  0.83331686  0.33776002
   0.83327855  0.66663029  0.33775846
Direct configuration=    27
   0.00435295  0.00298778  0.10153852
   0.35971146  0.00286757  0.10108799
   0.00431147  0.35825900  0.10109002
   0.64876338  0.64731401  0.10106447
   0.32775504  0.32636157  0.10136194
   0.68065293  0.00280164  0.10128160
   0.00422019  0.67916863  0.10126548
   0.16663173  0.33327646  0.33785599
   0.33324575  0.16666404  0.33785759
   0.16657197  0.83320314  0.33786012
   0.33329143  0.66668139  0.33770528
   0.66670137  0.33330878  0.33770530
   0.83317183  0.16656379  0.33786046
   0.66667339  0.83331025  0.33785654
   0.83323910  0.66666593  0.33785470
Direct configuration=    28
   0.00432756  0.00295077  0.10205224
   0.35957356  0.00285798  0.10105064
   0.00429629  0.35812618  0.10105266
   0.64889682  0.64745259  0.10103234
   0.32776663  0.32636808  0.10131818
   0.68065061  0.00280265  0.10125394
   0.00422068  0.67917730  0.10124099
   0.16663614  0.33329236  0.33781786
   0.33326726  0.16666630  0.33781954
   0.16657907  0.83321632  0.33782217
   0.33329597  0.66667259  0.33766402
   0.66668452  0.33331007  0.33766403
   0.83319036  0.16657612  0.33782230
   0.66665385  0.83331286  0.33781841
   0.83325468  0.66665185  0.33781667
Direct configuration=    29
   0.00430016  0.00290529  0.10175992
   0.35958053  0.00284351  0.10108920
   0.00428691  0.35814958  0.10109123
   0.64891173  0.64746382  0.10107026
   0.32777758  0.32636944  0.10131819
   0.68067479  0.00279625  0.10124953
   0.00422211  0.67922273  0.10123571
   0.16656973  0.33328998  0.33783916
   0.33327446  0.16659286  0.33784076
   0.16662701  0.83332121  0.33784320
   0.33328584  0.66663067  0.33769406
   0.66661316  0.33329918  0.33769407
   0.83330514  0.16664537  0.33784337
   0.66661457  0.83327058  0.33783953
   0.83325029  0.66663352  0.33783782
Direct configuration=    30
   0.00428143  0.00287419  0.10156005
   0.35958530  0.00283362  0.10111557
   0.00428049  0.35816559  0.10111759
   0.64892192  0.64747150  0.10109618
   0.32778507  0.32637037  0.10131819
   0.68069132  0.00279187  0.10124651
   0.00422310  0.67925380  0.10123210
   0.16652432  0.33328836  0.33785372
   0.33327938  0.16654265  0.33785528
   0.16665980  0.83339293  0.33785758
   0.33327891  0.66660201  0.33771460
   0.66656436  0.33329174  0.33771462
   0.83338362  0.16669272  0.33785777
   0.66658771  0.83324167  0.33785397
   0.83324728  0.66662099  0.33785228
Direct configuration=    31
   0.00424383  0.00281332  0.10130681
   0.35951723  0.00281474  0.10116762
   0.00426338  0.35811385  0.10116966
   0.64901114  0.64756102  0.10115034
   0.32780534  0.32637632  0.10129089
   0.68071589  0.00279326  0.10122117
   0.00423273  0.67930296  0.10120720
   0.16655365  0.33328612  0.33787229
   0.33327001  0.16656174  0.33787375
   0.16666563  0.83337865  0.33787580
   0.33325629  0.66659909  0.33774582
   0.66656232  0.33327853  0.33774587
   0.83336183  0.16669473  0.33787592
   0.66658574  0.83324423  0.33787220
   0.83324899  0.66661545  0.33787065
Direct configuration=    32
   0.00416414  0.00268430  0.10077005
   0.35937296  0.00277471  0.10127794
   0.00422709  0.35800417  0.10128002
   0.64920025  0.64775075  0.10126513
   0.32784831  0.32638893  0.10123302
   0.68076798  0.00279621  0.10116748
   0.00425315  0.67940715  0.10115444
   0.16661582  0.33328138  0.33791167
   0.33325015  0.16660221  0.33791290
   0.16667799  0.83334838  0.33791443
   0.33320835  0.66659291  0.33781199
   0.66655800  0.33325054  0.33781210
   0.83331567  0.16669899  0.33791440
   0.66658155  0.83324966  0.33791086
   0.83325260  0.66660370  0.33790958
Direct configuration=    33
   0.00421883  0.00277118  0.10054451
   0.35935984  0.00280078  0.10132657
   0.00424053  0.35795190  0.10132869
   0.64918008  0.64774407  0.10131848
   0.32787241  0.32641957  0.10119571
   0.68070270  0.00283491  0.10113930
   0.00428076  0.67929851  0.10112824
   0.16657293  0.33328593  0.33793088
   0.33326787  0.16660853  0.33793213
   0.16658263  0.83327454  0.33793339
   0.33328605  0.66663265  0.33783828
   0.66661712  0.33329823  0.33783838
   0.83325592  0.16660237  0.33793329
   0.66660608  0.83328440  0.33792967
   0.83325025  0.66662644  0.33792849
Direct configuration=    34
   0.00422481  0.00278069  0.10051983
   0.35935841  0.00280363  0.10133189
   0.00424200  0.35794618  0.10133402
   0.64917787  0.64774334  0.10132431
   0.32787504  0.32642292  0.10119163
   0.68069556  0.00283914  0.10113622
   0.00428378  0.67928662  0.10112537
   0.16656824  0.33328643  0.33793299
   0.33326981  0.16660923  0.33793423
   0.16657220  0.83326646  0.33793546
   0.33329455  0.66663700  0.33784115
   0.66662359  0.33330345  0.33784126
   0.83324938  0.16659180  0.33793535
   0.66660876  0.83328820  0.33793172
   0.83325000  0.66662892  0.33793056
Direct configuration=    35
   0.00427029  0.00285021  0.10045433
   0.35939199  0.00282927  0.10133861
   0.00426122  0.35795264  0.10134076
   0.64912185  0.64769268  0.10133426
   0.32786871  0.32642815  0.10117913
   0.68066261  0.00285494  0.10113256
   0.00428956  0.67922057  0.10112350
   0.16656293  0.33328108  0.33794154
   0.33325833  0.16658429  0.33794291
   0.16662626  0.83331653  0.33794414
   0.33326138  0.66661859  0.33784546
   0.66659636  0.33328337  0.33784554
   0.83329322  0.16664751  0.33794397
   0.66659811  0.83325414  0.33794023
   0.83323117  0.66662004  0.33793906
Direct configuration=    36
   0.00426408  0.00284071  0.10046327
   0.35938741  0.00282577  0.10133769
   0.00425859  0.35795176  0.10133984
   0.64912950  0.64769960  0.10133291
   0.32786958  0.32642744  0.10118083
   0.68066711  0.00285279  0.10113306
   0.00428877  0.67922959  0.10112376
   0.16656366  0.33328181  0.33794037
   0.33325990  0.16658769  0.33794173
   0.16661888  0.83330969  0.33794295
   0.33326591  0.66662111  0.33784487
   0.66660008  0.33328611  0.33784495
   0.83328723  0.16663990  0.33794279
   0.66659956  0.83325879  0.33793907
   0.83323374  0.66662125  0.33793790
Direct configuration=    37
   0.00426764  0.00284290  0.10044277
   0.35940497  0.00283263  0.10133290
   0.00426633  0.35796812  0.10133507
   0.64911550  0.64768357  0.10133035
   0.32785707  0.32641901  0.10117708
   0.68067751  0.00284687  0.10113651
   0.00428126  0.67923827  0.10112865
   0.16657866  0.33328128  0.33794519
   0.33325788  0.16659573  0.33794664
   0.16662187  0.83331131  0.33794797
   0.33325294  0.66661299  0.33784414
   0.66658728  0.33327758  0.33784420
   0.83328711  0.16664444  0.33794774
   0.66659247  0.83326354  0.33794397
   0.83324551  0.66661577  0.33794280
Direct configuration=    38
   0.00427151  0.00284527  0.10042049
   0.35942406  0.00284009  0.10132769
   0.00427475  0.35798591  0.10132989
   0.64910028  0.64766614  0.10132758
   0.32784347  0.32640985  0.10117300
   0.68068881  0.00284045  0.10114026
   0.00427309  0.67924771  0.10113397
   0.16659496  0.33328070  0.33795043
   0.33325569  0.16660446  0.33795198
   0.16662513  0.83331307  0.33795343
   0.33323883  0.66660418  0.33784333
   0.66657337  0.33326830  0.33784338
   0.83328699  0.16664938  0.33795313
   0.66658475  0.83326869  0.33794929
   0.83325829  0.66660981  0.33794813
Direct configuration=    39
   0.00427012  0.00284067  0.10040589
   0.35943290  0.00284281  0.10132341
   0.00427856  0.35799637  0.10132562
   0.64909715  0.64766119  0.10132498
   0.32783868  0.32640682  0.10116951
   0.68069515  0.00283528  0.10114260
   0.00426774  0.67925533  0.10113749
   0.16658776  0.33328055  0.33795424
   0.33325628  0.16660155  0.33795586
   0.16661995  0.83330935  0.33795741
   0.33324531  0.66660787  0.33784336
   0.66657922  0.33327245  0.33784339
   0.83328408  0.16664379  0.33795704
   0.66658736  0.83326803  0.33795318
   0.83325373  0.66661194  0.33795203
Direct configuration=    40
   0.00426680  0.00282969  0.10037101
   0.35945401  0.00284932  0.10131316
   0.00428767  0.35802136  0.10131543
   0.64908968  0.64764938  0.10131878
   0.32782723  0.32639958  0.10116115
   0.68071029  0.00282294  0.10114819
   0.00425493  0.67927354  0.10114588
   0.16657057  0.33328018  0.33796334
   0.33325768  0.16659458  0.33796511
   0.16660758  0.83330048  0.33796691
   0.33326080  0.66661670  0.33784342
   0.66659320  0.33328236  0.33784342
   0.83327715  0.16663043  0.33796638
   0.66659358  0.83326645  0.33796247
   0.83324282  0.66661702  0.33796133
Direct configuration=    41
   0.00426563  0.00282787  0.10036247
   0.35944873  0.00284808  0.10131138
   0.00428621  0.35801657  0.10131364
   0.64909660  0.64765665  0.10131770
   0.32783610  0.32640725  0.10115657
   0.68070345  0.00282462  0.10114696
   0.00425729  0.67926724  0.10114533
   0.16656572  0.33327944  0.33796572
   0.33325660  0.16659044  0.33796748
   0.16661088  0.83330274  0.33796937
   0.33326106  0.66661777  0.33784594
   0.66659505  0.33328256  0.33784595
   0.83327917  0.16663311  0.33796879
   0.66659509  0.83326154  0.33796490
   0.83323643  0.66661813  0.33796378
Direct configuration=    42
   0.00426223  0.00282258  0.10033757
   0.35943334  0.00284447  0.10130620
   0.00428194  0.35800260  0.10130844
   0.64911677  0.64767785  0.10131456
   0.32786196  0.32642959  0.10114321
   0.68068350  0.00282951  0.10114336
   0.00426417  0.67924888  0.10114373
   0.16655158  0.33327726  0.33797265
   0.33325344  0.16657840  0.33797439
   0.16662047  0.83330931  0.33797652
   0.33326182  0.66662088  0.33785330
   0.66660046  0.33328316  0.33785331
   0.83328505  0.16664093  0.33797580
   0.66659948  0.83324723  0.33797200
   0.83321780  0.66662137  0.33797094
Direct configuration=    43
   0.00426233  0.00282300  0.10033173
   0.35942880  0.00284357  0.10130519
   0.00428069  0.35799776  0.10130743
   0.64912105  0.64768262  0.10131391
   0.32786591  0.32643254  0.10113963
   0.68068096  0.00283167  0.10114182
   0.00426678  0.67924620  0.10114261
   0.16655361  0.33327736  0.33797433
   0.33325352  0.16657998  0.33797605
   0.16661884  0.83330831  0.33797824
   0.33326081  0.66661964  0.33785557
   0.66659849  0.33328244  0.33785559
   0.83328398  0.16663978  0.33797749
   0.66659783  0.83324897  0.33797373
   0.83322039  0.66662017  0.33797269
Direct configuration=    44
   0.00426265  0.00282423  0.10031420
   0.35941519  0.00284088  0.10130217
   0.00427693  0.35798323  0.10130438
   0.64913389  0.64769695  0.10131194
   0.32787777  0.32644138  0.10112887
   0.68067334  0.00283814  0.10113720
   0.00427461  0.67923816  0.10113922
   0.16655967  0.33327765  0.33797936
   0.33325379  0.16658473  0.33798106
   0.16661393  0.83330532  0.33798340
   0.33325776  0.66661592  0.33786239
   0.66659260  0.33328030  0.33786241
   0.83328077  0.16663634  0.33798257
   0.66659291  0.83325420  0.33797891
   0.83322819  0.66661658  0.33797792
Direct configuration=    45
   0.00426327  0.00282670  0.10027914
   0.35938798  0.00283548  0.10129613
   0.00426942  0.35795418  0.10129828
   0.64915958  0.64772560  0.10130800
   0.32790150  0.32645907  0.10110735
   0.68065811  0.00285109  0.10112795
   0.00429028  0.67922209  0.10113246
   0.16657179  0.33327823  0.33798942
   0.33325431  0.16659423  0.33799108
   0.16660413  0.83329935  0.33799371
   0.33325166  0.66660848  0.33787604
   0.66658080  0.33327601  0.33787606
   0.83327434  0.16662945  0.33799273
   0.66658305  0.83326466  0.33798928
   0.83324377  0.66660939  0.33798838
Direct configuration=    46
   0.00426312  0.00282611  0.10028751
   0.35939448  0.00283677  0.10129758
   0.00427122  0.35796112  0.10129974
   0.64915344  0.64771876  0.10130894
   0.32789584  0.32645484  0.10111249
   0.68066175  0.00284800  0.10113015
   0.00428654  0.67922592  0.10113407
   0.16656890  0.33327809  0.33798701
   0.33325419  0.16659196  0.33798869
   0.16660647  0.83330078  0.33799125
   0.33325312  0.66661025  0.33787278
   0.66658362  0.33327703  0.33787280
   0.83327588  0.16663110  0.33799030
   0.66658540  0.83326216  0.33798680
   0.83324005  0.66661111  0.33798588
Direct configuration=    47
   0.00426535  0.00282966  0.10027558
   0.35939130  0.00283644  0.10129568
   0.00427076  0.35795618  0.10129781
   0.64915526  0.64772098  0.10130731
   0.32788900  0.32644702  0.10110547
   0.68067098  0.00285110  0.10112578
   0.00428997  0.67923458  0.10113023
   0.16656919  0.33327673  0.33799062
   0.33325235  0.16659225  0.33799231
   0.16660527  0.83329895  0.33799492
   0.33325166  0.66661033  0.33787808
   0.66658392  0.33327614  0.33787809
   0.83327356  0.16662995  0.33799396
   0.66658573  0.83326242  0.33799052
   0.83323971  0.66661125  0.33798962
Direct configuration=    48
   0.00427204  0.00284032  0.10023980
   0.35938175  0.00283544  0.10128998
   0.00426937  0.35794135  0.10129203
   0.64916069  0.64772764  0.10130242
   0.32786848  0.32642357  0.10108443
   0.68069870  0.00286040  0.10111266
   0.00430029  0.67926053  0.10111871
   0.16657005  0.33327267  0.33800144
   0.33324683  0.16659314  0.33800316
   0.16660166  0.83329349  0.33800594
   0.33324730  0.66661058  0.33789400
   0.66658481  0.33327346  0.33789397
   0.83326662  0.16662653  0.33800495
   0.66658672  0.83326320  0.33800168
   0.83323869  0.66661169  0.33800085
Direct configuration=    49
   0.00428542  0.00286164  0.10016823
   0.35936266  0.00283343  0.10127857
   0.00426660  0.35791169  0.10128047
   0.64917157  0.64774097  0.10129263
   0.32782746  0.32637667  0.10104234
   0.68075412  0.00287901  0.10108642
   0.00432092  0.67931244  0.10109566
   0.16657177  0.33326454  0.33802308
   0.33323579  0.16659492  0.33802487
   0.16659444  0.83328256  0.33802798
   0.33323857  0.66661106  0.33792582
   0.66658660  0.33326810  0.33792572
   0.83325274  0.16661967  0.33802691
   0.66658869  0.83326475  0.33802399
   0.83323664  0.66661256  0.33802330
Direct configuration=    50
   0.00427610  0.00284678  0.10021810
   0.35937596  0.00283483  0.10128652
   0.00426853  0.35793235  0.10128852
   0.64916399  0.64773168  0.10129945
   0.32785605  0.32640935  0.10107167
   0.68071550  0.00286604  0.10110471
   0.00430655  0.67927627  0.10111172
   0.16657057  0.33327021  0.33800800
   0.33324348  0.16659368  0.33800974
   0.16659947  0.83329017  0.33801262
   0.33324465  0.66661072  0.33790364
   0.66658536  0.33327184  0.33790359