Lattice                                 
           1
     4.205419    2.428000    0.000000
    -4.205419    2.428000    0.000000
     0.000000    0.000000   15.000000
   B    C 
     4    11
Direct configuration=     1
   0.00415361  0.00267210  0.12034134
   0.35695335  0.00285503  0.09748893
   0.00423858  0.35550699  0.09749256
   0.65142295  0.65006557  0.09747688
   0.32808646  0.32671938  0.10030508
   0.68027775  0.00278085  0.10027562
   0.00416530  0.67883808  0.10026559
   0.16666600  0.33333300  0.33720000
   0.33333300  0.16666600  0.33720000
   0.16666600  0.83333300  0.33720000
   0.33333300  0.66666600  0.33720000
   0.66666600  0.33333300  0.33720000
   0.83333300  0.16666600  0.33720000
   0.66666600  0.83333300  0.33720000
   0.83333300  0.66666600  0.33720000
Direct configuration=     2
   0.00418404  0.00274841  0.11891146
   0.35582556  0.00280430  0.09786738
   0.00419631  0.35439190  0.09787022
   0.65252232  0.65113420  0.09786300
   0.32452341  0.32312127  0.10032261
   0.68386079  0.00280153  0.10030389
   0.00420225  0.68244767  0.10029764
   0.16659090  0.33342253  0.33726244
   0.33342294  0.16659362  0.33726350
   0.16682281  0.83339501  0.33726521
   0.33333494  0.66667220  0.33711443
   0.66667134  0.33333140  0.33711442
   0.83339232  0.16682045  0.33726508
   0.66657435  0.83317438  0.33726283
   0.83316973  0.66657512  0.33726190
Direct configuration=     3
   0.00416976  0.00271260  0.11958250
   0.35635483  0.00282811  0.09768977
   0.00421614  0.35491521  0.09769299
   0.65200639  0.65063270  0.09768179
   0.32619553  0.32480984  0.10031438
   0.68217928  0.00279183  0.10029063
   0.00418491  0.68075371  0.10028260
   0.16662614  0.33338051  0.33723314
   0.33338073  0.16662759  0.33723370
   0.16674922  0.83336591  0.33723461
   0.33333403  0.66666929  0.33715459
   0.66666883  0.33333215  0.33715458
   0.83336448  0.16674797  0.33723454
   0.66661736  0.83324882  0.33723334
   0.83324635  0.66661777  0.33723285
