  16  16   0  16
  0.2012733E+02  0.4979000E-09  0.4979000E-09  0.1500000E-08  0.5000000E-15
  1.000000000000000E-004
  CAR 
 Lattice                                 
      9.49920107    -21.06595869  301     -0.21726121      1.00000000
    -21.066  0.0000E+00  0.0000E+00  0.0000E+00  0.0000E+00
    -20.964  0.0000E+00  0.0000E+00  0.0000E+00  0.0000E+00
    -20.862  0.0000E+00  0.0000E+00  0.0000E+00  0.0000E+00
    -20.760  0.0000E+00  0.0000E+00  0.0000E+00  0.0000E+00
    -20.658  0.0000E+00  0.0000E+00  0.0000E+00  0.0000E+00
    -20.557  0.0000E+00  0.0000E+00  0.0000E+00  0.0000E+00
    -20.455  0.0000E+00  0.0000E+00  0.0000E+00  0.0000E+00
    -20.353  0.0000E+00  0.0000E+00  0.0000E+00  0.0000E+00
    -20.251  0.1182E-18  0.1182E-18  0.1205E-19  0.1205E-19
    -20.149  0.7007E-14  0.7007E-14  0.7140E-15  0.7140E-15
    -20.047  0.5283E-10  0.5283E-10  0.5384E-11  0.5384E-11
    -19.945  0.5864E-07  0.5864E-07  0.5980E-08  0.5980E-08
    -19.843  0.1036E-04  0.1036E-04  0.1061E-05  0.1061E-05
    -19.741  0.3196E-03  0.3196E-03  0.3363E-04  0.3363E-04
    -19.640  0.2082E-02  0.2082E-02  0.2458E-03  0.2458E-03
    -19.538  0.4294E-02  0.4294E-02  0.6833E-03  0.6833E-03
    -19.436  0.4759E-02  0.4759E-02  0.1168E-02  0.1168E-02
    -19.334  0.5116E-02  0.5116E-02  0.1689E-02  0.1689E-02
    -19.232  0.4440E-02  0.4440E-02  0.2142E-02  0.2142E-02
    -19.130  0.5549E-02  0.5549E-02  0.2707E-02  0.2707E-02
    -19.028  0.4459E-02  0.4459E-02  0.3161E-02  0.3161E-02
    -18.926  0.4527E-02  0.4527E-02  0.3623E-02  0.3623E-02
    -18.825  0.6168E-02  0.6168E-02  0.4251E-02  0.4251E-02
    -18.723  0.4059E-02  0.4059E-02  0.4665E-02  0.4665E-02
    -18.621  0.4151E-02  0.4151E-02  0.5088E-02  0.5088E-02
    -18.519  0.6321E-02  0.6321E-02  0.5732E-02  0.5732E-02
    -18.417  0.5411E-02  0.5411E-02  0.6283E-02  0.6283E-02
    -18.315  0.3187E-02  0.3187E-02  0.6608E-02  0.6608E-02
    -18.213  0.4684E-02  0.4684E-02  0.7085E-02  0.7085E-02
    -18.111  0.7090E-02  0.7090E-02  0.7807E-02  0.7807E-02
    -18.009  0.4836E-02  0.4836E-02  0.8300E-02  0.8300E-02
    -17.908  0.3917E-02  0.3917E-02  0.8699E-02  0.8699E-02
    -17.806  0.3324E-02  0.3324E-02  0.9038E-02  0.9038E-02
    -17.704  0.6910E-02  0.6910E-02  0.9742E-02  0.9742E-02
    -17.602  0.6799E-02  0.6799E-02  0.1043E-01  0.1043E-01
    -17.500  0.3721E-02  0.3721E-02  0.1081E-01  0.1081E-01
    -17.398  0.3515E-02  0.3515E-02  0.1117E-01  0.1117E-01
    -17.296  0.4387E-02  0.4387E-02  0.1162E-01  0.1162E-01
    -17.194  0.6594E-02  0.6594E-02  0.1229E-01  0.1229E-01
    -17.092  0.6942E-02  0.6942E-02  0.1300E-01  0.1300E-01
    -16.991  0.4883E-02  0.4883E-02  0.1349E-01  0.1349E-01
    -16.889  0.2571E-02  0.2571E-02  0.1376E-01  0.1376E-01
    -16.787  0.3706E-02  0.3706E-02  0.1413E-01  0.1413E-01
    -16.685  0.6965E-02  0.6965E-02  0.1484E-01  0.1484E-01
    -16.583  0.6759E-02  0.6759E-02  0.1553E-01  0.1553E-01
    -16.481  0.5633E-02  0.5633E-02  0.1611E-01  0.1611E-01
    -16.379  0.4650E-02  0.4650E-02  0.1658E-01  0.1658E-01
    -16.277  0.3349E-02  0.3349E-02  0.1692E-01  0.1692E-01
    -16.176  0.2631E-02  0.2631E-02  0.1719E-01  0.1719E-01
    -16.074  0.8946E-02  0.8946E-02  0.1810E-01  0.1810E-01
    -15.972  0.1175E-01  0.1175E-01  0.1930E-01  0.1930E-01
    -15.870  0.1072E-01  0.1072E-01  0.2039E-01  0.2039E-01
    -15.768  0.1065E-01  0.1065E-01  0.2148E-01  0.2148E-01
    -15.666  0.1065E-01  0.1065E-01  0.2256E-01  0.2256E-01
    -15.564  0.1039E-01  0.1039E-01  0.2362E-01  0.2362E-01
    -15.462  0.1159E-01  0.1159E-01  0.2480E-01  0.2480E-01
    -15.360  0.1708E-01  0.1708E-01  0.2654E-01  0.2654E-01
    -15.259  0.1565E-01  0.1565E-01  0.2813E-01  0.2813E-01
    -15.157  0.1446E-01  0.1446E-01  0.2961E-01  0.2961E-01
    -15.055  0.1059E-01  0.1059E-01  0.3069E-01  0.3069E-01
    -14.953  0.8655E-02  0.8655E-02  0.3157E-01  0.3157E-01
    -14.851  0.6504E-02  0.6504E-02  0.3223E-01  0.3223E-01
    -14.749  0.8561E-02  0.8561E-02  0.3310E-01  0.3310E-01
    -14.647  0.1140E-01  0.1140E-01  0.3426E-01  0.3426E-01
    -14.545  0.1138E-01  0.1138E-01  0.3542E-01  0.3542E-01
    -14.444  0.1297E-01  0.1297E-01  0.3675E-01  0.3675E-01
    -14.342  0.1100E-01  0.1100E-01  0.3787E-01  0.3787E-01
    -14.240  0.9191E-02  0.9191E-02  0.3880E-01  0.3880E-01
    -14.138  0.9244E-02  0.9244E-02  0.3974E-01  0.3974E-01
    -14.036  0.1390E-01  0.1390E-01  0.4116E-01  0.4116E-01
    -13.934  0.9852E-02  0.9852E-02  0.4216E-01  0.4216E-01
    -13.832  0.4469E-02  0.4469E-02  0.4262E-01  0.4262E-01
    -13.730  0.2519E-02  0.2519E-02  0.4288E-01  0.4288E-01
    -13.628  0.5021E-02  0.5021E-02  0.4339E-01  0.4339E-01
    -13.527  0.6442E-02  0.6442E-02  0.4404E-01  0.4404E-01
    -13.425  0.6409E-02  0.6409E-02  0.4470E-01  0.4470E-01
    -13.323  0.7024E-02  0.7024E-02  0.4541E-01  0.4541E-01
    -13.221  0.7177E-02  0.7177E-02  0.4614E-01  0.4614E-01
    -13.119  0.7323E-02  0.7323E-02  0.4689E-01  0.4689E-01
    -13.017  0.6741E-02  0.6741E-02  0.4758E-01  0.4758E-01
    -12.915  0.5743E-02  0.5743E-02  0.4816E-01  0.4816E-01
    -12.813  0.8249E-02  0.8249E-02  0.4900E-01  0.4900E-01
    -12.711  0.1185E-01  0.1185E-01  0.5021E-01  0.5021E-01
    -12.610  0.1218E-01  0.1218E-01  0.5145E-01  0.5145E-01
    -12.508  0.1351E-01  0.1351E-01  0.5283E-01  0.5283E-01
    -12.406  0.1534E-01  0.1534E-01  0.5439E-01  0.5439E-01
    -12.304  0.1305E-01  0.1305E-01  0.5572E-01  0.5572E-01
    -12.202  0.1659E-01  0.1659E-01  0.5741E-01  0.5741E-01
    -12.100  0.1520E-01  0.1520E-01  0.5896E-01  0.5896E-01
    -11.998  0.1597E-01  0.1597E-01  0.6058E-01  0.6058E-01
    -11.896  0.1807E-01  0.1807E-01  0.6243E-01  0.6243E-01
    -11.795  0.1136E-01  0.1136E-01  0.6358E-01  0.6358E-01
    -11.693  0.6980E-02  0.6980E-02  0.6429E-01  0.6429E-01
    -11.591  0.5091E-02  0.5091E-02  0.6481E-01  0.6481E-01
    -11.489  0.6276E-02  0.6276E-02  0.6545E-01  0.6545E-01
    -11.387  0.6541E-02  0.6541E-02  0.6612E-01  0.6612E-01
    -11.285  0.5367E-02  0.5367E-02  0.6667E-01  0.6667E-01
    -11.183  0.4546E-02  0.4546E-02  0.6713E-01  0.6713E-01
    -11.081  0.4294E-02  0.4294E-02  0.6757E-01  0.6757E-01
    -10.979  0.4919E-02  0.4919E-02  0.6807E-01  0.6807E-01
    -10.878  0.9596E-02  0.9596E-02  0.6904E-01  0.6904E-01
    -10.776  0.1222E-01  0.1222E-01  0.7029E-01  0.7029E-01
    -10.674  0.1203E-01  0.1203E-01  0.7152E-01  0.7152E-01
    -10.572  0.1431E-01  0.1431E-01  0.7297E-01  0.7297E-01
    -10.470  0.1550E-01  0.1550E-01  0.7455E-01  0.7455E-01
    -10.368  0.1083E-01  0.1083E-01  0.7566E-01  0.7566E-01
    -10.266  0.9978E-02  0.9978E-02  0.7667E-01  0.7667E-01
    -10.164  0.1007E-01  0.1007E-01  0.7770E-01  0.7770E-01
    -10.063  0.1019E-01  0.1019E-01  0.7874E-01  0.7874E-01
     -9.961  0.7244E-02  0.7244E-02  0.7948E-01  0.7948E-01
     -9.859  0.1096E-01  0.1096E-01  0.8059E-01  0.8059E-01
     -9.757  0.1022E-01  0.1022E-01  0.8163E-01  0.8163E-01
     -9.655  0.1319E-01  0.1319E-01  0.8298E-01  0.8298E-01
     -9.553  0.1836E-01  0.1836E-01  0.8485E-01  0.8485E-01
     -9.451  0.1127E-01  0.1127E-01  0.8600E-01  0.8600E-01
     -9.349  0.1557E-01  0.1557E-01  0.8758E-01  0.8758E-01
     -9.247  0.1919E-01  0.1919E-01  0.8954E-01  0.8954E-01
     -9.146  0.1412E-01  0.1412E-01  0.9098E-01  0.9098E-01
     -9.044  0.8657E-02  0.8657E-02  0.9186E-01  0.9186E-01
     -8.942  0.1534E-01  0.1534E-01  0.9342E-01  0.9342E-01
     -8.840  0.2447E-01  0.2447E-01  0.9592E-01  0.9592E-01
     -8.738  0.1218E-01  0.1218E-01  0.9716E-01  0.9716E-01
     -8.636  0.5204E-02  0.5204E-02  0.9769E-01  0.9769E-01
     -8.534  0.1365E-01  0.1365E-01  0.9908E-01  0.9908E-01
     -8.432  0.1823E-01  0.1823E-01  0.1009E+00  0.1009E+00
     -8.330  0.1424E-01  0.1424E-01  0.1024E+00  0.1024E+00
     -8.229  0.1507E-01  0.1507E-01  0.1039E+00  0.1039E+00
     -8.127  0.1344E-01  0.1344E-01  0.1053E+00  0.1053E+00
     -8.025  0.1127E-01  0.1127E-01  0.1064E+00  0.1064E+00
     -7.923  0.1348E-01  0.1348E-01  0.1078E+00  0.1078E+00
     -7.821  0.1830E-01  0.1830E-01  0.1097E+00  0.1097E+00
     -7.719  0.2382E-01  0.2382E-01  0.1121E+00  0.1121E+00
     -7.617  0.1802E-01  0.1802E-01  0.1139E+00  0.1139E+00
     -7.515  0.1262E-01  0.1262E-01  0.1152E+00  0.1152E+00
     -7.414  0.1281E-01  0.1281E-01  0.1165E+00  0.1165E+00
     -7.312  0.1673E-01  0.1673E-01  0.1182E+00  0.1182E+00
     -7.210  0.1981E-01  0.1981E-01  0.1203E+00  0.1203E+00
     -7.108  0.1709E-01  0.1709E-01  0.1220E+00  0.1220E+00
     -7.006  0.1882E-01  0.1882E-01  0.1239E+00  0.1239E+00
     -6.904  0.1818E-01  0.1818E-01  0.1258E+00  0.1258E+00
     -6.802  0.2082E-01  0.2082E-01  0.1279E+00  0.1279E+00
     -6.700  0.2779E-01  0.2779E-01  0.1307E+00  0.1307E+00
     -6.598  0.3524E-01  0.3524E-01  0.1343E+00  0.1343E+00
     -6.497  0.3582E-01  0.3582E-01  0.1380E+00  0.1380E+00
     -6.395  0.2024E-01  0.2024E-01  0.1400E+00  0.1400E+00
     -6.293  0.1611E-01  0.1611E-01  0.1417E+00  0.1417E+00
     -6.191  0.1834E-01  0.1834E-01  0.1435E+00  0.1435E+00
     -6.089  0.1780E-01  0.1780E-01  0.1453E+00  0.1453E+00
     -5.987  0.1740E-01  0.1740E-01  0.1471E+00  0.1471E+00
     -5.885  0.1362E-01  0.1362E-01  0.1485E+00  0.1485E+00
     -5.783  0.1702E-01  0.1702E-01  0.1502E+00  0.1502E+00
     -5.681  0.2038E-01  0.2038E-01  0.1523E+00  0.1523E+00
     -5.580  0.1324E-01  0.1324E-01  0.1537E+00  0.1537E+00
     -5.478  0.7985E-02  0.7985E-02  0.1545E+00  0.1545E+00
     -5.376  0.1314E-01  0.1314E-01  0.1558E+00  0.1558E+00
     -5.274  0.2115E-01  0.2115E-01  0.1580E+00  0.1580E+00
     -5.172  0.1710E-01  0.1710E-01  0.1597E+00  0.1597E+00
     -5.070  0.1150E-01  0.1150E-01  0.1609E+00  0.1609E+00
     -4.968  0.1406E-01  0.1406E-01  0.1623E+00  0.1623E+00
     -4.866  0.2044E-01  0.2044E-01  0.1644E+00  0.1644E+00
     -4.765  0.1349E-01  0.1349E-01  0.1658E+00  0.1658E+00
     -4.663  0.7505E-02  0.7505E-02  0.1665E+00  0.1665E+00
     -4.561  0.1517E-01  0.1517E-01  0.1681E+00  0.1681E+00
     -4.459  0.1995E-01  0.1995E-01  0.1701E+00  0.1701E+00
     -4.357  0.2205E-01  0.2205E-01  0.1724E+00  0.1724E+00
     -4.255  0.2272E-01  0.2272E-01  0.1747E+00  0.1747E+00
     -4.153  0.1842E-01  0.1842E-01  0.1766E+00  0.1766E+00
     -4.051  0.1979E-01  0.1979E-01  0.1786E+00  0.1786E+00
     -3.949  0.2448E-01  0.2448E-01  0.1811E+00  0.1811E+00
     -3.848  0.2851E-01  0.2851E-01  0.1840E+00  0.1840E+00
     -3.746  0.2698E-01  0.2698E-01  0.1867E+00  0.1867E+00
     -3.644  0.2155E-01  0.2155E-01  0.1889E+00  0.1889E+00
     -3.542  0.1997E-01  0.1997E-01  0.1909E+00  0.1909E+00
     -3.440  0.1713E-01  0.1713E-01  0.1927E+00  0.1927E+00
     -3.338  0.1307E-01  0.1307E-01  0.1940E+00  0.1940E+00
     -3.236  0.7784E-02  0.7784E-02  0.1948E+00  0.1948E+00
     -3.134  0.7996E-02  0.7996E-02  0.1956E+00  0.1956E+00
     -3.033  0.1478E-01  0.1478E-01  0.1971E+00  0.1971E+00
     -2.931  0.1637E-01  0.1637E-01  0.1988E+00  0.1988E+00
     -2.829  0.1200E-01  0.1200E-01  0.2000E+00  0.2000E+00
     -2.727  0.1159E-01  0.1159E-01  0.2012E+00  0.2012E+00
     -2.625  0.1135E-01  0.1135E-01  0.2024E+00  0.2024E+00
     -2.523  0.1120E-01  0.1120E-01  0.2035E+00  0.2035E+00
     -2.421  0.1578E-01  0.1578E-01  0.2051E+00  0.2051E+00
     -2.319  0.1353E-01  0.1353E-01  0.2065E+00  0.2065E+00
     -2.217  0.9544E-02  0.9544E-02  0.2075E+00  0.2075E+00
     -2.116  0.1015E-01  0.1015E-01  0.2085E+00  0.2085E+00
     -2.014  0.7967E-02  0.7967E-02  0.2093E+00  0.2093E+00
     -1.912  0.5306E-02  0.5306E-02  0.2099E+00  0.2099E+00
     -1.810  0.5728E-02  0.5728E-02  0.2104E+00  0.2104E+00
     -1.708  0.9415E-02  0.9415E-02  0.2114E+00  0.2114E+00
     -1.606  0.9907E-02  0.9907E-02  0.2124E+00  0.2124E+00
     -1.504  0.9235E-02  0.9235E-02  0.2133E+00  0.2133E+00
     -1.402  0.6654E-02  0.6654E-02  0.2140E+00  0.2140E+00
     -1.300  0.5218E-02  0.5218E-02  0.2146E+00  0.2146E+00
     -1.199  0.4833E-02  0.4833E-02  0.2150E+00  0.2150E+00
     -1.097  0.5617E-02  0.5617E-02  0.2156E+00  0.2156E+00
     -0.995  0.8088E-02  0.8088E-02  0.2164E+00  0.2164E+00
     -0.893  0.6196E-02  0.6196E-02  0.2171E+00  0.2171E+00
     -0.791  0.3176E-02  0.3176E-02  0.2174E+00  0.2174E+00
     -0.689  0.1438E-02  0.1438E-02  0.2175E+00  0.2175E+00
     -0.587  0.1132E-02  0.1132E-02  0.2177E+00  0.2177E+00
     -0.485  0.3338E-02  0.3338E-02  0.2180E+00  0.2180E+00
     -0.384  0.3353E-02  0.3353E-02  0.2183E+00  0.2183E+00
     -0.282  0.2016E-02  0.2016E-02  0.2185E+00  0.2185E+00
     -0.180  0.3619E-02  0.3619E-02  0.2189E+00  0.2189E+00
     -0.078  0.4875E-02  0.4875E-02  0.2194E+00  0.2194E+00
      0.024  0.3563E-02  0.3563E-02  0.2198E+00  0.2198E+00
      0.126  0.3507E-02  0.3507E-02  0.2201E+00  0.2201E+00
      0.228  0.7676E-02  0.7676E-02  0.2209E+00  0.2209E+00
      0.330  0.1211E-01  0.1211E-01  0.2221E+00  0.2221E+00
      0.432  0.1141E-01  0.1141E-01  0.2233E+00  0.2233E+00
      0.533  0.9764E-02  0.9764E-02  0.2243E+00  0.2243E+00
      0.635  0.3875E-02  0.3875E-02  0.2247E+00  0.2247E+00
      0.737  0.5082E-02  0.5082E-02  0.2252E+00  0.2252E+00
      0.839  0.1177E-01  0.1177E-01  0.2264E+00  0.2264E+00
      0.941  0.7941E-02  0.7941E-02  0.2272E+00  0.2272E+00
      1.043  0.2127E-02  0.2127E-02  0.2274E+00  0.2274E+00
      1.145  0.4033E-02  0.4033E-02  0.2279E+00  0.2279E+00
      1.247  0.1327E-01  0.1327E-01  0.2292E+00  0.2292E+00
      1.348  0.2065E-01  0.2065E-01  0.2313E+00  0.2313E+00
      1.450  0.1624E-01  0.1624E-01  0.2330E+00  0.2330E+00
      1.552  0.1208E-01  0.1208E-01  0.2342E+00  0.2342E+00
      1.654  0.7689E-02  0.7689E-02  0.2350E+00  0.2350E+00
      1.756  0.8559E-02  0.8559E-02  0.2358E+00  0.2358E+00
      1.858  0.1238E-01  0.1238E-01  0.2371E+00  0.2371E+00
      1.960  0.1134E-01  0.1134E-01  0.2383E+00  0.2383E+00
      2.062  0.1241E-01  0.1241E-01  0.2395E+00  0.2395E+00
      2.164  0.1340E-01  0.1340E-01  0.2409E+00  0.2409E+00
      2.265  0.1059E-01  0.1059E-01  0.2420E+00  0.2420E+00
      2.367  0.8888E-02  0.8888E-02  0.2429E+00  0.2429E+00
      2.469  0.5348E-02  0.5348E-02  0.2434E+00  0.2434E+00
      2.571  0.8667E-02  0.8667E-02  0.2443E+00  0.2443E+00
      2.673  0.1333E-01  0.1333E-01  0.2457E+00  0.2457E+00
      2.775  0.1450E-01  0.1450E-01  0.2471E+00  0.2471E+00
      2.877  0.1462E-01  0.1462E-01  0.2486E+00  0.2486E+00
      2.979  0.1320E-01  0.1320E-01  0.2500E+00  0.2500E+00
      3.081  0.1189E-01  0.1189E-01  0.2512E+00  0.2512E+00
      3.182  0.1618E-01  0.1618E-01  0.2528E+00  0.2528E+00
      3.284  0.1608E-01  0.1608E-01  0.2545E+00  0.2545E+00
      3.386  0.1229E-01  0.1229E-01  0.2557E+00  0.2557E+00
      3.488  0.1675E-01  0.1675E-01  0.2574E+00  0.2574E+00
      3.590  0.2635E-01  0.2635E-01  0.2601E+00  0.2601E+00
      3.692  0.2214E-01  0.2214E-01  0.2624E+00  0.2624E+00
      3.794  0.1689E-01  0.1689E-01  0.2641E+00  0.2641E+00
      3.896  0.1993E-01  0.1993E-01  0.2661E+00  0.2661E+00
      3.997  0.2553E-01  0.2553E-01  0.2687E+00  0.2687E+00
      4.099  0.2119E-01  0.2119E-01  0.2709E+00  0.2709E+00
      4.201  0.1744E-01  0.1744E-01  0.2727E+00  0.2727E+00
      4.303  0.2044E-01  0.2044E-01  0.2747E+00  0.2747E+00
      4.405  0.2216E-01  0.2216E-01  0.2770E+00  0.2770E+00
      4.507  0.2473E-01  0.2473E-01  0.2795E+00  0.2795E+00
      4.609  0.1889E-01  0.1889E-01  0.2814E+00  0.2814E+00
      4.711  0.1849E-01  0.1849E-01  0.2833E+00  0.2833E+00
      4.813  0.2530E-01  0.2530E-01  0.2859E+00  0.2859E+00
      4.914  0.3258E-01  0.3258E-01  0.2892E+00  0.2892E+00
      5.016  0.2561E-01  0.2561E-01  0.2918E+00  0.2918E+00
      5.118  0.2691E-01  0.2691E-01  0.2946E+00  0.2946E+00
      5.220  0.2244E-01  0.2244E-01  0.2969E+00  0.2969E+00
      5.322  0.1848E-01  0.1848E-01  0.2987E+00  0.2987E+00
      5.424  0.2566E-01  0.2566E-01  0.3014E+00  0.3014E+00
      5.526  0.2924E-01  0.2924E-01  0.3043E+00  0.3043E+00
      5.628  0.2609E-01  0.2609E-01  0.3070E+00  0.3070E+00
      5.729  0.2394E-01  0.2394E-01  0.3094E+00  0.3094E+00
      5.831  0.2634E-01  0.2634E-01  0.3121E+00  0.3121E+00
      5.933  0.2212E-01  0.2212E-01  0.3144E+00  0.3144E+00
      6.035  0.2653E-01  0.2653E-01  0.3171E+00  0.3171E+00
      6.137  0.3011E-01  0.3011E-01  0.3201E+00  0.3201E+00
      6.239  0.1912E-01  0.1912E-01  0.3221E+00  0.3221E+00
      6.341  0.1540E-01  0.1540E-01  0.3237E+00  0.3237E+00
      6.443  0.2172E-01  0.2172E-01  0.3259E+00  0.3259E+00
      6.545  0.3106E-01  0.3106E-01  0.3290E+00  0.3290E+00
      6.646  0.2969E-01  0.2969E-01  0.3321E+00  0.3321E+00
      6.748  0.2517E-01  0.2517E-01  0.3346E+00  0.3346E+00
      6.850  0.2188E-01  0.2188E-01  0.3369E+00  0.3369E+00
      6.952  0.2700E-01  0.2700E-01  0.3396E+00  0.3396E+00
      7.054  0.3016E-01  0.3016E-01  0.3427E+00  0.3427E+00
      7.156  0.3772E-01  0.3772E-01  0.3465E+00  0.3465E+00
      7.258  0.4124E-01  0.4124E-01  0.3507E+00  0.3507E+00
      7.360  0.3665E-01  0.3665E-01  0.3545E+00  0.3545E+00
      7.462  0.2962E-01  0.2962E-01  0.3575E+00  0.3575E+00
      7.563  0.2511E-01  0.2511E-01  0.3600E+00  0.3600E+00
      7.665  0.3329E-01  0.3329E-01  0.3634E+00  0.3634E+00
      7.767  0.3311E-01  0.3311E-01  0.3668E+00  0.3668E+00
      7.869  0.3120E-01  0.3120E-01  0.3700E+00  0.3700E+00
      7.971  0.2672E-01  0.2672E-01  0.3727E+00  0.3727E+00
      8.073  0.1415E-01  0.1415E-01  0.3741E+00  0.3741E+00
      8.175  0.6798E-02  0.6798E-02  0.3748E+00  0.3748E+00
      8.277  0.1516E-02  0.1516E-02  0.3750E+00  0.3750E+00
      8.378  0.7086E-04  0.7086E-04  0.3750E+00  0.3750E+00
      8.480  0.5287E-06  0.5286E-06  0.3750E+00  0.3750E+00
      8.582  0.5644E-09  0.5643E-09  0.3750E+00  0.3750E+00
      8.684  0.8175E-13  0.8174E-13  0.3750E+00  0.3750E+00
      8.786  0.1478E-17  0.1478E-17  0.3750E+00  0.3750E+00
      8.888  0.0000E+00  0.0000E+00  0.3750E+00  0.3750E+00
      8.990  0.0000E+00  0.0000E+00  0.3750E+00  0.3750E+00
      9.092  0.0000E+00  0.0000E+00  0.3750E+00  0.3750E+00
      9.194  0.0000E+00  0.0000E+00  0.3750E+00  0.3750E+00
      9.295  0.0000E+00  0.0000E+00  0.3750E+00  0.3750E+00
      9.397  0.0000E+00  0.0000E+00  0.3750E+00  0.3750E+00
      9.499  0.0000E+00  0.0000E+00  0.3750E+00  0.3750E+00
