Lattice                                 
           1
     4.311940    2.489500    0.000000
    -4.311940    2.489500    0.000000
     0.000000    0.000000   15.000000
   B    C 
     8     8
Direct configuration=     1
   0.66888689  0.00000000  0.10000000
   0.33111211  0.00000000  0.10000000
   0.00000000  0.33111211  0.10000000
   0.00000000  0.66888689  0.10000000
   0.33111211  0.33111211  0.10000000
   0.66888689  0.66888689  0.10000000
   0.66666600  0.33333300  0.09922189
   0.33333300  0.66666600  0.10077811
   0.33333267  0.16666633  0.47060000
   0.49999967  0.99999933  0.47060000
   0.33333267  0.66666633  0.47060000
   0.49999967  0.49999933  0.47060000
   0.83333267  0.16666633  0.47060000
   0.99999967  0.99999933  0.47060000
   0.83333267  0.66666633  0.47060000
   0.99999967  0.49999933  0.47060000
Direct configuration=     2
   0.67058268  0.00000000  0.10002567
   0.32941632  0.00000000  0.10002567
  -0.00000000  0.32941632  0.10002567
  -0.00000000  0.67058268  0.10002567
   0.32941632  0.32941632  0.10002567
   0.67058268  0.67058268  0.10002567
   0.66666600  0.33333300  0.09924366
   0.33333300  0.66666600  0.10081354
   0.33332660  0.16666330  0.47057386
   0.50000087  0.00000174  0.47057334
   0.33333267  0.66666633  0.47057269
   0.50000087  0.49999813  0.47057334
   0.83333570  0.16666330  0.47057386
   0.99999967  0.99999933  0.47057447
   0.83333570  0.66667240  0.47057386
   0.99999726  0.49999813  0.47057334
Direct configuration=     3
   0.66975782  0.00000000  0.10001318
   0.33024118  0.00000000  0.10001318
  -0.00000000  0.33024118  0.10001318
  -0.00000000  0.66975782  0.10001318
   0.33024118  0.33024118  0.10001318
   0.66975782  0.66975782  0.10001318
   0.66666600  0.33333300  0.09923307
   0.33333300  0.66666600  0.10079631
   0.33332955  0.16666478  0.47058658
   0.50000028  0.00000057  0.47058631
   0.33333267  0.66666633  0.47058597
   0.50000028  0.49999872  0.47058631
   0.83333422  0.16666478  0.47058658
   0.99999967  0.99999933  0.47058689
   0.83333422  0.66666945  0.47058658
   0.99999843  0.49999872  0.47058631
Direct configuration=     4
   0.66976296  0.00000000  0.10001326
   0.33023604  0.00000000  0.10001326
  -0.00000000  0.33023604  0.10001326
  -0.00000000  0.66976296  0.10001326
   0.33023604  0.33023604  0.10001326
   0.66976296  0.66976296  0.10001326
   0.66666600  0.33333300  0.09923314
   0.33333300  0.66666600  0.10079641
   0.33332953  0.16666477  0.47058650
   0.50000029  0.00000057  0.47058623
   0.33333267  0.66666633  0.47058589
   0.50000029  0.49999871  0.47058623
   0.83333423  0.16666477  0.47058650
   0.99999967  0.99999933  0.47058681
   0.83333423  0.66666947  0.47058650
   0.99999843  0.49999871  0.47058623
Direct configuration=     5
   0.66976090  0.00000000  0.10001323
   0.33023810  0.00000000  0.10001323
  -0.00000000  0.33023810  0.10001323
  -0.00000000  0.66976090  0.10001323
   0.33023810  0.33023810  0.10001323
   0.66976090  0.66976090  0.10001323
   0.66666600  0.33333300  0.09923311
   0.33333300  0.66666600  0.10079637
   0.33332954  0.16666477  0.47058653
   0.50000029  0.00000057  0.47058626
   0.33333267  0.66666633  0.47058592
   0.50000029  0.49999871  0.47058626
   0.83333423  0.16666477  0.47058653
   0.99999967  0.99999933  0.47058684
   0.83333423  0.66666946  0.47058653
   0.99999843  0.49999871  0.47058626
Direct configuration=     6
   0.66975936  0.00000000  0.10001321
   0.33023964  0.00000000  0.10001321
  -0.00000000  0.33023964  0.10001321
  -0.00000000  0.66975936  0.10001321
   0.33023964  0.33023964  0.10001321
   0.66975936  0.66975936  0.10001321
   0.66666600  0.33333300  0.09923309
   0.33333300  0.66666600  0.10079634
   0.33332955  0.16666477  0.47058655
   0.50000028  0.00000057  0.47058628
   0.33333267  0.66666633  0.47058595
   0.50000028  0.49999872  0.47058628
   0.83333423  0.16666477  0.47058655
   0.99999967  0.99999933  0.47058686
   0.83333423  0.66666945  0.47058655
   0.99999843  0.49999872  0.47058628
Direct configuration=     7
   0.66975859  0.00000000  0.10001320
   0.33024041  0.00000000  0.10001320
  -0.00000000  0.33024041  0.10001320
  -0.00000000  0.66975859  0.10001320
   0.33024041  0.33024041  0.10001320
   0.66975859  0.66975859  0.10001320
   0.66666600  0.33333300  0.09923308
   0.33333300  0.66666600  0.10079632
   0.33332955  0.16666477  0.47058657
   0.50000028  0.00000057  0.47058630
   0.33333267  0.66666633  0.47058596
   0.50000028  0.49999872  0.47058630
   0.83333423  0.16666477  0.47058657
   0.99999967  0.99999933  0.47058688
   0.83333423  0.66666945  0.47058657
   0.99999843  0.49999872  0.47058630
Direct configuration=     8
   0.66975857 -0.00000002  0.10003661
   0.33024041 -0.00000002  0.10003661
   0.00000002  0.33024043  0.10003661
   0.00000002  0.66975859  0.10003661
   0.33024041  0.33024043  0.10003661
   0.66975857  0.66975859  0.10003661
   0.66666600  0.33333300  0.09925568
   0.33333300  0.66666600  0.10082499
   0.33333412  0.16666706  0.47056279
   0.49999935 -0.00000129  0.47056214
   0.33333267  0.66666633  0.47056138
   0.49999935  0.49999965  0.47056214
   0.83333194  0.16666706  0.47056279
   0.99999967  0.99999933  0.47056349
   0.83333194  0.66666488  0.47056279
   0.00000029  0.49999965  0.47056214
Direct configuration=     9
   0.66975851 -0.00000007  0.10010687
   0.33024041 -0.00000007  0.10010687
   0.00000007  0.33024049  0.10010687
   0.00000007  0.66975859  0.10010687
   0.33024041  0.33024049  0.10010687
   0.66975851  0.66975859  0.10010687
   0.66666600  0.33333300  0.09932347
   0.33333300  0.66666600  0.10091098
   0.33334782  0.16667391  0.47049146
   0.49999656 -0.00000688  0.47048966
   0.33333267  0.66666633  0.47048763
   0.49999656  0.50000244  0.47048966
   0.83332509  0.16667391  0.47049146
   0.99999967  0.99999933  0.47049333
   0.83332509  0.66665118  0.47049146
   0.00000588  0.50000244  0.47048966
Direct configuration=    10
   0.66975840 -0.00000019  0.10024738
   0.33024041 -0.00000019  0.10024738
   0.00000019  0.33024060  0.10024738
   0.00000019  0.66975859  0.10024738
   0.33024041  0.33024060  0.10024738
   0.66975840  0.66975859  0.10024738
   0.66666600  0.33333300  0.09945906
   0.33333300  0.66666600  0.10108298
   0.33337521  0.16668761  0.47034881
   0.49999098 -0.00001805  0.47034470
   0.33333267  0.66666633  0.47034014
   0.49999098  0.50000802  0.47034470
   0.83331139  0.16668761  0.47034881
   0.99999967  0.99999933  0.47035300
   0.83331139  0.66662379  0.47034881
   0.00001705  0.50000802  0.47034470
Direct configuration=    11
   0.66975816 -0.00000042  0.10052840
   0.33024042 -0.00000042  0.10052840
   0.00000042  0.33024084  0.10052840
   0.00000042  0.66975858  0.10052840
   0.33024042  0.33024084  0.10052840
   0.66975816  0.66975858  0.10052840
   0.66666600  0.33333300  0.09973023
   0.33333300  0.66666600  0.10142697
   0.33343001  0.16671501  0.47006351
   0.49997980 -0.00004039  0.47005478
   0.33333267  0.66666633  0.47004516
   0.49997980  0.50001920  0.47005478
   0.83328399  0.16671501  0.47006351
   0.99999967  0.99999933  0.47007236
   0.83328399  0.66656899  0.47006351
   0.00003939  0.50001920  0.47005478
Direct configuration=    12
   0.66975769 -0.00000088  0.10109044
   0.33024042 -0.00000088  0.10109044
   0.00000088  0.33024131  0.10109044
   0.00000088  0.66975858  0.10109044
   0.33024042  0.33024131  0.10109044
   0.66975769  0.66975858  0.10109044
   0.66666600  0.33333300  0.10027257
   0.33333300  0.66666600  0.10211495
   0.33353961  0.16676980  0.46949290
   0.49995746 -0.00008507  0.46947495
   0.33333267  0.66666633  0.46945519
   0.49995746  0.50004154  0.46947495
   0.83322920  0.16676980  0.46949290
   0.99999967  0.99999933  0.46951107
   0.83322920  0.66645939  0.46949290
   0.00008407  0.50004154  0.46947495
Direct configuration=    13
   0.66975676 -0.00000181  0.10221453
   0.33024043 -0.00000181  0.10221453
   0.00000181  0.33024224  0.10221453
   0.00000181  0.66975857  0.10221453
   0.33024043  0.33024224  0.10221453
   0.66975676  0.66975857  0.10221453
   0.66666600  0.33333300  0.10135725
   0.33333300  0.66666600  0.10349091
   0.33375880  0.16687940  0.46835169
   0.49991278 -0.00017444  0.46831529
   0.33333267  0.66666633  0.46827526
   0.49991278  0.50008622  0.46831529
   0.83311960  0.16687940  0.46835169
   0.99999967  0.99999933  0.46838849
   0.83311960  0.66624020  0.46835169
   0.00017344  0.50008622  0.46831529
Direct configuration=    14
   0.66975489 -0.00000366  0.10446269
   0.33024045 -0.00000366  0.10446269
   0.00000366  0.33024411  0.10446269
   0.00000366  0.66975855  0.10446269
   0.33024045  0.33024411  0.10446269
   0.66975489  0.66975855  0.10446269
   0.66666600  0.33333300  0.10352662
   0.33333300  0.66666600  0.10624283
   0.33419718  0.16709859  0.46606926
   0.49982341 -0.00035317  0.46599596
   0.33333267  0.66666633  0.46591539
   0.49982341  0.50017559  0.46599596
   0.83290041  0.16709859  0.46606926
   0.99999967  0.99999933  0.46614332
   0.83290041  0.66580182  0.46606926
   0.00035217  0.50017559  0.46599596
Direct configuration=    15
   0.66975115 -0.00000736  0.10895903
   0.33024049 -0.00000736  0.10895903
   0.00000736  0.33024785  0.10895903
   0.00000736  0.66975851  0.10895903
   0.33024049  0.33024785  0.10895903
   0.66975115  0.66975851  0.10895903
   0.66666600  0.33333300  0.10786536
   0.33333300  0.66666600  0.11174667
   0.33507395  0.16753698  0.46150441
   0.49964468 -0.00071063  0.46135731
   0.33333267  0.66666633  0.46119566
   0.49964468  0.50035432  0.46135731
   0.83246202  0.16753698  0.46150441
   0.99999967  0.99999933  0.46165299
   0.83246202  0.66492505  0.46150441
   0.00070963  0.50035432  0.46135731
Direct configuration=    16
   0.66974367 -0.00001475  0.11795169
   0.33024058 -0.00001475  0.11795169
   0.00001475  0.33025533  0.11795169
   0.00001475  0.66975842  0.11795169
   0.33024058  0.33025533  0.11795169
   0.66974367  0.66975842  0.11795169
   0.66666600  0.33333300  0.11654283
   0.33333300  0.66666600  0.12275435
   0.33682748  0.16841374  0.45237470
   0.49928722 -0.00142556  0.45208001
   0.33333267  0.66666633  0.45175619
   0.49928722  0.50071178  0.45208001
   0.83158526  0.16841374  0.45237470
   0.99999967  0.99999933  0.45267233
   0.83158526  0.66317152  0.45237470
   0.00142456  0.50071178  0.45208001
Direct configuration=    17
   0.66974367 -0.00001475  0.11795259
   0.33024058 -0.00001475  0.11795259
   0.00001475  0.33025533  0.11795259
   0.00001475  0.66975842  0.11795259
   0.33024058  0.33025533  0.11795259
   0.66974367  0.66975842  0.11795259
   0.66666600  0.33333300  0.11654370
   0.33333300  0.66666600  0.12275546
   0.33682755  0.16841378  0.45237379
   0.49928721 -0.00142559  0.45207908
   0.33333267  0.66666633  0.45175525
   0.49928721  0.50071179  0.45207908
   0.83158522  0.16841378  0.45237379
   0.99999967  0.99999933  0.45267143
   0.83158522  0.66317145  0.45237379
   0.00142459  0.50071179  0.45207908
Direct configuration=    18
   0.66974366 -0.00001476  0.11795530
   0.33024058 -0.00001476  0.11795530
   0.00001476  0.33025534  0.11795530
   0.00001476  0.66975842  0.11795530
   0.33024058  0.33025534  0.11795530
   0.66974366  0.66975842  0.11795530
   0.66666600  0.33333300  0.11654631
   0.33333300  0.66666600  0.12275876
   0.33682776  0.16841388  0.45237104
   0.49928717 -0.00142566  0.45207629
   0.33333267  0.66666633  0.45175241
   0.49928717  0.50071183  0.45207629
   0.83158512  0.16841388  0.45237104
   0.99999967  0.99999933  0.45266873
   0.83158512  0.66317124  0.45237104
   0.00142466  0.50071183  0.45207629
Direct configuration=    19
   0.66974365 -0.00001477  0.11796071
   0.33024058 -0.00001477  0.11796071
   0.00001477  0.33025535  0.11796071
   0.00001477  0.66975842  0.11796071
   0.33024058  0.33025535  0.11796071
   0.66974365  0.66975842  0.11796071
   0.66666600  0.33333300  0.11655152
   0.33333300  0.66666600  0.12276538
   0.33682817  0.16841408  0.45236555
   0.49928709 -0.00142582  0.45207072
   0.33333267  0.66666633  0.45174675
   0.49928709  0.50071191  0.45207072
   0.83158492  0.16841408  0.45236555
   0.99999967  0.99999933  0.45266331
   0.83158492  0.66317083  0.45236555
   0.00142482  0.50071191  0.45207072
Direct configuration=    20
   0.66974362 -0.00001479  0.11797153
   0.33024058 -0.00001479  0.11797153
   0.00001479  0.33025538  0.11797153
   0.00001479  0.66975842  0.11797153
   0.33024058  0.33025538  0.11797153
   0.66974362  0.66975842  0.11797153
   0.66666600  0.33333300  0.11656195
   0.33333300  0.66666600  0.12277861
   0.33682898  0.16841449  0.45235456
   0.49928693 -0.00142614  0.45205957
   0.33333267  0.66666633  0.45173542
   0.49928693  0.50071207  0.45205957
   0.83158451  0.16841449  0.45235456
   0.99999967  0.99999933  0.45265249
   0.83158451  0.66317002  0.45235456
   0.00142514  0.50071207  0.45205957
Direct configuration=    21
   0.66974357 -0.00001484  0.11799317
   0.33024059 -0.00001484  0.11799317
   0.00001484  0.33025543  0.11799317
   0.00001484  0.66975841  0.11799317
   0.33024059  0.33025543  0.11799317
   0.66974357  0.66975841  0.11799317
   0.66666600  0.33333300  0.11658279
   0.33333300  0.66666600  0.12280506
   0.33683062  0.16841531  0.45233258
   0.49928661 -0.00142677  0.45203726
   0.33333267  0.66666633  0.45171276
   0.49928661  0.50071239  0.45203726
   0.83158369  0.16841531  0.45233258
   0.99999967  0.99999933  0.45263084
   0.83158369  0.66316838  0.45233258
   0.00142577  0.50071239  0.45203726
Direct configuration=    22
   0.66974347 -0.00001493  0.11803645
   0.33024060 -0.00001493  0.11803645
   0.00001493  0.33025553  0.11803645
   0.00001493  0.66975840  0.11803645
   0.33024060  0.33025553  0.11803645
   0.66974347  0.66975840  0.11803645
   0.66666600  0.33333300  0.11662449
   0.33333300  0.66666600  0.12285797
   0.33683389  0.16841694  0.45228863
   0.49928598 -0.00142803  0.45199265
   0.33333267  0.66666633  0.45166744
   0.49928598  0.50071302  0.45199265
   0.83158206  0.16841694  0.45228863
   0.99999967  0.99999933  0.45258754
   0.83158206  0.66316511  0.45228863
   0.00142703  0.50071302  0.45199265
Direct configuration=    23
   0.66974327 -0.00001510  0.11812301
   0.33024063 -0.00001510  0.11812301
   0.00001510  0.33025573  0.11812301
   0.00001510  0.66975837  0.11812301
   0.33024063  0.33025573  0.11812301
   0.66974327  0.66975837  0.11812301
   0.66666600  0.33333300  0.11670789
   0.33333300  0.66666600  0.12296379
   0.33684043  0.16842021  0.45220073
   0.49928472 -0.00143056  0.45190344
   0.33333267  0.66666633  0.45157680
   0.49928472  0.50071428  0.45190344
   0.83157879  0.16842021  0.45220073
   0.99999967  0.99999933  0.45250094
   0.83157879  0.66315857  0.45220073
   0.00142956  0.50071428  0.45190344
Direct configuration=    24
   0.66974286 -0.00001546  0.11829614
   0.33024069 -0.00001546  0.11829614
   0.00001546  0.33025614  0.11829614
   0.00001546  0.66975831  0.11829614
   0.33024069  0.33025614  0.11829614
   0.66974286  0.66975831  0.11829614
   0.66666600  0.33333300  0.11687469
   0.33333300  0.66666600  0.12317544
   0.33685351  0.16842675  0.45202492
   0.49928219 -0.00143561  0.45172501
   0.33333267  0.66666633  0.45139552
   0.49928219  0.50071681  0.45172501
   0.83157225  0.16842675  0.45202492
   0.99999967  0.99999933  0.45232774
   0.83157225  0.66314549  0.45202492
   0.00143461  0.50071681  0.45172501
Direct configuration=    25
   0.66974204 -0.00001616  0.11864239
   0.33024080 -0.00001616  0.11864239
   0.00001616  0.33025696  0.11864239
   0.00001616  0.66975820  0.11864239
   0.33024080  0.33025696  0.11864239
   0.66974204  0.66975820  0.11864239
   0.66666600  0.33333300  0.11720828
   0.33333300  0.66666600  0.12359873
   0.33687966  0.16843983  0.45167331
   0.49927714 -0.00144572  0.45136814
   0.33333267  0.66666633  0.45103297
   0.49927714  0.50072186  0.45136814
   0.83155917  0.16843983  0.45167331
   0.99999967  0.99999933  0.45198134
   0.83155917  0.66311934  0.45167331
   0.00144472  0.50072186  0.45136814
Direct configuration=    26
   0.66974041 -0.00001758  0.11933489
   0.33024102 -0.00001758  0.11933489
   0.00001758  0.33025859  0.11933489
   0.00001758  0.66975798  0.11933489
   0.33024102  0.33025859  0.11933489
   0.66974041  0.66975798  0.11933489
   0.66666600  0.33333300  0.11787547
   0.33333300  0.66666600  0.12444530
   0.33693198  0.16846599  0.45097008
   0.49926703 -0.00146593  0.45065442
   0.33333267  0.66666633  0.45030786
   0.49926703  0.50073197  0.45065442
   0.83153301  0.16846599  0.45097008
   0.99999967  0.99999933  0.45128854
   0.83153301  0.66306702  0.45097008
   0.00146493  0.50073197  0.45065442
Direct configuration=    27
   0.66973714 -0.00002040  0.12071990
   0.33024146 -0.00002040  0.12071990
   0.00002040  0.33026186  0.12071990
   0.00002040  0.66975754  0.12071990
   0.33024146  0.33026186  0.12071990
   0.66973714  0.66975754  0.12071990
   0.66666600  0.33333300  0.11920984
   0.33333300  0.66666600  0.12613845
   0.33703661  0.16851831  0.44956362
   0.49924682 -0.00150636  0.44922696
   0.33333267  0.66666633  0.44885764
   0.49924682  0.50075218  0.44922696
   0.83148069  0.16851831  0.44956362
   0.99999967  0.99999933  0.44990295
   0.83148069  0.66296239  0.44956362
   0.00150536  0.50075218  0.44922696
Direct configuration=    28
   0.66973060 -0.00002606  0.12348991
   0.33024234 -0.00002606  0.12348991
   0.00002606  0.33026840  0.12348991
   0.00002606  0.66975666  0.12348991
   0.33024234  0.33026840  0.12348991
   0.66973060  0.66975666  0.12348991
   0.66666600  0.33333300  0.12187858
   0.33333300  0.66666600  0.12952476
   0.33724588  0.16862294  0.44675070
   0.49920640 -0.00158721  0.44637205
   0.33333267  0.66666633  0.44595720
   0.49920640  0.50079260  0.44637205
   0.83137606  0.16862294  0.44675070
   0.99999967  0.99999933  0.44713176
   0.83137606  0.66275312  0.44675070
   0.00158621  0.50079260  0.44637205
Direct configuration=    29
   0.66971752 -0.00003737  0.12902993
   0.33024411 -0.00003737  0.12902993
   0.00003737  0.33028148  0.12902993
   0.00003737  0.66975489  0.12902993
   0.33024411  0.33028148  0.12902993
   0.66971752  0.66975489  0.12902993
   0.66666600  0.33333300  0.12721607
   0.33333300  0.66666600  0.13629736
   0.33766441  0.16883220  0.44112487
   0.49912555 -0.00174891  0.44066223
   0.33333267  0.66666633  0.44015632
   0.49912555  0.50087345  0.44066223
   0.83116680  0.16883220  0.44112487
   0.99999967  0.99999933  0.44158937
   0.83116680  0.66233459  0.44112487
   0.00174791  0.50087345  0.44066223
Direct configuration=    30
   0.66969137 -0.00005999  0.14010997
   0.33024764 -0.00005999  0.14010997
   0.00005999  0.33030763  0.14010997
   0.00005999  0.66975136  0.14010997
   0.33024764  0.33030763  0.14010997
   0.66969137  0.66975136  0.14010997
   0.66666600  0.33333300  0.13789105
   0.33333300  0.66666600  0.14984258
   0.33850147  0.16925073  0.42987320
   0.49896384 -0.00207231  0.42924259
   0.33333267  0.66666633  0.42855456
   0.49896384  0.50103516  0.42924259
   0.83074827  0.16925073  0.42987320
   0.99999967  0.99999933  0.43050460
   0.83074827  0.66149753  0.42987320
   0.00207131  0.50103516  0.42924259
Direct configuration=    31
   0.66963907 -0.00010523  0.16227006
   0.33025470 -0.00010523  0.16227006
   0.00010523  0.33035993  0.16227006
   0.00010523  0.66974430  0.16227006
   0.33025470  0.33035993  0.16227006
   0.66963907  0.66974430  0.16227006
   0.66666600  0.33333300  0.15924101
   0.33333300  0.66666600  0.17693300
   0.34017559  0.17008780  0.40736988
   0.49864044 -0.00271912  0.40640330
   0.33333267  0.66666633  0.40535104
   0.49864044  0.50135856  0.40640330
   0.82991120  0.17008780  0.40736988
   0.99999967  0.99999933  0.40833507
   0.82991120  0.65982341  0.40736988
   0.00271812  0.50135856  0.40640330
Direct configuration=    32
   0.66958508 -0.00015010  0.16712452
   0.33026382 -0.00015010  0.16712452
   0.00015010  0.33041392  0.16712452
   0.00015010  0.66973518  0.16712452
   0.33026382  0.33041392  0.16712452
   0.66958508  0.66973518  0.16712452
   0.66666600  0.33333300  0.16390411
   0.33333300  0.66666600  0.18284724
   0.33993583  0.16996791  0.40243876
   0.49870008 -0.00259983  0.40141113
   0.33333267  0.66666633  0.40028992
   0.49870008  0.50129892  0.40141113
   0.83003109  0.16996791  0.40243876
   0.99999967  0.99999933  0.40346194
   0.83003109  0.66006317  0.40243876
   0.00259883  0.50129892  0.40141113
Direct configuration=    33
   0.66959419 -0.00014253  0.16630570
   0.33026228 -0.00014253  0.16630570
   0.00014253  0.33040481  0.16630570
   0.00014253  0.66973672  0.16630570
   0.33026228  0.33040481  0.16630570
   0.66959419  0.66973672  0.16630570
   0.66666600  0.33333300  0.16311757
   0.33333300  0.66666600  0.18184967
   0.33997627  0.16998813  0.40327051
   0.49869002 -0.00261995  0.40225318
   0.33333267  0.66666633  0.40114360
   0.49869002  0.50130898  0.40225318
   0.83001087  0.16998813  0.40327051
   0.99999967  0.99999933  0.40428391
   0.83001087  0.66002273  0.40327051
   0.00261895  0.50130898  0.40225318
Direct configuration=    34
   0.66955040 -0.00017855  0.16618707
   0.33027004 -0.00017855  0.16618707
   0.00017855  0.33044860  0.16618707
   0.00017855  0.66972896  0.16618707
   0.33027004  0.33044860  0.16618707
   0.66955040  0.66972896  0.16618707
   0.66666600  0.33333300  0.16298933
   0.33333300  0.66666600  0.18168421
   0.33941448  0.16970724  0.40338934
   0.49881115 -0.00237770  0.40238711
   0.33333267  0.66666633  0.40128933
   0.49881115  0.50118785  0.40238711
   0.83029176  0.16970724  0.40338934
   0.99999967  0.99999933  0.40438538
   0.83029176  0.66058452  0.40338934
   0.00237670  0.50118785  0.40238711
Direct configuration=    35
   0.66941906 -0.00028660  0.16583119
   0.33029334 -0.00028660  0.16583119
   0.00028660  0.33057994  0.16583119
   0.00028660  0.66970566  0.16583119
   0.33029334  0.33057994  0.16583119
   0.66941906  0.66970566  0.16583119
   0.66666600  0.33333300  0.16260460
   0.33333300  0.66666600  0.18118782
   0.33772910  0.16886455  0.40374583
   0.49917452 -0.00165096  0.40278888
   0.33333267  0.66666633  0.40172652
   0.49917452  0.50082448  0.40278888
   0.83113445  0.16886455  0.40374583
   0.99999967  0.99999933  0.40468982
   0.83113445  0.66226990  0.40374583
   0.00164996  0.50082448  0.40278888
Direct configuration=    36
   0.66915637 -0.00050271  0.16511942
   0.33033992 -0.00050271  0.16511942
   0.00050271  0.33084263  0.16511942
   0.00050271  0.66965908  0.16511942
   0.33033992  0.33084263  0.16511942
   0.66915637  0.66965908  0.16511942
   0.66666600  0.33333300  0.16183513
   0.33333300  0.66666600  0.18019506
   0.33435834  0.16717917  0.40445880
   0.49990126 -0.00019747  0.40359242
   0.33333267  0.66666633  0.40260091
   0.49990126  0.50009774  0.40359242
   0.83281983  0.16717917  0.40445880
   0.99999967  0.99999933  0.40529868
   0.83281983  0.66564066  0.40445880
   0.00019647  0.50009774  0.40359242
Direct configuration=    37
   0.66907385 -0.00057060  0.16489582
   0.33035456 -0.00057060  0.16489582
   0.00057060  0.33092515  0.16489582
   0.00057060  0.66964444  0.16489582
   0.33035456  0.33092515  0.16489582
   0.66907385  0.66964444  0.16489582
   0.66666600  0.33333300  0.16159340
   0.33333300  0.66666600  0.17988318
   0.33329940  0.16664970  0.40468278
   0.50012957  0.00025914  0.40384486
   0.33333267  0.66666633  0.40287561
   0.50012957  0.49986943  0.40384486
   0.83334930  0.16664970  0.40468278
   0.99999967  0.99999933  0.40548996
   0.83334930  0.66669960  0.40468278
  -0.00026014  0.49986943  0.40384486
Direct configuration=    38
   0.66907549 -0.00056925  0.16490026
   0.33035426 -0.00056925  0.16490026
   0.00056925  0.33092351  0.16490026
   0.00056925  0.66964474  0.16490026
   0.33035426  0.33092351  0.16490026
   0.66907549  0.66964474  0.16490026
   0.66666600  0.33333300  0.16159821
   0.33333300  0.66666600  0.17988938
   0.33332044  0.16666022  0.40467833
   0.50012504  0.00025007  0.40383985
   0.33333267  0.66666633  0.40287015
   0.50012504  0.49987396  0.40383985
   0.83333878  0.16666022  0.40467833
   0.99999967  0.99999933  0.40548616
   0.83333878  0.66667856  0.40467833
  -0.00025107  0.49987396  0.40383985
Direct configuration=    39
   0.66903090 -0.00058585  0.16490801
   0.33038225 -0.00058585  0.16490801
   0.00058585  0.33096810  0.16490801
   0.00058585  0.66961675  0.16490801
   0.33038225  0.33096810  0.16490801
   0.66903090  0.66961675  0.16490801
   0.66666600  0.33333300  0.16156350
   0.33333300  0.66666600  0.17984387
   0.33331100  0.16665550  0.40466497
   0.50010432  0.00020865  0.40386275
   0.33333267  0.66666633  0.40292572
   0.50010432  0.49989468  0.40386275
   0.83334350  0.16665550  0.40466497
   0.99999967  0.99999933  0.40543571
   0.83334350  0.66668800  0.40466497
  -0.00020965  0.49989468  0.40386275
Direct configuration=    40
   0.66889713 -0.00063567  0.16493125
   0.33046620 -0.00063567  0.16493125
   0.00063567  0.33110187  0.16493125
   0.00063567  0.66953280  0.16493125
   0.33046620  0.33110187  0.16493125
   0.66889713  0.66953280  0.16493125
   0.66666600  0.33333300  0.16145938
   0.33333300  0.66666600  0.17970734
   0.33328271  0.16664135  0.40462487
   0.50004219  0.00008437  0.40393145
   0.33333267  0.66666633  0.40309243
   0.50004219  0.49995681  0.40393145
   0.83335765  0.16664135  0.40462487
   0.99999967  0.99999933  0.40528437
   0.83335765  0.66671629  0.40462487
  -0.00008537  0.49995681  0.40393145
Direct configuration=    41
   0.66862960 -0.00073531  0.16497773
   0.33063409 -0.00073531  0.16497773
   0.00073531  0.33136940  0.16497773
   0.00073531  0.66936491  0.16497773
   0.33063409  0.33136940  0.16497773
   0.66862960  0.66936491  0.16497773
   0.66666600  0.33333300  0.16125115
   0.33333300  0.66666600  0.17943430
   0.33322611  0.16661306  0.40454467
   0.49991791 -0.00016417  0.40406887
   0.33333267  0.66666633  0.40342584
   0.49991791  0.50008109  0.40406887
   0.83338594  0.16661306  0.40454467
   0.99999967  0.99999933  0.40498169
   0.83338594  0.66677289  0.40454467
   0.00016317  0.50008109  0.40406887
Direct configuration=    42
   0.66809454 -0.00093458  0.16507070
   0.33096989 -0.00093458  0.16507070
   0.00093458  0.33190446  0.16507070
   0.00093458  0.66902911  0.16507070
   0.33096989  0.33190446  0.16507070
   0.66809454  0.66902911  0.16507070
   0.66666600  0.33333300  0.16083468
   0.33333300  0.66666600  0.17888820
   0.33311292  0.16655646  0.40438428
   0.49966936 -0.00066127  0.40434369
   0.33333267  0.66666633  0.40409267
   0.49966936  0.50032964  0.40434369
   0.83344254  0.16655646  0.40438428
   0.99999967  0.99999933  0.40437633
   0.83344254  0.66688608  0.40438428
   0.00066027  0.50032964  0.40434369
Direct configuration=    43
   0.66814121 -0.00087805  0.16509612
   0.33097974 -0.00087805  0.16509612
   0.00087805  0.33185779  0.16509612
   0.00087805  0.66901926  0.16509612
   0.33097974  0.33185779  0.16509612
   0.66814121  0.66901926  0.16509612
   0.66666600  0.33333300  0.16073518
   0.33333300  0.66666600  0.17877249
   0.33316859  0.16658429  0.40435345
   0.49973798 -0.00052404  0.40439161
   0.33333267  0.66666633  0.40421714
   0.49973798  0.50026102  0.40439161
   0.83341471  0.16658429  0.40435345
   0.99999967  0.99999933  0.40426326
   0.83341471  0.66683041  0.40435345
   0.00052304  0.50026102  0.40439161
Direct configuration=    44
   0.66828124 -0.00070846  0.16517238
   0.33100930 -0.00070846  0.16517238
   0.00070846  0.33171776  0.16517238
   0.00070846  0.66898970  0.16517238
   0.33100930  0.33171776  0.16517238
   0.66828124  0.66898970  0.16517238
   0.66666600  0.33333300  0.16043667
   0.33333300  0.66666600  0.17842534
   0.33333559  0.16666780  0.40426098
   0.49994383 -0.00011235  0.40453538
   0.33333267  0.66666633  0.40459053
   0.49994383  0.50005517  0.40453538
   0.83333120  0.16666780  0.40426098
   0.99999967  0.99999933  0.40392408
   0.83333120  0.66666341  0.40426098
   0.00011135  0.50005517  0.40453538
Direct configuration=    45
   0.66856130 -0.00036929  0.16532490
   0.33106841 -0.00036929  0.16532490
   0.00036929  0.33143770  0.16532490
   0.00036929  0.66893059  0.16532490
   0.33106841  0.33143770  0.16532490
   0.66856130  0.66893059  0.16532490
   0.66666600  0.33333300  0.15983967
   0.33333300  0.66666600  0.17773106
   0.33366961  0.16683480  0.40407605
   0.50035552  0.00071104  0.40482291
   0.33333267  0.66666633  0.40533732
   0.50035552  0.49964348  0.40482291
   0.83316420  0.16683480  0.40407605
   0.99999967  0.99999933  0.40324571
   0.83316420  0.66632939  0.40407605
  -0.00071204  0.49964348  0.40482291
Direct configuration=    46
   0.66836977 -0.00060125  0.16522059
   0.33102798 -0.00060125  0.16522059
   0.00060125  0.33162923  0.16522059
   0.00060125  0.66897102  0.16522059
   0.33102798  0.33162923  0.16522059
   0.66836977  0.66897102  0.16522059
   0.66666600  0.33333300  0.16024796
   0.33333300  0.66666600  0.17820588
   0.33344117  0.16672059  0.40420253
   0.50007396  0.00014792  0.40462627
   0.33333267  0.66666633  0.40482659
   0.50007396  0.49992504  0.40462627
   0.83327841  0.16672059  0.40420253
   0.99999967  0.99999933  0.40370965
   0.83327841  0.66655783  0.40420253
  -0.00014892  0.49992504  0.40462627
Direct configuration=    47
   0.66857473 -0.00052559  0.16524104
   0.33089868 -0.00052559  0.16524104
   0.00052559  0.33142427  0.16524104
   0.00052559  0.66910032  0.16524104
   0.33089868  0.33142427  0.16524104
   0.66857473  0.66910032  0.16524104
   0.66666600  0.33333300  0.16018624
   0.33333300  0.66666600  0.17815024
   0.33340185  0.16670092  0.40420919
   0.50005898  0.00011796  0.40461540
   0.33333267  0.66666633  0.40481048
   0.50005898  0.49994002  0.40461540
   0.83329808  0.16670092  0.40420919