  15  15   0  16
  0.2165064E+02  0.5000000E-09  0.5000000E-09  0.1500000E-08  0.5000000E-15
  1.000000000000000E-004
  CAR 
 Lattice                                 
     11.05259466    -21.05620872  301      0.31790803      1.00000000
    -21.056  0.0000E+00  0.0000E+00  0.0000E+00  0.0000E+00
    -20.949  0.0000E+00  0.0000E+00  0.0000E+00  0.0000E+00
    -20.842  0.0000E+00  0.0000E+00  0.0000E+00  0.0000E+00
    -20.735  0.0000E+00  0.0000E+00  0.0000E+00  0.0000E+00
    -20.628  0.0000E+00  0.0000E+00  0.0000E+00  0.0000E+00
    -20.521  0.0000E+00  0.0000E+00  0.0000E+00  0.0000E+00
    -20.414  0.0000E+00  0.0000E+00  0.0000E+00  0.0000E+00
    -20.307  0.0000E+00  0.0000E+00  0.0000E+00  0.0000E+00
    -20.200  0.0000E+00  0.0000E+00  0.0000E+00  0.0000E+00
    -20.093  0.6111E-15  0.6111E-15  0.6541E-16  0.6541E-16
    -19.986  0.1099E-10  0.1099E-10  0.1176E-11  0.1176E-11
    -19.879  0.2347E-07  0.2347E-07  0.2513E-08  0.2513E-08
    -19.772  0.6559E-05  0.6559E-05  0.7045E-06  0.7045E-06
    -19.665  0.2682E-03  0.2682E-03  0.2941E-04  0.2941E-04
    -19.558  0.1970E-02  0.1970E-02  0.2402E-03  0.2402E-03
    -19.451  0.4148E-02  0.4148E-02  0.6842E-03  0.6842E-03
    -19.344  0.4516E-02  0.4516E-02  0.1168E-02  0.1168E-02
    -19.237  0.4931E-02  0.4931E-02  0.1695E-02  0.1695E-02
    -19.130  0.4150E-02  0.4150E-02  0.2140E-02  0.2140E-02
    -19.023  0.5386E-02  0.5386E-02  0.2716E-02  0.2716E-02
    -18.916  0.4190E-02  0.4190E-02  0.3164E-02  0.3164E-02
    -18.809  0.4276E-02  0.4276E-02  0.3622E-02  0.3622E-02
    -18.702  0.6002E-02  0.6002E-02  0.4264E-02  0.4264E-02
    -18.595  0.3766E-02  0.3766E-02  0.4667E-02  0.4667E-02
    -18.488  0.3923E-02  0.3923E-02  0.5087E-02  0.5087E-02
    -18.380  0.6123E-02  0.6123E-02  0.5743E-02  0.5743E-02
    -18.273  0.5161E-02  0.5161E-02  0.6295E-02  0.6295E-02
    -18.166  0.2917E-02  0.2917E-02  0.6607E-02  0.6607E-02
    -18.059  0.4480E-02  0.4480E-02  0.7087E-02  0.7087E-02
    -17.952  0.6881E-02  0.6881E-02  0.7823E-02  0.7823E-02
    -17.845  0.4490E-02  0.4490E-02  0.8304E-02  0.8304E-02
    -17.738  0.3771E-02  0.3771E-02  0.8707E-02  0.8707E-02
    -17.631  0.3020E-02  0.3020E-02  0.9031E-02  0.9031E-02
    -17.524  0.6739E-02  0.6739E-02  0.9752E-02  0.9752E-02
    -17.417  0.6496E-02  0.6496E-02  0.1045E-01  0.1045E-01
    -17.310  0.3434E-02  0.3434E-02  0.1081E-01  0.1081E-01
    -17.203  0.3348E-02  0.3348E-02  0.1117E-01  0.1117E-01
    -17.096  0.4127E-02  0.4127E-02  0.1161E-01  0.1161E-01
    -16.989  0.6336E-02  0.6336E-02  0.1229E-01  0.1229E-01
    -16.882  0.6647E-02  0.6647E-02  0.1300E-01  0.1300E-01
    -16.775  0.5200E-02  0.5200E-02  0.1356E-01  0.1356E-01
    -16.668  0.5773E-02  0.5773E-02  0.1418E-01  0.1418E-01
    -16.561  0.1015E-01  0.1015E-01  0.1526E-01  0.1526E-01
    -16.454  0.1461E-01  0.1461E-01  0.1683E-01  0.1683E-01
    -16.347  0.1536E-01  0.1536E-01  0.1847E-01  0.1847E-01
    -16.240  0.1653E-01  0.1653E-01  0.2024E-01  0.2024E-01
    -16.133  0.2045E-01  0.2045E-01  0.2243E-01  0.2243E-01
    -16.026  0.1732E-01  0.1732E-01  0.2428E-01  0.2428E-01
    -15.919  0.5988E-02  0.5988E-02  0.2493E-01  0.2493E-01
    -15.812  0.7725E-02  0.7725E-02  0.2575E-01  0.2575E-01
    -15.705  0.7858E-02  0.7858E-02  0.2659E-01  0.2659E-01
    -15.598  0.4489E-02  0.4489E-02  0.2707E-01  0.2707E-01
    -15.491  0.4090E-02  0.4090E-02  0.2751E-01  0.2751E-01
    -15.384  0.3910E-02  0.3910E-02  0.2793E-01  0.2793E-01
    -15.277  0.3696E-02  0.3696E-02  0.2833E-01  0.2833E-01
    -15.170  0.3903E-02  0.3903E-02  0.2874E-01  0.2874E-01
    -15.063  0.8346E-02  0.8346E-02  0.2964E-01  0.2964E-01
    -14.956  0.7709E-02  0.7709E-02  0.3046E-01  0.3046E-01
    -14.849  0.3804E-02  0.3804E-02  0.3087E-01  0.3087E-01
    -14.741  0.3834E-02  0.3834E-02  0.3128E-01  0.3128E-01
    -14.634  0.3405E-02  0.3405E-02  0.3164E-01  0.3164E-01
    -14.527  0.4738E-02  0.4738E-02  0.3215E-01  0.3215E-01
    -14.420  0.6245E-02  0.6245E-02  0.3282E-01  0.3282E-01
    -14.313  0.9948E-02  0.9948E-02  0.3388E-01  0.3388E-01
    -14.206  0.1563E-01  0.1563E-01  0.3556E-01  0.3556E-01
    -14.099  0.1764E-01  0.1764E-01  0.3745E-01  0.3745E-01
    -13.992  0.1794E-01  0.1794E-01  0.3937E-01  0.3937E-01
    -13.885  0.1132E-01  0.1132E-01  0.4058E-01  0.4058E-01
    -13.778  0.7873E-02  0.7873E-02  0.4142E-01  0.4142E-01
    -13.671  0.1543E-01  0.1543E-01  0.4307E-01  0.4307E-01
    -13.564  0.1510E-01  0.1510E-01  0.4469E-01  0.4469E-01
    -13.457  0.1008E-01  0.1008E-01  0.4577E-01  0.4577E-01
    -13.350  0.1084E-01  0.1084E-01  0.4693E-01  0.4693E-01
    -13.243  0.1210E-01  0.1210E-01  0.4822E-01  0.4822E-01
    -13.136  0.1975E-01  0.1975E-01  0.5034E-01  0.5034E-01
    -13.029  0.2087E-01  0.2087E-01  0.5257E-01  0.5257E-01
    -12.922  0.1825E-01  0.1825E-01  0.5452E-01  0.5452E-01
    -12.815  0.1160E-01  0.1160E-01  0.5576E-01  0.5576E-01
    -12.708  0.7082E-02  0.7082E-02  0.5652E-01  0.5652E-01
    -12.601  0.3146E-02  0.3146E-02  0.5686E-01  0.5686E-01
    -12.494  0.4423E-02  0.4423E-02  0.5733E-01  0.5733E-01
    -12.387  0.7124E-02  0.7124E-02  0.5809E-01  0.5809E-01
    -12.280  0.6511E-02  0.6511E-02  0.5879E-01  0.5879E-01
    -12.173  0.4921E-02  0.4921E-02  0.5932E-01  0.5932E-01
    -12.066  0.6990E-02  0.6990E-02  0.6007E-01  0.6007E-01
    -11.959  0.6770E-02  0.6770E-02  0.6079E-01  0.6079E-01
    -11.852  0.5602E-02  0.5602E-02  0.6139E-01  0.6139E-01
    -11.745  0.5116E-02  0.5116E-02  0.6194E-01  0.6194E-01
    -11.638  0.3330E-02  0.3330E-02  0.6229E-01  0.6229E-01
    -11.531  0.7113E-02  0.7113E-02  0.6306E-01  0.6306E-01
    -11.424  0.7407E-02  0.7407E-02  0.6385E-01  0.6385E-01
    -11.317  0.2996E-02  0.2996E-02  0.6417E-01  0.6417E-01
    -11.210  0.3517E-02  0.3517E-02  0.6454E-01  0.6454E-01
    -11.102  0.3475E-02  0.3475E-02  0.6492E-01  0.6492E-01
    -10.995  0.6463E-02  0.6463E-02  0.6561E-01  0.6561E-01
    -10.888  0.6423E-02  0.6423E-02  0.6630E-01  0.6630E-01
    -10.781  0.3239E-02  0.3239E-02  0.6664E-01  0.6664E-01
    -10.674  0.2110E-02  0.2110E-02  0.6687E-01  0.6687E-01
    -10.567  0.5174E-02  0.5174E-02  0.6742E-01  0.6742E-01
    -10.460  0.5736E-02  0.5736E-02  0.6804E-01  0.6804E-01
    -10.353  0.5246E-02  0.5246E-02  0.6860E-01  0.6860E-01
    -10.246  0.8257E-02  0.8257E-02  0.6948E-01  0.6948E-01
    -10.139  0.4859E-02  0.4859E-02  0.7000E-01  0.7000E-01
    -10.032  0.2498E-02  0.2498E-02  0.7027E-01  0.7027E-01
     -9.925  0.7985E-02  0.7985E-02  0.7112E-01  0.7112E-01
     -9.818  0.1188E-01  0.1188E-01  0.7239E-01  0.7239E-01
     -9.711  0.1532E-01  0.1532E-01  0.7403E-01  0.7403E-01
     -9.604  0.1479E-01  0.1479E-01  0.7562E-01  0.7562E-01
     -9.497  0.1388E-01  0.1388E-01  0.7710E-01  0.7710E-01
     -9.390  0.1853E-01  0.1853E-01  0.7909E-01  0.7909E-01
     -9.283  0.1971E-01  0.1971E-01  0.8119E-01  0.8119E-01
     -9.176  0.9110E-02  0.9110E-02  0.8217E-01  0.8217E-01
     -9.069  0.5428E-02  0.5428E-02  0.8275E-01  0.8275E-01
     -8.962  0.1444E-01  0.1444E-01  0.8430E-01  0.8430E-01
     -8.855  0.1827E-01  0.1827E-01  0.8625E-01  0.8625E-01
     -8.748  0.1604E-01  0.1604E-01  0.8797E-01  0.8797E-01
     -8.641  0.1281E-01  0.1281E-01  0.8934E-01  0.8934E-01
     -8.534  0.1443E-01  0.1443E-01  0.9088E-01  0.9088E-01
     -8.427  0.1114E-01  0.1114E-01  0.9207E-01  0.9207E-01
     -8.320  0.8841E-02  0.8841E-02  0.9302E-01  0.9302E-01
     -8.213  0.1462E-01  0.1462E-01  0.9459E-01  0.9459E-01
     -8.106  0.1993E-01  0.1993E-01  0.9672E-01  0.9672E-01
     -7.999  0.1639E-01  0.1639E-01  0.9847E-01  0.9847E-01
     -7.892  0.7588E-02  0.7588E-02  0.9928E-01  0.9928E-01
     -7.785  0.1063E-01  0.1063E-01  0.1004E+00  0.1004E+00
     -7.678  0.2201E-01  0.2201E-01  0.1028E+00  0.1028E+00
     -7.571  0.1921E-01  0.1921E-01  0.1048E+00  0.1048E+00
     -7.463  0.1063E-01  0.1063E-01  0.1060E+00  0.1060E+00
     -7.356  0.1604E-01  0.1604E-01  0.1077E+00  0.1077E+00
     -7.249  0.2549E-01  0.2549E-01  0.1104E+00  0.1104E+00
     -7.142  0.2446E-01  0.2446E-01  0.1130E+00  0.1130E+00
     -7.035  0.2033E-01  0.2033E-01  0.1152E+00  0.1152E+00
     -6.928  0.9481E-02  0.9481E-02  0.1162E+00  0.1162E+00
     -6.821  0.1115E-01  0.1115E-01  0.1174E+00  0.1174E+00
     -6.714  0.2019E-01  0.2019E-01  0.1196E+00  0.1196E+00
     -6.607  0.1598E-01  0.1598E-01  0.1213E+00  0.1213E+00
     -6.500  0.1079E-01  0.1079E-01  0.1224E+00  0.1224E+00
     -6.393  0.1263E-01  0.1263E-01  0.1238E+00  0.1238E+00
     -6.286  0.1773E-01  0.1773E-01  0.1257E+00  0.1257E+00
     -6.179  0.1793E-01  0.1793E-01  0.1276E+00  0.1276E+00
     -6.072  0.2000E-01  0.2000E-01  0.1298E+00  0.1298E+00
     -5.965  0.1979E-01  0.1979E-01  0.1319E+00  0.1319E+00
     -5.858  0.1848E-01  0.1848E-01  0.1338E+00  0.1338E+00
     -5.751  0.1836E-01  0.1836E-01  0.1358E+00  0.1358E+00
     -5.644  0.1702E-01  0.1702E-01  0.1376E+00  0.1376E+00
     -5.537  0.1993E-01  0.1993E-01  0.1398E+00  0.1398E+00
     -5.430  0.2551E-01  0.2551E-01  0.1425E+00  0.1425E+00
     -5.323  0.2315E-01  0.2315E-01  0.1450E+00  0.1450E+00
     -5.216  0.3242E-01  0.3242E-01  0.1484E+00  0.1484E+00
     -5.109  0.2674E-01  0.2674E-01  0.1513E+00  0.1513E+00
     -5.002  0.1395E-01  0.1395E-01  0.1528E+00  0.1528E+00
     -4.895  0.1802E-01  0.1802E-01  0.1547E+00  0.1547E+00
     -4.788  0.3402E-01  0.3402E-01  0.1584E+00  0.1584E+00
     -4.681  0.3547E-01  0.3547E-01  0.1622E+00  0.1622E+00
     -4.574  0.2433E-01  0.2433E-01  0.1648E+00  0.1648E+00
     -4.467  0.1655E-01  0.1655E-01  0.1665E+00  0.1665E+00
     -4.360  0.1069E-01  0.1069E-01  0.1677E+00  0.1677E+00
     -4.253  0.1091E-01  0.1091E-01  0.1689E+00  0.1689E+00
     -4.146  0.1458E-01  0.1458E-01  0.1704E+00  0.1704E+00
     -4.039  0.1041E-01  0.1041E-01  0.1715E+00  0.1715E+00
     -3.932  0.8295E-02  0.8295E-02  0.1724E+00  0.1724E+00
     -3.824  0.1011E-01  0.1011E-01  0.1735E+00  0.1735E+00
     -3.717  0.1777E-01  0.1777E-01  0.1754E+00  0.1754E+00
     -3.610  0.2028E-01  0.2028E-01  0.1776E+00  0.1776E+00
     -3.503  0.1720E-01  0.1720E-01  0.1794E+00  0.1794E+00
     -3.396  0.2093E-01  0.2093E-01  0.1817E+00  0.1817E+00
     -3.289  0.2389E-01  0.2389E-01  0.1842E+00  0.1842E+00
     -3.182  0.2138E-01  0.2138E-01  0.1865E+00  0.1865E+00
     -3.075  0.1755E-01  0.1755E-01  0.1884E+00  0.1884E+00
     -2.968  0.1745E-01  0.1745E-01  0.1902E+00  0.1902E+00
     -2.861  0.2009E-01  0.2009E-01  0.1924E+00  0.1924E+00
     -2.754  0.1528E-01  0.1528E-01  0.1940E+00  0.1940E+00
     -2.647  0.1521E-01  0.1521E-01  0.1957E+00  0.1957E+00
     -2.540  0.1380E-01  0.1380E-01  0.1971E+00  0.1971E+00
     -2.433  0.1670E-01  0.1670E-01  0.1989E+00  0.1989E+00
     -2.326  0.1771E-01  0.1771E-01  0.2008E+00  0.2008E+00
     -2.219  0.1173E-01  0.1173E-01  0.2021E+00  0.2021E+00
     -2.112  0.1079E-01  0.1079E-01  0.2032E+00  0.2032E+00
     -2.005  0.7036E-02  0.7036E-02  0.2040E+00  0.2040E+00
     -1.898  0.1343E-01  0.1343E-01  0.2054E+00  0.2054E+00
     -1.791  0.2029E-01  0.2029E-01  0.2076E+00  0.2076E+00
     -1.684  0.9856E-02  0.9856E-02  0.2086E+00  0.2086E+00
     -1.577  0.3555E-02  0.3555E-02  0.2090E+00  0.2090E+00
     -1.470  0.4794E-02  0.4794E-02  0.2095E+00  0.2095E+00
     -1.363  0.1009E-01  0.1009E-01  0.2106E+00  0.2106E+00
     -1.256  0.1128E-01  0.1128E-01  0.2118E+00  0.2118E+00
     -1.149  0.1166E-01  0.1166E-01  0.2131E+00  0.2131E+00
     -1.042  0.1195E-01  0.1195E-01  0.2144E+00  0.2144E+00
     -0.935  0.8075E-02  0.8075E-02  0.2152E+00  0.2152E+00
     -0.828  0.6809E-02  0.6809E-02  0.2159E+00  0.2159E+00
     -0.721  0.4794E-02  0.4794E-02  0.2165E+00  0.2165E+00
     -0.614  0.3605E-02  0.3605E-02  0.2168E+00  0.2168E+00
     -0.507  0.4007E-02  0.4007E-02  0.2173E+00  0.2173E+00
     -0.400  0.5178E-02  0.5178E-02  0.2178E+00  0.2178E+00
     -0.293  0.5325E-02  0.5325E-02  0.2184E+00  0.2184E+00
     -0.185  0.1813E-02  0.1813E-02  0.2186E+00  0.2186E+00
     -0.078  0.4140E-03  0.4140E-03  0.2186E+00  0.2186E+00
      0.029  0.3587E-04  0.3587E-04  0.2186E+00  0.2186E+00
      0.136  0.1108E-04  0.1108E-04  0.2186E+00  0.2186E+00
      0.243  0.2843E-03  0.2843E-03  0.2187E+00  0.2187E+00
      0.350  0.1068E-02  0.1068E-02  0.2188E+00  0.2188E+00
      0.457  0.6128E-03  0.6128E-03  0.2189E+00  0.2189E+00
      0.564  0.5166E-04  0.5166E-04  0.2189E+00  0.2189E+00
      0.671  0.5766E-06  0.5766E-06  0.2189E+00  0.2189E+00
      0.778  0.4303E-05  0.4303E-05  0.2189E+00  0.2189E+00
      0.885  0.2799E-03  0.2799E-03  0.2189E+00  0.2189E+00
      0.992  0.2361E-02  0.2361E-02  0.2191E+00  0.2191E+00
      1.099  0.2911E-02  0.2911E-02  0.2195E+00  0.2195E+00
      1.206  0.8989E-03  0.8989E-03  0.2195E+00  0.2195E+00
      1.313  0.1755E-02  0.1755E-02  0.2197E+00  0.2197E+00
      1.420  0.2996E-02  0.2996E-02  0.2201E+00  0.2201E+00
      1.527  0.5831E-02  0.5831E-02  0.2207E+00  0.2207E+00
      1.634  0.1521E-01  0.1521E-01  0.2223E+00  0.2223E+00
      1.741  0.2753E-01  0.2753E-01  0.2253E+00  0.2253E+00
      1.848  0.1427E-01  0.1427E-01  0.2268E+00  0.2268E+00
      1.955  0.3605E-02  0.3605E-02  0.2272E+00  0.2272E+00
      2.062  0.5626E-02  0.5626E-02  0.2278E+00  0.2278E+00
      2.169  0.9703E-02  0.9703E-02  0.2288E+00  0.2288E+00
      2.276  0.1244E-01  0.1244E-01  0.2301E+00  0.2301E+00
      2.383  0.2058E-01  0.2058E-01  0.2323E+00  0.2323E+00
      2.490  0.1357E-01  0.1357E-01  0.2338E+00  0.2338E+00
      2.597  0.5473E-02  0.5473E-02  0.2344E+00  0.2344E+00
      2.704  0.7602E-02  0.7602E-02  0.2352E+00  0.2352E+00
      2.811  0.9027E-02  0.9027E-02  0.2362E+00  0.2362E+00
      2.918  0.7392E-02  0.7392E-02  0.2370E+00  0.2370E+00
      3.025  0.8078E-02  0.8078E-02  0.2378E+00  0.2378E+00
      3.132  0.9218E-02  0.9218E-02  0.2388E+00  0.2388E+00
      3.239  0.1181E-01  0.1181E-01  0.2401E+00  0.2401E+00
      3.346  0.8409E-02  0.8409E-02  0.2410E+00  0.2410E+00
      3.454  0.5670E-02  0.5670E-02  0.2416E+00  0.2416E+00
      3.561  0.7407E-02  0.7407E-02  0.2424E+00  0.2424E+00
      3.668  0.1290E-01  0.1290E-01  0.2437E+00  0.2437E+00
      3.775  0.9376E-02  0.9376E-02  0.2448E+00  0.2448E+00
      3.882  0.1057E-01  0.1057E-01  0.2459E+00  0.2459E+00
      3.989  0.9587E-02  0.9587E-02  0.2469E+00  0.2469E+00
      4.096  0.1006E-01  0.1006E-01  0.2480E+00  0.2480E+00
      4.203  0.1361E-01  0.1361E-01  0.2494E+00  0.2494E+00
      4.310  0.1464E-01  0.1464E-01  0.2510E+00  0.2510E+00
      4.417  0.1959E-01  0.1959E-01  0.2531E+00  0.2531E+00
      4.524  0.2072E-01  0.2072E-01  0.2553E+00  0.2553E+00
      4.631  0.2010E-01  0.2010E-01  0.2575E+00  0.2575E+00
      4.738  0.2324E-01  0.2324E-01  0.2600E+00  0.2600E+00
      4.845  0.2600E-01  0.2600E-01  0.2627E+00  0.2627E+00
      4.952  0.2371E-01  0.2371E-01  0.2653E+00  0.2653E+00
      5.059  0.2226E-01  0.2226E-01  0.2677E+00  0.2677E+00
      5.166  0.2356E-01  0.2356E-01  0.2702E+00  0.2702E+00
      5.273  0.2271E-01  0.2271E-01  0.2726E+00  0.2726E+00
      5.380  0.2127E-01  0.2127E-01  0.2749E+00  0.2749E+00
      5.487  0.1790E-01  0.1790E-01  0.2768E+00  0.2768E+00
      5.594  0.1990E-01  0.1990E-01  0.2789E+00  0.2789E+00
      5.701  0.2389E-01  0.2389E-01  0.2815E+00  0.2815E+00
      5.808  0.2386E-01  0.2386E-01  0.2840E+00  0.2840E+00
      5.915  0.2399E-01  0.2399E-01  0.2866E+00  0.2866E+00
      6.022  0.3166E-01  0.3166E-01  0.2900E+00  0.2900E+00
      6.129  0.2386E-01  0.2386E-01  0.2926E+00  0.2926E+00
      6.236  0.1696E-01  0.1696E-01  0.2944E+00  0.2944E+00
      6.343  0.2374E-01  0.2374E-01  0.2969E+00  0.2969E+00
      6.450  0.2325E-01  0.2325E-01  0.2994E+00  0.2994E+00
      6.557  0.2005E-01  0.2005E-01  0.3016E+00  0.3015E+00
      6.664  0.1817E-01  0.1817E-01  0.3035E+00  0.3035E+00
      6.771  0.2356E-01  0.2356E-01  0.3060E+00  0.3060E+00
      6.878  0.2133E-01  0.2133E-01  0.3083E+00  0.3083E+00
      6.985  0.2019E-01  0.2019E-01  0.3105E+00  0.3105E+00
      7.093  0.2093E-01  0.2093E-01  0.3127E+00  0.3127E+00
      7.200  0.1614E-01  0.1614E-01  0.3144E+00  0.3144E+00
      7.307  0.1538E-01  0.1538E-01  0.3161E+00  0.3161E+00
      7.414  0.2965E-01  0.2965E-01  0.3192E+00  0.3192E+00
      7.521  0.3136E-01  0.3136E-01  0.3226E+00  0.3226E+00
      7.628  0.2288E-01  0.2288E-01  0.3251E+00  0.3251E+00
      7.735  0.1874E-01  0.1874E-01  0.3271E+00  0.3271E+00
      7.842  0.1568E-01  0.1568E-01  0.3287E+00  0.3287E+00
      7.949  0.2128E-01  0.2128E-01  0.3310E+00  0.3310E+00
      8.056  0.2729E-01  0.2729E-01  0.3339E+00  0.3339E+00
      8.163  0.2438E-01  0.2438E-01  0.3365E+00  0.3365E+00
      8.270  0.2220E-01  0.2220E-01  0.3389E+00  0.3389E+00
      8.377  0.2122E-01  0.2122E-01  0.3412E+00  0.3412E+00
      8.484  0.3222E-01  0.3222E-01  0.3446E+00  0.3446E+00
      8.591  0.3248E-01  0.3248E-01  0.3481E+00  0.3481E+00
      8.698  0.2488E-01  0.2488E-01  0.3508E+00  0.3508E+00
      8.805  0.2369E-01  0.2369E-01  0.3533E+00  0.3533E+00
      8.912  0.2131E-01  0.2131E-01  0.3556E+00  0.3556E+00
      9.019  0.3869E-01  0.3869E-01  0.3597E+00  0.3597E+00
      9.126  0.4239E-01  0.4239E-01  0.3643E+00  0.3643E+00
      9.233  0.3155E-01  0.3155E-01  0.3676E+00  0.3676E+00
      9.340  0.2232E-01  0.2232E-01  0.3700E+00  0.3700E+00
      9.447  0.1275E-01  0.1275E-01  0.3714E+00  0.3714E+00
      9.554  0.1838E-01  0.1837E-01  0.3734E+00  0.3734E+00
      9.661  0.1324E-01  0.1325E-01  0.3748E+00  0.3748E+00
      9.768  0.1943E-02  0.1945E-02  0.3750E+00  0.3750E+00
      9.875  0.4881E-04  0.4884E-04  0.3750E+00  0.3750E+00
      9.982  0.1770E-06  0.1770E-06  0.3750E+00  0.3750E+00
     10.089  0.8067E-10  0.8066E-10  0.3750E+00  0.3750E+00
     10.196  0.4256E-14  0.4255E-14  0.3750E+00  0.3750E+00
     10.303  0.0000E+00  0.0000E+00  0.3750E+00  0.3750E+00
     10.410  0.0000E+00  0.0000E+00  0.3750E+00  0.3750E+00
     10.517  0.0000E+00  0.0000E+00  0.3750E+00  0.3750E+00
     10.624  0.0000E+00  0.0000E+00  0.3750E+00  0.3750E+00
     10.732  0.0000E+00  0.0000E+00  0.3750E+00  0.3750E+00
     10.839  0.0000E+00  0.0000E+00  0.3750E+00  0.3750E+00
     10.946  0.0000E+00  0.0000E+00  0.3750E+00  0.3750E+00
     11.053  0.0000E+00  0.0000E+00  0.3750E+00  0.3750E+00
