 ----------------------------------------------------
    OOO  PPPP  EEEEE N   N M   M PPPP
   O   O P   P E     NN  N MM MM P   P
   O   O PPPP  EEEEE N N N M M M PPPP   -- VERSION
   O   O P     E     N  NN M   M P
    OOO  P     EEEEE N   N M   M P
 ----------------------------------------------------
 running   24 mpi-ranks, with    1 threads/rank
 distrk:  each k-point on   24 cores,    1 groups
 distr:  one band on    1 cores,   24 groups
 vasp.6.3.2 27Jun22 (build Dec 22 2022 13:13:19) complex                        
  
 POSCAR found type information on POSCAR B C 
 POSCAR found :  2 types and      16 ions
 Reading from existing POTCAR
 scaLAPACK will be used
 Reading from existing POTCAR
 LDA part: xc-table for Pade appr. of Perdew
 POSCAR found type information on POSCAR B C 
 POSCAR found :  2 types and      16 ions
 POSCAR, INCAR and KPOINTS ok, starting setup
 FFT: planning ... GRIDC
 FFT: planning ... GRID_SOFT
 FFT: planning ... GRID
 WAVECAR not read
 entering main loop
       N       E                     dE             d eps       ncg     rms          rms(c)
DAV:   1     0.320095837844E+03    0.32010E+03   -0.26365E+04 52320   0.959E+02
DAV:   2    -0.119410872750E+03   -0.43951E+03   -0.43157E+03 65736   0.227E+02
DAV:   3    -0.151511896621E+03   -0.32101E+02   -0.31929E+02 77832   0.701E+01
DAV:   4    -0.151988669115E+03   -0.47677E+00   -0.47630E+00 73008   0.986E+00
DAV:   5    -0.152004788423E+03   -0.16119E-01   -0.16113E-01 76560   0.157E+00    0.184E+01
DAV:   6    -0.143465902729E+03    0.85389E+01   -0.91214E+00 77736   0.101E+01    0.106E+01
DAV:   7    -0.140535949545E+03    0.29300E+01   -0.86327E+00 78264   0.977E+00    0.300E+00
DAV:   8    -0.140494720416E+03    0.41229E-01   -0.32980E-01 74256   0.194E+00    0.826E-01
DAV:   9    -0.140479058205E+03    0.15662E-01   -0.23500E-02 70800   0.595E-01    0.211E-01
DAV:  10    -0.140469989509E+03    0.90687E-02   -0.61598E-03 70824   0.262E-01    0.117E-01
DAV:  11    -0.140462708337E+03    0.72812E-02   -0.77874E-03 71808   0.247E-01    0.614E-02
DAV:  12    -0.140462172417E+03    0.53592E-03   -0.18692E-03 60672   0.114E-01    0.499E-02
DAV:  13    -0.140464499372E+03   -0.23270E-02   -0.64926E-04 61464   0.797E-02    0.201E-02
DAV:  14    -0.140466539040E+03   -0.20397E-02   -0.22244E-04 65760   0.390E-02    0.110E-02
DAV:  15    -0.140467464963E+03   -0.92592E-03   -0.89254E-05 64728   0.211E-02    0.497E-03
DAV:  16    -0.140467676500E+03   -0.21154E-03   -0.18929E-05 65400   0.989E-03    0.145E-03
DAV:  17    -0.140467707149E+03   -0.30649E-04   -0.21269E-06 66288   0.328E-03    0.635E-04
DAV:  18    -0.140467714365E+03   -0.72156E-05   -0.33263E-07 50256   0.155E-03    0.278E-04
DAV:  19    -0.140467716571E+03   -0.22062E-05   -0.15799E-07 47856   0.872E-04    0.120E-04
DAV:  20    -0.140467717196E+03   -0.62495E-06   -0.27137E-08 58272   0.397E-04
   1 F= -.14222610E+03 E0= -.14222514E+03  d E =-.142226E+03
 curvature:   0.00 expect dE= 0.000E+00 dE for cont linesearch  0.000E+00
 trial: gam= 0.00000 g(F)=  0.952E-01 g(S)=  0.000E+00 ort = 0.000E+00 (trialstep = 0.100E+01)
 search vector abs. value=  0.952E-01
 bond charge predicted
       N       E                     dE             d eps       ncg     rms          rms(c)
DAV:   1    -0.140417074695E+03    0.50642E-01   -0.14967E+01 52320   0.127E+01    0.110E+00
DAV:   2    -0.140387888938E+03    0.29186E-01   -0.27786E-01 70512   0.184E+00    0.575E-01
DAV:   3    -0.140383914410E+03    0.39745E-02   -0.48838E-02 75600   0.676E-01    0.252E-01
DAV:   4    -0.140383972895E+03   -0.58485E-04   -0.72857E-03 65376   0.234E-01    0.109E-01
DAV:   5    -0.140383947358E+03    0.25537E-04   -0.59990E-04 64536   0.871E-02    0.191E-02
DAV:   6    -0.140383949059E+03   -0.17014E-05   -0.10446E-04 74448   0.342E-02    0.123E-02
DAV:   7    -0.140383959329E+03   -0.10270E-04   -0.18666E-05 78264   0.142E-02    0.271E-03
DAV:   8    -0.140383967410E+03   -0.80805E-05   -0.25579E-06 68712   0.516E-03    0.177E-03
DAV:   9    -0.140383979116E+03   -0.11706E-04   -0.14797E-06 60096   0.283E-03    0.144E-03
DAV:  10    -0.140383981680E+03   -0.25642E-05   -0.17745E-07 55896   0.114E-03    0.122E-03
DAV:  11    -0.140383986687E+03   -0.50068E-05   -0.71946E-07 57216   0.160E-03    0.574E-04
DAV:  12    -0.140383986993E+03   -0.30667E-06   -0.18100E-08 61608   0.367E-04
   2 F= -.14214737E+03 E0= -.14214599E+03  d E =0.787306E-01
 trial-energy change:    0.078731  1 .order    0.077495   -0.095207    0.250196
 step:   0.2714(harm=  0.2756)  dis= 0.00754  next Energy=  -142.238991 (dE=-0.129E-01)
 bond charge predicted
       N       E                     dE             d eps       ncg     rms          rms(c)
DAV:   1    -0.140496310715E+03   -0.11232E+00   -0.79018E+00 52320   0.913E+00    0.827E-01
DAV:   2    -0.140481318498E+03    0.14992E-01   -0.14541E-01 70488   0.136E+00    0.409E-01
DAV:   3    -0.140478988866E+03    0.23296E-02   -0.28723E-02 71136   0.508E-01    0.163E-01
DAV:   4    -0.140478968759E+03    0.20107E-04   -0.39303E-03 68520   0.173E-01    0.773E-02
DAV:   5    -0.140478961113E+03    0.76455E-05   -0.16016E-04 57384   0.504E-02    0.122E-02
DAV:   6    -0.140478960359E+03    0.75412E-06   -0.44006E-05 75408   0.217E-02    0.762E-03
DAV:   7    -0.140478964274E+03   -0.39149E-05   -0.90994E-06 76248   0.107E-02    0.236E-03
DAV:   8    -0.140478967199E+03   -0.29250E-05   -0.13412E-06 60648   0.404E-03    0.108E-03
DAV:   9    -0.140478975344E+03   -0.81449E-05   -0.64519E-07 45048   0.213E-03    0.643E-04
DAV:  10    -0.140478977862E+03   -0.25182E-05   -0.10515E-07 50520   0.891E-04    0.498E-04
DAV:  11    -0.140478980358E+03   -0.24965E-05   -0.13444E-07 43032   0.720E-04    0.169E-04
DAV:  12    -0.140478980761E+03   -0.40262E-06   -0.12535E-08 58008   0.282E-04
   3 F= -.14223898E+03 E0= -.14223789E+03  d E =-.128831E-01
 curvature:  -0.14 expect dE=-0.775E-04 dE for cont linesearch -0.351E-08
 trial: gam= 0.00643 g(F)=  0.563E-03 g(S)=  0.000E+00 ort =-0.493E-04 (trialstep = 0.854E+00)
 search vector abs. value=  0.566E-03
 bond charge predicted
       N       E                     dE             d eps       ncg     rms          rms(c)
DAV:   1    -0.140478787646E+03    0.19271E-03   -0.45832E-02 52320   0.902E-01    0.467E-02
DAV:   2    -0.140478782480E+03    0.51657E-05   -0.62063E-04 65736   0.109E-01    0.294E-02
DAV:   3    -0.140478780706E+03    0.17743E-05   -0.55779E-05 63480   0.359E-02    0.689E-03
DAV:   4    -0.140478781768E+03   -0.10623E-05   -0.16921E-05 58632   0.147E-02    0.343E-03
DAV:   5    -0.140478782910E+03   -0.11416E-05   -0.49300E-07 42144   0.353E-03    0.788E-04
DAV:   6    -0.140478782857E+03    0.53319E-07   -0.14524E-07 59616   0.176E-03
   4 F= -.14223945E+03 E0= -.14223836E+03  d E =-.472657E-03
 ZBRENT: can't locate minimum, use default step
 trial-energy change:   -0.000473  1 .order   -0.000472   -0.000480   -0.000464
 step:   3.4171(harm= 24.5277)  dis= 0.00611  next Energy=  -142.245874 (dE=-0.690E-02)
 bond charge predicted
       N       E                     dE             d eps       ncg     rms          rms(c)
DAV:   1    -0.140478131787E+03    0.65112E-03   -0.41252E-01 52320   0.271E+00    0.140E-01
DAV:   2    -0.140478114737E+03    0.17050E-04   -0.55888E-03 60024   0.326E-01    0.882E-02
DAV:   3    -0.140478077516E+03    0.37221E-04   -0.50236E-04 57576   0.108E-01    0.208E-02
DAV:   4    -0.140478082371E+03   -0.48546E-05   -0.15134E-04 73152   0.439E-02    0.102E-02
DAV:   5    -0.140478087732E+03   -0.53611E-05   -0.50027E-06 72696   0.103E-02    0.238E-03
DAV:   6    -0.140478087469E+03    0.26254E-06   -0.75838E-07 61272   0.350E-03
   5 F= -.14224077E+03 E0= -.14223970E+03  d E =-.179575E-02
 curvature:  -2.53 expect dE=-0.177E-02 dE for cont linesearch -0.106E-02
 ZBRENT: increasing intervall
 opt :   8.5428  next Energy=  -142.242987 (dE=-0.401E-02)
 bond charge predicted
       N       E                     dE             d eps       ncg     rms          rms(c)
DAV:   1    -0.140476418939E+03    0.16688E-02   -0.16499E+00 52320   0.541E+00    0.280E-01
DAV:   2    -0.140476423908E+03   -0.49690E-05   -0.22426E-02 65784   0.652E-01    0.176E-01
DAV:   3    -0.140476223183E+03    0.20073E-03   -0.19923E-03 58080   0.215E-01    0.418E-02
DAV:   4    -0.140476241514E+03   -0.18330E-04   -0.60109E-04 70872   0.874E-02    0.203E-02
DAV:   5    -0.140476249563E+03   -0.80494E-05   -0.19955E-05 77352   0.203E-02    0.442E-03
DAV:   6    -0.140476249088E+03    0.47468E-06   -0.25815E-06 71616   0.621E-03
   6 F= -.14224300E+03 E0= -.14224194E+03  d E =-.402451E-02
 curvature:  -5.28 expect dE=-0.106E-01 dE for cont linesearch -0.134E-02
 ZBRENT: increasing intervall
 opt :  18.7941  next Energy=  -142.245783 (dE=-0.680E-02)
 bond charge predicted
       N       E                     dE             d eps       ncg     rms          rms(c)
DAV:   1    -0.140471368564E+03    0.48810E-02   -0.65963E+00 52320   0.108E+01    0.563E-01
DAV:   2    -0.140471698361E+03   -0.32980E-03   -0.90511E-02 67848   0.131E+00    0.353E-01
DAV:   3    -0.140470645272E+03    0.10531E-02   -0.77430E-03 60384   0.422E-01    0.886E-02
DAV:   4    -0.140470751142E+03   -0.10587E-03   -0.22454E-03 71328   0.167E-01    0.405E-02
DAV:   5    -0.140470785120E+03   -0.33978E-04   -0.73132E-05 79752   0.366E-02    0.863E-03
DAV:   6    -0.140470782796E+03    0.23237E-05   -0.63899E-06 73200   0.930E-03    0.399E-03
DAV:   7    -0.140470787427E+03   -0.46308E-05   -0.15012E-06 62832   0.449E-03    0.133E-03
DAV:   8    -0.140470793915E+03   -0.64878E-05   -0.91250E-07 61296   0.266E-03    0.137E-03
DAV:   9    -0.140470799274E+03   -0.53594E-05   -0.41051E-07 55344   0.152E-03    0.381E-04
DAV:  10    -0.140470802740E+03   -0.34661E-05   -0.34669E-07 54984   0.118E-03    0.435E-04
DAV:  11    -0.140470803790E+03   -0.10503E-05   -0.72869E-08 55584   0.643E-04    0.183E-04
DAV:  12    -0.140470804285E+03   -0.49446E-06   -0.24599E-08 47808   0.366E-04
   7 F= -.14224581E+03 E0= -.14224480E+03  d E =-.683481E-02
 curvature: -10.94 expect dE=-0.933E-01 dE for cont linesearch -0.526E-03
 ZBRENT: increasing intervall
 opt :  39.2968  next Energy=  -142.244807 (dE=-0.583E-02)
 bond charge predicted
       N       E                     dE             d eps       ncg     rms          rms(c)
DAV:   1    -0.140453612283E+03    0.17192E-01   -0.26339E+01 52320   0.216E+01    0.115E+00
DAV:   2    -0.140456172650E+03   -0.25604E-02   -0.37545E-01 66408   0.267E+00    0.710E-01
DAV:   3    -0.140452086304E+03    0.40863E-02   -0.28077E-02 66960   0.793E-01    0.224E-01
DAV:   4    -0.140452573859E+03   -0.48755E-03   -0.71942E-03 69456   0.292E-01    0.856E-02
DAV:   5    -0.140452651860E+03   -0.78002E-04   -0.25312E-04 81096   0.635E-02    0.223E-02
DAV:   6    -0.140452643220E+03    0.86406E-05   -0.18271E-05 75000   0.176E-02    0.831E-03
DAV:   7    -0.140452656986E+03   -0.13767E-04   -0.62804E-06 63288   0.895E-03    0.265E-03
DAV:   8    -0.140452670818E+03   -0.13832E-04   -0.21528E-06 63744   0.455E-03    0.213E-03
DAV:   9    -0.140452680795E+03   -0.99762E-05   -0.11585E-06 65088   0.252E-03    0.912E-04
DAV:  10    -0.140452688795E+03   -0.80001E-05   -0.10161E-06 64632   0.203E-03    0.692E-04
DAV:  11    -0.140452691664E+03   -0.28693E-05   -0.26419E-07 56232   0.116E-03    0.324E-04
DAV:  12    -0.140452692523E+03   -0.85887E-06   -0.68464E-08 52608   0.632E-04
   8 F= -.14224469E+03 E0= -.14224378E+03  d E =-.571366E-02
 curvature:  20.92 expect dE= 0.778E+00 dE for cont linesearch  0.281E-02
 ZBRENT: bracketing found
 ZBRENT: interpolating
 opt :  26.4706  next Energy=  -142.246447 (dE=-0.747E-02)
 bond charge predicted
       N       E                     dE             d eps       ncg     rms          rms(c)
DAV:   1    -0.140465969692E+03   -0.13278E-01   -0.10321E+01 52320   0.135E+01    0.716E-01
DAV:   2    -0.140466337706E+03   -0.36801E-03   -0.14156E-01 60240   0.164E+00    0.442E-01
DAV:   3    -0.140464847565E+03    0.14901E-02   -0.11752E-02 70032   0.514E-01    0.127E-01
DAV:   4    -0.140465078574E+03   -0.23101E-03   -0.31980E-03 59328   0.196E-01    0.559E-02
DAV:   5    -0.140465133764E+03   -0.55191E-04   -0.10324E-04 86232   0.424E-02    0.139E-02
DAV:   6    -0.140465133469E+03    0.29495E-06   -0.65349E-06 71784   0.972E-03
   9 F= -.14224643E+03 E0= -.14224545E+03  d E =-.745077E-02
 curvature:  -4.72 expect dE=-0.793E-01 dE for cont linesearch -0.236E-06
 trial: gam=29.90450 g(F)=  0.168E-01 g(S)=  0.000E+00 ort = 0.532E-05 (trialstep = 0.647E-02)
 search vector abs. value=  0.523E+00
 bond charge predicted
       N       E                     dE             d eps       ncg     rms          rms(c)
DAV:   1    -0.140465079057E+03    0.54708E-04   -0.24467E-03 58608   0.209E-01    0.105E-02
DAV:   2    -0.140465081319E+03   -0.22618E-05   -0.33565E-05 66912   0.249E-02    0.657E-03
DAV:   3    -0.140465084534E+03   -0.32156E-05   -0.32656E-06 70320   0.834E-03    0.174E-03
DAV:   4    -0.140465086903E+03   -0.23687E-05   -0.82494E-07 67344   0.325E-03    0.850E-04
DAV:   5    -0.140465090959E+03   -0.40559E-05   -0.11256E-07 53256   0.107E-03    0.489E-04
DAV:   6    -0.140465095801E+03   -0.48422E-05   -0.13262E-07 46608   0.932E-04    0.226E-04
DAV:   7    -0.140465098942E+03   -0.31410E-05   -0.12955E-07 45744   0.760E-04    0.180E-04
DAV:   8    -0.140465099409E+03   -0.46744E-06   -0.54296E-09 57552   0.252E-04
  10 F= -.14224656E+03 E0= -.14224558E+03  d E =-.130563E-03
 ZBRENT: can't locate minimum, use default step
 trial-energy change:   -0.000131  1 .order   -0.000109   -0.000110   -0.000109
 step:   0.0259(harm=  0.5412)  dis= 0.00119  next Energy=  -142.251027 (dE=-0.460E-02)
 bond charge predicted
       N       E                     dE             d eps       ncg     rms          rms(c)
DAV:   1    -0.140464930918E+03    0.16802E-03   -0.22298E-02 53688   0.630E-01    0.325E-02
DAV:   2    -0.140464927436E+03    0.34822E-05   -0.30735E-04 63432   0.762E-02    0.205E-02
DAV:   3    -0.140464927450E+03   -0.14634E-07   -0.27543E-05 64584   0.251E-02    0.491E-03
DAV:   4    -0.140464927983E+03   -0.53311E-06   -0.82690E-06 60432   0.102E-02
  11 F= -.14224688E+03 E0= -.14224591E+03  d E =-.453363E-03
 curvature:  -0.59 expect dE=-0.963E-02 dE for cont linesearch -0.310E-03
 ZBRENT: increasing intervall
 opt :   0.0647  next Energy=  -142.247514 (dE=-0.108E-02)
 bond charge predicted
       N       E                     dE             d eps       ncg     rms          rms(c)
DAV:   1    -0.140464578031E+03    0.34942E-03   -0.89169E-02 52320   0.126E+00    0.646E-02
DAV:   2    -0.140464575130E+03    0.29010E-05   -0.12220E-03 52800   0.152E-01    0.410E-02
DAV:   3    -0.140464566234E+03    0.88957E-05   -0.11024E-04 57336   0.501E-02    0.984E-03
DAV:   4    -0.140464568747E+03   -0.25124E-05   -0.32625E-05 72720   0.203E-02    0.480E-03
DAV:   5    -0.140464569955E+03   -0.12082E-05   -0.10266E-06 58608   0.479E-03    0.112E-03
DAV:   6    -0.140464569908E+03    0.46643E-07   -0.22330E-07 62280   0.199E-03
  12 F= -.14224752E+03 E0= -.14224654E+03  d E =-.108536E-02
 curvature:  -1.21 expect dE=-0.187E-01 dE for cont linesearch -0.592E-03
 ZBRENT: increasing intervall
 opt :   0.1422  next Energy=  -142.248718 (dE=-0.229E-02)
 bond charge predicted
       N       E                     dE             d eps       ncg     rms          rms(c)
DAV:   1    -0.140463827790E+03    0.74217E-03   -0.35677E-01 52320   0.252E+00    0.130E-01
DAV:   2    -0.140463827280E+03    0.50936E-06   -0.49282E-03 61848   0.305E-01    0.822E-02
DAV:   3    -0.140463782050E+03    0.45230E-04   -0.44108E-04 57480   0.101E-01    0.196E-02
DAV:   4    -0.140463786477E+03   -0.44269E-05   -0.13388E-04 67680   0.412E-02    0.964E-03
DAV:   5    -0.140463790816E+03   -0.43384E-05   -0.43910E-06 72192   0.976E-03    0.227E-03
DAV:   6    -0.140463790640E+03    0.17570E-06   -0.74322E-07 61176   0.350E-03
  13 F= -.14224872E+03 E0= -.14224776E+03  d E =-.229266E-02
 curvature:  -2.45 expect dE=-0.351E-01 dE for cont linesearch -0.106E-02
 ZBRENT: increasing intervall
 opt :   0.2974  next Energy=  -142.250896 (dE=-0.447E-02)
 bond charge predicted
       N       E                     dE             d eps       ncg     rms          rms(c)
DAV:   1    -0.140462123322E+03    0.16675E-02   -0.14269E+00 52320   0.504E+00    0.260E-01
DAV:   2    -0.140462142256E+03   -0.18934E-04   -0.19770E-02 65880   0.611E-01    0.164E-01
DAV:   3    -0.140461960686E+03    0.18157E-03   -0.17485E-03 58080   0.201E-01    0.394E-02
DAV:   4    -0.140461972479E+03   -0.11794E-04   -0.53035E-04 68112   0.821E-02    0.192E-02
DAV:   5    -0.140461980290E+03   -0.78105E-05   -0.17300E-05 77304   0.191E-02    0.424E-03
DAV:   6    -0.140461979772E+03    0.51813E-06   -0.25580E-06 72024   0.627E-03
  14 F= -.14225091E+03 E0= -.14224996E+03  d E =-.448045E-02
 curvature:  -5.05 expect dE=-0.690E-01 dE for cont linesearch -0.165E-02
 ZBRENT: increasing intervall
 opt :   0.6077  next Energy=  -142.254368 (dE=-0.794E-02)
 bond charge predicted
       N       E                     dE             d eps       ncg     rms          rms(c)
DAV:   1    -0.140457844922E+03    0.41354E-02   -0.57057E+00 52320   0.101E+01    0.522E-01
DAV:   2    -0.140458160359E+03   -0.31544E-03   -0.79687E-02 67560   0.123E+00    0.329E-01
DAV:   3    -0.140457233089E+03    0.92727E-03   -0.68153E-03 59304   0.396E-01    0.828E-02
DAV:   4    -0.140457319884E+03   -0.86796E-04   -0.19916E-03 69360   0.157E-01    0.381E-02
DAV:   5    -0.140457339907E+03   -0.20022E-04   -0.64401E-05 79824   0.347E-02    0.799E-03
DAV:   6    -0.140457337688E+03    0.22189E-05   -0.63477E-06 72792   0.939E-03    0.364E-03
DAV:   7    -0.140457340791E+03   -0.31030E-05   -0.94718E-07 54528   0.375E-03    0.107E-03
DAV:   8    -0.140457346234E+03   -0.54437E-05   -0.88742E-07 62304   0.272E-03    0.138E-03
DAV:   9    -0.140457351619E+03   -0.53848E-05   -0.46552E-07 56544   0.183E-03    0.356E-04
DAV:  10    -0.140457354348E+03   -0.27289E-05   -0.22439E-07 55608   0.104E-03    0.307E-04
DAV:  11    -0.140457355664E+03   -0.13155E-05   -0.10204E-07 54312   0.704E-04    0.235E-04
DAV:  12    -0.140457356172E+03   -0.50807E-06   -0.26824E-08 49560   0.392E-04
  15 F= -.14225439E+03 E0= -.14225348E+03  d E =-.795577E-02
 curvature: -10.58 expect dE=-0.202E+00 dE for cont linesearch -0.171E-02
 ZBRENT: increasing intervall
 opt :   1.2284  next Energy=  -142.257672 (dE=-0.112E-01)
 bond charge predicted
       N       E                     dE             d eps       ncg     rms          rms(c)
DAV:   1    -0.140444890401E+03    0.12465E-01   -0.22795E+01 52320   0.202E+01    0.106E+00
DAV:   2    -0.140447229791E+03   -0.23394E-02   -0.32877E-01 64176   0.250E+00    0.662E-01
DAV:   3    -0.140443384392E+03    0.38454E-02   -0.24959E-02 63984   0.749E-01    0.204E-01
DAV:   4    -0.140443816618E+03   -0.43223E-03   -0.64907E-03 66528   0.278E-01    0.789E-02
DAV:   5    -0.140443878217E+03   -0.61599E-04   -0.22485E-04 81048   0.598E-02    0.209E-02
DAV:   6    -0.140443869461E+03    0.87559E-05   -0.17000E-05 74544   0.169E-02    0.758E-03
DAV:   7    -0.140443877271E+03   -0.78097E-05   -0.35288E-06 64824   0.718E-03    0.212E-03
DAV:   8    -0.140443888622E+03   -0.11352E-04   -0.21313E-06 62424   0.453E-03    0.222E-03
DAV:   9    -0.140443899215E+03   -0.10593E-04   -0.13449E-06 64488   0.292E-03    0.926E-04
DAV:  10    -0.140443905767E+03   -0.65514E-05   -0.70299E-07 63288   0.181E-03    0.602E-04
DAV:  11    -0.140443908979E+03   -0.32124E-05   -0.30634E-07 54648   0.120E-03    0.398E-04
DAV:  12    -0.140443909909E+03   -0.92939E-06   -0.75298E-08 54768   0.665E-04
  16 F= -.14225754E+03 E0= -.14225673E+03  d E =-.111094E-01
 curvature: -20.38 expect dE=-0.115E+01 dE for cont linesearch -0.362E-04
 trial: gam= 3.24252 g(F)=  0.564E-01 g(S)=  0.000E+00 ort = 0.965E-03 (trialstep = 0.236E-01)
 search vector abs. value=  0.556E+01
 bond charge predicted
       N       E                     dE             d eps       ncg     rms          rms(c)
DAV:   1    -0.140443225452E+03    0.68353E-03   -0.35292E-01 52320   0.251E+00    0.129E-01
DAV:   2    -0.140443230015E+03   -0.45623E-05   -0.48370E-03 63648   0.303E-01    0.815E-02
DAV:   3    -0.140443180148E+03    0.49867E-04   -0.43630E-04 56256   0.100E-01    0.194E-02
DAV:   4    -0.140443184688E+03   -0.45403E-05   -0.13360E-04 67344   0.412E-02    0.957E-03
DAV:   5    -0.140443188235E+03   -0.35467E-05   -0.41988E-06 70728   0.967E-03    0.227E-03
DAV:   6    -0.140443187955E+03    0.27976E-06   -0.74634E-07 59280   0.355E-03
  17 F= -.14225892E+03 E0= -.14225812E+03  d E =-.137714E-02
 ZBRENT: can't locate minimum, use default step
 trial-energy change:   -0.001377  1 .order   -0.001375   -0.001404   -0.001346
 step:   0.0944(harm=  0.5700)  dis= 0.01311  next Energy=  -142.274500 (dE=-0.170E-01)
 bond charge predicted
       N       E                     dE             d eps       ncg     rms          rms(c)
DAV:   1    -0.140440978419E+03    0.22098E-02   -0.31763E+00 52320   0.753E+00    0.387E-01
DAV:   2    -0.140441089565E+03   -0.11115E-03   -0.43900E-02 62760   0.912E-01    0.245E-01
DAV:   3    -0.140440612562E+03    0.47700E-03   -0.38664E-03 56448   0.298E-01    0.595E-02
DAV:   4    -0.140440649726E+03   -0.37164E-04   -0.11543E-03 68496   0.120E-01    0.281E-02
DAV:   5    -0.140440660204E+03   -0.10478E-04   -0.35977E-05 78672   0.269E-02    0.590E-03
DAV:   6    -0.140440658984E+03    0.12206E-05   -0.45644E-06 72120   0.825E-03    0.264E-03
DAV:   7    -0.140440660549E+03   -0.15655E-05   -0.65493E-07 56328   0.311E-03    0.823E-04
DAV:   8    -0.140440663983E+03   -0.34341E-05   -0.40104E-07 51864   0.187E-03    0.102E-03
DAV:   9    -0.140440667068E+03   -0.30849E-05   -0.21734E-07 53688   0.127E-03    0.292E-04
DAV:  10    -0.140440668585E+03   -0.15169E-05   -0.12858E-07 54984   0.819E-04    0.312E-04
DAV:  11    -0.140440669201E+03   -0.61609E-06   -0.37356E-08 53592   0.502E-04
  18 F= -.14226274E+03 E0= -.14226198E+03  d E =-.520400E-02
 curvature:  -6.45 expect dE=-0.265E+00 dE for cont linesearch -0.299E-02
 ZBRENT: increasing intervall
 opt :   0.2359  next Energy=  -142.269034 (dE=-0.115E-01)
 bond charge predicted
       N       E                     dE             d eps       ncg     rms          rms(c)
DAV:   1    -0.140434910333E+03    0.57583E-02   -0.12696E+01 52320   0.150E+01    0.781E-01
DAV:   2    -0.140435866592E+03   -0.95626E-03   -0.17859E-01 63216   0.184E+00    0.491E-01
DAV:   3    -0.140433706030E+03    0.21606E-02   -0.14679E-02 60000   0.578E-01    0.133E-01
DAV:   4    -0.140433922105E+03   -0.21608E-03   -0.40713E-03 68592   0.222E-01    0.564E-02
DAV:   5    -0.140433959626E+03   -0.37521E-04   -0.12832E-04 80712   0.468E-02    0.134E-02
DAV:   6    -0.140433954733E+03    0.48934E-05   -0.10027E-05 76008   0.122E-02    0.554E-03
DAV:   7    -0.140433958496E+03   -0.37631E-05   -0.23117E-06 64272   0.596E-03    0.155E-03
DAV:   8    -0.140433965925E+03   -0.74284E-05   -0.12091E-06 61584   0.342E-03    0.173E-03
DAV:   9    -0.140433972200E+03   -0.62752E-05   -0.57544E-07 58824   0.191E-03    0.503E-04
DAV:  10    -0.140433976662E+03   -0.44622E-05   -0.42371E-07 58632   0.135E-03    0.466E-04
DAV:  11    -0.140433978499E+03   -0.18373E-05   -0.16098E-07 54648   0.880E-04    0.291E-04
DAV:  12    -0.140433979057E+03   -0.55746E-06   -0.38517E-08 50304   0.468E-04
  19 F= -.14226896E+03 E0= -.14226827E+03  d E =-.114219E-01
 curvature: -13.59 expect dE=-0.365E+00 dE for cont linesearch -0.334E-02
 ZBRENT: increasing intervall
 opt :   0.5190  next Energy=  -142.275527 (dE=-0.180E-01)
 bond charge predicted
       N       E                     dE             d eps       ncg     rms          rms(c)
DAV:   1    -0.140412547815E+03    0.21431E-01   -0.50662E+01 52320   0.301E+01    0.163E+00
DAV:   2    -0.140421274459E+03   -0.87266E-02   -0.76307E-01 62376   0.381E+00    0.993E-01
DAV:   3    -0.140412486187E+03    0.87883E-02   -0.50810E-02 73104   0.105E+00    0.383E-01
DAV:   4    -0.140413364837E+03   -0.87865E-03   -0.11806E-02 66696   0.384E-01    0.125E-01
DAV:   5    -0.140413439009E+03   -0.74172E-04   -0.46669E-04 81456   0.852E-02    0.263E-02
DAV:   6    -0.140413426435E+03    0.12574E-04   -0.28804E-05 74904   0.220E-02    0.114E-02
DAV:   7    -0.140413445284E+03   -0.18849E-04   -0.14025E-05 64656   0.133E-02    0.389E-03
DAV:   8    -0.140413463366E+03   -0.18081E-04   -0.30418E-06 63816   0.562E-03    0.319E-03
DAV:   9    -0.140413481121E+03   -0.17755E-04   -0.25208E-06 63552   0.404E-03    0.129E-03
DAV:  10    -0.140413490764E+03   -0.96430E-05   -0.13440E-06 65472   0.248E-03    0.841E-04
DAV:  11    -0.140413495450E+03   -0.46862E-05   -0.59449E-07 60840   0.170E-03    0.467E-04
DAV:  12    -0.140413496468E+03   -0.10176E-05   -0.97710E-08 56544   0.806E-04    0.185E-04
DAV:  13    -0.140413496961E+03   -0.49383E-06   -0.39273E-08 45984   0.463E-04
  20 F= -.14227514E+03 E0= -.14227461E+03  d E =-.176003E-01
 curvature: -26.72 expect dE=-0.802E+00 dE for cont linesearch -0.169E-03
 trial: gam= 0.39604 g(F)=  0.300E-01 g(S)=  0.000E+00 ort = 0.593E-02 (trialstep = 0.123E+00)
 search vector abs. value=  0.907E+00
 bond charge predicted
       N       E                     dE             d eps       ncg     rms          rms(c)
DAV:   1    -0.140412543475E+03    0.95299E-03   -0.15805E+00 52320   0.533E+00    0.270E-01
DAV:   2    -0.140412585820E+03   -0.42345E-04   -0.21524E-02 62040   0.642E-01    0.171E-01
DAV:   3    -0.140412364821E+03    0.22100E-03   -0.19550E-03 55920   0.213E-01    0.418E-02
DAV:   4    -0.140412378971E+03   -0.14150E-04   -0.58913E-04 69072   0.870E-02    0.204E-02
DAV:   5    -0.140412388139E+03   -0.91687E-05   -0.18349E-05 75408   0.197E-02    0.459E-03
DAV:   6    -0.140412386964E+03    0.11749E-05   -0.30317E-06 73704   0.696E-03    0.176E-03
DAV:   7    -0.140412387232E+03   -0.26809E-06   -0.23169E-07 55296   0.200E-03
  21 F= -.14227875E+03 E0= -.14227825E+03  d E =-.361308E-02
 ZBRENT: can't locate minimum, use default step
 trial-energy change:   -0.003613  1 .order   -0.003614   -0.003971   -0.003256
 step:   0.4907(harm=  0.6819)  dis= 0.02650  next Energy=  -142.286176 (dE=-0.110E-01)
 bond charge predicted
       N       E                     dE             d eps       ncg     rms          rms(c)
DAV:   1    -0.140405555014E+03    0.68319E-02   -0.14215E+01 52320   0.160E+01    0.819E-01
DAV:   2    -0.140406712011E+03   -0.11570E-02   -0.19881E-01 64944   0.195E+00    0.516E-01
DAV:   3    -0.140404297860E+03    0.24142E-02   -0.16438E-02 63024   0.612E-01    0.142E-01
DAV:   4    -0.140404520539E+03   -0.22268E-03   -0.45070E-03 68928   0.235E-01    0.603E-02
DAV:   5    -0.140404562289E+03   -0.41751E-04   -0.14820E-04 80736   0.500E-02    0.147E-02
DAV:   6    -0.140404559291E+03    0.29983E-05   -0.12164E-05 74904   0.138E-02    0.563E-03
DAV:   7    -0.140404561456E+03   -0.21645E-05   -0.19601E-06 67536   0.583E-03    0.219E-03
DAV:   8    -0.140404568018E+03   -0.65620E-05   -0.16608E-06 63456   0.450E-03    0.162E-03
DAV:   9    -0.140404573968E+03   -0.59510E-05   -0.63819E-07 58848   0.241E-03    0.110E-03
DAV:  10    -0.140404579643E+03   -0.56745E-05   -0.60288E-07 63360   0.181E-03    0.452E-04
DAV:  11    -0.140404582414E+03   -0.27714E-05   -0.25559E-07 53112   0.110E-03    0.436E-04
DAV:  12    -0.140404582991E+03   -0.57646E-06   -0.42104E-08 58440   0.525E-04
  22 F= -.14228529E+03 E0= -.14228486E+03  d E =-.101536E-01
 curvature:  -8.44 expect dE=-0.979E-01 dE for cont linesearch -0.729E-03
 ZBRENT: increasing intervall
 opt :   1.2267  next Energy=  -142.278788 (dE=-0.365E-02)
 bond charge predicted
       N       E                     dE             d eps       ncg     rms          rms(c)
DAV:   1    -0.140366192233E+03    0.38390E-01   -0.56720E+01 52320   0.319E+01    0.172E+00
DAV:   2    -0.140376650881E+03   -0.10459E-01   -0.85664E-01 64032   0.406E+00    0.105E+00
DAV:   3    -0.140366937362E+03    0.97135E-02   -0.56582E-02 73704   0.111E+00    0.416E-01
DAV:   4    -0.140367902574E+03   -0.96521E-03   -0.12879E-02 69912   0.408E-01    0.132E-01
DAV:   5    -0.140368015755E+03   -0.11318E-03   -0.52620E-04 82536   0.915E-02    0.280E-02
DAV:   6    -0.140367994421E+03    0.21334E-04   -0.39038E-05 76248   0.259E-02    0.113E-02
DAV:   7    -0.140368004259E+03   -0.98374E-05   -0.86507E-06 68328   0.114E-02    0.404E-03
DAV:   8    -0.140368024312E+03   -0.20053E-04   -0.56159E-06 64488   0.811E-03    0.290E-03
DAV:   9    -0.140368041692E+03   -0.17381E-04   -0.28087E-06 64368   0.483E-03    0.193E-03
DAV:  10    -0.140368053537E+03   -0.11844E-04   -0.16213E-06 63432   0.303E-03    0.971E-04
DAV:  11    -0.140368058894E+03   -0.53576E-05   -0.66787E-07 63792   0.180E-03    0.699E-04
DAV:  12    -0.140368060676E+03   -0.17816E-05   -0.16300E-07 56208   0.103E-03    0.289E-04
DAV:  13    -0.140368061458E+03   -0.78175E-06   -0.88172E-08 48528   0.702E-04
  23 F= -.14227821E+03 E0= -.14227789E+03  d E =-.306554E-02
 curvature:  75.30 expect dE= 0.621E+01 dE for cont linesearch  0.679E-01
 ZBRENT: bracketing found
 ZBRENT: interpolating
 opt :   0.6646  next Energy=  -142.286063 (dE=-0.109E-01)
 bond charge predicted
       N       E                     dE             d eps       ncg     rms          rms(c)
DAV:   1    -0.140399763312E+03   -0.31703E-01   -0.33143E+01 52320   0.244E+01    0.133E+00
DAV:   2    -0.140402932802E+03   -0.31695E-02   -0.47058E-01 56256   0.302E+00    0.792E-01
DAV:   3    -0.140397454942E+03    0.54779E-02   -0.34804E-02 74736   0.864E-01    0.319E-01
DAV:   4    -0.140398354029E+03   -0.89909E-03   -0.79049E-03 58248   0.311E-01    0.119E-01
DAV:   5    -0.140398468436E+03   -0.11441E-03   -0.27394E-04 84888   0.705E-02    0.193E-02
DAV:   6    -0.140398468686E+03   -0.24949E-06   -0.19458E-05 73464   0.180E-02    0.946E-03
DAV:   7    -0.140398470159E+03   -0.14738E-05   -0.36356E-06 73608   0.811E-03    0.336E-03
DAV:   8    -0.140398476122E+03   -0.59630E-05   -0.26208E-06 67224   0.603E-03    0.223E-03
DAV:   9    -0.140398487336E+03   -0.11214E-04   -0.14177E-06 64248   0.362E-03    0.141E-03
DAV:  10    -0.140398496871E+03   -0.95347E-05   -0.47325E-07 54480   0.179E-03    0.628E-04
DAV:  11    -0.140398504980E+03   -0.81086E-05   -0.20997E-07 48264   0.109E-03    0.528E-04
DAV:  12    -0.140398509493E+03   -0.45135E-05   -0.55947E-08 49128   0.652E-04    0.171E-04
DAV:  13    -0.140398511239E+03   -0.17456E-05   -0.20801E-08 49752   0.377E-04    0.786E-05
DAV:  14    -0.140398511810E+03   -0.57099E-06   -0.76599E-09 49416   0.230E-04
  24 F= -.14228609E+03 E0= -.14228569E+03  d E =-.109519E-01
 curvature:  -0.85 expect dE=-0.152E-01 dE for cont linesearch -0.674E-07
 trial: gam= 0.60462 g(F)=  0.178E-01 g(S)=  0.000E+00 ort = 0.268E-03 (trialstep = 0.231E+00)
 search vector abs. value=  0.350E+00
 bond charge predicted
       N       E                     dE             d eps       ncg     rms          rms(c)
DAV:   1    -0.140396560001E+03    0.19512E-02   -0.21827E+00 52320   0.628E+00    0.315E-01
DAV:   2    -0.140396575608E+03   -0.15608E-04   -0.28737E-02 59808   0.744E-01    0.199E-01
DAV:   3    -0.140396287930E+03    0.28768E-03   -0.25811E-03 58728   0.244E-01    0.488E-02
DAV:   4    -0.140396311985E+03   -0.24054E-04   -0.77450E-04 74904   0.993E-02    0.229E-02
DAV:   5    -0.140396323371E+03   -0.11386E-04   -0.23145E-05 74928   0.219E-02    0.517E-03
DAV:   6    -0.140396321642E+03    0.17293E-05   -0.34047E-06 75336   0.734E-03    0.202E-03
DAV:   7    -0.140396322129E+03   -0.48713E-06   -0.30158E-07 52920   0.224E-03
  25 F= -.14228952E+03 E0= -.14228913E+03  d E =-.342759E-02
 trial-energy change:   -0.003428  1 .order   -0.003427   -0.004140   -0.002714
 step:   0.6709(harm=  0.6709)  dis= 0.02574  next Energy=  -142.292102 (dE=-0.601E-02)
 bond charge predicted
       N       E                     dE             d eps       ncg     rms          rms(c)
DAV:   1    -0.140388829675E+03    0.74920E-02   -0.79066E+00 52320   0.119E+01    0.602E-01
DAV:   2    -0.140389172974E+03   -0.34330E-03   -0.10521E-01 66096   0.142E+00    0.380E-01
DAV:   3    -0.140387912509E+03    0.12605E-02   -0.91748E-03 60672   0.460E-01    0.956E-02
DAV:   4    -0.140388028738E+03   -0.11623E-03   -0.26921E-03 73392   0.184E-01    0.433E-02
DAV:   5    -0.140388061362E+03   -0.32624E-04   -0.81372E-05 78864   0.389E-02    0.940E-03
DAV:   6    -0.140388059874E+03    0.14881E-05   -0.78036E-06 74496   0.108E-02    0.415E-03
DAV:   7    -0.140388061050E+03   -0.11761E-05   -0.11005E-06 58440   0.429E-03    0.124E-03
DAV:   8    -0.140388064925E+03   -0.38750E-05   -0.81643E-07 60792   0.307E-03    0.135E-03
DAV:   9    -0.140388069427E+03   -0.45022E-05   -0.38492E-07 53880   0.186E-03    0.441E-04
DAV:  10    -0.140388072441E+03   -0.30138E-05   -0.26482E-07 55776   0.117E-03    0.302E-04
DAV:  11    -0.140388073846E+03   -0.14045E-05   -0.12175E-07 55032   0.784E-04    0.250E-04
DAV:  12    -0.140388074204E+03   -0.35825E-06   -0.18954E-08 55680   0.369E-04
  26 F= -.14229207E+03 E0= -.14229171E+03  d E =-.597598E-02
 curvature:  -6.55 expect dE=-0.202E-01 dE for cont linesearch -0.955E-06
 trial: gam= 0.11106 g(F)=  0.309E-02 g(S)=  0.000E+00 ort =-0.226E-03 (trialstep = 0.319E+00)
 search vector abs. value=  0.735E-02
 bond charge predicted
       N       E                     dE             d eps       ncg     rms          rms(c)
DAV:   1    -0.140387863700E+03    0.21015E-03   -0.82494E-02 52320   0.125E+00    0.622E-02
DAV:   2    -0.140387874499E+03   -0.10798E-04   -0.10908E-03 58488   0.144E-01    0.396E-02
DAV:   3    -0.140387864541E+03    0.99575E-05   -0.10923E-04 54144   0.485E-02    0.120E-02
DAV:   4    -0.140387866674E+03   -0.21332E-05   -0.28171E-05 71448   0.197E-02    0.604E-03
DAV:   5    -0.140387868035E+03   -0.13602E-05   -0.14480E-06 55152   0.489E-03    0.179E-03
DAV:   6    -0.140387868112E+03   -0.77312E-07   -0.20080E-07 53520   0.191E-03
  27 F= -.14229271E+03 E0= -.14229235E+03  d E =-.641514E-03
 trial-energy change:   -0.000642  1 .order   -0.000640   -0.000978   -0.000303
 step:   0.4620(harm=  0.4620)  dis= 0.00261  next Energy=  -142.292776 (dE=-0.708E-03)
 bond charge predicted
       N       E                     dE             d eps       ncg     rms          rms(c)
DAV:   1    -0.140387555762E+03    0.31227E-03   -0.16593E-02 52416   0.562E-01    0.278E-02
DAV:   2    -0.140387556428E+03   -0.66603E-06   -0.21994E-04 54912   0.648E-02    0.177E-02
DAV:   3    -0.140387555946E+03    0.48220E-06   -0.21885E-05 53736   0.217E-02    0.540E-03
DAV:   4    -0.140387556359E+03   -0.41255E-06   -0.55945E-06 60792   0.878E-03
  28 F= -.14229278E+03 E0= -.14229242E+03  d E =-.709856E-03
 curvature:  -0.55 expect dE=-0.147E-02 dE for cont linesearch -0.108E-10
 trial: gam= 0.84357 g(F)=  0.264E-02 g(S)=  0.000E+00 ort =-0.378E-06 (trialstep = 0.325E+00)
 search vector abs. value=  0.788E-02
 bond charge predicted
       N       E                     dE             d eps       ncg     rms          rms(c)
DAV:   1    -0.140387464270E+03    0.91676E-04   -0.81954E-02 52320   0.124E+00    0.606E-02
DAV:   2    -0.140387463061E+03    0.12096E-05   -0.74925E-04 56328   0.120E-01    0.374E-02
DAV:   3    -0.140387461215E+03    0.18453E-05   -0.80802E-05 54696   0.422E-02    0.919E-03
DAV:   4    -0.140387462704E+03   -0.14887E-05   -0.21801E-05 70080   0.171E-02    0.457E-03
DAV:   5    -0.140387463583E+03   -0.87873E-06   -0.75774E-07 49488   0.375E-03
  29 F= -.14229338E+03 E0= -.14229302E+03  d E =-.601297E-03
 trial-energy change:   -0.000601  1 .order   -0.000598   -0.000858   -0.000338
 step:   0.5357(harm=  0.5357)  dis= 0.00351  next Energy=  -142.293485 (dE=-0.708E-03)
 bond charge predicted
       N       E                     dE             d eps       ncg     rms          rms(c)
DAV:   1    -0.140387124116E+03    0.33859E-03   -0.34700E-02 52320   0.805E-01    0.393E-02
DAV:   2    -0.140387121916E+03    0.22001E-05   -0.31904E-04 55440   0.786E-02    0.243E-02
DAV:   3    -0.140387122899E+03   -0.98226E-06   -0.34312E-05 53904   0.275E-02    0.604E-03
DAV:   4    -0.140387123454E+03   -0.55558E-06   -0.92479E-06 69048   0.111E-02
  30 F= -.14229349E+03 E0= -.14229313E+03  d E =-.713047E-03
 curvature:  -0.80 expect dE=-0.689E-03 dE for cont linesearch -0.783E-09
 trial: gam= 0.33547 g(F)=  0.863E-03 g(S)=  0.000E+00 ort = 0.278E-05 (trialstep = 0.367E+00)
 search vector abs. value=  0.175E-02
 bond charge predicted
       N       E                     dE             d eps       ncg     rms          rms(c)
DAV:   1    -0.140387039137E+03    0.83762E-04   -0.21577E-02 52344   0.660E-01    0.339E-02
DAV:   2    -0.140387046016E+03   -0.68793E-05   -0.29909E-04 54600   0.777E-02    0.209E-02
DAV:   3    -0.140387044777E+03    0.12388E-05   -0.36144E-05 54192   0.265E-02    0.813E-03
DAV:   4    -0.140387045294E+03   -0.51652E-06   -0.71856E-06 61944   0.106E-02
  31 F= -.14229363E+03 E0= -.14229328E+03  d E =-.142846E-03
 trial-energy change:   -0.000143  1 .order   -0.000142   -0.000317    0.000033
 step:   0.3318(harm=  0.3318)  dis= 0.00103  next Energy=  -142.293634 (dE=-0.143E-03)
 bond charge predicted
       N       E                     dE             d eps       ncg     rms          rms(c)
DAV:   1    -0.140387068487E+03   -0.23710E-04   -0.20069E-04 54336   0.637E-02    0.351E-03
DAV:   2    -0.140387068457E+03    0.30803E-07   -0.31159E-06 58872   0.792E-03
  32 F= -.14229364E+03 E0= -.14229328E+03  d E =-.144922E-03
 curvature:  -0.34 expect dE=-0.244E-04 dE for cont linesearch -0.384E-09
 trial: gam= 0.08876 g(F)=  0.726E-04 g(S)=  0.000E+00 ort =-0.141E-05 (trialstep = 0.360E+00)
 search vector abs. value=  0.862E-04
 bond charge predicted
       N       E                     dE             d eps       ncg     rms          rms(c)
DAV:   1    -0.140387107510E+03   -0.39023E-04   -0.95131E-04 54456   0.134E-01    0.762E-03
DAV:   2    -0.140387107826E+03   -0.31563E-06   -0.13894E-05 55248   0.159E-02    0.492E-03
DAV:   3    -0.140387107659E+03    0.16686E-06   -0.18250E-06 52776   0.578E-03
  33 F= -.14229365E+03 E0= -.14229329E+03  d E =-.142425E-04
 trial-energy change:   -0.000014  1 .order   -0.000014   -0.000026   -0.000002
 step:   0.3889(harm=  0.3889)  dis= 0.00031  next Energy=  -142.293649 (dE=-0.141E-04)
 bond charge predicted
       N       E                     dE             d eps       ncg     rms          rms(c)
DAV:   1    -0.140387109844E+03   -0.20184E-05   -0.66993E-06 67680   0.114E-02    0.111E-03
DAV:   2    -0.140387109871E+03   -0.26071E-07   -0.97822E-08 53736   0.143E-03
  34 F= -.14229365E+03 E0= -.14229329E+03  d E =-.144373E-04
 curvature:  -0.23 expect dE=-0.697E-05 dE for cont linesearch -0.466E-08
 trial: gam= 0.39981 g(F)=  0.302E-04 g(S)=  0.000E+00 ort = 0.132E-05 (trialstep = 0.366E+00)
 search vector abs. value=  0.450E-04
 bond charge predicted
       N       E                     dE             d eps       ncg     rms          rms(c)
DAV:   1    -0.140387173699E+03   -0.63855E-04   -0.48261E-04 56232   0.948E-02    0.522E-03
DAV:   2    -0.140387173577E+03    0.12194E-06   -0.53818E-06 55392   0.102E-02
  35 F= -.14229366E+03 E0= -.14229330E+03  d E =-.922884E-05
 trial-energy change:   -0.000009  1 .order   -0.000009   -0.000011   -0.000008
 step:   1.1836(harm=  1.1836)  dis= 0.00078  next Energy=  -142.293668 (dE=-0.182E-04)
 bond charge predicted
       N       E                     dE             d eps       ncg     rms          rms(c)
DAV:   1    -0.140387302982E+03   -0.12928E-03   -0.23840E-03 55176   0.211E-01    0.119E-02
DAV:   2    -0.140387302561E+03    0.42079E-06   -0.25269E-05 55272   0.223E-02    0.751E-03
DAV:   3    -0.140387303619E+03   -0.10581E-05   -0.27322E-06 58824   0.788E-03    0.157E-03
DAV:   4    -0.140387303677E+03   -0.58249E-07   -0.64934E-07 46440   0.318E-03
  36 F= -.14229367E+03 E0= -.14229331E+03  d E =-.174691E-04
 curvature:  -0.87 expect dE=-0.279E-04 dE for cont linesearch -0.679E-07
 trial: gam= 1.16521 g(F)=  0.322E-04 g(S)=  0.000E+00 ort =-0.188E-05 (trialstep = 0.268E+00)
 search vector abs. value=  0.889E-04
 bond charge predicted
       N       E                     dE             d eps       ncg     rms          rms(c)
DAV:   1    -0.140387386405E+03   -0.82786E-04   -0.62847E-04 53376   0.108E-01    0.569E-03
DAV:   2    -0.140387386243E+03    0.16173E-06   -0.88588E-06 54048   0.128E-02
  37 F= -.14229367E+03 E0= -.14229331E+03  d E =-.574645E-05
 trial-energy change:   -0.000006  1 .order   -0.000006   -0.000008   -0.000004
 step:   0.5143(harm=  0.5143)  dis= 0.00041  next Energy=  -142.293675 (dE=-0.772E-05)
 bond charge predicted
       N       E                     dE             d eps       ncg     rms          rms(c)
DAV:   1    -0.140387458426E+03   -0.72021E-04   -0.51126E-04 60696   0.975E-02    0.577E-03
DAV:   2    -0.140387458141E+03    0.28409E-06   -0.62146E-06 54552   0.109E-02
  38 F= -.14229367E+03 E0= -.14229332E+03  d E =-.691965E-05
 curvature:  -0.76 expect dE=-0.272E-04 dE for cont linesearch -0.240E-07
 trial: gam= 1.10210 g(F)=  0.357E-04 g(S)=  0.000E+00 ort =-0.167E-05 (trialstep = 0.201E+00)
 search vector abs. value=  0.140E-03
 bond charge predicted
       N       E                     dE             d eps       ncg     rms          rms(c)
DAV:   1    -0.140387552172E+03   -0.93746E-04   -0.59758E-04 53952   0.105E-01    0.563E-03
DAV:   2    -0.140387551837E+03    0.33468E-06   -0.70919E-06 54096   0.118E-02
  39 F= -.14229368E+03 E0= -.14229332E+03  d E =-.569706E-05
 trial-energy change:   -0.000006  1 .order   -0.000006   -0.000007   -0.000005
 step:   0.7684(harm=  0.7684)  dis= 0.00080  next Energy=  -142.293687 (dE=-0.130E-04)
 bond charge predicted
       N       E                     dE             d eps       ncg     rms          rms(c)
DAV:   1    -0.140387806251E+03   -0.25408E-03   -0.48040E-03 52320   0.297E-01    0.157E-02
DAV:   2    -0.140387804813E+03    0.14386E-05   -0.59430E-05 53928   0.341E-02    0.990E-03
DAV:   3    -0.140387805926E+03   -0.11128E-05   -0.57376E-06 58752   0.115E-02    0.239E-03
DAV:   4    -0.140387806117E+03   -0.19188E-06   -0.17084E-06 54480   0.477E-03
  40 F= -.14229369E+03 E0= -.14229333E+03  d E =-.123867E-04
 curvature:  -1.59 expect dE=-0.582E-04 dE for cont linesearch -0.310E-07
 trial: gam= 0.90528 g(F)=  0.366E-04 g(S)=  0.000E+00 ort =-0.165E-05 (trialstep = 0.297E+00)
 search vector abs. value=  0.148E-03
 bond charge predicted
       N       E                     dE             d eps       ncg     rms          rms(c)
DAV:   1    -0.140387966870E+03   -0.16094E-03   -0.14927E-03 52608   0.164E-01    0.835E-03
DAV:   2    -0.140387966246E+03    0.62397E-06   -0.20665E-05 52608   0.200E-02    0.529E-03
DAV:   3    -0.140387966584E+03   -0.33819E-06   -0.18638E-06 52104   0.663E-03
  41 F= -.14229370E+03 E0= -.14229334E+03  d E =-.938036E-05
 trial-energy change:   -0.000009  1 .order   -0.000009   -0.000010   -0.000007
 step:   0.9833(harm=  0.9833)  dis= 0.00077  next Energy=  -142.293704 (dE=-0.173E-04)
 bond charge predicted
       N       E                     dE             d eps       ncg     rms          rms(c)
DAV:   1    -0.140388329280E+03   -0.36303E-03   -0.80071E-03 52320   0.381E-01    0.200E-02
DAV:   2    -0.140388327071E+03    0.22088E-05   -0.10962E-04 52512   0.463E-02    0.126E-02
DAV:   3    -0.140388327806E+03   -0.73537E-06   -0.10831E-05 59520   0.157E-02    0.330E-03
DAV:   4    -0.140388328226E+03   -0.41974E-06   -0.31399E-06 54144   0.652E-03
  42 F= -.14229371E+03 E0= -.14229335E+03  d E =-.218800E-04
 curvature:  -2.08 expect dE=-0.106E-03 dE for cont linesearch -0.122E-05
 ZBRENT: increasing intervall
 opt :   2.3558  next Energy=  -142.293701 (dE=-0.139E-04)
 bond charge predicted
       N       E                     dE             d eps       ncg     rms          rms(c)
DAV:   1    -0.140389017337E+03   -0.68953E-03   -0.31827E-02 52320   0.759E-01    0.388E-02
DAV:   2    -0.140389014853E+03    0.24843E-05   -0.44224E-04 53664   0.927E-02    0.245E-02
DAV:   3    -0.140389012584E+03    0.22686E-05   -0.42227E-05 63624   0.309E-02    0.657E-03
DAV:   4    -0.140389013941E+03   -0.13567E-05   -0.11922E-05 54456   0.127E-02    0.333E-03
DAV:   5    -0.140389014996E+03   -0.10549E-05   -0.39652E-07 46224   0.305E-03    0.762E-04
DAV:   6    -0.140389015034E+03   -0.38291E-07   -0.12235E-07 59784   0.158E-03
  43 F= -.14229370E+03 E0= -.14229333E+03  d E =-.110514E-04
 curvature:  13.55 expect dE= 0.413E-02 dE for cont linesearch  0.640E-04
 ZBRENT: bracketing found
 ZBRENT: interpolating
 opt :   1.3413  next Energy=  -142.293710 (dE=-0.236E-04)
 bond charge predicted
       N       E                     dE             d eps       ncg     rms          rms(c)
DAV:   1    -0.140388513759E+03    0.50124E-03   -0.17377E-02 52320   0.561E-01    0.287E-02
DAV:   2    -0.140388510867E+03    0.28919E-05   -0.24279E-04 59088   0.685E-02    0.182E-02
DAV:   3    -0.140388511647E+03   -0.78039E-06   -0.23421E-05 59784   0.231E-02    0.479E-03
DAV:   4    -0.140388512011E+03   -0.36341E-06   -0.67330E-06 53808   0.955E-03
  44 F= -.14229371E+03 E0= -.14229335E+03  d E =-.236259E-04
 curvature:  -0.35 expect dE=-0.323E-04 dE for cont linesearch -0.393E-08
 trial: gam= 2.51680 g(F)=  0.914E-04 g(S)=  0.000E+00 ort = 0.128E-05 (trialstep = 0.723E-01)
 search vector abs. value=  0.104E-02
 bond charge predicted
       N       E                     dE             d eps       ncg     rms          rms(c)
DAV:   1    -0.140388619460E+03   -0.10781E-03   -0.61580E-04 62712   0.105E-01    0.556E-03
DAV:   2    -0.140388618988E+03    0.47247E-06   -0.88907E-06 53448   0.128E-02
  45 F= -.14229372E+03 E0= -.14229335E+03  d E =-.701863E-05
 ZBRENT: can't locate minimum, use default step
 trial-energy change:   -0.000007  1 .order   -0.000007   -0.000007   -0.000007
 step:   0.2893(harm=  0.2893)  dis= 0.00054  next Energy=  -142.293738 (dE=-0.274E-04)
 bond charge predicted
       N       E                     dE             d eps       ncg     rms          rms(c)
DAV:   1    -0.140388938324E+03   -0.31886E-03   -0.54699E-03 52320   0.313E-01    0.167E-02
DAV:   2    -0.140388936362E+03    0.19629E-05   -0.72224E-05 52560   0.374E-02    0.106E-02
DAV:   3    -0.140388937404E+03   -0.10429E-05   -0.69321E-06 54888   0.125E-02    0.255E-03
DAV:   4    -0.140388937669E+03   -0.26503E-06   -0.20341E-06 53664   0.513E-03
  46 F= -.14229374E+03 E0= -.14229337E+03  d E =-.258890E-04
 curvature:  -2.38 expect dE=-0.174E-03 dE for cont linesearch -0.160E-04
 ZBRENT: increasing intervall
 opt :   0.7234  next Energy=  -142.293767 (dE=-0.572E-04)
 bond charge predicted
       N       E                     dE             d eps       ncg     rms          rms(c)
DAV:   1    -0.140389573150E+03   -0.63575E-03   -0.22144E-02 52320   0.628E-01    0.324E-02
DAV:   2    -0.140389569440E+03    0.37103E-05   -0.29924E-04 53880   0.758E-02    0.204E-02
DAV:   3    -0.140389568972E+03    0.46723E-06   -0.27441E-05 63696   0.248E-02    0.511E-03
DAV:   4    -0.140389569839E+03   -0.86625E-06   -0.78584E-06 53784   0.999E-03
  47 F= -.14229377E+03 E0= -.14229340E+03  d E =-.587883E-04
 curvature:  -4.67 expect dE=-0.284E-03 dE for cont linesearch -0.223E-04
 ZBRENT: increasing intervall
 opt :   1.5914  next Energy=  -142.293819 (dE=-0.109E-03)
 bond charge predicted
       N       E                     dE             d eps       ncg     rms          rms(c)
DAV:   1    -0.140390827431E+03   -0.12585E-02   -0.88568E-02 52320   0.126E+00    0.649E-02
DAV:   2    -0.140390820062E+03    0.73686E-05   -0.11965E-03 53904   0.152E-01    0.408E-02
DAV:   3    -0.140390812389E+03    0.76729E-05   -0.10949E-04 64776   0.494E-02    0.103E-02
DAV:   4    -0.140390815129E+03   -0.27402E-05   -0.31214E-05 54000   0.199E-02    0.498E-03
DAV:   5    -0.140390817322E+03   -0.21931E-05   -0.10129E-06 62544   0.470E-03    0.108E-03
DAV:   6    -0.140390817340E+03   -0.17663E-07   -0.19096E-07 57168   0.187E-03
  48 F= -.14229382E+03 E0= -.14229345E+03  d E =-.108863E-03
 curvature: -10.41 expect dE=-0.934E-03 dE for cont linesearch -0.182E-04
 ZBRENT: increasing intervall
 opt :   3.3275  next Energy=  -142.293845 (dE=-0.134E-03)
 bond charge predicted
       N       E                     dE             d eps       ncg     rms          rms(c)
DAV:   1    -0.140393282735E+03   -0.24654E-02   -0.35437E-01 52320   0.251E+00    0.131E-01
DAV:   2    -0.140393252960E+03    0.29774E-04   -0.48091E-03 54072   0.304E-01    0.819E-02
DAV:   3    -0.140393224892E+03    0.28069E-04   -0.44177E-04 61344   0.993E-02    0.209E-02
DAV:   4    -0.140393231923E+03   -0.70318E-05   -0.12658E-04 54336   0.400E-02    0.100E-02
DAV:   5    -0.140393237293E+03   -0.53699E-05   -0.41965E-06 81072   0.922E-03    0.222E-03
DAV:   6    -0.140393237306E+03   -0.12815E-07   -0.55615E-07 53808   0.301E-03
  49 F= -.14229385E+03 E0= -.14229347E+03  d E =-.138642E-03
 curvature: -14.60 expect dE=-0.528E-02 dE for cont linesearch -0.161E-05
 trial: gam= 4.34592 g(F)=  0.362E-03 g(S)=  0.000E+00 ort =-0.107E-04 (trialstep = 0.378E-01)
 search vector abs. value=  0.199E-01
 bond charge predicted
       N       E                     dE             d eps       ncg     rms          rms(c)
DAV:   1    -0.140393476779E+03   -0.23949E-03   -0.32275E-03 52896   0.240E-01    0.125E-02
DAV:   2    -0.140393476060E+03    0.71864E-06   -0.44456E-05 66600   0.291E-02    0.787E-03
DAV:   3    -0.140393476393E+03   -0.33295E-06   -0.40484E-06 54720   0.962E-03
  50 F= -.14229386E+03 E0= -.14229348E+03  d E =-.117605E-04
 trial-energy change:   -0.000012  1 .order   -0.000010   -0.000012   -0.000009
 step:   0.1379(harm=  0.1379)  dis= 0.00116  next Energy=  -142.293871 (dE=-0.217E-04)
 bond charge predicted
       N       E                     dE             d eps       ncg     rms          rms(c)
DAV:   1    -0.140394104252E+03   -0.62819E-03   -0.22744E-02 52320   0.637E-01    0.337E-02
DAV:   2    -0.140394100325E+03    0.39271E-05   -0.30787E-04 66576   0.770E-02    0.212E-02
DAV:   3    -0.140394100119E+03    0.20573E-06   -0.28888E-05 54720   0.256E-02    0.521E-03
DAV:   4    -0.140394101090E+03   -0.97095E-06   -0.87703E-06 54384   0.107E-02
  51 F= -.14229388E+03 E0= -.14229350E+03  d E =-.345009E-04
 curvature:  -4.35 expect dE=-0.591E-03 dE for cont linesearch -0.630E-05
 ZBRENT: increasing intervall
 opt :   0.3381  next Energy=  -142.293905 (dE=-0.566E-04)
 bond charge predicted
       N       E                     dE             d eps       ncg     rms          rms(c)
DAV:   1    -0.140395325107E+03   -0.12250E-02   -0.90388E-02 52320   0.127E+00    0.655E-02
DAV:   2    -0.140395319235E+03    0.58717E-05   -0.12315E-03 52320   0.154E-01    0.413E-02
DAV:   3    -0.140395310791E+03    0.84443E-05   -0.11230E-04 60240   0.501E-02    0.105E-02
DAV:   4    -0.140395313730E+03   -0.29386E-05   -0.32291E-05 53592   0.202E-02    0.509E-03
DAV:   5    -0.140395315939E+03   -0.22097E-05   -0.10901E-06 54072   0.478E-03    0.114E-03
DAV:   6    -0.140395316058E+03   -0.11899E-06   -0.20826E-07 53064   0.192E-03
  52 F= -.14229390E+03 E0= -.14229350E+03  d E =-.468293E-04
 curvature: -15.27 expect dE=-0.961E-03 dE for cont linesearch -0.292E-05
 ZBRENT: bracketing found
 ZBRENT: interpolating
 opt :   0.2847  next Energy=  -142.293897 (dE=-0.485E-04)
 bond charge predicted
       N       E                     dE             d eps       ncg     rms          rms(c)
DAV:   1    -0.140394997753E+03    0.31819E-03   -0.64166E-03 52320   0.338E-01    0.175E-02
DAV:   2    -0.140394996938E+03    0.81535E-06   -0.87752E-05 56328   0.409E-02    0.110E-02
DAV:   3    -0.140394997315E+03   -0.37725E-06   -0.81043E-06 60720   0.135E-02
  53 F= -.14229390E+03 E0= -.14229351E+03  d E =-.485125E-04
 curvature:  -8.60 expect dE=-0.460E-03 dE for cont linesearch -0.311E-05
 ZBRENT: interpolating
 opt :   0.3156  next Energy=  -142.293896 (dE=-0.475E-04)
 bond charge predicted
       N       E                     dE             d eps       ncg     rms          rms(c)
DAV:   1    -0.140395183007E+03   -0.18607E-03   -0.20981E-03 53184   0.194E-01    0.910E-03
DAV:   2    -0.140395182872E+03    0.13481E-06   -0.30534E-05 54336   0.238E-02    0.577E-03
DAV:   3    -0.140395182850E+03    0.22072E-07   -0.25031E-06 62184   0.743E-03
  54 F= -.14229390E+03 E0= -.14229351E+03  d E =-.485262E-04
 curvature:  -1.91 expect dE=-0.107E-03 dE for cont linesearch -0.433E-06
 ZBRENT: bisectioning
 opt :   0.3002  next Energy=  -142.293898 (dE=-0.496E-04)
 bond charge predicted
       N       E                     dE             d eps       ncg     rms          rms(c)
DAV:   1    -0.140395090657E+03    0.92216E-04   -0.52516E-04 56208   0.968E-02    0.448E-03
DAV:   2    -0.140395090752E+03   -0.95455E-07   -0.76588E-06 59328   0.118E-02
  55 F= -.14229390E+03 E0= -.14229351E+03  d E =-.491653E-04
 curvature:  -4.71 expect dE=-0.252E-03 dE for cont linesearch -0.186E-06
 ZBRENT: bisectioning
 opt :   0.2925  next Energy=  -142.293898 (dE=-0.493E-04)
 bond charge predicted
       N       E                     dE             d eps       ncg     rms          rms(c)
DAV:   1    -0.140395044521E+03    0.46136E-04   -0.12658E-04 68376   0.482E-02    0.302E-03
DAV:   2    -0.140395044408E+03    0.11226E-06   -0.14822E-06 57216   0.536E-03
  56 F= -.14229390E+03 E0= -.14229351E+03  d E =-.492123E-04
 curvature:  -3.57 expect dE=-0.189E-03 dE for cont linesearch -0.305E-07
 ZBRENT: bisectioning
 opt :   0.2886  next Energy=  -142.293898 (dE=-0.492E-04)
 bond charge predicted
       N       E                     dE             d eps       ncg     rms          rms(c)
DAV:   1    -0.140395021404E+03    0.23117E-04   -0.31608E-05 55104   0.241E-02    0.143E-03
DAV:   2    -0.140395021376E+03    0.28076E-07   -0.33360E-07 45720   0.267E-03
  57 F= -.14229390E+03 E0= -.14229351E+03  d E =-.493760E-04
 curvature:  -4.19 expect dE=-0.222E-03 dE for cont linesearch -0.419E-08
 trial: gam= 0.00596 g(F)=  0.529E-04 g(S)=  0.000E+00 ort =-0.446E-05 (trialstep = 0.879E-01)
 search vector abs. value=  0.536E-04
 bond charge predicted
       N       E                     dE             d eps       ncg     rms          rms(c)
DAV:   1    -0.140395029625E+03   -0.82214E-05   -0.45138E-05 58584   0.305E-02    0.143E-03
DAV:   2    -0.140395029628E+03   -0.28276E-08   -0.55295E-07 58440   0.342E-03
  58 F= -.14229390E+03 E0= -.14229351E+03  d E =-.432398E-05
 ZBRENT: can't locate minimum, use default step
 trial-energy change:   -0.000004  1 .order   -0.000004   -0.000005   -0.000004
 step:   0.3518(harm=  0.5184)  dis= 0.00040  next Energy=  -142.293912 (dE=-0.137E-04)
 bond charge predicted
       N       E                     dE             d eps       ncg     rms          rms(c)
DAV:   1    -0.140395049127E+03   -0.19502E-04   -0.39990E-04 53904   0.908E-02    0.447E-03
DAV:   2    -0.140395049136E+03   -0.88621E-08   -0.46400E-06 58848   0.963E-03
  59 F= -.14229391E+03 E0= -.14229352E+03  d E =-.120417E-04
 curvature:  -0.22 expect dE=-0.576E-05 dE for cont linesearch -0.108E-05
 ZBRENT: increasing intervall
 opt :   0.8794  next Energy=  -142.293904 (dE=-0.587E-05)
 bond charge predicted
       N       E                     dE             d eps       ncg     rms          rms(c)
DAV:   1    -0.140395065696E+03   -0.16569E-04   -0.15951E-03 52488   0.181E-01    0.919E-03
DAV:   2    -0.140395065796E+03   -0.99498E-07   -0.17872E-05 60096   0.190E-02    0.558E-03
DAV:   3    -0.140395065707E+03    0.88361E-07   -0.22582E-06 54144   0.659E-03
  60 F= -.14229390E+03 E0= -.14229351E+03  d E =-.502515E-05
 curvature:   1.27 expect dE= 0.228E-03 dE for cont linesearch  0.438E-04
 ZBRENT: bracketing found
 ZBRENT: interpolating
 opt :   0.4958  next Energy=  -142.293911 (dE=-0.132E-04)
 bond charge predicted
       N       E                     dE             d eps       ncg     rms          rms(c)
DAV:   1    -0.140395056620E+03    0.91759E-05   -0.85102E-04 52608   0.132E-01    0.587E-03
DAV:   2    -0.140395056741E+03   -0.12148E-06   -0.10520E-05 55224   0.143E-02    0.364E-03
DAV:   3    -0.140395056625E+03    0.11604E-06   -0.10066E-06 45480   0.448E-03
  61 F= -.14229391E+03 E0= -.14229352E+03  d E =-.130928E-04
 curvature:  -0.03 expect dE=-0.152E-05 dE for cont linesearch -0.184E-11
 trial: gam= 0.84913 g(F)=  0.450E-04 g(S)=  0.000E+00 ort = 0.540E-07 (trialstep = 0.109E+00)
 search vector abs. value=  0.837E-04
 bond charge predicted
       N       E                     dE             d eps       ncg     rms          rms(c)
DAV:   1    -0.140395065319E+03   -0.85781E-05   -0.96258E-05 53688   0.421E-02    0.172E-03
DAV:   2    -0.140395065337E+03   -0.17373E-07   -0.72162E-07 40776   0.394E-03
  62 F= -.14229392E+03 E0= -.14229352E+03  d E =-.435607E-05
 ZBRENT: can't locate minimum, use default step
 trial-energy change:   -0.000004  1 .order   -0.000004   -0.000005   -0.000004
 step:   0.4341(harm=  0.4845)  dis= 0.00072  next Energy=  -142.293922 (dE=-0.109E-04)
 bond charge predicted
       N       E                     dE             d eps       ncg     rms          rms(c)
DAV:   1    -0.140395084725E+03   -0.19406E-04   -0.85871E-04 52368   0.126E-01    0.537E-03
DAV:   2    -0.140395084786E+03   -0.61596E-07   -0.63824E-06 54336   0.113E-02
  63 F= -.14229392E+03 E0= -.14229353E+03  d E =-.107538E-04
 curvature:  -0.44 expect dE=-0.432E-05 dE for cont linesearch -0.168E-06
 ZBRENT: extrapolating
 opt :   0.4968  next Energy=  -142.293922 (dE=-0.109E-04)
 bond charge predicted
       N       E                     dE             d eps       ncg     rms          rms(c)
DAV:   1    -0.140395087608E+03   -0.28832E-05   -0.29270E-05 53424   0.234E-02    0.144E-03
DAV:   2    -0.140395087591E+03    0.17202E-07   -0.17166E-07 56352   0.188E-03
  64 F= -.14229392E+03 E0= -.14229353E+03  d E =-.110455E-04
 curvature:  -0.47 expect dE=-0.540E-05 dE for cont linesearch -0.118E-09
 trial: gam= 0.24979 g(F)=  0.116E-04 g(S)=  0.000E+00 ort =-0.146E-06 (trialstep = 0.186E+00)
 search vector abs. value=  0.168E-04
 bond charge predicted
       N       E                     dE             d eps       ncg     rms          rms(c)
DAV:   1    -0.140395091424E+03   -0.38160E-05   -0.63144E-05 53376   0.362E-02    0.172E-03
DAV:   2    -0.140395091425E+03   -0.47203E-09   -0.84675E-07 41160   0.428E-03
  65 F= -.14229392E+03 E0= -.14229353E+03  d E =-.153931E-05
 trial-energy change:   -0.000002  1 .order   -0.000002   -0.000002   -0.000001
 step:   0.3193(harm=  0.3193)  dis= 0.00015  next Energy=  -142.293924 (dE=-0.185E-05)
 bond charge predicted
       N       E                     dE             d eps       ncg     rms          rms(c)
DAV:   1    -0.140395093356E+03   -0.19323E-05   -0.31298E-05 53520   0.257E-02    0.148E-03
DAV:   2    -0.140395093343E+03    0.13728E-07   -0.39212E-07 45240   0.291E-03
  66 F= -.14229392E+03 E0= -.14229353E+03  d E =-.181540E-05
 curvature:  -0.23 expect dE=-0.626E-06 dE for cont linesearch -0.452E-09
 trial: gam= 0.24409 g(F)=  0.271E-05 g(S)=  0.000E+00 ort =-0.181E-06 (trialstep = 0.213E+00)
 search vector abs. value=  0.362E-05
 bond charge predicted
       N       E                     dE             d eps       ncg     rms          rms(c)
DAV:   1    -0.140395096081E+03   -0.27251E-05   -0.16479E-05 53880   0.182E-02    0.847E-04
DAV:   2    -0.140395096067E+03    0.14232E-07   -0.18790E-07 40104   0.198E-03
  67 F= -.14229392E+03 E0= -.14229353E+03  d E =-.469829E-06
 trial-energy change:   -0.000000  1 .order   -0.000000   -0.000001   -0.000000
 step:   0.6242(harm=  0.6242)  dis= 0.00009  next Energy=  -142.293925 (dE=-0.831E-06)
 bond charge predicted
       N       E                     dE             d eps       ncg     rms          rms(c)
DAV:   1    -0.140395100771E+03   -0.46897E-05   -0.61101E-05 53184   0.349E-02    0.158E-03
DAV:   2    -0.140395100730E+03    0.41535E-07   -0.60167E-07 40104   0.361E-03
  68 F= -.14229392E+03 E0= -.14229353E+03  d E =-.773106E-06
 curvature:  -0.42 expect dE=-0.599E-06 dE for cont linesearch -0.656E-10
 trial: gam= 0.49175 g(F)=  0.141E-05 g(S)=  0.000E+00 ort =-0.237E-07 (trialstep = 0.295E+00)
 search vector abs. value=  0.227E-05
 bond charge predicted
       N       E                     dE             d eps       ncg     rms          rms(c)
DAV:   1    -0.140395105464E+03   -0.46927E-05   -0.19537E-05 53040   0.196E-02    0.935E-04
DAV:   2    -0.140395105450E+03    0.14348E-07   -0.26377E-07 40680   0.243E-03
  69 F= -.14229393E+03 E0= -.14229353E+03  d E =-.333590E-06
 trial-energy change:   -0.000000  1 .order   -0.000000   -0.000000   -0.000000
 step:   0.5325(harm=  0.5325)  dis= 0.00006  next Energy=  -142.293925 (dE=-0.373E-06)
 bond charge predicted
       N       E                     dE             d eps       ncg     rms          rms(c)
DAV:   1    -0.140395109062E+03   -0.35981E-05   -0.12538E-05 53520   0.157E-02    0.811E-04
DAV:   2    -0.140395109054E+03    0.80026E-08   -0.14223E-07 43224   0.172E-03
  70 F= -.14229393E+03 E0= -.14229353E+03  d E =-.408477E-06
 curvature:  -0.43 expect dE=-0.118E-06 dE for cont linesearch -0.265E-10
 trial: gam= 0.18797 g(F)=  0.275E-06 g(S)=  0.000E+00 ort =-0.118E-07 (trialstep = 0.343E+00)
 search vector abs. value=  0.350E-06
 bond charge predicted
       N       E                     dE             d eps       ncg     rms          rms(c)
DAV:   1    -0.140395112097E+03   -0.30349E-05   -0.38242E-06 53256   0.883E-03    0.439E-04
DAV:   2    -0.140395112094E+03    0.30814E-08   -0.46674E-08 48048   0.101E-03
  71 F= -.14229393E+03 E0= -.14229353E+03  d E =-.787703E-07
 trial-energy change:   -0.000000  1 .order   -0.000000   -0.000000   -0.000000
 step:   0.5690(harm=  0.5690)  dis= 0.00002  next Energy=  -142.293925 (dE=-0.775E-07)
 reached required accuracy - stopping structural energy minimisation
