 ----------------------------------------------------
    OOO  PPPP  EEEEE N   N M   M PPPP
   O   O P   P E     NN  N MM MM P   P
   O   O PPPP  EEEEE N N N M M M PPPP   -- VERSION
   O   O P     E     N  NN M   M P
    OOO  P     EEEEE N   N M   M P
 ----------------------------------------------------
 running   48 mpi-ranks, with    1 threads/rank
 distrk:  each k-point on   48 cores,    1 groups
 distr:  one band on    1 cores,   48 groups
 vasp.6.3.2 27Jun22 (build Dec 22 2022 13:13:19) complex                        
  
 POSCAR found type information on POSCAR B C 
 POSCAR found :  2 types and      16 ions
 Reading from existing POTCAR
 scaLAPACK will be used
 Reading from existing POTCAR
 LDA part: xc-table for Pade appr. of Perdew
 POSCAR found type information on POSCAR B C 
 POSCAR found :  2 types and      16 ions
 WARNING: stress and forces are not correct
 POSCAR, INCAR and KPOINTS ok, starting setup
 FFT: planning ... GRIDC
 FFT: planning ... GRID_SOFT
 FFT: planning ... GRID
 WAVECAR not read
 charge-density read from file: SC                                      
 WARNING: random wavefunctions but no delay for mixing, default for NELMDL
 entering main loop
       N       E                     dE             d eps       ncg     rms          rms(c)
DAV:   1     0.166868972400E+03    0.16687E+03   -0.23988E+04 27744   0.855E+02
DAV:   2    -0.114425651947E+03   -0.28129E+03   -0.28069E+03 41856   0.141E+02
DAV:   3    -0.124026390097E+03   -0.96007E+01   -0.95980E+01 45264   0.364E+01
DAV:   4    -0.124058315791E+03   -0.31926E-01   -0.31926E-01 47760   0.187E+00
DAV:   5    -0.124058332585E+03   -0.16794E-04   -0.16794E-04 41232   0.478E-02
DAV:   6    -0.124058332672E+03   -0.87506E-07   -0.87494E-07 46032   0.279E-03
   1 F= -.12405833E+03 E0= -.12405697E+03  d E =-.273287E-02
