  16  16   0   4
  0.2054177E+02  0.5030000E-09  0.5030000E-09  0.1500000E-08  0.5000000E-15
  1.000000000000000E-004
  CAR 
 Lattice                                 
      9.28934447    -20.93750100  301     -0.25473978      1.00000000
    -20.938  0.0000E+00  0.0000E+00  0.0000E+00  0.0000E+00
    -20.837  0.0000E+00  0.0000E+00  0.0000E+00  0.0000E+00
    -20.736  0.0000E+00  0.0000E+00  0.0000E+00  0.0000E+00
    -20.635  0.0000E+00  0.0000E+00  0.0000E+00  0.0000E+00
    -20.534  0.0000E+00  0.0000E+00  0.0000E+00  0.0000E+00
    -20.434  0.0000E+00  0.0000E+00  0.0000E+00  0.0000E+00
    -20.333  0.0000E+00  0.0000E+00  0.0000E+00  0.0000E+00
    -20.232  0.0000E+00  0.0000E+00  0.0000E+00  0.0000E+00
    -20.131  0.2690E-18  0.2690E-18  0.2711E-19  0.2711E-19
    -20.031  0.1184E-13  0.1184E-13  0.1193E-14  0.1193E-14
    -19.930  0.7435E-10  0.7435E-10  0.7492E-11  0.7492E-11
    -19.829  0.7189E-07  0.7189E-07  0.7251E-08  0.7251E-08
    -19.728  0.1151E-04  0.1151E-04  0.1167E-05  0.1167E-05
    -19.628  0.3345E-03  0.3345E-03  0.3487E-04  0.3487E-04
    -19.527  0.2124E-02  0.2124E-02  0.2489E-03  0.2489E-03
    -19.426  0.4358E-02  0.4358E-02  0.6881E-03  0.6881E-03
    -19.325  0.4858E-02  0.4858E-02  0.1178E-02  0.1178E-02
    -19.225  0.5184E-02  0.5184E-02  0.1700E-02  0.1700E-02
    -19.124  0.4560E-02  0.4560E-02  0.2159E-02  0.2159E-02
    -19.023  0.5636E-02  0.5636E-02  0.2727E-02  0.2727E-02
    -18.922  0.4491E-02  0.4491E-02  0.3180E-02  0.3180E-02
    -18.822  0.4737E-02  0.4737E-02  0.3657E-02  0.3657E-02
    -18.721  0.6208E-02  0.6208E-02  0.4282E-02  0.4282E-02
    -18.620  0.4025E-02  0.4025E-02  0.4688E-02  0.4688E-02
    -18.519  0.4434E-02  0.4434E-02  0.5135E-02  0.5135E-02
    -18.419  0.6443E-02  0.6443E-02  0.5784E-02  0.5784E-02
    -18.318  0.5319E-02  0.5319E-02  0.6320E-02  0.6320E-02
    -18.217  0.3180E-02  0.3180E-02  0.6640E-02  0.6640E-02
    -18.116  0.5195E-02  0.5195E-02  0.7164E-02  0.7164E-02
    -18.016  0.7061E-02  0.7061E-02  0.7875E-02  0.7875E-02
    -17.915  0.4735E-02  0.4735E-02  0.8352E-02  0.8352E-02
    -17.814  0.3853E-02  0.3853E-02  0.8740E-02  0.8740E-02
    -17.713  0.3717E-02  0.3717E-02  0.9115E-02  0.9115E-02
    -17.613  0.7393E-02  0.7393E-02  0.9860E-02  0.9860E-02
    -17.512  0.6451E-02  0.6451E-02  0.1051E-01  0.1051E-01
    -17.411  0.3513E-02  0.3513E-02  0.1086E-01  0.1086E-01
    -17.310  0.3796E-02  0.3796E-02  0.1125E-01  0.1125E-01
    -17.210  0.4714E-02  0.4714E-02  0.1172E-01  0.1172E-01
    -17.109  0.7119E-02  0.7119E-02  0.1244E-01  0.1244E-01
    -17.008  0.6675E-02  0.6675E-02  0.1311E-01  0.1311E-01
    -16.907  0.4523E-02  0.4523E-02  0.1357E-01  0.1357E-01
    -16.806  0.2434E-02  0.2434E-02  0.1381E-01  0.1381E-01
    -16.706  0.4660E-02  0.4660E-02  0.1428E-01  0.1428E-01
    -16.605  0.7311E-02  0.7311E-02  0.1502E-01  0.1502E-01
    -16.504  0.6622E-02  0.6622E-02  0.1569E-01  0.1569E-01
    -16.403  0.5454E-02  0.5454E-02  0.1623E-01  0.1623E-01
    -16.303  0.4577E-02  0.4577E-02  0.1670E-01  0.1670E-01
    -16.202  0.2776E-02  0.2776E-02  0.1698E-01  0.1698E-01
    -16.101  0.3964E-02  0.3964E-02  0.1738E-01  0.1738E-01
    -16.000  0.1036E-01  0.1036E-01  0.1842E-01  0.1842E-01
    -15.900  0.1104E-01  0.1104E-01  0.1953E-01  0.1953E-01
    -15.799  0.1089E-01  0.1089E-01  0.2063E-01  0.2063E-01
    -15.698  0.1070E-01  0.1070E-01  0.2171E-01  0.2171E-01
    -15.597  0.1098E-01  0.1098E-01  0.2281E-01  0.2281E-01
    -15.497  0.1018E-01  0.1018E-01  0.2384E-01  0.2384E-01
    -15.396  0.1403E-01  0.1403E-01  0.2525E-01  0.2525E-01
    -15.295  0.1748E-01  0.1748E-01  0.2701E-01  0.2701E-01
    -15.194  0.1470E-01  0.1470E-01  0.2850E-01  0.2850E-01
    -15.094  0.1436E-01  0.1436E-01  0.2994E-01  0.2994E-01
    -14.993  0.1034E-01  0.1034E-01  0.3098E-01  0.3098E-01
    -14.892  0.8695E-02  0.8695E-02  0.3186E-01  0.3186E-01
    -14.791  0.6994E-02  0.6994E-02  0.3257E-01  0.3257E-01
    -14.691  0.1129E-01  0.1129E-01  0.3370E-01  0.3370E-01
    -14.590  0.1120E-01  0.1120E-01  0.3483E-01  0.3483E-01
    -14.489  0.1168E-01  0.1168E-01  0.3601E-01  0.3601E-01
    -14.388  0.1128E-01  0.1128E-01  0.3714E-01  0.3714E-01
    -14.288  0.9183E-02  0.9183E-02  0.3807E-01  0.3807E-01
    -14.187  0.1044E-01  0.1044E-01  0.3912E-01  0.3912E-01
    -14.086  0.1281E-01  0.1281E-01  0.4041E-01  0.4041E-01
    -13.985  0.1208E-01  0.1208E-01  0.4163E-01  0.4163E-01
    -13.885  0.6597E-02  0.6597E-02  0.4229E-01  0.4229E-01
    -13.784  0.3822E-02  0.3822E-02  0.4268E-01  0.4268E-01
    -13.683  0.3321E-02  0.3321E-02  0.4301E-01  0.4301E-01
    -13.582  0.6158E-02  0.6158E-02  0.4363E-01  0.4363E-01
    -13.482  0.6769E-02  0.6769E-02  0.4431E-01  0.4431E-01
    -13.381  0.5685E-02  0.5685E-02  0.4489E-01  0.4489E-01
    -13.280  0.5446E-02  0.5446E-02  0.4544E-01  0.4544E-01
    -13.179  0.7427E-02  0.7427E-02  0.4618E-01  0.4618E-01
    -13.079  0.7477E-02  0.7477E-02  0.4694E-01  0.4694E-01
    -12.978  0.6992E-02  0.6992E-02  0.4764E-01  0.4764E-01
    -12.877  0.6685E-02  0.6685E-02  0.4832E-01  0.4832E-01
    -12.776  0.8785E-02  0.8785E-02  0.4920E-01  0.4920E-01
    -12.675  0.1278E-01  0.1278E-01  0.5049E-01  0.5049E-01
    -12.575  0.1306E-01  0.1306E-01  0.5180E-01  0.5180E-01
    -12.474  0.1492E-01  0.1492E-01  0.5331E-01  0.5331E-01
    -12.373  0.1385E-01  0.1385E-01  0.5470E-01  0.5470E-01
    -12.272  0.1465E-01  0.1465E-01  0.5618E-01  0.5618E-01
    -12.172  0.1707E-01  0.1707E-01  0.5790E-01  0.5790E-01
    -12.071  0.1518E-01  0.1518E-01  0.5943E-01  0.5943E-01
    -11.970  0.1804E-01  0.1804E-01  0.6125E-01  0.6125E-01
    -11.869  0.1588E-01  0.1588E-01  0.6285E-01  0.6285E-01
    -11.769  0.9546E-02  0.9546E-02  0.6381E-01  0.6381E-01
    -11.668  0.7039E-02  0.7039E-02  0.6452E-01  0.6452E-01
    -11.567  0.5865E-02  0.5865E-02  0.6511E-01  0.6511E-01
    -11.466  0.6667E-02  0.6667E-02  0.6578E-01  0.6578E-01
    -11.366  0.5305E-02  0.5305E-02  0.6632E-01  0.6632E-01
    -11.265  0.5196E-02  0.5196E-02  0.6684E-01  0.6684E-01
    -11.164  0.5086E-02  0.5086E-02  0.6735E-01  0.6735E-01
    -11.063  0.4030E-02  0.4030E-02  0.6776E-01  0.6776E-01
    -10.963  0.5914E-02  0.5914E-02  0.6835E-01  0.6835E-01
    -10.862  0.1055E-01  0.1055E-01  0.6942E-01  0.6942E-01
    -10.761  0.1135E-01  0.1135E-01  0.7056E-01  0.7056E-01
    -10.660  0.1072E-01  0.1072E-01  0.7164E-01  0.7164E-01
    -10.560  0.1440E-01  0.1440E-01  0.7309E-01  0.7309E-01
    -10.459  0.1535E-01  0.1535E-01  0.7464E-01  0.7464E-01
    -10.358  0.1362E-01  0.1362E-01  0.7601E-01  0.7601E-01
    -10.257  0.9099E-02  0.9099E-02  0.7693E-01  0.7693E-01
    -10.157  0.8122E-02  0.8122E-02  0.7774E-01  0.7774E-01
    -10.056  0.1057E-01  0.1057E-01  0.7881E-01  0.7881E-01
     -9.955  0.8259E-02  0.8259E-02  0.7964E-01  0.7964E-01
     -9.854  0.1191E-01  0.1191E-01  0.8084E-01  0.8084E-01
     -9.754  0.9355E-02  0.9355E-02  0.8178E-01  0.8178E-01
     -9.653  0.1320E-01  0.1320E-01  0.8311E-01  0.8311E-01
     -9.552  0.1925E-01  0.1925E-01  0.8505E-01  0.8505E-01
     -9.451  0.1280E-01  0.1280E-01  0.8634E-01  0.8634E-01
     -9.351  0.1644E-01  0.1644E-01  0.8800E-01  0.8800E-01
     -9.250  0.1642E-01  0.1642E-01  0.8965E-01  0.8965E-01
     -9.149  0.1266E-01  0.1266E-01  0.9093E-01  0.9093E-01
     -9.048  0.1073E-01  0.1073E-01  0.9201E-01  0.9201E-01
     -8.948  0.1933E-01  0.1933E-01  0.9396E-01  0.9396E-01
     -8.847  0.2350E-01  0.2350E-01  0.9632E-01  0.9632E-01
     -8.746  0.9178E-02  0.9179E-02  0.9725E-01  0.9725E-01
     -8.645  0.5042E-02  0.5041E-02  0.9776E-01  0.9776E-01
     -8.544  0.1378E-01  0.1378E-01  0.9915E-01  0.9915E-01
     -8.444  0.2015E-01  0.2015E-01  0.1012E+00  0.1012E+00
     -8.343  0.1617E-01  0.1617E-01  0.1028E+00  0.1028E+00
     -8.242  0.1339E-01  0.1339E-01  0.1042E+00  0.1042E+00
     -8.141  0.1292E-01  0.1292E-01  0.1055E+00  0.1055E+00
     -8.041  0.9519E-02  0.9519E-02  0.1064E+00  0.1064E+00
     -7.940  0.1249E-01  0.1249E-01  0.1077E+00  0.1077E+00
     -7.839  0.1994E-01  0.1994E-01  0.1097E+00  0.1097E+00
     -7.738  0.2264E-01  0.2264E-01  0.1120E+00  0.1120E+00
     -7.638  0.1623E-01  0.1623E-01  0.1136E+00  0.1136E+00
     -7.537  0.1464E-01  0.1464E-01  0.1151E+00  0.1151E+00
     -7.436  0.1333E-01  0.1333E-01  0.1164E+00  0.1164E+00
     -7.335  0.1635E-01  0.1635E-01  0.1181E+00  0.1181E+00
     -7.235  0.2149E-01  0.2149E-01  0.1202E+00  0.1202E+00
     -7.134  0.1444E-01  0.1444E-01  0.1217E+00  0.1217E+00
     -7.033  0.1717E-01  0.1717E-01  0.1234E+00  0.1234E+00
     -6.932  0.2230E-01  0.2230E-01  0.1257E+00  0.1257E+00
     -6.832  0.2321E-01  0.2321E-01  0.1280E+00  0.1280E+00
     -6.731  0.2462E-01  0.2462E-01  0.1305E+00  0.1305E+00
     -6.630  0.3149E-01  0.3149E-01  0.1337E+00  0.1337E+00
     -6.529  0.3394E-01  0.3394E-01  0.1371E+00  0.1371E+00
     -6.429  0.2452E-01  0.2452E-01  0.1395E+00  0.1395E+00
     -6.328  0.1794E-01  0.1794E-01  0.1414E+00  0.1414E+00
     -6.227  0.1756E-01  0.1756E-01  0.1431E+00  0.1431E+00
     -6.126  0.1805E-01  0.1805E-01  0.1449E+00  0.1449E+00
     -6.026  0.1795E-01  0.1795E-01  0.1467E+00  0.1467E+00
     -5.925  0.1655E-01  0.1655E-01  0.1484E+00  0.1484E+00
     -5.824  0.1502E-01  0.1502E-01  0.1499E+00  0.1499E+00
     -5.723  0.1762E-01  0.1762E-01  0.1517E+00  0.1517E+00
     -5.623  0.1524E-01  0.1524E-01  0.1532E+00  0.1532E+00
     -5.522  0.1096E-01  0.1096E-01  0.1543E+00  0.1543E+00
     -5.421  0.1443E-01  0.1443E-01  0.1558E+00  0.1558E+00
     -5.320  0.1774E-01  0.1774E-01  0.1576E+00  0.1576E+00
     -5.220  0.1729E-01  0.1729E-01  0.1593E+00  0.1593E+00
     -5.119  0.1319E-01  0.1319E-01  0.1607E+00  0.1607E+00
     -5.018  0.1656E-01  0.1656E-01  0.1623E+00  0.1623E+00
     -4.917  0.2259E-01  0.2259E-01  0.1646E+00  0.1646E+00
     -4.817  0.1229E-01  0.1229E-01  0.1658E+00  0.1658E+00
     -4.716  0.7569E-02  0.7569E-02  0.1666E+00  0.1666E+00
     -4.615  0.1795E-01  0.1795E-01  0.1684E+00  0.1684E+00
     -4.514  0.2069E-01  0.2069E-01  0.1705E+00  0.1705E+00
     -4.413  0.1693E-01  0.1693E-01  0.1722E+00  0.1722E+00
     -4.313  0.2075E-01  0.2075E-01  0.1743E+00  0.1743E+00
     -4.212  0.2450E-01  0.2450E-01  0.1768E+00  0.1768E+00
     -4.111  0.2259E-01  0.2259E-01  0.1790E+00  0.1790E+00
     -4.010  0.2185E-01  0.2185E-01  0.1812E+00  0.1812E+00
     -3.910  0.2843E-01  0.2843E-01  0.1841E+00  0.1841E+00
     -3.809  0.2899E-01  0.2899E-01  0.1870E+00  0.1870E+00
     -3.708  0.2069E-01  0.2069E-01  0.1891E+00  0.1891E+00
     -3.607  0.1937E-01  0.1937E-01  0.1911E+00  0.1911E+00
     -3.507  0.1541E-01  0.1541E-01  0.1926E+00  0.1926E+00
     -3.406  0.1306E-01  0.1306E-01  0.1939E+00  0.1939E+00
     -3.305  0.8352E-02  0.8352E-02  0.1948E+00  0.1948E+00
     -3.204  0.7998E-02  0.7998E-02  0.1956E+00  0.1956E+00
     -3.104  0.1354E-01  0.1354E-01  0.1969E+00  0.1969E+00
     -3.003  0.1648E-01  0.1648E-01  0.1986E+00  0.1986E+00
     -2.902  0.1291E-01  0.1291E-01  0.1999E+00  0.1999E+00
     -2.801  0.1216E-01  0.1216E-01  0.2011E+00  0.2011E+00
     -2.701  0.1016E-01  0.1016E-01  0.2021E+00  0.2021E+00
     -2.600  0.1142E-01  0.1142E-01  0.2033E+00  0.2033E+00
     -2.499  0.1635E-01  0.1635E-01  0.2049E+00  0.2049E+00
     -2.398  0.1302E-01  0.1302E-01  0.2063E+00  0.2063E+00
     -2.298  0.7900E-02  0.7900E-02  0.2071E+00  0.2071E+00
     -2.197  0.1201E-01  0.1201E-01  0.2083E+00  0.2083E+00
     -2.096  0.8998E-02  0.8998E-02  0.2092E+00  0.2092E+00
     -1.995  0.5678E-02  0.5678E-02  0.2097E+00  0.2097E+00
     -1.895  0.6596E-02  0.6596E-02  0.2104E+00  0.2104E+00
     -1.794  0.8926E-02  0.8926E-02  0.2113E+00  0.2113E+00
     -1.693  0.7424E-02  0.7424E-02  0.2121E+00  0.2121E+00
     -1.592  0.8467E-02  0.8467E-02  0.2129E+00  0.2129E+00
     -1.492  0.9188E-02  0.9188E-02  0.2138E+00  0.2138E+00
     -1.391  0.4875E-02  0.4875E-02  0.2143E+00  0.2143E+00
     -1.290  0.5161E-02  0.5161E-02  0.2148E+00  0.2148E+00
     -1.189  0.6686E-02  0.6686E-02  0.2155E+00  0.2155E+00
     -1.089  0.6538E-02  0.6538E-02  0.2162E+00  0.2162E+00
     -0.988  0.6326E-02  0.6326E-02  0.2168E+00  0.2168E+00
     -0.887  0.4351E-02  0.4351E-02  0.2173E+00  0.2173E+00
     -0.786  0.2365E-02  0.2365E-02  0.2175E+00  0.2175E+00
     -0.686  0.1007E-02  0.1007E-02  0.2176E+00  0.2176E+00
     -0.585  0.2744E-02  0.2744E-02  0.2179E+00  0.2179E+00
     -0.484  0.4093E-02  0.4093E-02  0.2183E+00  0.2183E+00
     -0.383  0.1656E-02  0.1656E-02  0.2184E+00  0.2184E+00
     -0.282  0.1998E-02  0.1998E-02  0.2187E+00  0.2187E+00
     -0.182  0.4291E-02  0.4291E-02  0.2191E+00  0.2191E+00
     -0.081  0.4522E-02  0.4522E-02  0.2195E+00  0.2195E+00
      0.020  0.4121E-02  0.4121E-02  0.2200E+00  0.2200E+00
      0.121  0.6229E-02  0.6229E-02  0.2206E+00  0.2206E+00
      0.221  0.8427E-02  0.8427E-02  0.2214E+00  0.2214E+00
      0.322  0.1171E-01  0.1171E-01  0.2226E+00  0.2226E+00
      0.423  0.1078E-01  0.1078E-01  0.2237E+00  0.2237E+00
      0.524  0.7847E-02  0.7847E-02  0.2245E+00  0.2245E+00
      0.624  0.7590E-02  0.7590E-02  0.2253E+00  0.2253E+00
      0.725  0.1058E-01  0.1058E-01  0.2263E+00  0.2263E+00
      0.826  0.7111E-02  0.7111E-02  0.2270E+00  0.2270E+00
      0.927  0.5661E-02  0.5661E-02  0.2276E+00  0.2276E+00
      1.027  0.8384E-02  0.8384E-02  0.2284E+00  0.2284E+00
      1.128  0.1568E-01  0.1568E-01  0.2300E+00  0.2300E+00
      1.229  0.1781E-01  0.1781E-01  0.2318E+00  0.2318E+00
      1.330  0.1591E-01  0.1591E-01  0.2334E+00  0.2334E+00
      1.430  0.1124E-01  0.1124E-01  0.2346E+00  0.2346E+00
      1.531  0.8764E-02  0.8764E-02  0.2354E+00  0.2354E+00
      1.632  0.1070E-01  0.1070E-01  0.2365E+00  0.2365E+00
      1.733  0.8123E-02  0.8123E-02  0.2373E+00  0.2373E+00
      1.833  0.9473E-02  0.9473E-02  0.2383E+00  0.2383E+00
      1.934  0.1405E-01  0.1405E-01  0.2397E+00  0.2397E+00
      2.035  0.1687E-01  0.1687E-01  0.2414E+00  0.2414E+00
      2.136  0.1328E-01  0.1328E-01  0.2427E+00  0.2427E+00
      2.236  0.5222E-02  0.5222E-02  0.2433E+00  0.2433E+00
      2.337  0.5778E-02  0.5778E-02  0.2439E+00  0.2439E+00
      2.438  0.1065E-01  0.1065E-01  0.2449E+00  0.2449E+00
      2.539  0.1176E-01  0.1176E-01  0.2461E+00  0.2461E+00
      2.639  0.1470E-01  0.1470E-01  0.2476E+00  0.2476E+00
      2.740  0.1734E-01  0.1734E-01  0.2493E+00  0.2493E+00
      2.841  0.1512E-01  0.1512E-01  0.2509E+00  0.2509E+00
      2.942  0.1237E-01  0.1237E-01  0.2521E+00  0.2521E+00
      3.042  0.1187E-01  0.1187E-01  0.2533E+00  0.2533E+00
      3.143  0.1353E-01  0.1353E-01  0.2547E+00  0.2547E+00
      3.244  0.2224E-01  0.2225E-01  0.2569E+00  0.2569E+00
      3.345  0.1924E-01  0.1924E-01  0.2588E+00  0.2588E+00
      3.445  0.1729E-01  0.1729E-01  0.2606E+00  0.2606E+00
      3.546  0.2252E-01  0.2252E-01  0.2629E+00  0.2629E+00
      3.647  0.2868E-01  0.2868E-01  0.2657E+00  0.2657E+00
      3.748  0.2252E-01  0.2252E-01  0.2680E+00  0.2680E+00
      3.849  0.1587E-01  0.1587E-01  0.2696E+00  0.2696E+00
      3.949  0.1795E-01  0.1795E-01  0.2714E+00  0.2714E+00
      4.050  0.2067E-01  0.2067E-01  0.2735E+00  0.2735E+00
      4.151  0.1738E-01  0.1738E-01  0.2753E+00  0.2753E+00
      4.252  0.2217E-01  0.2217E-01  0.2775E+00  0.2775E+00
      4.352  0.2242E-01  0.2242E-01  0.2798E+00  0.2798E+00
      4.453  0.1955E-01  0.1955E-01  0.2817E+00  0.2817E+00
      4.554  0.2380E-01  0.2380E-01  0.2841E+00  0.2841E+00
      4.655  0.2680E-01  0.2680E-01  0.2868E+00  0.2868E+00
      4.755  0.2790E-01  0.2791E-01  0.2896E+00  0.2896E+00
      4.856  0.2251E-01  0.2250E-01  0.2919E+00  0.2919E+00
      4.957  0.1612E-01  0.1612E-01  0.2935E+00  0.2935E+00
      5.058  0.2465E-01  0.2465E-01  0.2960E+00  0.2960E+00
      5.158  0.2802E-01  0.2802E-01  0.2988E+00  0.2988E+00
      5.259  0.2315E-01  0.2315E-01  0.3012E+00  0.3012E+00
      5.360  0.2401E-01  0.2401E-01  0.3036E+00  0.3036E+00
      5.461  0.3078E-01  0.3078E-01  0.3067E+00  0.3067E+00
      5.561  0.3155E-01  0.3155E-01  0.3099E+00  0.3099E+00
      5.662  0.2810E-01  0.2810E-01  0.3127E+00  0.3127E+00
      5.763  0.2296E-01  0.2296E-01  0.3150E+00  0.3150E+00
      5.864  0.1151E-01  0.1151E-01  0.3162E+00  0.3162E+00
      5.964  0.1878E-01  0.1878E-01  0.3181E+00  0.3181E+00
      6.065  0.3102E-01  0.3102E-01  0.3212E+00  0.3212E+00
      6.166  0.3491E-01  0.3491E-01  0.3247E+00  0.3247E+00
      6.267  0.3319E-01  0.3319E-01  0.3280E+00  0.3280E+00
      6.367  0.3186E-01  0.3186E-01  0.3313E+00  0.3313E+00
      6.468  0.2209E-01  0.2209E-01  0.3335E+00  0.3335E+00
      6.569  0.2489E-01  0.2490E-01  0.3360E+00  0.3360E+00
      6.670  0.3268E-01  0.3268E-01  0.3393E+00  0.3393E+00
      6.770  0.2660E-01  0.2660E-01  0.3420E+00  0.3420E+00
      6.871  0.3475E-01  0.3476E-01  0.3455E+00  0.3455E+00
      6.972  0.3748E-01  0.3748E-01  0.3492E+00  0.3492E+00
      7.073  0.3343E-01  0.3343E-01  0.3526E+00  0.3526E+00
      7.173  0.3213E-01  0.3213E-01  0.3558E+00  0.3558E+00
      7.274  0.2964E-01  0.2964E-01  0.3588E+00  0.3588E+00
      7.375  0.3137E-01  0.3137E-01  0.3620E+00  0.3620E+00
      7.476  0.3731E-01  0.3731E-01  0.3658E+00  0.3658E+00
      7.576  0.3164E-01  0.3164E-01  0.3689E+00  0.3689E+00
      7.677  0.2243E-01  0.2243E-01  0.3712E+00  0.3712E+00
      7.778  0.1904E-01  0.1904E-01  0.3731E+00  0.3731E+00
      7.879  0.1329E-01  0.1329E-01  0.3745E+00  0.3745E+00
      7.980  0.4571E-02  0.4570E-02  0.3749E+00  0.3749E+00
      8.080  0.7702E-03  0.7698E-03  0.3750E+00  0.3750E+00
      8.181  0.3524E-04  0.3520E-04  0.3750E+00  0.3750E+00
      8.282  0.2882E-06  0.2877E-06  0.3750E+00  0.3750E+00
      8.383  0.3589E-09  0.3581E-09  0.3750E+00  0.3750E+00
      8.483  0.6355E-13  0.6336E-13  0.3750E+00  0.3750E+00
      8.584  0.1435E-17  0.1435E-17  0.3750E+00  0.3750E+00
      8.685  0.0000E+00  0.0000E+00  0.3750E+00  0.3750E+00
      8.786  0.0000E+00  0.0000E+00  0.3750E+00  0.3750E+00
      8.886  0.0000E+00  0.0000E+00  0.3750E+00  0.3750E+00
      8.987  0.0000E+00  0.0000E+00  0.3750E+00  0.3750E+00
      9.088  0.0000E+00  0.0000E+00  0.3750E+00  0.3750E+00
      9.189  0.0000E+00  0.0000E+00  0.3750E+00  0.3750E+00
      9.289  0.0000E+00  0.0000E+00  0.3750E+00  0.3750E+00
