<?xml version="1.0" encoding="ISO-8859-1"?>
<modeling>
 <generator>
  <i name="program" type="string">vasp </i>
  <i name="version" type="string">6.3.2  </i>
  <i name="subversion" type="string">27Jun22 (build Dec 22 2022 13:13:19) complex                          parallel </i>
  <i name="platform" type="string">LinuxIFC </i>
  <i name="date" type="string">2023 08 21 </i>
  <i name="time" type="string">16:51:20 </i>
 </generator>
 <incar>
  <i type="string" name="SYSTEM">Lattice</i>
  <i type="int" name="ISTART">     0</i>
  <i type="string" name="PREC">Accurate</i>
  <i type="string" name="ALGO">Normal</i>
  <i type="int" name="ISPIN">     2</i>
  <i type="int" name="ICHARG">     2</i>
  <i type="int" name="NELM">    64</i>
  <i type="int" name="IBRION">     2</i>
  <i name="EDIFF">      0.00000100</i>
  <i name="EDIFFG">     -0.00100000</i>
  <i type="int" name="NSW">   128</i>
  <i type="int" name="ISIF">     2</i>
  <i name="ENCUT">    450.00000000</i>
  <i name="POTIM">      0.50000000</i>
  <i type="int" name="ISMEAR">     0</i>
  <i name="SIGMA">      0.10000000</i>
  <i type="logical" name="LWAVE"> F  </i>
  <i type="logical" name="LCHARG"> F  </i>
  <i type="string" name="GGA">PE</i>
  <i type="int" name="IVDW">    12</i>
 </incar>
 <primitive_cell>
  <structure name="primitive_cell" >
   <crystal>
    <varray name="basis" >
     <v>       4.35610778       2.51500000       0.00000000 </v>
     <v>      -4.35610778       2.51500000       0.00000000 </v>
     <v>       0.00000000       0.00000000      15.00000000 </v>
    </varray>
    <i name="volume">    328.66833208 </i>
    <varray name="rec_basis" >
     <v>       0.11478137       0.19880716       0.00000000 </v>
     <v>      -0.11478137       0.19880716       0.00000000 </v>
     <v>       0.00000000       0.00000000       0.06666667 </v>
    </varray>
   </crystal>
   <varray name="positions" >
    <v>       0.66888689       0.00000000       0.10000000 </v>
    <v>       0.33111211       0.00000000       0.10000000 </v>
    <v>       0.00000000       0.33111211       0.10000000 </v>
    <v>       0.00000000       0.66888689       0.10000000 </v>
    <v>       0.33111211       0.33111211       0.10000000 </v>
    <v>       0.66888689       0.66888689       0.10000000 </v>
    <v>       0.66666600       0.33333300       0.09922189 </v>
    <v>       0.33333300       0.66666600       0.10077811 </v>
    <v>       0.24999933       0.24999967       0.46906667 </v>
    <v>       0.41666633       0.08333267       0.46906667 </v>
    <v>       0.24999933       0.74999967       0.46906667 </v>
    <v>       0.41666633       0.58333267       0.46906667 </v>
    <v>       0.74999933       0.24999967       0.46906667 </v>
    <v>       0.91666633       0.08333267       0.46906667 </v>
    <v>       0.74999933       0.74999967       0.46906667 </v>
    <v>       0.91666633       0.58333267       0.46906667 </v>
   </varray>
  </structure>
  <varray name="primitive_index" >
   <v type="int" >        1 </v>
   <v type="int" >        2 </v>
   <v type="int" >        3 </v>
   <v type="int" >        4 </v>
   <v type="int" >        5 </v>
   <v type="int" >        6 </v>
   <v type="int" >        7 </v>
   <v type="int" >        8 </v>
   <v type="int" >        9 </v>
   <v type="int" >       10 </v>
   <v type="int" >       11 </v>
   <v type="int" >       12 </v>
   <v type="int" >       13 </v>
   <v type="int" >       14 </v>
   <v type="int" >       15 </v>
   <v type="int" >       16 </v>
  </varray>
 </primitive_cell>
 <kpoints>
  <generation param="Gamma">
   <v type="int" name="divisions">      12       12        1 </v>
   <v name="usershift">      0.00000000       0.00000000       0.00000000 </v>
   <v name="genvec1">      0.08333333       0.00000000       0.00000000 </v>
   <v name="genvec2">      0.00000000       0.08333333       0.00000000 </v>
   <v name="genvec3">      0.00000000       0.00000000       1.00000000 </v>
   <v name="shift">      0.00000000       0.00000000       0.00000000 </v>
  </generation>
  <varray name="kpointlist" >
   <v>       0.00000000       0.00000000       0.00000000 </v>
   <v>       0.08333333       0.00000000       0.00000000 </v>
   <v>      -0.08333333       0.08333333       0.00000000 </v>
   <v>       0.16666667      -0.00000000       0.00000000 </v>
   <v>      -0.16666667       0.16666667       0.00000000 </v>
   <v>       0.25000000       0.00000000       0.00000000 </v>
   <v>      -0.25000000       0.25000000       0.00000000 </v>
   <v>       0.33333333       0.00000000       0.00000000 </v>
   <v>      -0.33333333       0.33333333       0.00000000 </v>
   <v>       0.41666667       0.00000000       0.00000000 </v>
   <v>      -0.41666667       0.41666667       0.00000000 </v>
   <v>       0.50000000       0.00000000       0.00000000 </v>
   <v>       0.50000000       0.50000000       0.00000000 </v>
   <v>       0.08333333       0.08333333       0.00000000 </v>
   <v>      -0.08333333       0.16666667       0.00000000 </v>
   <v>       0.16666667       0.08333333       0.00000000 </v>
   <v>      -0.08333333       0.25000000       0.00000000 </v>
   <v>      -0.25000000       0.16666667       0.00000000 </v>
   <v>       0.25000000       0.08333333       0.00000000 </v>
   <v>      -0.08333333       0.33333333       0.00000000 </v>
   <v>      -0.33333333       0.25000000       0.00000000 </v>
   <v>       0.33333333       0.08333333       0.00000000 </v>
   <v>      -0.08333333       0.41666667       0.00000000 </v>
   <v>      -0.41666667       0.33333333       0.00000000 </v>
   <v>       0.41666667       0.08333333       0.00000000 </v>
   <v>      -0.08333333       0.50000000       0.00000000 </v>
   <v>       0.50000000       0.41666667       0.00000000 </v>
   <v>       0.16666667       0.16666667       0.00000000 </v>
   <v>      -0.16666667       0.33333333       0.00000000 </v>
   <v>       0.25000000       0.16666667       0.00000000 </v>
   <v>      -0.16666667       0.41666667       0.00000000 </v>
   <v>      -0.41666667       0.25000000       0.00000000 </v>
   <v>       0.33333333       0.16666667       0.00000000 </v>
   <v>      -0.16666667       0.50000000       0.00000000 </v>
   <v>       0.50000000       0.33333333       0.00000000 </v>
   <v>       0.41666667       0.16666667       0.00000000 </v>
   <v>       0.41666667       0.41666667       0.00000000 </v>
   <v>       0.25000000       0.25000000       0.00000000 </v>
   <v>      -0.25000000       0.50000000       0.00000000 </v>
   <v>       0.33333333       0.25000000       0.00000000 </v>
   <v>      -0.25000000      -0.41666667       0.00000000 </v>
   <v>       0.41666667       0.33333333       0.00000000 </v>
   <v>       0.33333333       0.33333333       0.00000000 </v>
  </varray>
  <varray name="weights" >
   <v>       0.00694444 </v>
   <v>       0.02777778 </v>
   <v>       0.01388889 </v>
   <v>       0.02777778 </v>
   <v>       0.01388889 </v>
   <v>       0.02777778 </v>
   <v>       0.01388889 </v>
   <v>       0.02777778 </v>
   <v>       0.01388889 </v>
   <v>       0.02777778 </v>
   <v>       0.01388889 </v>
   <v>       0.01388889 </v>
   <v>       0.00694444 </v>
   <v>       0.01388889 </v>
   <v>       0.02777778 </v>
   <v>       0.02777778 </v>
   <v>       0.02777778 </v>
   <v>       0.02777778 </v>
   <v>       0.02777778 </v>
   <v>       0.02777778 </v>
   <v>       0.02777778 </v>
   <v>       0.02777778 </v>
   <v>       0.02777778 </v>
   <v>       0.02777778 </v>
   <v>       0.02777778 </v>
   <v>       0.02777778 </v>
   <v>       0.02777778 </v>
   <v>       0.01388889 </v>
   <v>       0.02777778 </v>
   <v>       0.02777778 </v>
   <v>       0.02777778 </v>
   <v>       0.02777778 </v>
   <v>       0.02777778 </v>
   <v>       0.02777778 </v>
   <v>       0.02777778 </v>
   <v>       0.02777778 </v>
   <v>       0.01388889 </v>
   <v>       0.01388889 </v>
   <v>       0.02777778 </v>
   <v>       0.02777778 </v>
   <v>       0.02777778 </v>
   <v>       0.02777778 </v>
   <v>       0.01388889 </v>
  </varray>
 </kpoints>
 <parameters>
  <separator name="general" >
   <i type="string" name="SYSTEM">Lattice</i>
   <i type="logical" name="LCOMPAT"> F  </i>
  </separator>
  <separator name="electronic" >
   <i type="string" name="PREC">accura</i>
   <i name="ENMAX">    450.00000000</i>
   <i name="ENAUG">    644.87300000</i>
   <i name="EDIFF">      0.00000100</i>
   <i type="int" name="IALGO">    38</i>
   <i type="int" name="IWAVPR">    11</i>
   <i type="int" name="NBANDS">    48</i>
   <i type="int" name="NBANDSLOW">    -1</i>
   <i type="int" name="NBANDSHIGH">    -1</i>
   <i name="NELECT">     56.00000000</i>
   <i type="int" name="TURBO">     0</i>
   <i type="int" name="IRESTART">     0</i>
   <i type="int" name="NREBOOT">     0</i>
   <i type="int" name="NMIN">     0</i>
   <i name="EREF">      0.00000000</i>
   <separator name="electronic smearing" >
    <i type="int" name="ISMEAR">     0</i>
    <i name="SIGMA">      0.10000000</i>
    <i name="KSPACING">      0.50000000</i>
    <i type="logical" name="KGAMMA"> T  </i>
    <i type="logical" name="KBLOWUP"> T  </i>
   </separator>
   <separator name="electronic projectors" >
    <i type="logical" name="LREAL"> F  </i>
    <v name="ROPT">      0.00000000      0.00000000</v>
    <i type="int" name="LMAXPAW">  -100</i>
    <i type="int" name="LMAXMIX">     2</i>
    <i type="logical" name="NLSPLINE"> F  </i>
   </separator>
   <separator name="electronic startup" >
    <i type="int" name="ISTART">     0</i>
    <i type="int" name="ICHARG">     2</i>
    <i type="int" name="INIWAV">     1</i>
   </separator>
   <separator name="electronic spin" >
    <i type="int" name="ISPIN">     2</i>
    <i type="logical" name="LNONCOLLINEAR"> F  </i>
    <v name="MAGMOM">      1.00000000      1.00000000      1.00000000      1.00000000      1.00000000      1.00000000      1.00000000      1.00000000      1.00000000      1.00000000      1.00000000      1.00000000      1.00000000      1.00000000      1.00000000      1.00000000</v>
    <i name="NUPDOWN">     -1.00000000</i>
    <i type="logical" name="LSORBIT"> F  </i>
    <v name="SAXIS">      0.00000000      0.00000000      1.00000000</v>
    <i type="logical" name="LSPIRAL"> F  </i>
    <v name="QSPIRAL">      0.00000000      0.00000000      0.00000000</v>
    <i type="logical" name="LZEROZ"> F  </i>
   </separator>
   <separator name="electronic exchange-correlation" >
    <i type="logical" name="LASPH"> F  </i>
    <i type="logical" name="LMETAGGA"> F  </i>
   </separator>
   <separator name="electronic convergence" >
    <i type="int" name="NELM">    64</i>
    <i type="int" name="NELMDL">    -5</i>
    <i type="int" name="NELMIN">     2</i>
    <i name="ENINI">    450.00000000</i>
    <separator name="electronic convergence detail" >
     <i type="logical" name="LDIAG"> T  </i>
     <i type="logical" name="LSUBROT"> F  </i>
     <i name="WEIMIN">      0.00100000</i>
     <i name="EBREAK">      0.00000001</i>
     <i name="DEPER">      0.30000000</i>
     <i type="int" name="NRMM">     4</i>
     <i name="TIME">      0.40000000</i>
    </separator>
   </separator>
   <separator name="electronic mixer" >
    <i name="AMIX">      0.40000000</i>
    <i name="BMIX">      1.00000000</i>
    <i name="AMIN">      0.10000000</i>
    <i name="AMIX_MAG">      1.60000000</i>
    <i name="BMIX_MAG">      1.00000000</i>
    <separator name="electronic mixer details" >
     <i type="int" name="IMIX">     4</i>
     <i type="logical" name="MIXFIRST"> F  </i>
     <i type="int" name="MAXMIX">   -45</i>
     <i name="WC">    100.00000000</i>
     <i type="int" name="INIMIX">     1</i>
     <i type="int" name="MIXPRE">     1</i>
     <i type="int" name="MREMOVE">     5</i>
    </separator>
   </separator>
   <separator name="electronic dipolcorrection" >
    <i type="logical" name="LDIPOL"> F  </i>
    <i type="logical" name="LMONO"> F  </i>
    <i type="int" name="IDIPOL">     0</i>
    <i name="EPSILON">      1.00000000</i>
    <v name="DIPOL">   -100.00000000   -100.00000000   -100.00000000</v>
    <i name="EFIELD">      0.00000000</i>
   </separator>
  </separator>
  <separator name="grids" >
   <i type="int" name="NGX">    36</i>
   <i type="int" name="NGY">    36</i>
   <i type="int" name="NGZ">   108</i>
   <i type="int" name="NGXF">    72</i>
   <i type="int" name="NGYF">    72</i>
   <i type="int" name="NGZF">   216</i>
   <i type="logical" name="ADDGRID"> F  </i>
  </separator>
  <separator name="ionic" >
   <i type="int" name="NSW">   128</i>
   <i type="int" name="IBRION">     2</i>
   <i type="int" name="MDALGO">     0</i>
   <i type="int" name="ISIF">     2</i>
   <i name="PSTRESS">      0.00000000</i>
   <i name="EDIFFG">     -0.00100000</i>
   <i type="int" name="NFREE">     1</i>
   <i name="POTIM">      0.50000000</i>
   <i name="SMASS">     -3.00000000</i>
   <i name="SCALEE">      1.00000000</i>
  </separator>
  <separator name="ionic md" >
   <i name="TEBEG">      0.00010000</i>
   <i name="TEEND">      0.00010000</i>
   <i type="int" name="NBLOCK">     1</i>
   <i type="int" name="KBLOCK">   128</i>
   <i type="int" name="NPACO">   256</i>
   <i name="APACO">     10.00000000</i>
  </separator>
  <separator name="symmetry" >
   <i type="int" name="ISYM">     2</i>
   <i name="SYMPREC">      0.00001000</i>
  </separator>
  <separator name="dos" >
   <i type="int" name="LORBIT">     0</i>
   <v name="RWIGS">     -1.00000000     -1.00000000</v>
   <i type="int" name="NEDOS">   301</i>
   <i name="EMIN">     10.00000000</i>
   <i name="EMAX">    -10.00000000</i>
   <i name="EFERMI">      0.00000000</i>
  </separator>
  <separator name="writing" >
   <i type="int" name="NWRITE">     2</i>
   <i type="logical" name="LWAVE"> F  </i>
   <i type="logical" name="LDOWNSAMPLE"> F  </i>
   <i type="logical" name="LCHARG"> F  </i>
   <i type="logical" name="LPARD"> F  </i>
   <i type="logical" name="LVTOT"> F  </i>
   <i type="logical" name="LVHAR"> F  </i>
   <i type="logical" name="LELF"> F  </i>
   <i type="logical" name="LOPTICS"> F  </i>
   <v name="STM">      0.00000000      0.00000000      0.00000000      0.00000000      0.00000000      0.00000000      0.00000000</v>
  </separator>
  <separator name="performance" >
   <i type="int" name="NPAR">    48</i>
   <i type="int" name="NSIM">     4</i>
   <i type="int" name="NBLK">    -1</i>
   <i type="logical" name="LPLANE"> T  </i>
   <i type="logical" name="LSCALAPACK"> T  </i>
   <i type="logical" name="LSCAAWARE"> F  </i>
   <i type="logical" name="LSCALU"> F  </i>
   <i type="logical" name="LASYNC"> F  </i>
   <i type="logical" name="LORBITALREAL"> F  </i>
  </separator>
  <separator name="miscellaneous" >
   <i type="int" name="IDIOT">     3</i>
   <i type="int" name="PHON_NSTRUCT">    -1</i>
   <i type="logical" name="LMUSIC"> F  </i>
   <v name="POMASS">     10.81100000     12.01100000</v>
   <v name="DARWINR">      0.00000000      0.00000000</v>
   <v name="DARWINV">      1.00000000      1.00000000</v>
   <i type="logical" name="LCORR"> T  </i>
  </separator>
  <i type="logical" name="GGA_COMPAT"> T  </i>
  <i type="logical" name="LBERRY"> F  </i>
  <i type="int" name="ICORELEVEL">     0</i>
  <i type="logical" name="LDAU"> F  </i>
  <i type="int" name="I_CONSTRAINED_M">     0</i>
  <separator name="electronic exchange-correlation" >
   <i type="string" name="GGA">PE</i>
   <i type="int" name="VOSKOWN">     0</i>
   <i type="logical" name="LHFCALC"> F  </i>
   <i type="string" name="PRECFOCK"></i>
   <i type="logical" name="LSYMGRAD"> F  </i>
   <i type="logical" name="LHFONE"> F  </i>
   <i type="logical" name="LRHFCALC"> F  </i>
   <i type="logical" name="LTHOMAS"> F  </i>
   <i type="logical" name="LMODELHF"> F  </i>
   <i type="logical" name="LFOCKACE"> F  </i>
   <i name="ENCUT4O">     -1.00000000</i>
   <i type="int" name="EXXOEP">     0</i>
   <i type="int" name="FOURORBIT">     0</i>
   <i name="AEXX">      0.00000000</i>
   <i name="HFALPHA">      0.00000000</i>
   <i name="MCALPHA">      0.00000000</i>
   <i name="ALDAX">      1.00000000</i>
   <i name="AGGAX">      1.00000000</i>
   <i name="ALDAC">      1.00000000</i>
   <i name="AGGAC">      1.00000000</i>
   <i type="int" name="NKREDX">     1</i>
   <i type="int" name="NKREDY">     1</i>
   <i type="int" name="NKREDZ">     1</i>
   <i type="logical" name="SHIFTRED"> F  </i>
   <i type="logical" name="ODDONLY"> F  </i>
   <i type="logical" name="EVENONLY"> F  </i>
   <i type="int" name="LMAXFOCK">     0</i>
   <i type="int" name="NMAXFOCKAE">     0</i>
   <i type="logical" name="LFOCKAEDFT"> F  </i>
   <i name="HFSCREEN">      0.00000000</i>
   <i name="HFSCREENC">      0.00000000</i>
   <i type="int" name="NBANDSGWLOW">     0</i>
  </separator>
  <separator name="vdW DFT" >
   <i type="logical" name="LUSE_VDW"> F  </i>
   <i name="Zab_VDW">     -0.84910000</i>
   <i name="PARAM1">      0.12340000</i>
   <i name="PARAM2">      1.00000000</i>
   <i name="PARAM3">      0.00000000</i>
  </separator>
  <separator name="model GW" >
   <i type="int" name="MODEL_GW">     0</i>
   <i name="MODEL_EPS0">     12.32506245</i>
   <i name="MODEL_ALPHA">      1.00000000</i>
  </separator>
  <separator name="linear response parameters" >
   <i type="logical" name="LEPSILON"> F  </i>
   <i type="logical" name="LRPA"> F  </i>
   <i type="logical" name="LNABLA"> F  </i>
   <i type="logical" name="LVEL"> F  </i>
   <i name="CSHIFT">      0.10000000</i>
   <i name="OMEGAMAX">     -1.00000000</i>
   <i name="DEG_THRESHOLD">      0.00200000</i>
   <i name="RTIME">     -0.10000000</i>
   <i name="WPLASMAI">      0.00000000</i>
   <v name="DFIELD">      0.00000000      0.00000000      0.00000000</v>
   <v name="WPLASMA">      0.00000000      0.00000000      0.00000000      0.00000000      0.00000000      0.00000000      0.00000000      0.00000000      0.00000000</v>
  </separator>
  <separator name="orbital magnetization" >
   <i type="logical" name="NUCIND"> F  </i>
   <v name="MAGPOS">      0.00000000      0.00000000      0.00000000</v>
   <i type="logical" name="LNICSALL"> T  </i>
   <i type="logical" name="ORBITALMAG"> F  </i>
   <i type="logical" name="LMAGBLOCH"> F  </i>
   <i type="logical" name="LCHIMAG"> F  </i>
   <i type="logical" name="LGAUGE"> T  </i>
   <i type="int" name="MAGATOM">     0</i>
   <v name="MAGDIPOL">      0.00000000      0.00000000      0.00000000</v>
   <v name="AVECCONST">      0.00000000      0.00000000      0.00000000</v>
  </separator>
  <separator name="response functions" >
   <i type="logical" name="LFINITE_TEMPERATURE"> F  </i>
   <i type="logical" name="LADDER"> F  </i>
   <i type="logical" name="LRPAFORCE"> F  </i>
   <i type="logical" name="LFXC"> F  </i>
   <i type="logical" name="LHARTREE"> T  </i>
   <i type="int" name="IBSE">     0</i>
   <v type="int" name="KPOINT">    -1     0     0     0</v>
   <i type="logical" name="LTCTC"> F  </i>
   <i type="logical" name="LTCTE"> F  </i>
   <i type="logical" name="LTETE"> F  </i>
   <i type="logical" name="LTRIPLET"> F  </i>
   <i type="logical" name="LFXCEPS"> F  </i>
   <i type="logical" name="LFXHEG"> F  </i>
   <i type="int" name="NATURALO">     2</i>
   <i type="logical" name="LHOLEGF"> F  </i>
   <i type="logical" name="L2ORDER"> F  </i>
   <i type="logical" name="LDMP1"> F  </i>
   <i type="logical" name="LMP2LT"> F  </i>
   <i type="logical" name="LSMP2LT"> F  </i>
   <i type="logical" name="LGWLF"> F  </i>
   <i name="ENCUTGW">     -2.00000000</i>
   <i name="ENCUTGWSOFT">     -2.00000000</i>
   <i name="ENCUTLF">     -1.00000000</i>
   <i type="logical" name="LESF_SPLINES"> F  </i>
   <i type="int" name="LMAXMP2">    -1</i>
   <i name="SCISSOR">      0.00000000</i>
   <i type="int" name="NOMEGA">     0</i>
   <i type="int" name="NOMEGAR">     0</i>
   <i type="int" name="NBANDSGW">    -1</i>
   <i type="int" name="NBANDSO">    -1</i>
   <i type="int" name="NBANDSV">    -1</i>
   <i type="int" name="NELMGW">     1</i>
   <i type="int" name="NELMHF">     1</i>
   <i type="int" name="DIM">     3</i>
   <i type="int" name="IESPILON">     4</i>
   <i type="int" name="ANTIRES">     0</i>
   <i name="OMEGAMAX">    -30.00000000</i>
   <i name="OMEGAMIN">    -30.00000000</i>
   <i name="OMEGATL">   -200.00000000</i>
   <i type="int" name="OMEGAGRID">     0</i>
   <i name="CSHIFT">     -0.10000000</i>
   <i type="logical" name="LSELFENERGY"> F  </i>
   <i type="logical" name="LSPECTRAL"> F  </i>
   <i type="logical" name="LSPECTRALGW"> F  </i>
   <i type="logical" name="LSINGLES"> F  </i>
   <i type="logical" name="LFERMIGW"> F  </i>
   <i type="logical" name="ODDONLYGW"> F  </i>
   <i type="logical" name="EVENONLYGW"> F  </i>
   <i type="int" name="NKREDLFX">     1</i>
   <i type="int" name="NKREDLFY">     1</i>
   <i type="int" name="NKREDLFZ">     1</i>
   <i type="int" name="MAXMEM">  2800</i>
   <i type="int" name="TELESCOPE">     0</i>
   <i type="int" name="NTAUPAR">    -1</i>
   <i type="int" name="NOMEGAPAR">    -1</i>
   <i name="DAMP_NEWTON">      0.80000001</i>
   <i name="LAMBDA">      1.00000000</i>
  </separator>
  <separator name="External order field" >
   <i name="OFIELD_KAPPA">      0.00000000</i>
   <v name="OFIELD_K">      0.00000000      0.00000000      0.00000000</v>
   <i name="OFIELD_Q6_NEAR">      0.00000000</i>
   <i name="OFIELD_Q6_FAR">      0.00000000</i>
   <i name="OFIELD_A">      0.00000000</i>
  </separator>
  <separator name="optional k-points parameters" >
   <i type="int" name="KPOINTS_OPT_MODE">     1</i>
   <i type="logical" name="LKPOINTS_OPT"> F  </i>
  </separator>
  <separator name="solvation model" >
   <i type="logical" name="LSOL"> F  </i>
  </separator>
 </parameters>
 <atominfo>
  <atoms>      16 </atoms>
  <types>       2 </types>
  <array name="atoms" >
   <dimension dim="1">ion</dimension>
   <field type="string">element</field>
   <field type="int">atomtype</field>
   <set>
    <rc><c>B </c><c>   1</c></rc>
    <rc><c>B </c><c>   1</c></rc>
    <rc><c>B </c><c>   1</c></rc>
    <rc><c>B </c><c>   1</c></rc>
    <rc><c>B </c><c>   1</c></rc>
    <rc><c>B </c><c>   1</c></rc>
    <rc><c>B </c><c>   1</c></rc>
    <rc><c>B </c><c>   1</c></rc>
    <rc><c>C </c><c>   2</c></rc>
    <rc><c>C </c><c>   2</c></rc>
    <rc><c>C </c><c>   2</c></rc>
    <rc><c>C </c><c>   2</c></rc>
    <rc><c>C </c><c>   2</c></rc>
    <rc><c>C </c><c>   2</c></rc>
    <rc><c>C </c><c>   2</c></rc>
    <rc><c>C </c><c>   2</c></rc>
   </set>
  </array>
  <array name="atomtypes" >
   <dimension dim="1">type</dimension>
   <field type="int">atomspertype</field>
   <field type="string">element</field>
   <field>mass</field>
   <field>valence</field>
   <field type="string">pseudopotential</field>
   <set>
    <rc><c>   8</c><c>B </c><c>     10.81100000</c><c>      3.00000000</c><c>  PAW_PBE B 06Sep2000                   </c></rc>
    <rc><c>   8</c><c>C </c><c>     12.01100000</c><c>      4.00000000</c><c>  PAW_PBE C 08Apr2002                   </c></rc>
   </set>
  </array>
 </atominfo>
 <structure name="initialpos" >
  <crystal>
   <varray name="basis" >
    <v>       4.35610778       2.51500000       0.00000000 </v>
    <v>      -4.35610778       2.51500000       0.00000000 </v>
    <v>       0.00000000       0.00000000      15.00000000 </v>
   </varray>
   <i name="volume">    328.66833208 </i>
   <varray name="rec_basis" >
    <v>       0.11478137       0.19880716       0.00000000 </v>
    <v>      -0.11478137       0.19880716       0.00000000 </v>
    <v>       0.00000000       0.00000000       0.06666667 </v>
   </varray>
  </crystal>
  <varray name="positions" >
   <v>       0.66888689       0.00000000       0.10000000 </v>
   <v>       0.33111211       0.00000000       0.10000000 </v>
   <v>       0.00000000       0.33111211       0.10000000 </v>
   <v>       0.00000000       0.66888689       0.10000000 </v>
   <v>       0.33111211       0.33111211       0.10000000 </v>
   <v>       0.66888689       0.66888689       0.10000000 </v>
   <v>       0.66666600       0.33333300       0.09922189 </v>
   <v>       0.33333300       0.66666600       0.10077811 </v>
   <v>       0.24999933       0.24999967       0.46906667 </v>
   <v>       0.41666633       0.08333267       0.46906667 </v>
   <v>       0.24999933       0.74999967       0.46906667 </v>
   <v>       0.41666633       0.58333267       0.46906667 </v>
   <v>       0.74999933       0.24999967       0.46906667 </v>
   <v>       0.91666633       0.08333267       0.46906667 </v>
   <v>       0.74999933       0.74999967       0.46906667 </v>
   <v>       0.91666633       0.58333267       0.46906667 </v>
  </varray>
 </structure>
 <calculation>
  <scstep>
   <time name="dav">    3.34    3.37</time>
   <time name="total">    3.38    3.42</time>
   <energy>
    <i name="alphaZ">     59.25071400 </i>
    <i name="ewald">   1804.35250360 </i>
    <i name="hartreedc">  -3226.15180347 </i>
    <i name="XCdc">    162.52632825 </i>
    <i name="pawpsdc">   1214.24570090 </i>
    <i name="pawaedc">  -1211.68112031 </i>
    <i name="eentropy">     -0.01660878 </i>
    <i name="bandstr">   -365.05598573 </i>
    <i name="atom">   1746.50554237 </i>
    <i name="e_fr_energy">    183.97527083 </i>
    <i name="e_wo_entrp">    183.99187961 </i>
    <i name="e_0_energy">    183.98357522 </i>
   </energy>
  </scstep>
  <scstep>
   <time name="dav">    5.29    5.34</time>
   <time name="total">    5.29    5.34</time>
   <energy>
    <i name="e_fr_energy">   -117.34627723 </i>
    <i name="e_wo_entrp">   -117.33247442 </i>
    <i name="e_0_energy">   -117.33937582 </i>
   </energy>
  </scstep>
  <scstep>
   <time name="dav">    5.98    6.03</time>
   <time name="total">    5.98    6.03</time>
   <energy>
    <i name="e_fr_energy">   -126.98798666 </i>
    <i name="e_wo_entrp">   -126.97502153 </i>
    <i name="e_0_energy">   -126.98150409 </i>
   </energy>
  </scstep>
  <scstep>
   <time name="dav">    5.43    5.48</time>
   <time name="total">    5.43    5.48</time>
   <energy>
    <i name="e_fr_energy">   -127.01953605 </i>
    <i name="e_wo_entrp">   -127.00649237 </i>
    <i name="e_0_energy">   -127.01301421 </i>
   </energy>
  </scstep>
  <scstep>
   <time name="dav">    5.56    5.60</time>
   <time name="total">    5.74    5.80</time>
   <energy>
    <i name="e_fr_energy">   -127.01958653 </i>
    <i name="e_wo_entrp">   -127.00654284 </i>
    <i name="e_0_energy">   -127.01306468 </i>
   </energy>
  </scstep>
  <scstep>
   <time name="dav">    4.46    4.52</time>
   <time name="total">    4.69    4.77</time>
   <energy>
    <i name="e_fr_energy">    -94.16082555 </i>
    <i name="e_wo_entrp">    -94.15134904 </i>
    <i name="e_0_energy">    -94.15608730 </i>
   </energy>
  </scstep>
  <scstep>
   <time name="dav">    5.30    5.35</time>
   <time name="total">    5.51    5.59</time>
   <energy>
    <i name="e_fr_energy">   -105.40975601 </i>
    <i name="e_wo_entrp">   -105.40040870 </i>
    <i name="e_0_energy">   -105.40508236 </i>
   </energy>
  </scstep>
  <scstep>
   <time name="dav">    5.25    5.30</time>
   <time name="total">    5.47    5.53</time>
   <energy>
    <i name="e_fr_energy">   -111.36290313 </i>
    <i name="e_wo_entrp">   -111.35331620 </i>
    <i name="e_0_energy">   -111.35810966 </i>
   </energy>
  </scstep>
  <scstep>
   <time name="dav">    4.34    4.39</time>
   <time name="total">    4.55    4.61</time>
   <energy>
    <i name="e_fr_energy">   -116.62976390 </i>
    <i name="e_wo_entrp">   -116.62659384 </i>
    <i name="e_0_energy">   -116.62817887 </i>
   </energy>
  </scstep>
  <scstep>
   <time name="dav">    5.05    5.09</time>
   <time name="total">    5.26    5.31</time>
   <energy>
    <i name="e_fr_energy">   -120.77919320 </i>
    <i name="e_wo_entrp">   -120.77449710 </i>
    <i name="e_0_energy">   -120.77684515 </i>
   </energy>
  </scstep>
  <scstep>
   <time name="dav">    4.78    4.82</time>
   <time name="total">    4.99    5.04</time>
   <energy>
    <i name="e_fr_energy">   -122.70667650 </i>
    <i name="e_wo_entrp">   -122.70340515 </i>
    <i name="e_0_energy">   -122.70504082 </i>
   </energy>
  </scstep>
  <scstep>
   <time name="dav">    6.07    6.11</time>
   <time name="total">    6.27    6.32</time>
   <energy>
    <i name="e_fr_energy">   -123.69190520 </i>
    <i name="e_wo_entrp">   -123.68761923 </i>
    <i name="e_0_energy">   -123.68976222 </i>
   </energy>
  </scstep>
  <scstep>
   <time name="dav">    4.83    4.87</time>
   <time name="total">    5.03    5.08</time>
   <energy>
    <i name="e_fr_energy">   -124.00668232 </i>
    <i name="e_wo_entrp">   -124.00076039 </i>
    <i name="e_0_energy">   -124.00372135 </i>
   </energy>
  </scstep>
  <scstep>
   <time name="dav">    4.43    4.46</time>
   <time name="total">    4.63    4.67</time>
   <energy>
    <i name="e_fr_energy">   -124.06304653 </i>
    <i name="e_wo_entrp">   -124.05693209 </i>
    <i name="e_0_energy">   -124.05998931 </i>
   </energy>
  </scstep>
  <scstep>
   <time name="dav">    4.02    4.06</time>
   <time name="total">    4.22    4.27</time>
   <energy>
    <i name="e_fr_energy">   -124.08482800 </i>
    <i name="e_wo_entrp">   -124.07870615 </i>
    <i name="e_0_energy">   -124.08176708 </i>
   </energy>
  </scstep>
  <scstep>
   <time name="dav">    4.06    4.09</time>
   <time name="total">    4.26    4.31</time>
   <energy>
    <i name="e_fr_energy">   -124.08677442 </i>
    <i name="e_wo_entrp">   -124.08070997 </i>
    <i name="e_0_energy">   -124.08374219 </i>
   </energy>
  </scstep>
  <scstep>
   <time name="dav">    3.75    3.78</time>
   <time name="total">    3.95    3.99</time>
   <energy>
    <i name="e_fr_energy">   -124.08765916 </i>
    <i name="e_wo_entrp">   -124.08162307 </i>
    <i name="e_0_energy">   -124.08464111 </i>
   </energy>
  </scstep>
  <scstep>
   <time name="dav">    3.58    3.61</time>
   <time name="total">    3.78    3.82</time>
   <energy>
    <i name="e_fr_energy">   -124.08764572 </i>
    <i name="e_wo_entrp">   -124.08159486 </i>
    <i name="e_0_energy">   -124.08462029 </i>
   </energy>
  </scstep>
  <scstep>
   <time name="dav">    3.73    3.76</time>
   <time name="total">    3.94    3.98</time>
   <energy>
    <i name="e_fr_energy">   -124.08768991 </i>
    <i name="e_wo_entrp">   -124.08163389 </i>
    <i name="e_0_energy">   -124.08466190 </i>
   </energy>
  </scstep>
  <scstep>
   <time name="dav">    3.38    3.42</time>
   <time name="total">    3.58    3.63</time>
   <energy>
    <i name="e_fr_energy">   -124.08771387 </i>
    <i name="e_wo_entrp">   -124.08165932 </i>
    <i name="e_0_energy">   -124.08468660 </i>
   </energy>
  </scstep>
  <scstep>
   <time name="dav">    3.38    3.42</time>
   <time name="total">    3.59    3.63</time>
   <energy>
    <i name="e_fr_energy">   -124.08775928 </i>
    <i name="e_wo_entrp">   -124.08170378 </i>
    <i name="e_0_energy">   -124.08473153 </i>
   </energy>
  </scstep>
  <scstep>
   <time name="dav">    4.11    4.14</time>
   <time name="total">    4.31    4.35</time>
   <energy>
    <i name="e_fr_energy">   -124.08778399 </i>
    <i name="e_wo_entrp">   -124.08172834 </i>
    <i name="e_0_energy">   -124.08475616 </i>
   </energy>
  </scstep>
  <scstep>
   <time name="dav">    4.86    4.90</time>
   <time name="total">    5.06    5.11</time>
   <energy>
    <i name="e_fr_energy">   -124.08778752 </i>
    <i name="e_wo_entrp">   -124.08173279 </i>
    <i name="e_0_energy">   -124.08476015 </i>
   </energy>
  </scstep>
  <scstep>
   <time name="dav">    4.66    4.69</time>
   <time name="total">    4.86    4.90</time>
   <energy>
    <i name="e_fr_energy">   -124.08779107 </i>
    <i name="e_wo_entrp">   -124.08173649 </i>
    <i name="e_0_energy">   -124.08476378 </i>
   </energy>
  </scstep>
  <scstep>
   <time name="dav">    4.76    4.79</time>
   <time name="total">    4.96    5.00</time>
   <energy>
    <i name="e_fr_energy">   -124.08779228 </i>
    <i name="e_wo_entrp">   -124.08173767 </i>
    <i name="e_0_energy">   -124.08476497 </i>
   </energy>
  </scstep>
  <scstep>
   <time name="dav">    5.41    5.44</time>
   <time name="total">    5.45    5.49</time>
   <energy>
    <i name="alphaZ">     59.25071400 </i>
    <i name="ewald">   1804.35250360 </i>
    <i name="hartreedc">  -3411.91646583 </i>
    <i name="XCdc">    167.07581206 </i>
    <i name="pawpsdc">   5518.83496715 </i>
    <i name="pawaedc">  -5518.09494906 </i>
    <i name="eentropy">     -0.00605448 </i>
    <i name="bandstr">   -490.08986243 </i>
    <i name="atom">   1746.50554237 </i>
    <i name="e_fr_energy">   -124.08779263 </i>
    <i name="e_wo_entrp">   -124.08173815 </i>
    <i name="e_0_energy">   -124.08476539 </i>
   </energy>
  </scstep>
  <structure>
   <crystal>
    <varray name="basis" >
     <v>       4.35610778       2.51500000       0.00000000 </v>
     <v>      -4.35610778       2.51500000       0.00000000 </v>
     <v>       0.00000000       0.00000000      15.00000000 </v>
    </varray>
    <i name="volume">    328.66833208 </i>
    <varray name="rec_basis" >
     <v>       0.11478137       0.19880716       0.00000000 </v>
     <v>      -0.11478137       0.19880716       0.00000000 </v>
     <v>       0.00000000       0.00000000       0.06666667 </v>
    </varray>
   </crystal>
   <varray name="positions" >
    <v>       0.66888689       0.00000000       0.10000000 </v>
    <v>       0.33111211       0.00000000       0.10000000 </v>
    <v>       0.00000000       0.33111211       0.10000000 </v>
    <v>       0.00000000       0.66888689       0.10000000 </v>
    <v>       0.33111211       0.33111211       0.10000000 </v>
    <v>       0.66888689       0.66888689       0.10000000 </v>
    <v>       0.66666600       0.33333300       0.09922189 </v>
    <v>       0.33333300       0.66666600       0.10077811 </v>
    <v>       0.24999933       0.24999967       0.46906667 </v>
    <v>       0.41666633       0.08333267       0.46906667 </v>
    <v>       0.24999933       0.74999967       0.46906667 </v>
    <v>       0.41666633       0.58333267       0.46906667 </v>
    <v>       0.74999933       0.24999967       0.46906667 </v>
    <v>       0.91666633       0.08333267       0.46906667 </v>
    <v>       0.74999933       0.74999967       0.46906667 </v>
    <v>       0.91666633       0.58333267       0.46906667 </v>
   </varray>
  </structure>
  <varray name="forces" >
   <v>       0.04075121       0.02350844       0.00808903 </v>
   <v>      -0.04070554      -0.02352147       0.00811591 </v>
   <v>       0.04075121      -0.02350844       0.00808903 </v>
   <v>      -0.04070554       0.02352147       0.00811591 </v>
   <v>       0.00000230      -0.04705821       0.00812021 </v>
   <v>       0.00000230       0.04705821       0.00812021 </v>
   <v>       0.00001052       0.00000000       0.01110394 </v>
   <v>      -0.00008027       0.00000000       0.00748059 </v>
   <v>       0.00004072      -0.00045719      -0.00832002 </v>
   <v>      -0.00042818      -0.00008977      -0.00849162 </v>
   <v>      -0.00007694       0.00000000      -0.00861542 </v>
   <v>       0.00013654       0.00000000      -0.00841473 </v>
   <v>       0.00050671       0.00000000      -0.00837297 </v>
   <v>       0.00018243       0.00000000      -0.00820843 </v>
   <v>       0.00004072       0.00045719      -0.00832002 </v>
   <v>      -0.00042818       0.00008977      -0.00849162 </v>
  </varray>
  <varray name="stress" >
   <v>     -42.87963876      -0.00000000      -0.00073141 </v>
   <v>      -0.00000000     -42.87897005       0.00000000 </v>
   <v>      -0.00073142       0.00000000      -3.56136221 </v>
  </varray>
  <energy>
   <i name="e_fr_energy">   -125.55503581 </i>
   <i name="e_wo_entrp">   -125.54898133 </i>
   <i name="e_0_energy">   -125.55200857 </i>
  </energy>
  <time name="totalsc">  127.32  128.64</time>
 </calculation>
 <calculation>
  <scstep>
   <time name="dav">    3.29    3.32</time>
   <time name="total">    3.50    3.54</time>
   <energy>
    <i name="alphaZ">     59.25071400 </i>
    <i name="ewald">   1804.58031974 </i>
    <i name="hartreedc">  -3412.33275741 </i>
    <i name="XCdc">    167.06625840 </i>
    <i name="pawpsdc">   5518.83280446 </i>
    <i name="pawaedc">  -5518.09278860 </i>
    <i name="eentropy">     -0.00609126 </i>
    <i name="bandstr">   -489.89207133 </i>
    <i name="atom">   1746.50554237 </i>
    <i name="e_fr_energy">   -124.08806965 </i>
    <i name="e_wo_entrp">   -124.08197838 </i>
    <i name="e_0_energy">   -124.08502402 </i>
   </energy>
  </scstep>
  <scstep>
   <time name="dav">    5.89    5.94</time>
   <time name="total">    6.10    6.15</time>
   <energy>
    <i name="e_fr_energy">   -124.08785268 </i>
    <i name="e_wo_entrp">   -124.08179333 </i>
    <i name="e_0_energy">   -124.08482300 </i>
   </energy>
  </scstep>
  <scstep>
   <time name="dav">    5.49    5.52</time>
   <time name="total">    5.69    5.74</time>
   <energy>
    <i name="e_fr_energy">   -124.08781453 </i>
    <i name="e_wo_entrp">   -124.08177786 </i>
    <i name="e_0_energy">   -124.08479620 </i>
   </energy>
  </scstep>
  <scstep>
   <time name="dav">    5.20    5.23</time>
   <time name="total">    5.41    5.45</time>
   <energy>
    <i name="e_fr_energy">   -124.08781334 </i>
    <i name="e_wo_entrp">   -124.08177835 </i>
    <i name="e_0_energy">   -124.08479584 </i>
   </energy>
  </scstep>
  <scstep>
   <time name="dav">    5.59    5.63</time>
   <time name="total">    5.62    5.67</time>
   <energy>
    <i name="alphaZ">     59.25071400 </i>
    <i name="ewald">   1804.58031974 </i>
    <i name="hartreedc">  -3412.17658286 </i>
    <i name="XCdc">    167.06301999 </i>
    <i name="pawpsdc">   5514.52238139 </i>
    <i name="pawaedc">  -5513.78098037 </i>
    <i name="eentropy">     -0.00603467 </i>
    <i name="bandstr">   -490.04619285 </i>
    <i name="atom">   1746.50554237 </i>
    <i name="e_fr_energy">   -124.08781327 </i>
    <i name="e_wo_entrp">   -124.08177860 </i>
    <i name="e_0_energy">   -124.08479593 </i>
   </energy>
  </scstep>
  <structure>
   <crystal>
    <varray name="basis" >
     <v>       4.35610778       2.51500000       0.00000000 </v>
     <v>      -4.35610778       2.51500000       0.00000000 </v>
     <v>       0.00000000       0.00000000      15.00000000 </v>
    </varray>
    <i name="volume">    328.66833208 </i>
    <varray name="rec_basis" >
     <v>       0.11478137       0.19880716       0.00000000 </v>
     <v>      -0.11478137       0.19880716       0.00000000 </v>
     <v>       0.00000000       0.00000000       0.06666667 </v>
    </varray>
   </crystal>
   <varray name="positions" >
    <v>       0.66933801      -0.00000018       0.10002602 </v>
    <v>       0.33066112      -0.00000019       0.10002610 </v>
    <v>       0.00000018       0.33066099       0.10002602 </v>
    <v>       0.00000019       0.66933788       0.10002610 </v>
    <v>       0.33066079       0.33066076       0.10002612 </v>
    <v>       0.66933824       0.66933821       0.10002612 </v>
    <v>       0.66666606       0.33333294       0.09925760 </v>
    <v>       0.33333256       0.66666644       0.10080217 </v>
    <v>       0.24999517       0.24999506       0.46903991 </v>
    <v>       0.41666310       0.08333418       0.46903936 </v>
    <v>       0.24999891       0.75000009       0.46903896 </v>
    <v>       0.41666709       0.58333191       0.46903960 </v>
    <v>       0.75000214       0.24999686       0.46903974 </v>
    <v>       0.91666734       0.08333166       0.46904027 </v>
    <v>       0.75000394       0.75000383       0.46903991 </v>
    <v>       0.91666482       0.58333590       0.46903936 </v>
   </varray>
  </structure>
  <varray name="forces" >
   <v>      -0.03221626      -0.01859283       0.00811889 </v>
   <v>       0.03221047       0.01861646       0.00814292 </v>
   <v>      -0.03221626       0.01859283       0.00811889 </v>
   <v>       0.03221047      -0.01861646       0.00814292 </v>
   <v>       0.00000218       0.03724409       0.00814619 </v>
   <v>       0.00000218      -0.03724409       0.00814619 </v>
   <v>      -0.00002096      -0.00000000       0.01149936 </v>
   <v>       0.00005448      -0.00000000       0.00681912 </v>
   <v>      -0.00020868       0.00107295      -0.00834705 </v>
   <v>       0.00113125       0.00017636      -0.00843784 </v>
   <v>       0.00002485       0.00000000      -0.00849140 </v>
   <v>      -0.00023911      -0.00000000      -0.00840189 </v>
   <v>      -0.00135338      -0.00000000      -0.00837529 </v>
   <v>      -0.00030381      -0.00000000      -0.00829610 </v>
   <v>      -0.00020868      -0.00107295      -0.00834705 </v>
   <v>       0.00113125      -0.00017636      -0.00843784 </v>
  </varray>
  <varray name="stress" >
   <v>     -43.26625706      -0.00000000      -0.00071534 </v>
   <v>      -0.00000000     -43.26805735       0.00000000 </v>
   <v>      -0.00071536       0.00000000      -3.56667352 </v>
  </varray>
  <energy>
   <i name="e_fr_energy">   -125.55515877 </i>
   <i name="e_wo_entrp">   -125.54912410 </i>
   <i name="e_0_energy">   -125.55214144 </i>
  </energy>
  <time name="totalsc">   29.56   29.83</time>
 </calculation>
 <calculation>
  <scstep>
   <time name="dav">    3.42    3.45</time>
   <time name="total">    3.62    3.66</time>
   <energy>
    <i name="alphaZ">     59.25071400 </i>
    <i name="ewald">   1804.48974049 </i>
    <i name="hartreedc">  -3412.01009763 </i>
    <i name="XCdc">    167.06679532 </i>
    <i name="pawpsdc">   5514.48718767 </i>
    <i name="pawaedc">  -5513.74578963 </i>
    <i name="eentropy">     -0.00601454 </i>
    <i name="bandstr">   -490.12605904 </i>
    <i name="atom">   1746.50554237 </i>
    <i name="e_fr_energy">   -124.08798099 </i>
    <i name="e_wo_entrp">   -124.08196645 </i>
    <i name="e_0_energy">   -124.08497372 </i>
   </energy>
  </scstep>
  <scstep>
   <time name="dav">    5.39    5.43</time>
   <time name="total">    5.59    5.64</time>
   <energy>
    <i name="e_fr_energy">   -124.08794719 </i>
    <i name="e_wo_entrp">   -124.08191838 </i>
    <i name="e_0_energy">   -124.08493278 </i>
   </energy>
  </scstep>
  <scstep>
   <time name="dav">    5.06    5.09</time>
   <time name="total">    5.26    5.31</time>
   <energy>
    <i name="e_fr_energy">   -124.08794157 </i>
    <i name="e_wo_entrp">   -124.08190350 </i>
    <i name="e_0_energy">   -124.08492253 </i>
   </energy>
  </scstep>
  <scstep>
   <time name="dav">    5.06    5.09</time>
   <time name="total">    5.09    5.12</time>
   <energy>
    <i name="alphaZ">     59.25071400 </i>
    <i name="ewald">   1804.48974049 </i>
    <i name="hartreedc">  -3412.06405128 </i>
    <i name="XCdc">    167.06802171 </i>
    <i name="pawpsdc">   5516.07562816 </i>
    <i name="pawaedc">  -5515.33475573 </i>
    <i name="eentropy">     -0.00603863 </i>
    <i name="bandstr">   -490.07274254 </i>
    <i name="atom">   1746.50554237 </i>
    <i name="e_fr_energy">   -124.08794147 </i>
    <i name="e_wo_entrp">   -124.08190284 </i>
    <i name="e_0_energy">   -124.08492216 </i>
   </energy>
  </scstep>
  <structure>
   <crystal>
    <varray name="basis" >
     <v>       4.35610778       2.51500000       0.00000000 </v>
     <v>      -4.35610778       2.51500000       0.00000000 </v>
     <v>       0.00000000       0.00000000      15.00000000 </v>
    </varray>
    <i name="volume">    328.66833208 </i>
    <varray name="rec_basis" >
     <v>       0.11478137       0.19880716       0.00000000 </v>
     <v>      -0.11478137       0.19880716       0.00000000 </v>
     <v>       0.00000000       0.00000000       0.06666667 </v>
    </varray>
   </crystal>
   <varray name="positions" >
    <v>       0.66916033      -0.00000011       0.10001577 </v>
    <v>       0.33083874      -0.00000012       0.10001582 </v>
    <v>       0.00000011       0.33083867       0.10001577 </v>
    <v>       0.00000012       0.66916026       0.10001582 </v>
    <v>       0.33083855       0.33083853       0.10001583 </v>
    <v>       0.66916047       0.66916045       0.10001583 </v>
    <v>       0.66666604       0.33333296       0.09924353 </v>
    <v>       0.33333273       0.66666627       0.10079270 </v>
    <v>       0.24999681       0.24999687       0.46905045 </v>
    <v>       0.41666437       0.08333358       0.46905011 </v>
    <v>       0.24999908       0.74999992       0.46904987 </v>
    <v>       0.41666679       0.58333221       0.46905026 </v>
    <v>       0.75000103       0.24999797       0.46905034 </v>
    <v>       0.91666695       0.08333205       0.46905066 </v>
    <v>       0.75000213       0.75000219       0.46905045 </v>
    <v>       0.91666542       0.58333463       0.46905011 </v>
   </varray>
  </structure>
  <varray name="forces" >
   <v>      -0.00343345      -0.00198467       0.00811808 </v>
   <v>       0.00344738       0.00199472       0.00814312 </v>
   <v>      -0.00343345       0.00198467       0.00811808 </v>
   <v>       0.00344738      -0.00199472       0.00814312 </v>
   <v>       0.00000291       0.00398969       0.00814712 </v>
   <v>       0.00000291      -0.00398969       0.00814712 </v>
   <v>      -0.00000860      -0.00000000       0.01134976 </v>
   <v>       0.00000100      -0.00000000       0.00708490 </v>
   <v>      -0.00011059       0.00047093      -0.00834491 </v>
   <v>       0.00051739       0.00007217      -0.00846876 </v>
   <v>      -0.00001368      -0.00000000      -0.00855096 </v>
   <v>      -0.00009213      -0.00000000      -0.00841794 </v>
   <v>      -0.00062130      -0.00000000      -0.00838504 </v>
   <v>      -0.00011257      -0.00000000      -0.00827007 </v>
   <v>      -0.00011059      -0.00047093      -0.00834491 </v>
   <v>       0.00051739      -0.00007217      -0.00846876 </v>
  </varray>
  <varray name="stress" >
   <v>     -43.12094836      -0.00000000      -0.00072029 </v>
   <v>      -0.00000000     -43.12179276       0.00000000 </v>
   <v>      -0.00072029       0.00000000      -3.55968973 </v>
  </varray>
  <energy>
   <i name="e_fr_energy">   -125.55524675 </i>
   <i name="e_wo_entrp">   -125.54920812 </i>
   <i name="e_0_energy">   -125.55222743 </i>
  </energy>
  <time name="totalsc">   22.69   22.89</time>
 </calculation>
 <calculation>
  <scstep>
   <time name="dav">    3.42    3.45</time>
   <time name="total">    3.62    3.67</time>
   <energy>
    <i name="alphaZ">     59.25071400 </i>
    <i name="ewald">   1805.16355042 </i>
    <i name="hartreedc">  -3412.73867425 </i>
    <i name="XCdc">    167.06800350 </i>
    <i name="pawpsdc">   5516.17590828 </i>
    <i name="pawaedc">  -5515.43504661 </i>
    <i name="eentropy">     -0.00603854 </i>
    <i name="bandstr">   -490.07190821 </i>
    <i name="atom">   1746.50554237 </i>
    <i name="e_fr_energy">   -124.08794904 </i>
    <i name="e_wo_entrp">   -124.08191050 </i>
    <i name="e_0_energy">   -124.08492977 </i>
   </energy>
  </scstep>
  <scstep>
   <time name="dav">    3.48    3.50</time>
   <time name="total">    3.68    3.72</time>
   <energy>
    <i name="e_fr_energy">   -124.08794834 </i>
    <i name="e_wo_entrp">   -124.08190936 </i>
    <i name="e_0_energy">   -124.08492885 </i>
   </energy>
  </scstep>
  <scstep>
   <time name="dav">    3.48    3.50</time>
   <time name="total">    3.51    3.54</time>
   <energy>
    <i name="alphaZ">     59.25071400 </i>
    <i name="ewald">   1805.16355042 </i>
    <i name="hartreedc">  -3412.74687724 </i>
    <i name="XCdc">    167.06799521 </i>
    <i name="pawpsdc">   5516.16500573 </i>
    <i name="pawaedc">  -5515.42414321 </i>
    <i name="eentropy">     -0.00603865 </i>
    <i name="bandstr">   -490.06369629 </i>
    <i name="atom">   1746.50554237 </i>
    <i name="e_fr_energy">   -124.08794767 </i>
    <i name="e_wo_entrp">   -124.08190901 </i>
    <i name="e_0_energy">   -124.08492834 </i>
   </energy>
  </scstep>
  <structure>
   <crystal>
    <varray name="basis" >
     <v>       4.35610778       2.51500000       0.00000000 </v>
     <v>      -4.35610778       2.51500000       0.00000000 </v>
     <v>       0.00000000       0.00000000      15.00000000 </v>
    </varray>
    <i name="volume">    328.66833208 </i>
    <varray name="rec_basis" >
     <v>       0.11478137       0.19880716       0.00000000 </v>
     <v>      -0.11478137       0.19880716       0.00000000 </v>
     <v>       0.00000000       0.00000000       0.06666667 </v>
    </varray>
   </crystal>
   <varray name="positions" >
    <v>       0.66916052      -0.00000015       0.10004185 </v>
    <v>       0.33083873      -0.00000009       0.10004199 </v>
    <v>       0.00000015       0.33083848       0.10004185 </v>
    <v>       0.00000009       0.66916027       0.10004199 </v>
    <v>       0.33083856       0.33083851       0.10004201 </v>
    <v>       0.66916049       0.66916044       0.10004201 </v>
    <v>       0.66666600       0.33333300       0.09927995 </v>
    <v>       0.33333270       0.66666630       0.10081557 </v>
    <v>       0.25000008       0.25000124       0.46902363 </v>
    <v>       0.41666740       0.08333170       0.46902289 </v>
    <v>       0.24999897       0.75000003       0.46902237 </v>
    <v>       0.41666638       0.58333262       0.46902321 </v>
    <v>       0.74999808       0.25000092       0.46902340 </v>
    <v>       0.91666645       0.08333255       0.46902410 </v>
    <v>       0.74999776       0.74999892       0.46902363 </v>
    <v>       0.91666730       0.58333160       0.46902289 </v>
   </varray>
  </structure>
  <varray name="forces" >
   <v>      -0.00329299      -0.00190904       0.00779859 </v>
   <v>       0.00330203       0.00189463       0.00782162 </v>
   <v>      -0.00329299       0.00190904       0.00779859 </v>
   <v>       0.00330203      -0.00189463       0.00782162 </v>
   <v>      -0.00000380       0.00380381       0.00782434 </v>
   <v>      -0.00000380      -0.00380381       0.00782434 </v>
   <v>       0.00000995      -0.00000000       0.01094914 </v>
   <v>       0.00000309      -0.00000000       0.00670178 </v>
   <v>       0.00036155      -0.00091412      -0.00803648 </v>
   <v>      -0.00119494      -0.00011448      -0.00809848 </v>
   <v>       0.00020653       0.00000000      -0.00813426 </v>
   <v>       0.00002101       0.00000000      -0.00807760 </v>
   <v>       0.00138800       0.00000000      -0.00806315 </v>
   <v>       0.00002775      -0.00000000      -0.00799511 </v>
   <v>       0.00036155       0.00091412      -0.00803648 </v>
   <v>      -0.00119494       0.00011448      -0.00809848 </v>
  </varray>
  <varray name="stress" >
   <v>     -43.11948527      -0.00000000      -0.00072487 </v>
   <v>      -0.00000000     -43.11786782       0.00000000 </v>
   <v>      -0.00072490       0.00000000      -3.56395211 </v>
  </varray>
  <energy>
   <i name="e_fr_energy">   -125.55530172 </i>
   <i name="e_wo_entrp">   -125.54926307 </i>
   <i name="e_0_energy">   -125.55228239 </i>
  </energy>
  <time name="totalsc">   13.93   14.07</time>
 </calculation>
 <calculation>
  <scstep>
   <time name="dav">    3.31    3.34</time>
   <time name="total">    3.52    3.56</time>
   <energy>
    <i name="alphaZ">     59.25071400 </i>
    <i name="ewald">   1807.18662108 </i>
    <i name="hartreedc">  -3414.76726727 </i>
    <i name="XCdc">    167.06802527 </i>
    <i name="pawpsdc">   5516.17308754 </i>
    <i name="pawaedc">  -5515.43222605 </i>
    <i name="eentropy">     -0.00603795 </i>
    <i name="bandstr">   -490.06643506 </i>
    <i name="atom">   1746.50554237 </i>
    <i name="e_fr_energy">   -124.08797607 </i>
    <i name="e_wo_entrp">   -124.08193812 </i>
    <i name="e_0_energy">   -124.08495710 </i>
   </energy>
  </scstep>
  <scstep>
   <time name="dav">    3.52    3.55</time>
   <time name="total">    3.72    3.76</time>
   <energy>
    <i name="e_fr_energy">   -124.08797111 </i>
    <i name="e_wo_entrp">   -124.08193180 </i>
    <i name="e_0_energy">   -124.08495146 </i>
   </energy>
  </scstep>
  <scstep>
   <time name="dav">    4.33    4.36</time>
   <time name="total">    4.53    4.58</time>
   <energy>
    <i name="e_fr_energy">   -124.08796432 </i>
    <i name="e_wo_entrp">   -124.08192586 </i>
    <i name="e_0_energy">   -124.08494509 </i>
   </energy>
  </scstep>
  <scstep>
   <time name="dav">    3.67    3.70</time>
   <time name="total">    3.70    3.73</time>
   <energy>
    <i name="alphaZ">     59.25071400 </i>
    <i name="ewald">   1807.18662108 </i>
    <i name="hartreedc">  -3414.78240920 </i>
    <i name="XCdc">    167.06806060 </i>
    <i name="pawpsdc">   5516.17374890 </i>
    <i name="pawaedc">  -5515.43288457 </i>
    <i name="eentropy">     -0.00603806 </i>
    <i name="bandstr">   -490.05132011 </i>
    <i name="atom">   1746.50554237 </i>
    <i name="e_fr_energy">   -124.08796500 </i>
    <i name="e_wo_entrp">   -124.08192694 </i>
    <i name="e_0_energy">   -124.08494597 </i>
   </energy>
  </scstep>
  <structure>
   <crystal>
    <varray name="basis" >
     <v>       4.35610778       2.51500000       0.00000000 </v>
     <v>      -4.35610778       2.51500000       0.00000000 </v>
     <v>       0.00000000       0.00000000      15.00000000 </v>
    </varray>
    <i name="volume">    328.66833208 </i>
    <varray name="rec_basis" >
     <v>       0.11478137       0.19880716       0.00000000 </v>
     <v>      -0.11478137       0.19880716       0.00000000 </v>
     <v>       0.00000000       0.00000000       0.06666667 </v>
    </varray>
   </crystal>
   <varray name="positions" >
    <v>       0.66916108      -0.00000025       0.10012011 </v>
    <v>       0.33083868      -0.00000002       0.10012048 </v>
    <v>       0.00000025       0.33083792       0.10012011 </v>
    <v>       0.00000002       0.66916032       0.10012048 </v>
    <v>       0.33083860       0.33083846       0.10012054 </v>
    <v>       0.66916054       0.66916040       0.10012054 </v>
    <v>       0.66666588       0.33333312       0.09938920 </v>
    <v>       0.33333261       0.66666639       0.10088418 </v>
    <v>       0.25000990       0.25001433       0.46894319 </v>
    <v>       0.41667647       0.08332605       0.46894121 </v>
    <v>       0.24999866       0.75000034       0.46893987 </v>
    <v>       0.41666515       0.58333385       0.46894204 </v>
    <v>       0.74998923       0.25000977       0.46894256 </v>
    <v>       0.91666496       0.08333404       0.46894441 </v>
    <v>       0.74998467       0.74998910       0.46894319 </v>
    <v>       0.91667295       0.58332253       0.46894121 </v>
   </varray>
  </structure>
  <varray name="forces" >
   <v>      -0.00334024      -0.00196145       0.00822044 </v>
   <v>       0.00334302       0.00186492       0.00823628 </v>
   <v>      -0.00334024       0.00196145       0.00822044 </v>
   <v>       0.00334302      -0.00186492       0.00823628 </v>
   <v>      -0.00002920       0.00379651       0.00823641 </v>
   <v>      -0.00002920      -0.00379651       0.00823641 </v>
   <v>       0.00006464       0.00000000       0.01100532 </v>
   <v>       0.00001492       0.00000000       0.00685013 </v>
   <v>       0.00176848      -0.00488781      -0.00846955 </v>
   <v>      -0.00621190      -0.00060827      -0.00834228 </v>
   <v>       0.00095182       0.00000000      -0.00824023 </v>
   <v>       0.00030402       0.00000000      -0.00840243 </v>
   <v>       0.00727901       0.00000000      -0.00843741 </v>
   <v>       0.00032527       0.00000000      -0.00853795 </v>
   <v>       0.00176848       0.00488781      -0.00846955 </v>
   <v>      -0.00621190       0.00060827      -0.00834228 </v>
  </varray>
  <varray name="stress" >
   <v>     -43.12484561      -0.00000000      -0.00072671 </v>
   <v>      -0.00000000     -43.11230730       0.00000000 </v>
   <v>      -0.00072670       0.00000000      -3.56881751 </v>
  </varray>
  <energy>
   <i name="e_fr_energy">   -125.55546559 </i>
   <i name="e_wo_entrp">   -125.54942753 </i>
   <i name="e_0_energy">   -125.55244656 </i>
  </energy>
  <time name="totalsc">   18.61   18.80</time>
 </calculation>
 <calculation>
  <scstep>
   <time name="dav">    3.28    3.31</time>
   <time name="total">    3.49    3.52</time>
   <energy>
    <i name="alphaZ">     59.25071400 </i>
    <i name="ewald">   1811.24014638 </i>
    <i name="hartreedc">  -3418.82877088 </i>
    <i name="XCdc">    167.06812373 </i>
    <i name="pawpsdc">   5516.19208411 </i>
    <i name="pawaedc">  -5515.45122310 </i>
    <i name="eentropy">     -0.00603665 </i>
    <i name="bandstr">   -490.05861629 </i>
    <i name="atom">   1746.50554237 </i>
    <i name="e_fr_energy">   -124.08803634 </i>
    <i name="e_wo_entrp">   -124.08199969 </i>
    <i name="e_0_energy">   -124.08501801 </i>
   </energy>
  </scstep>
  <scstep>
   <time name="dav">    3.57    3.60</time>
   <time name="total">    3.77    3.81</time>
   <energy>
    <i name="e_fr_energy">   -124.08802155 </i>
    <i name="e_wo_entrp">   -124.08198224 </i>
    <i name="e_0_energy">   -124.08500190 </i>
   </energy>
  </scstep>
  <scstep>
   <time name="dav">    4.89    4.93</time>
   <time name="total">    5.09    5.14</time>
   <energy>
    <i name="e_fr_energy">   -124.08799135 </i>
    <i name="e_wo_entrp">   -124.08195368 </i>
    <i name="e_0_energy">   -124.08497252 </i>
   </energy>
  </scstep>
  <scstep>
   <time name="dav">    3.83    3.86</time>
   <time name="total">    4.03    4.07</time>
   <energy>
    <i name="e_fr_energy">   -124.08799325 </i>
    <i name="e_wo_entrp">   -124.08195643 </i>
    <i name="e_0_energy">   -124.08497484 </i>
   </energy>
  </scstep>
  <scstep>
   <time name="dav">    3.27    3.30</time>
   <time name="total">    3.47    3.51</time>
   <energy>
    <i name="e_fr_energy">   -124.08799476 </i>
    <i name="e_wo_entrp">   -124.08195811 </i>
    <i name="e_0_energy">   -124.08497643 </i>
   </energy>
  </scstep>
  <scstep>
   <time name="dav">    3.92    3.95</time>
   <time name="total">    4.12    4.16</time>
   <energy>
    <i name="e_fr_energy">   -124.08799328 </i>
    <i name="e_wo_entrp">   -124.08195664 </i>
    <i name="e_0_energy">   -124.08497496 </i>
   </energy>
  </scstep>
  <scstep>
   <time name="dav">    3.89    3.92</time>
   <time name="total">    3.93    3.96</time>
   <energy>
    <i name="alphaZ">     59.25071400 </i>
    <i name="ewald">   1811.24014638 </i>
    <i name="hartreedc">  -3418.83345102 </i>
    <i name="XCdc">    167.06817565 </i>
    <i name="pawpsdc">   5516.21588712 </i>
    <i name="pawaedc">  -5515.47502960 </i>
    <i name="eentropy">     -0.00603668 </i>
    <i name="bandstr">   -490.05394195 </i>
    <i name="atom">   1746.50554237 </i>
    <i name="e_fr_energy">   -124.08799373 </i>
    <i name="e_wo_entrp">   -124.08195705 </i>
    <i name="e_0_energy">   -124.08497539 </i>
   </energy>
  </scstep>
  <structure>
   <crystal>
    <varray name="basis" >
     <v>       4.35610778       2.51500000       0.00000000 </v>
     <v>      -4.35610778       2.51500000       0.00000000 </v>
     <v>       0.00000000       0.00000000      15.00000000 </v>
    </varray>
    <i name="volume">    328.66833208 </i>
    <varray name="rec_basis" >
     <v>       0.11478137       0.19880716       0.00000000 </v>
     <v>      -0.11478137       0.19880716       0.00000000 </v>
     <v>       0.00000000       0.00000000       0.06666667 </v>
    </varray>
   </crystal>
   <varray name="positions" >
    <v>       0.66916219      -0.00000047       0.10027661 </v>
    <v>       0.33083859       0.00000012       0.10027748 </v>
    <v>       0.00000047       0.33083681       0.10027661 </v>
    <v>      -0.00000012       0.66916041       0.10027748 </v>
    <v>       0.33083869       0.33083836       0.10027761 </v>
    <v>       0.66916064       0.66916031       0.10027761 </v>
    <v>       0.66666564       0.33333336       0.09960770 </v>
    <v>       0.33333243       0.66666657       0.10102140 </v>
    <v>       0.25002953       0.25004052       0.46878230 </v>
    <v>       0.41669462       0.08331475       0.46877787 </v>
    <v>       0.24999804       0.75000096       0.46877488 </v>
    <v>       0.41666268       0.58333632       0.46877971 </v>
    <v>       0.74997153       0.25002747       0.46878088 </v>
    <v>       0.91666199       0.08333701       0.46878502 </v>
    <v>       0.74995848       0.74996947       0.46878230 </v>
    <v>       0.91668425       0.58330438       0.46877787 </v>
   </varray>
  </structure>
  <varray name="forces" >
   <v>      -0.00343951      -0.00204092       0.00852199 </v>
   <v>       0.00340343       0.00182049       0.00852332 </v>
   <v>      -0.00343951       0.00204092       0.00852199 </v>
   <v>       0.00340343      -0.00182049       0.00852332 </v>
   <v>      -0.00005752       0.00376977       0.00851838 </v>
   <v>      -0.00005752      -0.00376977       0.00851838 </v>
   <v>       0.00017657      -0.00000000       0.01041067 </v>
   <v>       0.00003740      -0.00000000       0.00652165 </v>
   <v>       0.00461363      -0.01291164      -0.00875568 </v>
   <v>      -0.01630760      -0.00163861      -0.00825104 </v>
   <v>       0.00242040      -0.00000000      -0.00788701 </v>
   <v>       0.00085669      -0.00000000      -0.00848618 </v>
   <v>       0.01912715      -0.00000000      -0.00861639 </v>
   <v>       0.00095692      -0.00000000      -0.00905667 </v>
   <v>       0.00461363       0.01291164      -0.00875568 </v>
   <v>      -0.01630760       0.00163861      -0.00825104 </v>
  </varray>
  <varray name="stress" >
   <v>     -43.13601639      -0.00000000      -0.00074128 </v>
   <v>      -0.00000000     -43.10070981       0.00000000 </v>
   <v>      -0.00074130       0.00000000      -3.58017193 </v>
  </varray>
  <energy>
   <i name="e_fr_energy">   -125.55578843 </i>
   <i name="e_wo_entrp">   -125.54975174 </i>
   <i name="e_0_energy">   -125.55277009 </i>
  </energy>
  <time name="totalsc">   31.03   31.33</time>
 </calculation>
 <calculation>
  <scstep>
   <time name="dav">    3.31    3.33</time>
   <time name="total">    3.51    3.54</time>
   <energy>
    <i name="alphaZ">     59.25071400 </i>
    <i name="ewald">   1819.37673181 </i>
    <i name="hartreedc">  -3426.95655561 </i>
    <i name="XCdc">    167.06824539 </i>
    <i name="pawpsdc">   5516.21354163 </i>
    <i name="pawaedc">  -5515.47268355 </i>
    <i name="eentropy">     -0.00603381 </i>
    <i name="bandstr">   -490.06771164 </i>
    <i name="atom">   1746.50554237 </i>
    <i name="e_fr_energy">   -124.08820941 </i>
    <i name="e_wo_entrp">   -124.08217560 </i>
    <i name="e_0_energy">   -124.08519250 </i>
   </energy>
  </scstep>
  <scstep>
   <time name="dav">    3.46    3.49</time>
   <time name="total">    3.66    3.70</time>
   <energy>
    <i name="e_fr_energy">   -124.08815488 </i>
    <i name="e_wo_entrp">   -124.08211609 </i>
    <i name="e_0_energy">   -124.08513549 </i>
   </energy>
  </scstep>
  <scstep>
   <time name="dav">    5.04    5.08</time>
   <time name="total">    5.24    5.29</time>
   <energy>
    <i name="e_fr_energy">   -124.08802664 </i>
    <i name="e_wo_entrp">   -124.08199073 </i>
    <i name="e_0_energy">   -124.08500869 </i>
   </energy>
  </scstep>
  <scstep>
   <time name="dav">    4.11    4.14</time>
   <time name="total">    4.32    4.36</time>
   <energy>
    <i name="e_fr_energy">   -124.08803162 </i>
    <i name="e_wo_entrp">   -124.08199741 </i>
    <i name="e_0_energy">   -124.08501451 </i>
   </energy>
  </scstep>
  <scstep>
   <time name="dav">    3.78    3.81</time>
   <time name="total">    3.99    4.02</time>
   <energy>
    <i name="e_fr_energy">   -124.08803435 </i>
    <i name="e_wo_entrp">   -124.08200069 </i>
    <i name="e_0_energy">   -124.08501752 </i>
   </energy>
  </scstep>
  <scstep>
   <time name="dav">    3.55    3.58</time>
   <time name="total">    3.76    3.80</time>
   <energy>
    <i name="e_fr_energy">   -124.08803018 </i>
    <i name="e_wo_entrp">   -124.08199647 </i>
    <i name="e_0_energy">   -124.08501333 </i>
   </energy>
  </scstep>
  <scstep>
   <time name="dav">    3.75    3.77</time>
   <time name="total">    3.78    3.80</time>
   <energy>
    <i name="alphaZ">     59.25071400 </i>
    <i name="ewald">   1819.37673181 </i>
    <i name="hartreedc">  -3426.98195535 </i>
    <i name="XCdc">    167.06833189 </i>
    <i name="pawpsdc">   5516.23618103 </i>
    <i name="pawaedc">  -5515.49532682 </i>
    <i name="eentropy">     -0.00603381 </i>
    <i name="bandstr">   -490.04221564 </i>
    <i name="atom">   1746.50554237 </i>
    <i name="e_fr_energy">   -124.08803052 </i>
    <i name="e_wo_entrp">   -124.08199671 </i>
    <i name="e_0_energy">   -124.08501362 </i>
   </energy>
  </scstep>
  <structure>
   <crystal>
    <varray name="basis" >
     <v>       4.35610778       2.51500000       0.00000000 </v>
     <v>      -4.35610778       2.51500000       0.00000000 </v>
     <v>       0.00000000       0.00000000      15.00000000 </v>
    </varray>
    <i name="volume">    328.66833208 </i>
    <varray name="rec_basis" >
     <v>       0.11478137       0.19880716       0.00000000 </v>
     <v>      -0.11478137       0.19880716       0.00000000 </v>
     <v>       0.00000000       0.00000000       0.06666667 </v>
    </varray>
   </crystal>
   <varray name="positions" >
    <v>       0.66916442      -0.00000089       0.10058963 </v>
    <v>       0.33083840       0.00000040       0.10059146 </v>
    <v>       0.00000089       0.33083458       0.10058963 </v>
    <v>      -0.00000040       0.66916060       0.10059146 </v>
    <v>       0.33083886       0.33083815       0.10059176 </v>
    <v>       0.66916085       0.66916014       0.10059176 </v>
    <v>       0.66666517       0.33333383       0.10004470 </v>
    <v>       0.33333208       0.66666692       0.10129585 </v>
    <v>       0.25006879       0.25009290       0.46846053 </v>
    <v>       0.41673091       0.08329214       0.46845117 </v>
    <v>       0.24999681       0.75000219       0.46844489 </v>
    <v>       0.41665775       0.58334125       0.46845506 </v>
    <v>       0.74993613       0.25006287       0.46845751 </v>
    <v>       0.91665605       0.08334295       0.46846624 </v>
    <v>       0.74990610       0.74993021       0.46846053 </v>
    <v>       0.91670686       0.58326809       0.46845117 </v>
   </varray>
  </structure>
  <varray name="forces" >
   <v>      -0.00365197      -0.00220902       0.00898788 </v>
   <v>       0.00354013       0.00173893       0.00896027 </v>
   <v>      -0.00365197       0.00220902       0.00898788 </v>
   <v>       0.00354013      -0.00173893       0.00896027 </v>
   <v>      -0.00011417       0.00373419       0.00894578 </v>
   <v>      -0.00011417      -0.00373419       0.00894578 </v>
   <v>       0.00039875      -0.00000000       0.00926747 </v>
   <v>       0.00008127      -0.00000000       0.00583759 </v>
   <v>       0.01027802      -0.02896726      -0.00923213 </v>
   <v>      -0.03649022      -0.00369817      -0.00797182 </v>
   <v>       0.00534871      -0.00000000      -0.00707257 </v>
   <v>       0.00198431      -0.00000000      -0.00855093 </v>
   <v>       0.04282671      -0.00000000      -0.00887532 </v>
   <v>       0.00223670      -0.00000000      -0.00998621 </v>
   <v>       0.01027802       0.02896726      -0.00923213 </v>
   <v>      -0.03649022       0.00369817      -0.00797182 </v>
  </varray>
  <varray name="stress" >
   <v>     -43.15761356      -0.00000000      -0.00076644 </v>
   <v>      -0.00000000     -43.07881442       0.00000000 </v>
   <v>      -0.00076645       0.00000000      -3.59794620 </v>
  </varray>
  <energy>
   <i name="e_fr_energy">   -125.55641781 </i>
   <i name="e_wo_entrp">   -125.55038400 </i>
   <i name="e_0_energy">   -125.55340090 </i>
  </energy>
  <time name="totalsc">   31.39   31.68</time>
 </calculation>
 <calculation>
  <scstep>
   <time name="dav">    3.36    3.39</time>
   <time name="total">    3.56    3.60</time>
   <energy>
    <i name="alphaZ">     59.25071400 </i>
    <i name="ewald">   1835.76804867 </i>
    <i name="hartreedc">  -3443.33973891 </i>
    <i name="XCdc">    167.06839342 </i>
    <i name="pawpsdc">   5516.23685094 </i>
    <i name="pawaedc">  -5515.49599542 </i>
    <i name="eentropy">     -0.00602741 </i>
    <i name="bandstr">   -490.07650987 </i>
    <i name="atom">   1746.50554237 </i>
    <i name="e_fr_energy">   -124.08872221 </i>
    <i name="e_wo_entrp">   -124.08269480 </i>
    <i name="e_0_energy">   -124.08570851 </i>
   </energy>
  </scstep>
  <scstep>
   <time name="dav">    3.77    3.80</time>
   <time name="total">    3.97    4.01</time>
   <energy>
    <i name="e_fr_energy">   -124.08852206 </i>
    <i name="e_wo_entrp">   -124.08248583 </i>
    <i name="e_0_energy">   -124.08550394 </i>
   </energy>
  </scstep>
  <scstep>
   <time name="dav">    3.98    4.01</time>
   <time name="total">    4.19    4.23</time>
   <energy>
    <i name="e_fr_energy">   -124.08800753 </i>
    <i name="e_wo_entrp">   -124.08197565 </i>
    <i name="e_0_energy">   -124.08499159 </i>
   </energy>
  </scstep>
  <scstep>
   <time name="dav">    5.24    5.28</time>
   <time name="total">    5.44    5.49</time>
   <energy>
    <i name="e_fr_energy">   -124.08802335 </i>
    <i name="e_wo_entrp">   -124.08199509 </i>
    <i name="e_0_energy">   -124.08500922 </i>
   </energy>
  </scstep>
  <scstep>
   <time name="dav">    4.07    4.10</time>
   <time name="total">    4.27    4.31</time>
   <energy>
    <i name="e_fr_energy">   -124.08802488 </i>
    <i name="e_wo_entrp">   -124.08199788 </i>
    <i name="e_0_energy">   -124.08501138 </i>
   </energy>
  </scstep>
  <scstep>
   <time name="dav">    3.76    3.79</time>
   <time name="total">    3.97    4.01</time>
   <energy>
    <i name="e_fr_energy">   -124.08801746 </i>
    <i name="e_wo_entrp">   -124.08199038 </i>
    <i name="e_0_energy">   -124.08500392 </i>
   </energy>
  </scstep>
  <scstep>
   <time name="dav">    3.70    3.73</time>
   <time name="total">    3.73    3.76</time>
   <energy>
    <i name="alphaZ">     59.25071400 </i>
    <i name="ewald">   1835.76804867 </i>
    <i name="hartreedc">  -3443.40251874 </i>
    <i name="XCdc">    167.06866406 </i>
    <i name="pawpsdc">   5516.25364511 </i>
    <i name="pawaedc">  -5515.51279415 </i>
    <i name="eentropy">     -0.00602720 </i>
    <i name="bandstr">   -490.01329124 </i>
    <i name="atom">   1746.50554237 </i>
    <i name="e_fr_energy">   -124.08801712 </i>
    <i name="e_wo_entrp">   -124.08198992 </i>
    <i name="e_0_energy">   -124.08500352 </i>
   </energy>
  </scstep>
  <structure>
   <crystal>
    <varray name="basis" >
     <v>       4.35610778       2.51500000       0.00000000 </v>
     <v>      -4.35610778       2.51500000       0.00000000 </v>
     <v>       0.00000000       0.00000000      15.00000000 </v>
    </varray>
    <i name="volume">    328.66833208 </i>
    <varray name="rec_basis" >
     <v>       0.11478137       0.19880716       0.00000000 </v>
     <v>      -0.11478137       0.19880716       0.00000000 </v>
     <v>       0.00000000       0.00000000       0.06666667 </v>
    </varray>
   </crystal>
   <varray name="positions" >
    <v>       0.66916887      -0.00000174       0.10121566 </v>
    <v>       0.33083801       0.00000097       0.10121943 </v>
    <v>       0.00000174       0.33083013       0.10121566 </v>
    <v>      -0.00000097       0.66916099       0.10121943 </v>
    <v>       0.33083920       0.33083773       0.10122004 </v>
    <v>       0.66916127       0.66915980       0.10122004 </v>
    <v>       0.66666423       0.33333477       0.10091871 </v>
    <v>       0.33333137       0.66666763       0.10184474 </v>
    <v>       0.25014732       0.25019766       0.46781697 </v>
    <v>       0.41680350       0.08324693       0.46779778 </v>
    <v>       0.24999433       0.75000467       0.46778490 </v>
    <v>       0.41664789       0.58335111       0.46780574 </v>
    <v>       0.74986532       0.25013368       0.46781079 </v>
    <v>       0.91664416       0.08335484       0.46782868 </v>
    <v>       0.74980134       0.74985168       0.46781697 </v>
    <v>       0.91675207       0.58319550       0.46779778 </v>
   </varray>
  </structure>
  <varray name="forces" >
   <v>      -0.00413518      -0.00251687       0.00986135 </v>
   <v>       0.00381903       0.00164143       0.00977626 </v>
   <v>      -0.00413518       0.00251687       0.00986135 </v>
   <v>       0.00381903      -0.00164143       0.00977626 </v>
   <v>      -0.00017463       0.00369937       0.00974252 </v>
   <v>      -0.00017463      -0.00369937       0.00974252 </v>
   <v>       0.00084272       0.00000000       0.00692820 </v>
   <v>       0.00016932       0.00000000       0.00441161 </v>
   <v>       0.02159280      -0.06108678      -0.01013052 </v>
   <v>      -0.07684104      -0.00784857      -0.00735427 </v>
   <v>       0.01122090       0.00000000      -0.00538397 </v>
   <v>       0.00420897       0.00000000      -0.00862235 </v>
   <v>       0.09024226      -0.00000000      -0.00933104 </v>
   <v>       0.00479386       0.00000000      -0.01179314 </v>
   <v>       0.02159280       0.06108678      -0.01013052 </v>
   <v>      -0.07684104       0.00784857      -0.00735427 </v>
  </varray>
  <varray name="stress" >
   <v>     -43.20076017      -0.00000000      -0.00071342 </v>
   <v>      -0.00000000     -43.03484078       0.00000000 </v>
   <v>      -0.00071343       0.00000000      -3.63638576 </v>
  </varray>
  <energy>
   <i name="e_fr_energy">   -125.55760659 </i>
   <i name="e_wo_entrp">   -125.55157939 </i>
   <i name="e_0_energy">   -125.55459299 </i>
  </energy>
  <time name="totalsc">   32.28   32.59</time>
 </calculation>
 <calculation>
  <scstep>
   <time name="dav">    3.29    3.32</time>
   <time name="total">    3.49    3.52</time>
   <energy>
    <i name="alphaZ">     59.25071400 </i>
    <i name="ewald">   1869.02325391 </i>
    <i name="hartreedc">  -3476.55751928 </i>
    <i name="XCdc">    167.06840308 </i>
    <i name="pawpsdc">   5516.28740673 </i>
    <i name="pawaedc">  -5515.54654810 </i>
    <i name="eentropy">     -0.00601172 </i>
    <i name="bandstr">   -490.11565011 </i>
    <i name="atom">   1746.50554237 </i>
    <i name="e_fr_energy">   -124.09040912 </i>
    <i name="e_wo_entrp">   -124.08439740 </i>
    <i name="e_0_energy">   -124.08740326 </i>
   </energy>
  </scstep>
  <scstep>
   <time name="dav">    3.92    3.95</time>
   <time name="total">    4.12    4.16</time>
   <energy>
    <i name="e_fr_energy">   -124.08971856 </i>
    <i name="e_wo_entrp">   -124.08369405 </i>
    <i name="e_0_energy">   -124.08670630 </i>
   </energy>
  </scstep>
  <scstep>
   <time name="dav">    4.76    4.79</time>
   <time name="total">    4.96    5.00</time>
   <energy>
    <i name="e_fr_energy">   -124.08762661 </i>
    <i name="e_wo_entrp">   -124.08160505 </i>
    <i name="e_0_energy">   -124.08461583 </i>
   </energy>
  </scstep>
  <scstep>
   <time name="dav">    5.35    5.39</time>
   <time name="total">    5.56    5.60</time>
   <energy>
    <i name="e_fr_energy">   -124.08766277 </i>
    <i name="e_wo_entrp">   -124.08164892 </i>
    <i name="e_0_energy">   -124.08465585 </i>
   </energy>
  </scstep>
  <scstep>
   <time name="dav">    4.19    4.22</time>
   <time name="total">    4.39    4.44</time>
   <energy>
    <i name="e_fr_energy">   -124.08764312 </i>
    <i name="e_wo_entrp">   -124.08163282 </i>
    <i name="e_0_energy">   -124.08463797 </i>
   </energy>
  </scstep>
  <scstep>
   <time name="dav">    3.63    3.66</time>
   <time name="total">    3.83    3.87</time>
   <energy>
    <i name="e_fr_energy">   -124.08762928 </i>
    <i name="e_wo_entrp">   -124.08161890 </i>
    <i name="e_0_energy">   -124.08462409 </i>
   </energy>
  </scstep>
  <scstep>
   <time name="dav">    3.64    3.67</time>
   <time name="total">    3.85    3.89</time>
   <energy>
    <i name="e_fr_energy">   -124.08762725 </i>
    <i name="e_wo_entrp">   -124.08161664 </i>
    <i name="e_0_energy">   -124.08462195 </i>
   </energy>
  </scstep>
  <scstep>
   <time name="dav">    3.80    3.84</time>
   <time name="total">    4.01    4.05</time>
   <energy>
    <i name="e_fr_energy">   -124.08764325 </i>
    <i name="e_wo_entrp">   -124.08163264 </i>
    <i name="e_0_energy">   -124.08463795 </i>
   </energy>
  </scstep>
  <scstep>
   <time name="dav">    4.17    4.20</time>
   <time name="total">    4.38    4.42</time>
   <energy>
    <i name="e_fr_energy">   -124.08765174 </i>
    <i name="e_wo_entrp">   -124.08164143 </i>
    <i name="e_0_energy">   -124.08464658 </i>
   </energy>
  </scstep>
  <scstep>
   <time name="dav">    3.92    3.95</time>
   <time name="total">    4.12    4.16</time>
   <energy>
    <i name="e_fr_energy">   -124.08765983 </i>
    <i name="e_wo_entrp">   -124.08164965 </i>
    <i name="e_0_energy">   -124.08465474 </i>
   </energy>
  </scstep>
  <scstep>
   <time name="dav">    4.20    4.23</time>
   <time name="total">    4.40    4.45</time>
   <energy>
    <i name="e_fr_energy">   -124.08766495 </i>
    <i name="e_wo_entrp">   -124.08165470 </i>
    <i name="e_0_energy">   -124.08465983 </i>
   </energy>
  </scstep>
  <scstep>
   <time name="dav">    4.08    4.12</time>
   <time name="total">    4.28    4.33</time>
   <energy>
    <i name="e_fr_energy">   -124.08766911 </i>
    <i name="e_wo_entrp">   -124.08165876 </i>
    <i name="e_0_energy">   -124.08466394 </i>
   </energy>
  </scstep>
  <scstep>
   <time name="dav">    4.24    4.28</time>
   <time name="total">    4.45    4.49</time>
   <energy>
    <i name="e_fr_energy">   -124.08767072 </i>
    <i name="e_wo_entrp">   -124.08166032 </i>
    <i name="e_0_energy">   -124.08466552 </i>
   </energy>
  </scstep>
  <scstep>
   <time name="dav">    6.05    6.09</time>
   <time name="total">    6.08    6.13</time>
   <energy>
    <i name="alphaZ">     59.25071400 </i>
    <i name="ewald">   1869.02325391 </i>
    <i name="hartreedc">  -3476.57234757 </i>
    <i name="XCdc">    167.06817674 </i>
    <i name="pawpsdc">   5516.28643985 </i>
    <i name="pawaedc">  -5515.54560947 </i>
    <i name="eentropy">     -0.00601040 </i>
    <i name="bandstr">   -490.09783020 </i>
    <i name="atom">   1746.50554237 </i>
    <i name="e_fr_energy">   -124.08767078 </i>
    <i name="e_wo_entrp">   -124.08166038 </i>
    <i name="e_0_energy">   -124.08466558 </i>
   </energy>
  </scstep>
  <structure>
   <crystal>
    <varray name="basis" >
     <v>       4.35610778       2.51500000       0.00000000 </v>
     <v>      -4.35610778       2.51500000       0.00000000 </v>
     <v>       0.00000000       0.00000000      15.00000000 </v>
    </varray>
    <i name="volume">    328.66833208 </i>
    <varray name="rec_basis" >
     <v>       0.11478137       0.19880716       0.00000000 </v>
     <v>      -0.11478137       0.19880716       0.00000000 </v>
     <v>       0.00000000       0.00000000       0.06666667 </v>
    </varray>
   </crystal>
   <varray name="positions" >
    <v>       0.66917779      -0.00000344       0.10246772 </v>
    <v>       0.33083725       0.00000210       0.10247538 </v>
    <v>       0.00000344       0.33082121       0.10246772 </v>
    <v>      -0.00000210       0.66916175       0.10247538 </v>
    <v>       0.33083989       0.33083690       0.10247660 </v>
    <v>       0.66916210       0.66915911       0.10247660 </v>
    <v>       0.66666234       0.33333666       0.10266672 </v>
    <v>       0.33332995       0.66666905       0.10294253 </v>
    <v>       0.25030437       0.25040718       0.46652987 </v>
    <v>       0.41694868       0.08315652       0.46649099 </v>
    <v>       0.24998939       0.75000961       0.46646494 </v>
    <v>       0.41662816       0.58337084       0.46650711 </v>
    <v>       0.74972371       0.25027529       0.46651734 </v>
    <v>       0.91662038       0.08337862       0.46655357 </v>
[...]
       <r>     2.2364     0.6684    31.1387 </r>
       <r>     2.3372     0.7396    31.2132 </r>
       <r>     2.4379     1.3638    31.3507 </r>
       <r>     2.5387     1.5053    31.5023 </r>
       <r>     2.6394     1.8821    31.6920 </r>
       <r>     2.7402     2.2190    31.9155 </r>
       <r>     2.8410     1.9360    32.1106 </r>
       <r>     2.9417     1.5831    32.2701 </r>
       <r>     3.0425     1.5193    32.4232 </r>
       <r>     3.1432     1.7314    32.5976 </r>
       <r>     3.2440     2.8473    32.8845 </r>
       <r>     3.3447     2.4625    33.1326 </r>
       <r>     3.4455     2.2133    33.3556 </r>
       <r>     3.5462     2.8820    33.6460 </r>
       <r>     3.6470     3.6712    34.0159 </r>
       <r>     3.7478     2.8821    34.3063 </r>
       <r>     3.8485     2.0312    34.5110 </r>
       <r>     3.9493     2.2972    34.7424 </r>
       <r>     4.0500     2.6458    35.0090 </r>
       <r>     4.1508     2.2245    35.2331 </r>
       <r>     4.2515     2.8380    35.5191 </r>
       <r>     4.3523     2.8700    35.8082 </r>
       <r>     4.4530     2.5025    36.0604 </r>
       <r>     4.5538     3.0468    36.3674 </r>
       <r>     4.6546     3.4303    36.7130 </r>
       <r>     4.7553     3.5717    37.0729 </r>
       <r>     4.8561     2.8806    37.3631 </r>
       <r>     4.9568     2.0630    37.5710 </r>
       <r>     5.0576     3.1552    37.8889 </r>
       <r>     5.1583     3.5864    38.2502 </r>
       <r>     5.2591     2.9634    38.5488 </r>
       <r>     5.3599     3.0730    38.8584 </r>
       <r>     5.4606     3.9400    39.2554 </r>
       <r>     5.5614     4.0383    39.6623 </r>
       <r>     5.6621     3.5962    40.0246 </r>
       <r>     5.7629     2.9393    40.3208 </r>
       <r>     5.8636     1.4737    40.4693 </r>
       <r>     5.9644     2.4038    40.7115 </r>
       <r>     6.0651     3.9703    41.1115 </r>
       <r>     6.1659     4.4690    41.5618 </r>
       <r>     6.2667     4.2485    41.9898 </r>
       <r>     6.3674     4.0783    42.4007 </r>
       <r>     6.4682     2.8278    42.6857 </r>
       <r>     6.5689     3.1865    43.0067 </r>
       <r>     6.6697     4.1834    43.4282 </r>
       <r>     6.7704     3.4046    43.7713 </r>
       <r>     6.8712     4.4486    44.2195 </r>
       <r>     6.9720     4.7973    44.7028 </r>
       <r>     7.0727     4.2796    45.1340 </r>
       <r>     7.1735     4.1123    45.5484 </r>
       <r>     7.2742     3.7934    45.9306 </r>
       <r>     7.3750     4.0151    46.3351 </r>
       <r>     7.4757     4.7762    46.8164 </r>
       <r>     7.5765     4.0499    47.2244 </r>
       <r>     7.6772     2.8710    47.5137 </r>
       <r>     7.7780     2.4367    47.7592 </r>
       <r>     7.8788     1.7016    47.9307 </r>
       <r>     7.9795     0.5851    47.9896 </r>
       <r>     8.0803     0.0986    47.9995 </r>
       <r>     8.1810     0.0045    48.0000 </r>
       <r>     8.2818     0.0000    48.0000 </r>
       <r>     8.3825     0.0000    48.0000 </r>
       <r>     8.4833     0.0000    48.0000 </r>
       <r>     8.5841     0.0000    48.0000 </r>
       <r>     8.6848     0.0000    48.0000 </r>
       <r>     8.7856     0.0000    48.0000 </r>
       <r>     8.8863     0.0000    48.0000 </r>
       <r>     8.9871     0.0000    48.0000 </r>
       <r>     9.0878     0.0000    48.0000 </r>
       <r>     9.1886     0.0000    48.0000 </r>
       <r>     9.2893     0.0000    48.0000 </r>
      </set>
      <set comment="spin 2">
       <r>   -20.9375     0.0000     0.0000 </r>
       <r>   -20.8367     0.0000     0.0000 </r>
       <r>   -20.7360     0.0000     0.0000 </r>
       <r>   -20.6352     0.0000     0.0000 </r>
       <r>   -20.5345     0.0000     0.0000 </r>
       <r>   -20.4337     0.0000     0.0000 </r>
       <r>   -20.3330     0.0000     0.0000 </r>
       <r>   -20.2322     0.0000     0.0000 </r>
       <r>   -20.1315     0.0000     0.0000 </r>
       <r>   -20.0307     0.0000     0.0000 </r>
       <r>   -19.9299     0.0000     0.0000 </r>
       <r>   -19.8292     0.0000     0.0000 </r>
       <r>   -19.7284     0.0015     0.0001 </r>
       <r>   -19.6277     0.0428     0.0045 </r>
       <r>   -19.5269     0.2719     0.0319 </r>
       <r>   -19.4262     0.5579     0.0881 </r>
       <r>   -19.3254     0.6218     0.1507 </r>
       <r>   -19.2246     0.6636     0.2176 </r>
       <r>   -19.1239     0.5837     0.2764 </r>
       <r>   -19.0231     0.7214     0.3491 </r>
       <r>   -18.9224     0.5748     0.4070 </r>
       <r>   -18.8216     0.6063     0.4681 </r>
       <r>   -18.7209     0.7946     0.5481 </r>
       <r>   -18.6201     0.5151     0.6000 </r>
       <r>   -18.5194     0.5676     0.6572 </r>
       <r>   -18.4186     0.8247     0.7403 </r>
       <r>   -18.3178     0.6809     0.8089 </r>
       <r>   -18.2171     0.4070     0.8499 </r>
       <r>   -18.1163     0.6650     0.9169 </r>
       <r>   -18.0156     0.9038     1.0080 </r>
       <r>   -17.9148     0.6061     1.0691 </r>
       <r>   -17.8141     0.4932     1.1188 </r>
       <r>   -17.7133     0.4758     1.1667 </r>
       <r>   -17.6125     0.9464     1.2621 </r>
       <r>   -17.5118     0.8257     1.3453 </r>
       <r>   -17.4110     0.4496     1.3906 </r>
       <r>   -17.3103     0.4859     1.4395 </r>
       <r>   -17.2095     0.6034     1.5003 </r>
       <r>   -17.1088     0.9112     1.5921 </r>
       <r>   -17.0080     0.8544     1.6782 </r>
       <r>   -16.9073     0.5790     1.7365 </r>
       <r>   -16.8065     0.3115     1.7679 </r>
       <r>   -16.7057     0.5965     1.8280 </r>
       <r>   -16.6050     0.9358     1.9223 </r>
       <r>   -16.5042     0.8477     2.0077 </r>
       <r>   -16.4035     0.6982     2.0781 </r>
       <r>   -16.3027     0.5858     2.1371 </r>
       <r>   -16.2020     0.3554     2.1729 </r>
       <r>   -16.1012     0.5074     2.2240 </r>
       <r>   -16.0004     1.3260     2.3576 </r>
       <r>   -15.8997     1.4134     2.5000 </r>
       <r>   -15.7989     1.3933     2.6404 </r>
       <r>   -15.6982     1.3697     2.7784 </r>
       <r>   -15.5974     1.4058     2.9201 </r>
       <r>   -15.4967     1.3036     3.0514 </r>
       <r>   -15.3959     1.7962     3.2324 </r>
       <r>   -15.2952     2.2372     3.4578 </r>
       <r>   -15.1944     1.8818     3.6474 </r>
       <r>   -15.0936     1.8385     3.8327 </r>
       <r>   -14.9929     1.3233     3.9660 </r>
       <r>   -14.8921     1.1130     4.0781 </r>
       <r>   -14.7914     0.8952     4.1683 </r>
       <r>   -14.6906     1.4456     4.3140 </r>
       <r>   -14.5899     1.4332     4.4584 </r>
       <r>   -14.4891     1.4944     4.6090 </r>
       <r>   -14.3884     1.4432     4.7544 </r>
       <r>   -14.2876     1.1755     4.8728 </r>
       <r>   -14.1868     1.3357     5.0074 </r>
       <r>   -14.0861     1.6398     5.1726 </r>
       <r>   -13.9853     1.5458     5.3283 </r>
       <r>   -13.8846     0.8445     5.4134 </r>
       <r>   -13.7838     0.4892     5.4627 </r>
       <r>   -13.6831     0.4251     5.5056 </r>
       <r>   -13.5823     0.7882     5.5850 </r>
       <r>   -13.4815     0.8665     5.6723 </r>
       <r>   -13.3808     0.7277     5.7456 </r>
       <r>   -13.2800     0.6970     5.8158 </r>
       <r>   -13.1793     0.9506     5.9116 </r>
       <r>   -13.0785     0.9571     6.0080 </r>
       <r>   -12.9778     0.8949     6.0982 </r>
       <r>   -12.8770     0.8557     6.1844 </r>
       <r>   -12.7763     1.1245     6.2977 </r>
       <r>   -12.6755     1.6353     6.4625 </r>
       <r>   -12.5747     1.6716     6.6309 </r>
       <r>   -12.4740     1.9103     6.8234 </r>
       <r>   -12.3732     1.7725     7.0020 </r>
       <r>   -12.2725     1.8757     7.1910 </r>
       <r>   -12.1717     2.1853     7.4111 </r>
       <r>   -12.0710     1.9430     7.6069 </r>
       <r>   -11.9702     2.3092     7.8396 </r>
       <r>   -11.8694     2.0331     8.0444 </r>
       <r>   -11.7687     1.2219     8.1676 </r>
       <r>   -11.6679     0.9011     8.2583 </r>
       <r>   -11.5672     0.7507     8.3340 </r>
       <r>   -11.4664     0.8534     8.4200 </r>
       <r>   -11.3657     0.6790     8.4884 </r>
       <r>   -11.2649     0.6651     8.5554 </r>
       <r>   -11.1642     0.6510     8.6210 </r>
       <r>   -11.0634     0.5158     8.6730 </r>
       <r>   -10.9626     0.7570     8.7492 </r>
       <r>   -10.8619     1.3504     8.8853 </r>
       <r>   -10.7611     1.4532     9.0317 </r>
       <r>   -10.6604     1.3718     9.1699 </r>
       <r>   -10.5596     1.8431     9.3556 </r>
       <r>   -10.4589     1.9644     9.5535 </r>
       <r>   -10.3581     1.7429     9.7292 </r>
       <r>   -10.2573     1.1647     9.8465 </r>
       <r>   -10.1566     1.0396     9.9512 </r>
       <r>   -10.0558     1.3526    10.0875 </r>
       <r>    -9.9551     1.0571    10.1940 </r>
       <r>    -9.8543     1.5241    10.3476 </r>
       <r>    -9.7536     1.1974    10.4682 </r>
       <r>    -9.6528     1.6899    10.6385 </r>
       <r>    -9.5521     2.4639    10.8868 </r>
       <r>    -9.4513     1.6379    11.0518 </r>
       <r>    -9.3505     2.1047    11.2638 </r>
       <r>    -9.2498     2.1016    11.4756 </r>
       <r>    -9.1490     1.6200    11.6388 </r>
       <r>    -9.0483     1.3737    11.7772 </r>
       <r>    -8.9475     2.4742    12.0265 </r>
       <r>    -8.8468     3.0077    12.3296 </r>
       <r>    -8.7460     1.1748    12.4480 </r>
       <r>    -8.6453     0.6453    12.5130 </r>
       <r>    -8.5445     1.7637    12.6907 </r>
       <r>    -8.4437     2.5797    12.9506 </r>
       <r>    -8.3430     2.0692    13.1591 </r>
       <r>    -8.2422     1.7133    13.3317 </r>
       <r>    -8.1415     1.6539    13.4983 </r>
       <r>    -8.0407     1.2184    13.6211 </r>
       <r>    -7.9400     1.5988    13.7822 </r>
       <r>    -7.8392     2.5529    14.0394 </r>
       <r>    -7.7384     2.8983    14.3314 </r>
       <r>    -7.6377     2.0769    14.5407 </r>
       <r>    -7.5369     1.8737    14.7295 </r>
       <r>    -7.4362     1.7067    14.9014 </r>
       <r>    -7.3354     2.0932    15.1123 </r>
       <r>    -7.2347     2.7512    15.3895 </r>
       <r>    -7.1339     1.8478    15.5757 </r>
       <r>    -7.0332     2.1976    15.7971 </r>
       <r>    -6.9324     2.8541    16.0847 </r>
       <r>    -6.8316     2.9714    16.3841 </r>
       <r>    -6.7309     3.1511    16.7016 </r>
       <r>    -6.6301     4.0310    17.1077 </r>
       <r>    -6.5294     4.3443    17.5455 </r>
       <r>    -6.4286     3.1383    17.8617 </r>
       <r>    -6.3279     2.2969    18.0931 </r>
       <r>    -6.2271     2.2474    18.3195 </r>
       <r>    -6.1263     2.3100    18.5523 </r>
       <r>    -6.0256     2.2970    18.7837 </r>
       <r>    -5.9248     2.1186    18.9972 </r>
       <r>    -5.8241     1.9229    19.1909 </r>
       <r>    -5.7233     2.2554    19.4182 </r>
       <r>    -5.6226     1.9506    19.6147 </r>
       <r>    -5.5218     1.4032    19.7561 </r>
       <r>    -5.4211     1.8465    19.9421 </r>
       <r>    -5.3203     2.2703    20.1709 </r>
       <r>    -5.2195     2.2127    20.3938 </r>
       <r>    -5.1188     1.6887    20.5640 </r>
       <r>    -5.0180     2.1202    20.7776 </r>
       <r>    -4.9173     2.8911    21.0689 </r>
       <r>    -4.8165     1.5731    21.2274 </r>
       <r>    -4.7158     0.9688    21.3250 </r>
       <r>    -4.6150     2.2981    21.5566 </r>
       <r>    -4.5142     2.6481    21.8234 </r>
       <r>    -4.4135     2.1664    22.0417 </r>
       <r>    -4.3127     2.6558    22.3092 </r>
       <r>    -4.2120     3.1363    22.6253 </r>
       <r>    -4.1112     2.8917    22.9166 </r>
       <r>    -4.0105     2.7969    23.1984 </r>
       <r>    -3.9097     3.6385    23.5650 </r>
       <r>    -3.8090     3.7111    23.9389 </r>
       <r>    -3.7082     2.6485    24.2058 </r>
       <r>    -3.6074     2.4792    24.4556 </r>
       <r>    -3.5067     1.9727    24.6543 </r>
       <r>    -3.4059     1.6720    24.8228 </r>
       <r>    -3.3052     1.0691    24.9305 </r>
       <r>    -3.2044     1.0237    25.0337 </r>
       <r>    -3.1037     1.7333    25.2083 </r>
       <r>    -3.0029     2.1091    25.4208 </r>
       <r>    -2.9021     1.6526    25.5873 </r>
       <r>    -2.8014     1.5562    25.7441 </r>
       <r>    -2.7006     1.3006    25.8751 </r>
       <r>    -2.5999     1.4621    26.0225 </r>
       <r>    -2.4991     2.0930    26.2333 </r>
       <r>    -2.3984     1.6660    26.4012 </r>
       <r>    -2.2976     1.0111    26.5031 </r>
       <r>    -2.1969     1.5368    26.6579 </r>
       <r>    -2.0961     1.1517    26.7740 </r>
       <r>    -1.9953     0.7268    26.8472 </r>
       <r>    -1.8946     0.8443    26.9323 </r>
       <r>    -1.7938     1.1425    27.0474 </r>
       <r>    -1.6931     0.9503    27.1431 </r>
       <r>    -1.5923     1.0837    27.2523 </r>
       <r>    -1.4916     1.1761    27.3708 </r>
       <r>    -1.3908     0.6241    27.4337 </r>
       <r>    -1.2901     0.6605    27.5002 </r>
       <r>    -1.1893     0.8557    27.5865 </r>
       <r>    -1.0885     0.8369    27.6708 </r>
       <r>    -0.9878     0.8098    27.7524 </r>
       <r>    -0.8870     0.5569    27.8085 </r>
       <r>    -0.7863     0.3027    27.8390 </r>
       <r>    -0.6855     0.1289    27.8520 </r>
       <r>    -0.5848     0.3512    27.8874 </r>
       <r>    -0.4840     0.5240    27.9401 </r>
       <r>    -0.3832     0.2120    27.9615 </r>
       <r>    -0.2825     0.2558    27.9873 </r>
       <r>    -0.1817     0.5492    28.0426 </r>
       <r>    -0.0810     0.5788    28.1009 </r>
       <r>     0.0198     0.5275    28.1541 </r>
       <r>     0.1205     0.7973    28.2344 </r>
       <r>     0.2213     1.0787    28.3431 </r>
       <r>     0.3220     1.4989    28.4941 </r>
       <r>     0.4228     1.3800    28.6332 </r>
       <r>     0.5236     1.0045    28.7344 </r>
       <r>     0.6243     0.9716    28.8323 </r>
       <r>     0.7251     1.3541    28.9687 </r>
       <r>     0.8258     0.9102    29.0604 </r>
       <r>     0.9266     0.7246    29.1334 </r>
       <r>     1.0273     1.0731    29.2415 </r>
       <r>     1.1281     2.0070    29.4438 </r>
       <r>     1.2289     2.2792    29.6734 </r>
       <r>     1.3296     2.0360    29.8785 </r>
       <r>     1.4304     1.4383    30.0235 </r>
       <r>     1.5311     1.1217    30.1365 </r>
       <r>     1.6319     1.3697    30.2745 </r>
       <r>     1.7326     1.0398    30.3792 </r>
       <r>     1.8334     1.2125    30.5014 </r>
       <r>     1.9341     1.7981    30.6826 </r>
       <r>     2.0349     2.1590    30.9001 </r>
       <r>     2.1357     1.6997    31.0714 </r>
       <r>     2.2364     0.6684    31.1387 </r>
       <r>     2.3372     0.7396    31.2132 </r>
       <r>     2.4379     1.3638    31.3507 </r>
       <r>     2.5387     1.5053    31.5023 </r>
       <r>     2.6394     1.8821    31.6920 </r>
       <r>     2.7402     2.2190    31.9155 </r>
       <r>     2.8410     1.9360    32.1106 </r>
       <r>     2.9417     1.5832    32.2701 </r>
       <r>     3.0425     1.5193    32.4232 </r>
       <r>     3.1432     1.7314    32.5976 </r>
       <r>     3.2440     2.8474    32.8845 </r>
       <r>     3.3447     2.4625    33.1326 </r>
       <r>     3.4455     2.2133    33.3556 </r>
       <r>     3.5462     2.8821    33.6460 </r>
       <r>     3.6470     3.6712    34.0159 </r>
       <r>     3.7478     2.8821    34.3063 </r>
       <r>     3.8485     2.0312    34.5110 </r>
       <r>     3.9493     2.2973    34.7424 </r>
       <r>     4.0500     2.6457    35.0090 </r>
       <r>     4.1508     2.2245    35.2331 </r>
       <r>     4.2515     2.8381    35.5191 </r>
       <r>     4.3523     2.8700    35.8083 </r>
       <r>     4.4530     2.5025    36.0604 </r>
       <r>     4.5538     3.0468    36.3674 </r>
       <r>     4.6546     3.4304    36.7130 </r>
       <r>     4.7553     3.5720    37.0729 </r>
       <r>     4.8561     2.8806    37.3632 </r>
       <r>     4.9568     2.0631    37.5710 </r>
       <r>     5.0576     3.1554    37.8889 </r>
       <r>     5.1583     3.5861    38.2503 </r>
       <r>     5.2591     2.9635    38.5489 </r>
       <r>     5.3599     3.0731    38.8585 </r>
       <r>     5.4606     3.9399    39.2555 </r>
       <r>     5.5614     4.0384    39.6624 </r>
       <r>     5.6621     3.5964    40.0247 </r>
       <r>     5.7629     2.9389    40.3208 </r>
       <r>     5.8636     1.4734    40.4693 </r>
       <r>     5.9644     2.4042    40.7115 </r>
       <r>     6.0651     3.9704    41.1116 </r>
       <r>     6.1659     4.4688    41.5618 </r>
       <r>     6.2667     4.2486    41.9899 </r>
       <r>     6.3674     4.0780    42.4008 </r>
       <r>     6.4682     2.8277    42.6857 </r>
       <r>     6.5689     3.1869    43.0068 </r>
       <r>     6.6697     4.1831    43.4283 </r>
       <r>     6.7704     3.4046    43.7713 </r>
       <r>     6.8712     4.4488    44.2196 </r>
       <r>     6.9720     4.7971    44.7029 </r>
       <r>     7.0727     4.2797    45.1341 </r>
       <r>     7.1735     4.1125    45.5485 </r>
       <r>     7.2742     3.7936    45.9307 </r>
       <r>     7.3750     4.0151    46.3352 </r>
       <r>     7.4757     4.7760    46.8164 </r>
       <r>     7.5765     4.0499    47.2245 </r>
       <r>     7.6772     2.8708    47.5137 </r>
       <r>     7.7780     2.4367    47.7592 </r>
       <r>     7.8788     1.7014    47.9307 </r>
       <r>     7.9795     0.5850    47.9896 </r>
       <r>     8.0803     0.0985    47.9995 </r>
       <r>     8.1810     0.0045    48.0000 </r>
       <r>     8.2818     0.0000    48.0000 </r>
       <r>     8.3825     0.0000    48.0000 </r>
       <r>     8.4833     0.0000    48.0000 </r>
       <r>     8.5841     0.0000    48.0000 </r>
       <r>     8.6848     0.0000    48.0000 </r>
       <r>     8.7856     0.0000    48.0000 </r>
       <r>     8.8863     0.0000    48.0000 </r>
       <r>     8.9871     0.0000    48.0000 </r>
       <r>     9.0878     0.0000    48.0000 </r>
       <r>     9.1886     0.0000    48.0000 </r>
       <r>     9.2893     0.0000    48.0000 </r>
      </set>
     </set>
    </array>
   </total>
  </dos>
 </calculation>
 <structure name="finalpos" >
  <crystal>
   <varray name="basis" >
    <v>       4.35610778       2.51500000       0.00000000 </v>
    <v>      -4.35610778       2.51500000       0.00000000 </v>
    <v>       0.00000000       0.00000000      15.00000000 </v>
   </varray>
   <i name="volume">    328.66833208 </i>
   <varray name="rec_basis" >
    <v>       0.11478137       0.19880716       0.00000000 </v>
    <v>      -0.11478137       0.19880716       0.00000000 </v>
    <v>       0.00000000       0.00000000       0.06666667 </v>
   </varray>
  </crystal>
  <varray name="positions" >
   <v>       0.67222655      -0.00323063       0.16623945 </v>
   <v>       0.33430364      -0.00322350       0.16654096 </v>
   <v>       0.00323063       0.32777245       0.16623945 </v>
   <v>       0.00322350       0.66569536       0.16654096 </v>
   <v>       0.33416091       0.32774702       0.16647619 </v>
   <v>       0.67225198       0.66583809       0.16647619 </v>
   <v>       0.66964954       0.33034946       0.16543138 </v>
   <v>       0.33635815       0.66364085       0.16749034 </v>
   <v>       0.24683902       0.25315852       0.40259908 </v>
   <v>       0.41352137       0.08658385       0.40268687 </v>
   <v>       0.24683534       0.75316366       0.40268106 </v>
   <v>       0.41350976       0.58648924       0.40267656 </v>
   <v>       0.74679339       0.25320561       0.40265379 </v>
   <v>       0.91350026       0.08649874       0.40251512 </v>
   <v>       0.74684048       0.75315998       0.40259908 </v>
   <v>       0.91341515       0.58647763       0.40268687 </v>
  </varray>
 </structure>
</modeling>
