  15  15   0   4
  0.1953970E+02  0.4750000E-09  0.4750000E-09  0.1500000E-08  0.5000000E-15
  1.000000000000000E-004
  CAR 
 Lattice                                 
     10.79723989    -22.05088784  301     -0.14713362      1.00000000
    -22.051  0.0000E+00  0.0000E+00  0.0000E+00  0.0000E+00
    -21.941  0.0000E+00  0.0000E+00  0.0000E+00  0.0000E+00
    -21.832  0.0000E+00  0.0000E+00  0.0000E+00  0.0000E+00
    -21.722  0.0000E+00  0.0000E+00  0.0000E+00  0.0000E+00
    -21.613  0.0000E+00  0.0000E+00  0.0000E+00  0.0000E+00
    -21.503  0.0000E+00  0.0000E+00  0.0000E+00  0.0000E+00
    -21.394  0.0000E+00  0.0000E+00  0.0000E+00  0.0000E+00
    -21.284  0.0000E+00  0.0000E+00  0.0000E+00  0.0000E+00
    -21.175  0.0000E+00  0.0000E+00  0.0000E+00  0.0000E+00
    -21.065  0.1828E-15  0.1828E-15  0.2002E-16  0.2002E-16
    -20.956  0.5052E-11  0.5052E-11  0.5531E-12  0.5532E-12
    -20.846  0.1487E-07  0.1487E-07  0.1629E-08  0.1629E-08
    -20.737  0.5196E-05  0.5196E-05  0.5705E-06  0.5705E-06
    -20.627  0.2439E-03  0.2439E-03  0.2727E-04  0.2727E-04
    -20.518  0.1897E-02  0.1897E-02  0.2350E-03  0.2350E-03
    -20.408  0.4037E-02  0.4037E-02  0.6770E-03  0.6770E-03
    -20.299  0.4343E-02  0.4343E-02  0.1153E-02  0.1153E-02
    -20.189  0.4813E-02  0.4813E-02  0.1680E-02  0.1680E-02
    -20.080  0.3953E-02  0.3953E-02  0.2112E-02  0.2112E-02
    -19.971  0.5221E-02  0.5221E-02  0.2684E-02  0.2684E-02
    -19.861  0.4146E-02  0.4146E-02  0.3138E-02  0.3138E-02
    -19.752  0.3934E-02  0.3934E-02  0.3569E-02  0.3569E-02
    -19.642  0.5885E-02  0.5885E-02  0.4213E-02  0.4213E-02
    -19.533  0.3854E-02  0.3854E-02  0.4635E-02  0.4635E-02
    -19.423  0.3477E-02  0.3477E-02  0.5016E-02  0.5016E-02
    -19.314  0.5882E-02  0.5882E-02  0.5660E-02  0.5660E-02
    -19.204  0.5234E-02  0.5234E-02  0.6233E-02  0.6233E-02
    -19.095  0.3044E-02  0.3044E-02  0.6566E-02  0.6566E-02
    -18.985  0.3653E-02  0.3653E-02  0.6966E-02  0.6966E-02
    -18.876  0.6795E-02  0.6795E-02  0.7710E-02  0.7710E-02
    -18.766  0.4712E-02  0.4712E-02  0.8226E-02  0.8226E-02
    -18.657  0.3774E-02  0.3774E-02  0.8639E-02  0.8639E-02
    -18.547  0.2697E-02  0.2697E-02  0.8935E-02  0.8935E-02
    -18.438  0.5710E-02  0.5710E-02  0.9560E-02  0.9560E-02
    -18.328  0.6902E-02  0.6902E-02  0.1032E-01  0.1032E-01
    -18.219  0.3933E-02  0.3933E-02  0.1075E-01  0.1075E-01
    -18.109  0.2841E-02  0.2841E-02  0.1106E-01  0.1106E-01
    -18.000  0.3866E-02  0.3866E-02  0.1148E-01  0.1148E-01
    -17.890  0.5304E-02  0.5304E-02  0.1206E-01  0.1206E-01
    -17.781  0.6895E-02  0.6895E-02  0.1282E-01  0.1282E-01
    -17.671  0.5003E-02  0.5003E-02  0.1336E-01  0.1336E-01
    -17.562  0.3148E-02  0.3148E-02  0.1371E-01  0.1371E-01
    -17.452  0.4054E-02  0.4054E-02  0.1415E-01  0.1415E-01
    -17.343  0.1120E-01  0.1120E-01  0.1538E-01  0.1538E-01
    -17.233  0.1387E-01  0.1387E-01  0.1690E-01  0.1690E-01
    -17.124  0.1348E-01  0.1348E-01  0.1837E-01  0.1837E-01
    -17.014  0.1375E-01  0.1375E-01  0.1988E-01  0.1988E-01
    -16.905  0.1706E-01  0.1706E-01  0.2175E-01  0.2175E-01
    -16.795  0.1814E-01  0.1814E-01  0.2373E-01  0.2373E-01
    -16.686  0.1303E-01  0.1303E-01  0.2516E-01  0.2516E-01
    -16.576  0.1017E-01  0.1017E-01  0.2627E-01  0.2627E-01
    -16.467  0.5241E-02  0.5241E-02  0.2685E-01  0.2685E-01
    -16.357  0.4159E-02  0.4159E-02  0.2730E-01  0.2730E-01
    -16.248  0.3548E-02  0.3548E-02  0.2769E-01  0.2769E-01
    -16.138  0.4029E-02  0.4029E-02  0.2813E-01  0.2813E-01
    -16.029  0.3005E-02  0.3005E-02  0.2846E-01  0.2846E-01
    -15.919  0.5470E-02  0.5470E-02  0.2906E-01  0.2906E-01
    -15.810  0.8738E-02  0.8738E-02  0.3002E-01  0.3002E-01
    -15.700  0.5592E-02  0.5592E-02  0.3063E-01  0.3063E-01
    -15.591  0.3427E-02  0.3427E-02  0.3100E-01  0.3100E-01
    -15.481  0.3298E-02  0.3298E-02  0.3136E-01  0.3136E-01
    -15.372  0.3324E-02  0.3324E-02  0.3173E-01  0.3173E-01
    -15.262  0.5128E-02  0.5128E-02  0.3229E-01  0.3229E-01
    -15.153  0.6508E-02  0.6508E-02  0.3300E-01  0.3300E-01
    -15.043  0.7005E-02  0.7005E-02  0.3377E-01  0.3377E-01
    -14.934  0.9825E-02  0.9825E-02  0.3485E-01  0.3485E-01
    -14.824  0.1228E-01  0.1228E-01  0.3619E-01  0.3619E-01
    -14.715  0.1673E-01  0.1673E-01  0.3802E-01  0.3802E-01
    -14.605  0.1478E-01  0.1478E-01  0.3964E-01  0.3964E-01
    -14.496  0.1004E-01  0.1004E-01  0.4074E-01  0.4074E-01
    -14.386  0.1208E-01  0.1208E-01  0.4206E-01  0.4206E-01
    -14.277  0.1576E-01  0.1576E-01  0.4379E-01  0.4379E-01
    -14.167  0.9234E-02  0.9234E-02  0.4480E-01  0.4480E-01
    -14.058  0.8317E-02  0.8317E-02  0.4571E-01  0.4571E-01
    -13.948  0.1220E-01  0.1220E-01  0.4705E-01  0.4705E-01
    -13.839  0.1266E-01  0.1266E-01  0.4843E-01  0.4843E-01
    -13.729  0.1996E-01  0.1996E-01  0.5062E-01  0.5062E-01
    -13.620  0.2289E-01  0.2289E-01  0.5312E-01  0.5312E-01
    -13.510  0.1758E-01  0.1758E-01  0.5505E-01  0.5505E-01
    -13.401  0.1134E-01  0.1134E-01  0.5629E-01  0.5629E-01
    -13.291  0.7581E-02  0.7581E-02  0.5712E-01  0.5712E-01
    -13.182  0.6307E-02  0.6307E-02  0.5781E-01  0.5781E-01
    -13.072  0.6517E-02  0.6517E-02  0.5852E-01  0.5852E-01
    -12.963  0.5078E-02  0.5078E-02  0.5908E-01  0.5908E-01
    -12.853  0.5601E-02  0.5601E-02  0.5969E-01  0.5969E-01
    -12.744  0.5246E-02  0.5246E-02  0.6027E-01  0.6027E-01
    -12.634  0.6458E-02  0.6458E-02  0.6098E-01  0.6098E-01
    -12.525  0.5553E-02  0.5553E-02  0.6158E-01  0.6158E-01
    -12.415  0.4203E-02  0.4203E-02  0.6204E-01  0.6204E-01
    -12.306  0.4479E-02  0.4479E-02  0.6253E-01  0.6253E-01
    -12.196  0.7710E-02  0.7710E-02  0.6338E-01  0.6338E-01
    -12.087  0.4475E-02  0.4475E-02  0.6387E-01  0.6387E-01
    -11.977  0.3554E-02  0.3554E-02  0.6426E-01  0.6426E-01
    -11.868  0.3817E-02  0.3817E-02  0.6468E-01  0.6468E-01
    -11.758  0.3575E-02  0.3575E-02  0.6507E-01  0.6507E-01
    -11.649  0.5712E-02  0.5712E-02  0.6569E-01  0.6569E-01
    -11.539  0.6962E-02  0.6962E-02  0.6645E-01  0.6645E-01
    -11.430  0.2890E-02  0.2890E-02  0.6677E-01  0.6677E-01
    -11.320  0.2111E-02  0.2111E-02  0.6700E-01  0.6700E-01
    -11.211  0.6650E-02  0.6650E-02  0.6773E-01  0.6773E-01
    -11.102  0.8724E-02  0.8724E-02  0.6869E-01  0.6869E-01
    -10.992  0.4259E-02  0.4259E-02  0.6915E-01  0.6915E-01
    -10.883  0.5345E-02  0.5345E-02  0.6974E-01  0.6974E-01
    -10.773  0.4888E-02  0.4888E-02  0.7027E-01  0.7027E-01
    -10.664  0.2976E-02  0.2976E-02  0.7060E-01  0.7060E-01
    -10.554  0.6282E-02  0.6282E-02  0.7129E-01  0.7129E-01
    -10.445  0.1160E-01  0.1160E-01  0.7256E-01  0.7256E-01
    -10.335  0.1767E-01  0.1767E-01  0.7449E-01  0.7449E-01
    -10.226  0.1343E-01  0.1343E-01  0.7596E-01  0.7596E-01
    -10.116  0.1298E-01  0.1298E-01  0.7738E-01  0.7738E-01
    -10.007  0.1708E-01  0.1708E-01  0.7925E-01  0.7925E-01
     -9.897  0.1645E-01  0.1645E-01  0.8105E-01  0.8105E-01
     -9.788  0.9235E-02  0.9235E-02  0.8206E-01  0.8206E-01
     -9.678  0.4747E-02  0.4747E-02  0.8258E-01  0.8258E-01
     -9.569  0.1507E-01  0.1507E-01  0.8423E-01  0.8423E-01
     -9.459  0.2233E-01  0.2233E-01  0.8668E-01  0.8668E-01
     -9.350  0.1346E-01  0.1346E-01  0.8815E-01  0.8815E-01
     -9.240  0.8708E-02  0.8708E-02  0.8911E-01  0.8911E-01
     -9.131  0.1239E-01  0.1239E-01  0.9046E-01  0.9046E-01
     -9.021  0.1032E-01  0.1032E-01  0.9159E-01  0.9159E-01
     -8.912  0.1110E-01  0.1110E-01  0.9281E-01  0.9281E-01
     -8.802  0.1708E-01  0.1708E-01  0.9468E-01  0.9468E-01
     -8.693  0.1595E-01  0.1595E-01  0.9643E-01  0.9643E-01
     -8.583  0.1889E-01  0.1889E-01  0.9849E-01  0.9849E-01
     -8.474  0.1375E-01  0.1375E-01  0.1000E+00  0.1000E+00
     -8.364  0.1074E-01  0.1074E-01  0.1012E+00  0.1012E+00
     -8.255  0.2006E-01  0.2006E-01  0.1034E+00  0.1034E+00
     -8.145  0.1994E-01  0.1994E-01  0.1056E+00  0.1056E+00
     -8.036  0.1334E-01  0.1334E-01  0.1070E+00  0.1070E+00
     -7.926  0.1713E-01  0.1713E-01  0.1089E+00  0.1089E+00
     -7.817  0.1702E-01  0.1702E-01  0.1108E+00  0.1108E+00
     -7.707  0.2196E-01  0.2196E-01  0.1132E+00  0.1132E+00
     -7.598  0.2047E-01  0.2047E-01  0.1154E+00  0.1154E+00
     -7.488  0.1900E-01  0.1900E-01  0.1175E+00  0.1175E+00
     -7.379  0.1718E-01  0.1718E-01  0.1194E+00  0.1194E+00
     -7.269  0.1507E-01  0.1507E-01  0.1210E+00  0.1210E+00
     -7.160  0.1473E-01  0.1473E-01  0.1226E+00  0.1226E+00
     -7.050  0.1460E-01  0.1460E-01  0.1242E+00  0.1242E+00
     -6.941  0.1542E-01  0.1542E-01  0.1259E+00  0.1259E+00
     -6.831  0.1384E-01  0.1384E-01  0.1274E+00  0.1274E+00
     -6.722  0.1739E-01  0.1739E-01  0.1293E+00  0.1293E+00
     -6.612  0.2617E-01  0.2617E-01  0.1322E+00  0.1322E+00
     -6.503  0.1741E-01  0.1741E-01  0.1341E+00  0.1341E+00
     -6.393  0.1645E-01  0.1645E-01  0.1359E+00  0.1359E+00
     -6.284  0.1711E-01  0.1711E-01  0.1378E+00  0.1378E+00
     -6.174  0.1359E-01  0.1359E-01  0.1393E+00  0.1393E+00
     -6.065  0.2370E-01  0.2370E-01  0.1419E+00  0.1419E+00
     -5.955  0.2309E-01  0.2309E-01  0.1444E+00  0.1444E+00
     -5.846  0.1988E-01  0.1988E-01  0.1466E+00  0.1466E+00
     -5.736  0.2064E-01  0.2064E-01  0.1488E+00  0.1488E+00
     -5.627  0.2558E-01  0.2558E-01  0.1516E+00  0.1516E+00
     -5.517  0.2319E-01  0.2319E-01  0.1542E+00  0.1542E+00
     -5.408  0.2233E-01  0.2233E-01  0.1566E+00  0.1566E+00
     -5.298  0.2214E-01  0.2214E-01  0.1590E+00  0.1590E+00
     -5.189  0.3071E-01  0.3071E-01  0.1624E+00  0.1624E+00
     -5.079  0.3010E-01  0.3010E-01  0.1657E+00  0.1657E+00
     -4.970  0.1334E-01  0.1334E-01  0.1672E+00  0.1672E+00
     -4.860  0.8676E-02  0.8676E-02  0.1681E+00  0.1681E+00
     -4.751  0.1333E-01  0.1333E-01  0.1696E+00  0.1696E+00
     -4.641  0.1348E-01  0.1348E-01  0.1710E+00  0.1710E+00
     -4.532  0.1302E-01  0.1302E-01  0.1725E+00  0.1725E+00
     -4.422  0.8872E-02  0.8872E-02  0.1734E+00  0.1734E+00
     -4.313  0.7186E-02  0.7186E-02  0.1742E+00  0.1742E+00
     -4.203  0.1203E-01  0.1203E-01  0.1755E+00  0.1755E+00
     -4.094  0.1682E-01  0.1682E-01  0.1774E+00  0.1774E+00
     -3.984  0.1991E-01  0.1991E-01  0.1796E+00  0.1796E+00
     -3.875  0.2477E-01  0.2477E-01  0.1823E+00  0.1823E+00
     -3.765  0.2761E-01  0.2761E-01  0.1853E+00  0.1853E+00
     -3.656  0.2322E-01  0.2322E-01  0.1878E+00  0.1878E+00
     -3.546  0.1706E-01  0.1706E-01  0.1897E+00  0.1897E+00
     -3.437  0.1492E-01  0.1492E-01  0.1913E+00  0.1913E+00
     -3.327  0.1584E-01  0.1584E-01  0.1931E+00  0.1931E+00
     -3.218  0.1905E-01  0.1905E-01  0.1952E+00  0.1952E+00
     -3.108  0.1630E-01  0.1630E-01  0.1969E+00  0.1969E+00
     -2.999  0.1756E-01  0.1756E-01  0.1989E+00  0.1989E+00
     -2.889  0.1552E-01  0.1552E-01  0.2006E+00  0.2006E+00
     -2.780  0.1143E-01  0.1143E-01  0.2018E+00  0.2018E+00
     -2.670  0.1210E-01  0.1210E-01  0.2031E+00  0.2031E+00
     -2.561  0.8537E-02  0.8537E-02  0.2041E+00  0.2041E+00
     -2.452  0.1585E-01  0.1585E-01  0.2058E+00  0.2058E+00
     -2.342  0.1843E-01  0.1843E-01  0.2078E+00  0.2078E+00
     -2.233  0.8055E-02  0.8055E-02  0.2087E+00  0.2087E+00
     -2.123  0.3330E-02  0.3330E-02  0.2091E+00  0.2091E+00
     -2.014  0.6590E-02  0.6590E-02  0.2098E+00  0.2098E+00
     -1.904  0.1092E-01  0.1092E-01  0.2110E+00  0.2110E+00
     -1.795  0.1041E-01  0.1041E-01  0.2121E+00  0.2121E+00
     -1.685  0.1116E-01  0.1116E-01  0.2134E+00  0.2134E+00
     -1.576  0.1067E-01  0.1067E-01  0.2145E+00  0.2145E+00
     -1.466  0.7383E-02  0.7383E-02  0.2153E+00  0.2153E+00
     -1.357  0.6519E-02  0.6519E-02  0.2160E+00  0.2160E+00
     -1.247  0.3909E-02  0.3909E-02  0.2165E+00  0.2165E+00
     -1.138  0.3795E-02  0.3795E-02  0.2169E+00  0.2169E+00
     -1.028  0.3832E-02  0.3832E-02  0.2173E+00  0.2173E+00
     -0.919  0.4625E-02  0.4625E-02  0.2178E+00  0.2178E+00
     -0.809  0.5378E-02  0.5378E-02  0.2184E+00  0.2184E+00
     -0.700  0.1812E-02  0.1812E-02  0.2186E+00  0.2186E+00
     -0.590  0.3017E-03  0.3017E-03  0.2186E+00  0.2186E+00
     -0.481  0.1681E-04  0.1681E-04  0.2186E+00  0.2186E+00
     -0.371  0.1800E-05  0.1800E-05  0.2186E+00  0.2186E+00
     -0.262  0.1059E-03  0.1059E-03  0.2187E+00  0.2187E+00
     -0.152  0.8280E-03  0.8280E-03  0.2187E+00  0.2187E+00
     -0.043  0.9046E-03  0.9046E-03  0.2188E+00  0.2188E+00
      0.067  0.1391E-03  0.1391E-03  0.2189E+00  0.2189E+00
      0.176  0.2676E-05  0.2676E-05  0.2189E+00  0.2189E+00
      0.286  0.1561E-06  0.1561E-06  0.2189E+00  0.2189E+00
      0.395  0.3623E-04  0.3623E-04  0.2189E+00  0.2189E+00
      0.505  0.9691E-03  0.9691E-03  0.2190E+00  0.2190E+00
      0.614  0.3290E-02  0.3290E-02  0.2193E+00  0.2193E+00
      0.724  0.1634E-02  0.1634E-02  0.2195E+00  0.2195E+00
      0.833  0.1374E-02  0.1374E-02  0.2197E+00  0.2197E+00
      0.943  0.4353E-02  0.4353E-02  0.2201E+00  0.2201E+00
      1.052  0.5886E-02  0.5886E-02  0.2208E+00  0.2208E+00
      1.162  0.1231E-01  0.1231E-01  0.2221E+00  0.2221E+00
      1.271  0.2579E-01  0.2579E-01  0.2250E+00  0.2250E+00
      1.381  0.1572E-01  0.1572E-01  0.2267E+00  0.2267E+00
      1.490  0.4107E-02  0.4107E-02  0.2271E+00  0.2271E+00
      1.600  0.4391E-02  0.4391E-02  0.2276E+00  0.2276E+00
      1.709  0.8518E-02  0.8518E-02  0.2285E+00  0.2285E+00
      1.819  0.1538E-01  0.1538E-01  0.2302E+00  0.2302E+00
      1.928  0.1847E-01  0.1847E-01  0.2322E+00  0.2322E+00
      2.038  0.1071E-01  0.1071E-01  0.2334E+00  0.2334E+00
      2.147  0.7073E-02  0.7072E-02  0.2342E+00  0.2342E+00
      2.257  0.1094E-01  0.1094E-01  0.2354E+00  0.2354E+00
      2.366  0.1048E-01  0.1048E-01  0.2365E+00  0.2365E+00
      2.476  0.6649E-02  0.6649E-02  0.2373E+00  0.2373E+00
      2.585  0.8496E-02  0.8495E-02  0.2382E+00  0.2382E+00
      2.695  0.7447E-02  0.7446E-02  0.2390E+00  0.2390E+00
      2.804  0.8403E-02  0.8404E-02  0.2399E+00  0.2399E+00
      2.914  0.1008E-01  0.1008E-01  0.2410E+00  0.2410E+00
      3.023  0.9443E-02  0.9443E-02  0.2421E+00  0.2421E+00
      3.133  0.9189E-02  0.9189E-02  0.2431E+00  0.2431E+00
      3.242  0.1014E-01  0.1015E-01  0.2442E+00  0.2442E+00
      3.352  0.8762E-02  0.8764E-02  0.2451E+00  0.2451E+00
      3.461  0.9703E-02  0.9704E-02  0.2462E+00  0.2462E+00
      3.571  0.1014E-01  0.1013E-01  0.2473E+00  0.2473E+00
      3.680  0.9944E-02  0.9947E-02  0.2484E+00  0.2484E+00
      3.790  0.1094E-01  0.1094E-01  0.2496E+00  0.2496E+00
      3.899  0.1931E-01  0.1930E-01  0.2517E+00  0.2517E+00
      4.009  0.1799E-01  0.1798E-01  0.2537E+00  0.2537E+00
      4.118  0.1259E-01  0.1259E-01  0.2551E+00  0.2551E+00
      4.228  0.1337E-01  0.1338E-01  0.2565E+00  0.2565E+00
      4.337  0.1350E-01  0.1349E-01  0.2580E+00  0.2580E+00
      4.447  0.2164E-01  0.2163E-01  0.2604E+00  0.2604E+00
      4.556  0.2261E-01  0.2262E-01  0.2629E+00  0.2628E+00
      4.666  0.1869E-01  0.1869E-01  0.2649E+00  0.2649E+00
      4.775  0.1847E-01  0.1846E-01  0.2669E+00  0.2669E+00
      4.885  0.2516E-01  0.2515E-01  0.2697E+00  0.2697E+00
      4.994  0.2774E-01  0.2774E-01  0.2727E+00  0.2727E+00
      5.104  0.2569E-01  0.2568E-01  0.2755E+00  0.2755E+00
      5.213  0.3227E-01  0.3229E-01  0.2791E+00  0.2791E+00
      5.323  0.2473E-01  0.2472E-01  0.2818E+00  0.2818E+00
      5.432  0.2721E-01  0.2717E-01  0.2847E+00  0.2847E+00
      5.542  0.2491E-01  0.2495E-01  0.2875E+00  0.2875E+00
      5.651  0.1626E-01  0.1628E-01  0.2893E+00  0.2893E+00
      5.761  0.1785E-01  0.1786E-01  0.2912E+00  0.2912E+00
      5.870  0.2464E-01  0.2464E-01  0.2939E+00  0.2939E+00
      5.980  0.2301E-01  0.2301E-01  0.2964E+00  0.2964E+00
      6.089  0.1991E-01  0.1991E-01  0.2986E+00  0.2986E+00
      6.199  0.1796E-01  0.1796E-01  0.3006E+00  0.3006E+00
      6.308  0.2030E-01  0.2029E-01  0.3028E+00  0.3028E+00
      6.417  0.2301E-01  0.2297E-01  0.3053E+00  0.3053E+00
      6.527  0.2156E-01  0.2157E-01  0.3077E+00  0.3077E+00
      6.636  0.1853E-01  0.1855E-01  0.3097E+00  0.3097E+00
      6.746  0.1798E-01  0.1798E-01  0.3117E+00  0.3117E+00
      6.855  0.2432E-01  0.2429E-01  0.3143E+00  0.3143E+00
      6.965  0.2835E-01  0.2836E-01  0.3174E+00  0.3174E+00
      7.074  0.2275E-01  0.2274E-01  0.3199E+00  0.3199E+00
      7.184  0.2778E-01  0.2777E-01  0.3230E+00  0.3230E+00
      7.293  0.3213E-01  0.3214E-01  0.3265E+00  0.3265E+00
      7.403  0.1817E-01  0.1820E-01  0.3285E+00  0.3285E+00
      7.512  0.1495E-01  0.1494E-01  0.3301E+00  0.3301E+00
      7.622  0.2300E-01  0.2300E-01  0.3326E+00  0.3326E+00
      7.731  0.2445E-01  0.2447E-01  0.3353E+00  0.3353E+00
      7.841  0.2484E-01  0.2485E-01  0.3380E+00  0.3380E+00
      7.950  0.2300E-01  0.2299E-01  0.3406E+00  0.3405E+00
      8.060  0.1981E-01  0.1982E-01  0.3427E+00  0.3427E+00
      8.169  0.1955E-01  0.1957E-01  0.3449E+00  0.3449E+00
      8.279  0.3002E-01  0.3003E-01  0.3481E+00  0.3481E+00
      8.388  0.2792E-01  0.2788E-01  0.3512E+00  0.3512E+00
      8.498  0.3256E-01  0.3257E-01  0.3548E+00  0.3548E+00
      8.607  0.3209E-01  0.3208E-01  0.3583E+00  0.3583E+00
      8.717  0.3325E-01  0.3319E-01  0.3619E+00  0.3619E+00
      8.826  0.3492E-01  0.3494E-01  0.3657E+00  0.3657E+00
      8.936  0.2475E-01  0.2479E-01  0.3685E+00  0.3685E+00
      9.045  0.1841E-01  0.1843E-01  0.3705E+00  0.3705E+00
      9.155  0.1932E-01  0.1932E-01  0.3726E+00  0.3726E+00
      9.264  0.1507E-01  0.1507E-01  0.3742E+00  0.3742E+00
      9.374  0.5939E-02  0.5942E-02  0.3749E+00  0.3749E+00
      9.483  0.9782E-03  0.9793E-03  0.3750E+00  0.3750E+00
      9.593  0.3002E-04  0.3008E-04  0.3750E+00  0.3750E+00
      9.702  0.1099E-06  0.1102E-06  0.3750E+00  0.3750E+00
      9.812  0.4137E-10  0.4154E-10  0.3750E+00  0.3750E+00
      9.921  0.1516E-14  0.1524E-14  0.3750E+00  0.3750E+00
     10.031  0.0000E+00  0.0000E+00  0.3750E+00  0.3750E+00
     10.140  0.0000E+00  0.0000E+00  0.3750E+00  0.3750E+00
     10.250  0.0000E+00  0.0000E+00  0.3750E+00  0.3750E+00
     10.359  0.0000E+00  0.0000E+00  0.3750E+00  0.3750E+00
     10.469  0.0000E+00  0.0000E+00  0.3750E+00  0.3750E+00
     10.578  0.0000E+00  0.0000E+00  0.3750E+00  0.3750E+00
     10.688  0.0000E+00  0.0000E+00  0.3750E+00  0.3750E+00
     10.797  0.0000E+00  0.0000E+00  0.3750E+00  0.3750E+00
