  16  16   0   4
  0.2062353E+02  0.5040000E-09  0.5040000E-09  0.1500000E-08  0.5000000E-15
  1.000000000000000E-004
  CAR 
 Lattice                                 
      9.31736498    -20.89156658  301     -0.29436085      1.00000000
    -20.892  0.0000E+00  0.0000E+00  0.0000E+00  0.0000E+00
    -20.791  0.0000E+00  0.0000E+00  0.0000E+00  0.0000E+00
    -20.690  0.0000E+00  0.0000E+00  0.0000E+00  0.0000E+00
    -20.589  0.0000E+00  0.0000E+00  0.0000E+00  0.0000E+00
    -20.489  0.0000E+00  0.0000E+00  0.0000E+00  0.0000E+00
    -20.388  0.0000E+00  0.0000E+00  0.0000E+00  0.0000E+00
    -20.287  0.0000E+00  0.0000E+00  0.0000E+00  0.0000E+00
    -20.187  0.0000E+00  0.0000E+00  0.0000E+00  0.0000E+00
    -20.086  0.2692E-18  0.2692E-18  0.2711E-19  0.2711E-19
    -19.985  0.1218E-13  0.1218E-13  0.1227E-14  0.1227E-14
    -19.885  0.7583E-10  0.7583E-10  0.7637E-11  0.7637E-11
    -19.784  0.7284E-07  0.7283E-07  0.7342E-08  0.7342E-08
    -19.683  0.1161E-04  0.1161E-04  0.1176E-05  0.1176E-05
    -19.583  0.3362E-03  0.3362E-03  0.3503E-04  0.3503E-04
    -19.482  0.2132E-02  0.2132E-02  0.2497E-03  0.2497E-03
    -19.381  0.4373E-02  0.4373E-02  0.6901E-03  0.6901E-03
    -19.280  0.4878E-02  0.4878E-02  0.1181E-02  0.1181E-02
    -19.180  0.5196E-02  0.5196E-02  0.1705E-02  0.1705E-02
    -19.079  0.4586E-02  0.4586E-02  0.2166E-02  0.2166E-02
    -18.978  0.5655E-02  0.5655E-02  0.2736E-02  0.2736E-02
    -18.878  0.4484E-02  0.4484E-02  0.3187E-02  0.3187E-02
    -18.777  0.4802E-02  0.4802E-02  0.3671E-02  0.3671E-02
    -18.676  0.6205E-02  0.6205E-02  0.4296E-02  0.4296E-02
    -18.576  0.3993E-02  0.3993E-02  0.4698E-02  0.4698E-02
    -18.475  0.4531E-02  0.4531E-02  0.5154E-02  0.5154E-02
    -18.374  0.6468E-02  0.6468E-02  0.5805E-02  0.5805E-02
    -18.273  0.5258E-02  0.5258E-02  0.6335E-02  0.6335E-02
    -18.173  0.3171E-02  0.3171E-02  0.6654E-02  0.6654E-02
    -18.072  0.5382E-02  0.5382E-02  0.7196E-02  0.7196E-02
    -17.971  0.7014E-02  0.7014E-02  0.7902E-02  0.7902E-02
    -17.871  0.4681E-02  0.4681E-02  0.8374E-02  0.8374E-02
    -17.770  0.3809E-02  0.3809E-02  0.8757E-02  0.8757E-02
    -17.669  0.3887E-02  0.3887E-02  0.9148E-02  0.9148E-02
    -17.569  0.7532E-02  0.7532E-02  0.9907E-02  0.9907E-02
    -17.468  0.6275E-02  0.6275E-02  0.1054E-01  0.1054E-01
    -17.367  0.3438E-02  0.3438E-02  0.1089E-01  0.1089E-01
    -17.266  0.3888E-02  0.3887E-02  0.1128E-01  0.1128E-01
    -17.166  0.4855E-02  0.4855E-02  0.1177E-01  0.1177E-01
    -17.065  0.7268E-02  0.7268E-02  0.1250E-01  0.1250E-01
    -16.964  0.6532E-02  0.6532E-02  0.1315E-01  0.1315E-01
    -16.864  0.4345E-02  0.4345E-02  0.1359E-01  0.1359E-01
    -16.763  0.2434E-02  0.2434E-02  0.1384E-01  0.1384E-01
    -16.662  0.5023E-02  0.5023E-02  0.1434E-01  0.1434E-01
    -16.562  0.7371E-02  0.7371E-02  0.1509E-01  0.1509E-01
    -16.461  0.6543E-02  0.6543E-02  0.1574E-01  0.1574E-01
    -16.360  0.5360E-02  0.5360E-02  0.1628E-01  0.1628E-01
    -16.260  0.4500E-02  0.4500E-02  0.1674E-01  0.1674E-01
    -16.159  0.2601E-02  0.2601E-02  0.1700E-01  0.1700E-01
    -16.058  0.4878E-02  0.4878E-02  0.1749E-01  0.1749E-01
    -15.957  0.1183E-01  0.1183E-01  0.1868E-01  0.1868E-01
    -15.857  0.1177E-01  0.1177E-01  0.1987E-01  0.1987E-01
    -15.756  0.1116E-01  0.1116E-01  0.2099E-01  0.2099E-01
    -15.655  0.1068E-01  0.1068E-01  0.2207E-01  0.2207E-01
    -15.555  0.1122E-01  0.1122E-01  0.2320E-01  0.2320E-01
    -15.454  0.1017E-01  0.1017E-01  0.2422E-01  0.2422E-01
    -15.353  0.1550E-01  0.1550E-01  0.2578E-01  0.2578E-01
    -15.253  0.1718E-01  0.1718E-01  0.2751E-01  0.2751E-01
    -15.152  0.1566E-01  0.1566E-01  0.2909E-01  0.2909E-01
    -15.051  0.1241E-01  0.1241E-01  0.3034E-01  0.3034E-01
    -14.950  0.9528E-02  0.9528E-02  0.3130E-01  0.3130E-01
    -14.850  0.7247E-02  0.7247E-02  0.3203E-01  0.3203E-01
    -14.749  0.7345E-02  0.7345E-02  0.3277E-01  0.3277E-01
    -14.648  0.1186E-01  0.1186E-01  0.3396E-01  0.3396E-01
    -14.548  0.1169E-01  0.1169E-01  0.3514E-01  0.3514E-01
    -14.447  0.1308E-01  0.1308E-01  0.3645E-01  0.3645E-01
    -14.346  0.1099E-01  0.1099E-01  0.3756E-01  0.3756E-01
    -14.246  0.9594E-02  0.9594E-02  0.3853E-01  0.3853E-01
    -14.145  0.9684E-02  0.9684E-02  0.3950E-01  0.3950E-01
    -14.044  0.1321E-01  0.1321E-01  0.4083E-01  0.4083E-01
    -13.944  0.1119E-01  0.1119E-01  0.4196E-01  0.4196E-01
    -13.843  0.5451E-02  0.5451E-02  0.4251E-01  0.4251E-01
    -13.742  0.2933E-02  0.2933E-02  0.4280E-01  0.4280E-01
    -13.641  0.4328E-02  0.4328E-02  0.4324E-01  0.4324E-01
    -13.541  0.6628E-02  0.6628E-02  0.4391E-01  0.4391E-01
    -13.440  0.5876E-02  0.5876E-02  0.4450E-01  0.4450E-01
    -13.339  0.5270E-02  0.5270E-02  0.4503E-01  0.4503E-01
    -13.239  0.5544E-02  0.5544E-02  0.4559E-01  0.4559E-01
    -13.138  0.8194E-02  0.8194E-02  0.4641E-01  0.4641E-01
    -13.037  0.6441E-02  0.6441E-02  0.4706E-01  0.4706E-01
    -12.937  0.6923E-02  0.6923E-02  0.4776E-01  0.4776E-01
    -12.836  0.7378E-02  0.7378E-02  0.4850E-01  0.4850E-01
    -12.735  0.1015E-01  0.1015E-01  0.4952E-01  0.4952E-01
    -12.634  0.1394E-01  0.1394E-01  0.5093E-01  0.5093E-01
    -12.534  0.1326E-01  0.1326E-01  0.5226E-01  0.5226E-01
    -12.433  0.1555E-01  0.1555E-01  0.5383E-01  0.5383E-01
    -12.332  0.1375E-01  0.1375E-01  0.5521E-01  0.5521E-01
    -12.232  0.1637E-01  0.1637E-01  0.5686E-01  0.5686E-01
    -12.131  0.1729E-01  0.1729E-01  0.5860E-01  0.5860E-01
    -12.030  0.1510E-01  0.1510E-01  0.6012E-01  0.6012E-01
    -11.930  0.1759E-01  0.1759E-01  0.6189E-01  0.6189E-01
    -11.829  0.1388E-01  0.1388E-01  0.6329E-01  0.6329E-01
    -11.728  0.7905E-02  0.7905E-02  0.6409E-01  0.6409E-01
    -11.627  0.5779E-02  0.5779E-02  0.6467E-01  0.6467E-01
    -11.527  0.5865E-02  0.5865E-02  0.6526E-01  0.6526E-01
    -11.426  0.6408E-02  0.6408E-02  0.6591E-01  0.6591E-01
    -11.325  0.5457E-02  0.5457E-02  0.6646E-01  0.6646E-01
    -11.225  0.5490E-02  0.5490E-02  0.6701E-01  0.6701E-01
    -11.124  0.4628E-02  0.4628E-02  0.6747E-01  0.6747E-01
    -11.023  0.3925E-02  0.3925E-02  0.6787E-01  0.6787E-01
    -10.923  0.8040E-02  0.8040E-02  0.6868E-01  0.6868E-01
    -10.822  0.1193E-01  0.1193E-01  0.6988E-01  0.6988E-01
    -10.721  0.1152E-01  0.1152E-01  0.7104E-01  0.7104E-01
    -10.621  0.1258E-01  0.1258E-01  0.7231E-01  0.7231E-01
    -10.520  0.1463E-01  0.1463E-01  0.7378E-01  0.7378E-01
    -10.419  0.1194E-01  0.1194E-01  0.7498E-01  0.7498E-01
    -10.318  0.1312E-01  0.1312E-01  0.7630E-01  0.7630E-01
    -10.218  0.9293E-02  0.9293E-02  0.7724E-01  0.7724E-01
    -10.117  0.1019E-01  0.1019E-01  0.7827E-01  0.7827E-01
    -10.016  0.7983E-02  0.7983E-02  0.7907E-01  0.7907E-01
     -9.916  0.7901E-02  0.7901E-02  0.7987E-01  0.7987E-01
     -9.815  0.1220E-01  0.1220E-01  0.8109E-01  0.8109E-01
     -9.714  0.1157E-01  0.1157E-01  0.8226E-01  0.8226E-01
     -9.614  0.1767E-01  0.1767E-01  0.8404E-01  0.8404E-01
     -9.513  0.1565E-01  0.1565E-01  0.8561E-01  0.8561E-01
     -9.412  0.1362E-01  0.1362E-01  0.8699E-01  0.8699E-01
     -9.311  0.1811E-01  0.1811E-01  0.8881E-01  0.8881E-01
     -9.211  0.1320E-01  0.1320E-01  0.9014E-01  0.9014E-01
     -9.110  0.1064E-01  0.1064E-01  0.9121E-01  0.9121E-01
     -9.009  0.1475E-01  0.1475E-01  0.9269E-01  0.9269E-01
     -8.909  0.2327E-01  0.2327E-01  0.9504E-01  0.9504E-01
     -8.808  0.1797E-01  0.1797E-01  0.9685E-01  0.9685E-01
     -8.707  0.6000E-02  0.6000E-02  0.9745E-01  0.9745E-01
     -8.607  0.8281E-02  0.8281E-02  0.9829E-01  0.9829E-01
     -8.506  0.1571E-01  0.1571E-01  0.9987E-01  0.9987E-01
     -8.405  0.1840E-01  0.1840E-01  0.1017E+00  0.1017E+00
     -8.305  0.1568E-01  0.1568E-01  0.1033E+00  0.1033E+00
     -8.204  0.1485E-01  0.1485E-01  0.1048E+00  0.1048E+00
     -8.103  0.1025E-01  0.1025E-01  0.1058E+00  0.1058E+00
     -8.002  0.1004E-01  0.1004E-01  0.1068E+00  0.1068E+00
     -7.902  0.1451E-01  0.1451E-01  0.1083E+00  0.1083E+00
     -7.801  0.1996E-01  0.1996E-01  0.1103E+00  0.1103E+00
     -7.700  0.2130E-01  0.2130E-01  0.1125E+00  0.1125E+00
     -7.600  0.1473E-01  0.1473E-01  0.1139E+00  0.1139E+00
     -7.499  0.1525E-01  0.1525E-01  0.1155E+00  0.1155E+00
     -7.398  0.1229E-01  0.1229E-01  0.1167E+00  0.1167E+00
     -7.298  0.1837E-01  0.1837E-01  0.1186E+00  0.1186E+00
     -7.197  0.2043E-01  0.2043E-01  0.1206E+00  0.1206E+00
     -7.096  0.1495E-01  0.1495E-01  0.1221E+00  0.1221E+00
     -6.995  0.1875E-01  0.1875E-01  0.1240E+00  0.1240E+00
     -6.895  0.2256E-01  0.2256E-01  0.1263E+00  0.1263E+00
     -6.794  0.2450E-01  0.2450E-01  0.1287E+00  0.1287E+00
     -6.693  0.2632E-01  0.2632E-01  0.1314E+00  0.1314E+00
     -6.593  0.3495E-01  0.3495E-01  0.1349E+00  0.1349E+00
     -6.492  0.3154E-01  0.3154E-01  0.1381E+00  0.1381E+00
     -6.391  0.2048E-01  0.2048E-01  0.1402E+00  0.1402E+00
     -6.291  0.1716E-01  0.1716E-01  0.1419E+00  0.1419E+00
     -6.190  0.1641E-01  0.1641E-01  0.1435E+00  0.1435E+00
     -6.089  0.1896E-01  0.1896E-01  0.1454E+00  0.1454E+00
     -5.988  0.1816E-01  0.1816E-01  0.1473E+00  0.1473E+00
     -5.888  0.1568E-01  0.1568E-01  0.1489E+00  0.1489E+00
     -5.787  0.1603E-01  0.1603E-01  0.1505E+00  0.1505E+00
     -5.686  0.1723E-01  0.1723E-01  0.1522E+00  0.1522E+00
     -5.586  0.1287E-01  0.1287E-01  0.1535E+00  0.1535E+00
     -5.485  0.1226E-01  0.1226E-01  0.1547E+00  0.1547E+00
     -5.384  0.1673E-01  0.1673E-01  0.1564E+00  0.1564E+00
     -5.284  0.1812E-01  0.1812E-01  0.1582E+00  0.1582E+00
     -5.183  0.1548E-01  0.1548E-01  0.1598E+00  0.1598E+00
     -5.082  0.1376E-01  0.1376E-01  0.1612E+00  0.1612E+00
     -4.982  0.2000E-01  0.2000E-01  0.1632E+00  0.1632E+00
     -4.881  0.1889E-01  0.1889E-01  0.1651E+00  0.1651E+00
     -4.780  0.9966E-02  0.9966E-02  0.1661E+00  0.1661E+00
     -4.679  0.1158E-01  0.1158E-01  0.1673E+00  0.1673E+00
     -4.579  0.1966E-01  0.1966E-01  0.1693E+00  0.1693E+00
     -4.478  0.1942E-01  0.1942E-01  0.1712E+00  0.1712E+00
     -4.377  0.1916E-01  0.1916E-01  0.1731E+00  0.1731E+00
     -4.277  0.2354E-01  0.2354E-01  0.1755E+00  0.1755E+00
     -4.176  0.2390E-01  0.2390E-01  0.1779E+00  0.1779E+00
     -4.075  0.2276E-01  0.2276E-01  0.1802E+00  0.1802E+00
     -3.975  0.2521E-01  0.2521E-01  0.1827E+00  0.1827E+00
     -3.874  0.2958E-01  0.2958E-01  0.1857E+00  0.1857E+00
     -3.773  0.2338E-01  0.2338E-01  0.1881E+00  0.1881E+00
     -3.672  0.1877E-01  0.1877E-01  0.1900E+00  0.1900E+00
     -3.572  0.1836E-01  0.1836E-01  0.1918E+00  0.1918E+00
     -3.471  0.1511E-01  0.1511E-01  0.1933E+00  0.1933E+00
     -3.370  0.1054E-01  0.1054E-01  0.1944E+00  0.1944E+00
     -3.270  0.6073E-02  0.6073E-02  0.1950E+00  0.1950E+00
     -3.169  0.1005E-01  0.1005E-01  0.1960E+00  0.1960E+00
     -3.068  0.1484E-01  0.1484E-01  0.1975E+00  0.1975E+00
     -2.968  0.1591E-01  0.1591E-01  0.1991E+00  0.1991E+00
     -2.867  0.1286E-01  0.1286E-01  0.2004E+00  0.2004E+00
     -2.766  0.1245E-01  0.1245E-01  0.2017E+00  0.2017E+00
     -2.666  0.9861E-02  0.9861E-02  0.2027E+00  0.2027E+00
     -2.565  0.1226E-01  0.1226E-01  0.2039E+00  0.2039E+00
     -2.464  0.1553E-01  0.1553E-01  0.2055E+00  0.2055E+00
     -2.363  0.1189E-01  0.1189E-01  0.2067E+00  0.2067E+00
     -2.263  0.1125E-01  0.1125E-01  0.2078E+00  0.2078E+00
     -2.162  0.1119E-01  0.1119E-01  0.2089E+00  0.2089E+00
     -2.061  0.5935E-02  0.5935E-02  0.2095E+00  0.2095E+00
     -1.961  0.4499E-02  0.4499E-02  0.2100E+00  0.2100E+00
     -1.860  0.7361E-02  0.7361E-02  0.2107E+00  0.2107E+00
     -1.759  0.9414E-02  0.9414E-02  0.2117E+00  0.2117E+00
     -1.659  0.8554E-02  0.8554E-02  0.2125E+00  0.2125E+00
     -1.558  0.9518E-02  0.9518E-02  0.2135E+00  0.2135E+00
     -1.457  0.6490E-02  0.6490E-02  0.2141E+00  0.2141E+00
     -1.356  0.4876E-02  0.4876E-02  0.2146E+00  0.2146E+00
     -1.256  0.5405E-02  0.5405E-02  0.2152E+00  0.2152E+00
     -1.155  0.6744E-02  0.6744E-02  0.2158E+00  0.2158E+00
     -1.054  0.7382E-02  0.7382E-02  0.2166E+00  0.2166E+00
     -0.954  0.5453E-02  0.5453E-02  0.2171E+00  0.2171E+00
     -0.853  0.2913E-02  0.2913E-02  0.2174E+00  0.2174E+00
     -0.752  0.1239E-02  0.1239E-02  0.2176E+00  0.2176E+00
     -0.652  0.1451E-02  0.1451E-02  0.2177E+00  0.2177E+00
     -0.551  0.3978E-02  0.3978E-02  0.2181E+00  0.2181E+00
     -0.450  0.3024E-02  0.3024E-02  0.2184E+00  0.2184E+00
     -0.349  0.1749E-02  0.1749E-02  0.2186E+00  0.2186E+00
     -0.249  0.3492E-02  0.3492E-02  0.2189E+00  0.2189E+00
     -0.148  0.4592E-02  0.4592E-02  0.2194E+00  0.2194E+00
     -0.047  0.3944E-02  0.3944E-02  0.2198E+00  0.2198E+00
      0.053  0.4991E-02  0.4991E-02  0.2203E+00  0.2203E+00
      0.154  0.9067E-02  0.9067E-02  0.2212E+00  0.2212E+00
      0.255  0.1200E-01  0.1200E-01  0.2224E+00  0.2224E+00
      0.355  0.1253E-01  0.1253E-01  0.2237E+00  0.2237E+00
      0.456  0.8570E-02  0.8570E-02  0.2245E+00  0.2245E+00
      0.557  0.4560E-02  0.4560E-02  0.2250E+00  0.2250E+00
      0.657  0.1002E-01  0.1002E-01  0.2260E+00  0.2260E+00
      0.758  0.9120E-02  0.9120E-02  0.2269E+00  0.2269E+00
      0.859  0.4746E-02  0.4746E-02  0.2274E+00  0.2274E+00
      0.960  0.3913E-02  0.3913E-02  0.2278E+00  0.2278E+00
      1.060  0.9142E-02  0.9142E-02  0.2287E+00  0.2287E+00
      1.161  0.1805E-01  0.1805E-01  0.2305E+00  0.2305E+00
      1.262  0.2011E-01  0.2011E-01  0.2326E+00  0.2326E+00
      1.362  0.1496E-01  0.1496E-01  0.2341E+00  0.2341E+00
      1.463  0.9053E-02  0.9053E-02  0.2350E+00  0.2350E+00
      1.564  0.1017E-01  0.1017E-01  0.2360E+00  0.2360E+00
      1.664  0.1026E-01  0.1026E-01  0.2370E+00  0.2370E+00
      1.765  0.8412E-02  0.8412E-02  0.2379E+00  0.2379E+00
      1.866  0.1402E-01  0.1402E-01  0.2393E+00  0.2393E+00
      1.967  0.1619E-01  0.1619E-01  0.2409E+00  0.2409E+00
      2.067  0.1297E-01  0.1297E-01  0.2422E+00  0.2422E+00
      2.168  0.8594E-02  0.8594E-02  0.2431E+00  0.2431E+00
      2.269  0.5688E-02  0.5688E-02  0.2437E+00  0.2437E+00
      2.369  0.9123E-02  0.9123E-02  0.2446E+00  0.2446E+00
      2.470  0.1184E-01  0.1184E-01  0.2458E+00  0.2458E+00
      2.571  0.1512E-01  0.1512E-01  0.2473E+00  0.2473E+00
      2.671  0.1673E-01  0.1673E-01  0.2490E+00  0.2490E+00
      2.772  0.1509E-01  0.1509E-01  0.2505E+00  0.2505E+00
      2.873  0.1067E-01  0.1067E-01  0.2516E+00  0.2516E+00
      2.973  0.1244E-01  0.1244E-01  0.2528E+00  0.2528E+00
      3.074  0.1587E-01  0.1587E-01  0.2544E+00  0.2544E+00
      3.175  0.2209E-01  0.2209E-01  0.2567E+00  0.2567E+00
      3.276  0.1737E-01  0.1737E-01  0.2584E+00  0.2584E+00
      3.376  0.1705E-01  0.1705E-01  0.2601E+00  0.2601E+00
      3.477  0.2162E-01  0.2161E-01  0.2623E+00  0.2623E+00
      3.578  0.2859E-01  0.2859E-01  0.2652E+00  0.2652E+00
      3.678  0.2363E-01  0.2364E-01  0.2676E+00  0.2676E+00
      3.779  0.1655E-01  0.1655E-01  0.2692E+00  0.2692E+00
      3.880  0.1556E-01  0.1556E-01  0.2708E+00  0.2708E+00
      3.980  0.2055E-01  0.2056E-01  0.2729E+00  0.2729E+00
      4.081  0.1995E-01  0.1996E-01  0.2749E+00  0.2749E+00
      4.182  0.2028E-01  0.2028E-01  0.2769E+00  0.2769E+00
      4.283  0.2105E-01  0.2105E-01  0.2790E+00  0.2790E+00
      4.383  0.2168E-01  0.2168E-01  0.2812E+00  0.2812E+00
      4.484  0.2288E-01  0.2288E-01  0.2835E+00  0.2835E+00
      4.585  0.2523E-01  0.2523E-01  0.2861E+00  0.2861E+00
      4.685  0.2672E-01  0.2671E-01  0.2888E+00  0.2888E+00
      4.786  0.2337E-01  0.2336E-01  0.2911E+00  0.2911E+00
      4.887  0.1751E-01  0.1751E-01  0.2929E+00  0.2929E+00
      4.987  0.2049E-01  0.2048E-01  0.2949E+00  0.2949E+00
      5.088  0.3037E-01  0.3038E-01  0.2980E+00  0.2980E+00
      5.189  0.2441E-01  0.2442E-01  0.3004E+00  0.3004E+00
      5.290  0.2228E-01  0.2227E-01  0.3027E+00  0.3027E+00
      5.390  0.3038E-01  0.3038E-01  0.3058E+00  0.3057E+00
      5.491  0.3125E-01  0.3126E-01  0.3089E+00  0.3089E+00
      5.592  0.2670E-01  0.2669E-01  0.3116E+00  0.3116E+00
      5.692  0.2653E-01  0.2652E-01  0.3143E+00  0.3143E+00
      5.793  0.1572E-01  0.1574E-01  0.3158E+00  0.3158E+00
      5.894  0.1646E-01  0.1646E-01  0.3175E+00  0.3175E+00
      5.994  0.2932E-01  0.2931E-01  0.3205E+00  0.3205E+00
      6.095  0.3284E-01  0.3284E-01  0.3238E+00  0.3238E+00
      6.196  0.3142E-01  0.3142E-01  0.3269E+00  0.3269E+00
      6.296  0.3246E-01  0.3247E-01  0.3302E+00  0.3302E+00
      6.397  0.2720E-01  0.2721E-01  0.3329E+00  0.3329E+00
      6.498  0.2263E-01  0.2262E-01  0.3352E+00  0.3352E+00
      6.599  0.3156E-01  0.3155E-01  0.3384E+00  0.3384E+00
      6.699  0.2941E-01  0.2942E-01  0.3413E+00  0.3413E+00
      6.800  0.3142E-01  0.3141E-01  0.3445E+00  0.3445E+00
      6.901  0.3690E-01  0.3690E-01  0.3482E+00  0.3482E+00
      7.001  0.3442E-01  0.3442E-01  0.3517E+00  0.3517E+00
      7.102  0.3290E-01  0.3290E-01  0.3550E+00  0.3550E+00
      7.203  0.3029E-01  0.3027E-01  0.3581E+00  0.3581E+00
      7.303  0.2918E-01  0.2917E-01  0.3610E+00  0.3610E+00
      7.404  0.3660E-01  0.3662E-01  0.3647E+00  0.3647E+00
      7.505  0.3493E-01  0.3494E-01  0.3682E+00  0.3682E+00
      7.606  0.2518E-01  0.2519E-01  0.3707E+00  0.3707E+00
      7.706  0.1752E-01  0.1752E-01  0.3725E+00  0.3725E+00
      7.807  0.1499E-01  0.1498E-01  0.3740E+00  0.3740E+00
      7.908  0.6715E-02  0.6653E-02  0.3747E+00  0.3747E+00
      8.008  0.2552E-02  0.2576E-02  0.3749E+00  0.3749E+00
      8.109  0.5486E-03  0.6033E-03  0.3750E+00  0.3750E+00
      8.210  0.2649E-04  0.3215E-04  0.3750E+00  0.3750E+00
      8.310  0.2097E-06  0.2812E-06  0.3750E+00  0.3750E+00
      8.411  0.2440E-09  0.3618E-09  0.3750E+00  0.3750E+00
      8.512  0.3982E-13  0.6536E-13  0.3750E+00  0.3750E+00
      8.612  0.7178E-18  0.1436E-17  0.3750E+00  0.3750E+00
      8.713  0.0000E+00  0.0000E+00  0.3750E+00  0.3750E+00
      8.814  0.0000E+00  0.0000E+00  0.3750E+00  0.3750E+00
      8.915  0.0000E+00  0.0000E+00  0.3750E+00  0.3750E+00
      9.015  0.0000E+00  0.0000E+00  0.3750E+00  0.3750E+00
      9.116  0.0000E+00  0.0000E+00  0.3750E+00  0.3750E+00
      9.217  0.0000E+00  0.0000E+00  0.3750E+00  0.3750E+00
      9.317  0.0000E+00  0.0000E+00  0.3750E+00  0.3750E+00
