  16  16   0   4
  0.2062353E+02  0.5040000E-09  0.5040000E-09  0.1500000E-08  0.5000000E-15
  1.000000000000000E-004
  CAR 
 Lattice                                 
      9.27227355    -20.92885542  301     -0.24907404      1.00000000
    -20.929  0.0000E+00  0.0000E+00  0.0000E+00  0.0000E+00
    -20.828  0.0000E+00  0.0000E+00  0.0000E+00  0.0000E+00
    -20.728  0.0000E+00  0.0000E+00  0.0000E+00  0.0000E+00
    -20.627  0.0000E+00  0.0000E+00  0.0000E+00  0.0000E+00
    -20.526  0.0000E+00  0.0000E+00  0.0000E+00  0.0000E+00
    -20.426  0.0000E+00  0.0000E+00  0.0000E+00  0.0000E+00
    -20.325  0.0000E+00  0.0000E+00  0.0000E+00  0.0000E+00
    -20.224  0.0000E+00  0.0000E+00  0.0000E+00  0.0000E+00
    -20.123  0.2692E-18  0.2692E-18  0.2711E-19  0.2711E-19
    -20.023  0.1233E-13  0.1233E-13  0.1241E-14  0.1241E-14
    -19.922  0.7641E-10  0.7641E-10  0.7693E-11  0.7693E-11
    -19.821  0.7315E-07  0.7315E-07  0.7372E-08  0.7372E-08
    -19.721  0.1163E-04  0.1163E-04  0.1178E-05  0.1178E-05
    -19.620  0.3364E-03  0.3364E-03  0.3504E-04  0.3504E-04
    -19.519  0.2132E-02  0.2132E-02  0.2497E-03  0.2497E-03
    -19.419  0.4373E-02  0.4373E-02  0.6899E-03  0.6899E-03
    -19.318  0.4878E-02  0.4878E-02  0.1181E-02  0.1181E-02
    -19.217  0.5197E-02  0.5197E-02  0.1704E-02  0.1704E-02
    -19.117  0.4585E-02  0.4585E-02  0.2166E-02  0.2166E-02
    -19.016  0.5655E-02  0.5655E-02  0.2735E-02  0.2735E-02
    -18.915  0.4486E-02  0.4486E-02  0.3187E-02  0.3187E-02
    -18.815  0.4798E-02  0.4798E-02  0.3670E-02  0.3670E-02
    -18.714  0.6207E-02  0.6207E-02  0.4295E-02  0.4295E-02
    -18.613  0.3997E-02  0.3997E-02  0.4697E-02  0.4697E-02
    -18.513  0.4525E-02  0.4525E-02  0.5152E-02  0.5152E-02
    -18.412  0.6468E-02  0.6468E-02  0.5804E-02  0.5804E-02
    -18.311  0.5265E-02  0.5265E-02  0.6334E-02  0.6334E-02
    -18.211  0.3173E-02  0.3173E-02  0.6653E-02  0.6653E-02
    -18.110  0.5369E-02  0.5369E-02  0.7193E-02  0.7193E-02
    -18.009  0.7019E-02  0.7019E-02  0.7900E-02  0.7900E-02
    -17.909  0.4687E-02  0.4687E-02  0.8372E-02  0.8372E-02
    -17.808  0.3814E-02  0.3814E-02  0.8756E-02  0.8756E-02
    -17.707  0.3875E-02  0.3875E-02  0.9146E-02  0.9146E-02
    -17.607  0.7524E-02  0.7524E-02  0.9903E-02  0.9903E-02
    -17.506  0.6290E-02  0.6290E-02  0.1054E-01  0.1054E-01
    -17.405  0.3445E-02  0.3445E-02  0.1088E-01  0.1088E-01
    -17.305  0.3882E-02  0.3882E-02  0.1127E-01  0.1127E-01
    -17.204  0.4845E-02  0.4845E-02  0.1176E-01  0.1176E-01
    -17.103  0.7259E-02  0.7259E-02  0.1249E-01  0.1249E-01
    -17.003  0.6545E-02  0.6545E-02  0.1315E-01  0.1315E-01
    -16.902  0.4360E-02  0.4360E-02  0.1359E-01  0.1359E-01
    -16.801  0.2434E-02  0.2434E-02  0.1384E-01  0.1384E-01
    -16.701  0.4997E-02  0.4997E-02  0.1434E-01  0.1434E-01
    -16.600  0.7369E-02  0.7369E-02  0.1508E-01  0.1508E-01
    -16.499  0.6551E-02  0.6551E-02  0.1574E-01  0.1574E-01
    -16.399  0.5369E-02  0.5369E-02  0.1628E-01  0.1628E-01
    -16.298  0.4508E-02  0.4508E-02  0.1673E-01  0.1673E-01
    -16.197  0.2603E-02  0.2603E-02  0.1700E-01  0.1700E-01
    -16.097  0.4497E-02  0.4497E-02  0.1745E-01  0.1745E-01
    -15.996  0.1003E-01  0.1003E-01  0.1846E-01  0.1846E-01
    -15.895  0.9869E-02  0.9869E-02  0.1945E-01  0.1945E-01
    -15.795  0.1063E-01  0.1063E-01  0.2052E-01  0.2052E-01
    -15.694  0.1072E-01  0.1072E-01  0.2160E-01  0.2160E-01
    -15.593  0.1080E-01  0.1080E-01  0.2269E-01  0.2269E-01
    -15.493  0.1042E-01  0.1042E-01  0.2374E-01  0.2374E-01
    -15.392  0.1443E-01  0.1443E-01  0.2519E-01  0.2519E-01
    -15.291  0.1742E-01  0.1742E-01  0.2694E-01  0.2694E-01
    -15.191  0.1357E-01  0.1357E-01  0.2831E-01  0.2831E-01
    -15.090  0.1498E-01  0.1498E-01  0.2982E-01  0.2982E-01
    -14.989  0.1106E-01  0.1106E-01  0.3093E-01  0.3093E-01
    -14.889  0.9371E-02  0.9371E-02  0.3187E-01  0.3187E-01
    -14.788  0.7974E-02  0.7974E-02  0.3268E-01  0.3268E-01
    -14.687  0.1187E-01  0.1187E-01  0.3387E-01  0.3387E-01
    -14.587  0.1075E-01  0.1075E-01  0.3495E-01  0.3495E-01
    -14.486  0.1060E-01  0.1060E-01  0.3602E-01  0.3602E-01
    -14.385  0.9960E-02  0.9960E-02  0.3702E-01  0.3702E-01
    -14.285  0.8556E-02  0.8556E-02  0.3789E-01  0.3789E-01
    -14.184  0.1188E-01  0.1188E-01  0.3908E-01  0.3908E-01
    -14.083  0.1423E-01  0.1423E-01  0.4051E-01  0.4051E-01
    -13.983  0.1048E-01  0.1048E-01  0.4157E-01  0.4157E-01
    -13.882  0.6150E-02  0.6150E-02  0.4219E-01  0.4219E-01
    -13.781  0.4348E-02  0.4348E-02  0.4263E-01  0.4263E-01
    -13.681  0.3682E-02  0.3682E-02  0.4300E-01  0.4300E-01
    -13.580  0.5812E-02  0.5812E-02  0.4358E-01  0.4358E-01
    -13.479  0.7556E-02  0.7556E-02  0.4434E-01  0.4434E-01
    -13.379  0.5440E-02  0.5440E-02  0.4489E-01  0.4489E-01
    -13.278  0.5301E-02  0.5301E-02  0.4542E-01  0.4542E-01
    -13.177  0.7191E-02  0.7191E-02  0.4615E-01  0.4615E-01
    -13.077  0.7828E-02  0.7828E-02  0.4693E-01  0.4693E-01
    -12.976  0.7702E-02  0.7702E-02  0.4771E-01  0.4771E-01
    -12.875  0.6391E-02  0.6391E-02  0.4835E-01  0.4835E-01
    -12.775  0.8730E-02  0.8730E-02  0.4923E-01  0.4923E-01
    -12.674  0.1213E-01  0.1213E-01  0.5045E-01  0.5045E-01
    -12.573  0.1342E-01  0.1342E-01  0.5180E-01  0.5180E-01
    -12.473  0.1447E-01  0.1447E-01  0.5326E-01  0.5326E-01
    -12.372  0.1332E-01  0.1332E-01  0.5460E-01  0.5460E-01
    -12.271  0.1483E-01  0.1483E-01  0.5609E-01  0.5609E-01
    -12.171  0.1590E-01  0.1590E-01  0.5770E-01  0.5770E-01
    -12.070  0.1557E-01  0.1557E-01  0.5926E-01  0.5926E-01
    -11.969  0.1918E-01  0.1918E-01  0.6119E-01  0.6119E-01
    -11.869  0.1545E-01  0.1545E-01  0.6275E-01  0.6275E-01
    -11.768  0.9792E-02  0.9792E-02  0.6373E-01  0.6373E-01
    -11.667  0.8290E-02  0.8290E-02  0.6457E-01  0.6457E-01
    -11.567  0.6683E-02  0.6683E-02  0.6524E-01  0.6524E-01
    -11.466  0.6444E-02  0.6444E-02  0.6589E-01  0.6589E-01
    -11.365  0.4956E-02  0.4956E-02  0.6639E-01  0.6639E-01
    -11.264  0.4805E-02  0.4805E-02  0.6687E-01  0.6687E-01
    -11.164  0.5428E-02  0.5428E-02  0.6742E-01  0.6742E-01
    -11.063  0.4044E-02  0.4044E-02  0.6783E-01  0.6783E-01
    -10.962  0.6230E-02  0.6230E-02  0.6845E-01  0.6845E-01
    -10.862  0.9677E-02  0.9677E-02  0.6943E-01  0.6943E-01
    -10.761  0.1051E-01  0.1051E-01  0.7049E-01  0.7049E-01
    -10.660  0.9528E-02  0.9528E-02  0.7145E-01  0.7145E-01
    -10.560  0.1387E-01  0.1387E-01  0.7284E-01  0.7284E-01
    -10.459  0.1812E-01  0.1812E-01  0.7467E-01  0.7467E-01
    -10.358  0.1490E-01  0.1490E-01  0.7617E-01  0.7617E-01
    -10.258  0.7401E-02  0.7401E-02  0.7691E-01  0.7691E-01
    -10.157  0.6622E-02  0.6622E-02  0.7758E-01  0.7758E-01
    -10.056  0.1136E-01  0.1136E-01  0.7872E-01  0.7872E-01
     -9.956  0.1080E-01  0.1080E-01  0.7981E-01  0.7981E-01
     -9.855  0.1185E-01  0.1185E-01  0.8100E-01  0.8100E-01
     -9.754  0.7411E-02  0.7411E-02  0.8175E-01  0.8175E-01
     -9.654  0.1123E-01  0.1123E-01  0.8288E-01  0.8288E-01
     -9.553  0.1983E-01  0.1983E-01  0.8487E-01  0.8487E-01
     -9.452  0.1468E-01  0.1468E-01  0.8635E-01  0.8635E-01
     -9.352  0.1487E-01  0.1487E-01  0.8785E-01  0.8785E-01
     -9.251  0.1643E-01  0.1643E-01  0.8950E-01  0.8950E-01
     -9.150  0.1425E-01  0.1425E-01  0.9094E-01  0.9094E-01
     -9.050  0.1083E-01  0.1083E-01  0.9203E-01  0.9203E-01
     -8.949  0.1832E-01  0.1832E-01  0.9387E-01  0.9387E-01
     -8.848  0.2349E-01  0.2349E-01  0.9624E-01  0.9624E-01
     -8.748  0.9619E-02  0.9619E-02  0.9721E-01  0.9721E-01
     -8.647  0.4326E-02  0.4326E-02  0.9764E-01  0.9764E-01
     -8.546  0.1401E-01  0.1401E-01  0.9905E-01  0.9905E-01
     -8.446  0.2232E-01  0.2232E-01  0.1013E+00  0.1013E+00
     -8.345  0.1635E-01  0.1635E-01  0.1029E+00  0.1029E+00
     -8.244  0.1107E-01  0.1107E-01  0.1041E+00  0.1041E+00
     -8.144  0.1327E-01  0.1327E-01  0.1054E+00  0.1054E+00
     -8.043  0.9829E-02  0.9829E-02  0.1064E+00  0.1064E+00
     -7.942  0.1220E-01  0.1220E-01  0.1076E+00  0.1076E+00
     -7.842  0.2152E-01  0.2152E-01  0.1098E+00  0.1098E+00
     -7.741  0.2204E-01  0.2204E-01  0.1120E+00  0.1120E+00
     -7.640  0.1583E-01  0.1583E-01  0.1136E+00  0.1136E+00
     -7.540  0.1524E-01  0.1524E-01  0.1151E+00  0.1151E+00
     -7.439  0.1359E-01  0.1359E-01  0.1165E+00  0.1165E+00
     -7.338  0.1767E-01  0.1767E-01  0.1183E+00  0.1183E+00
     -7.238  0.2068E-01  0.2068E-01  0.1204E+00  0.1204E+00
     -7.137  0.1343E-01  0.1343E-01  0.1217E+00  0.1217E+00
     -7.036  0.1656E-01  0.1656E-01  0.1234E+00  0.1234E+00
     -6.936  0.2436E-01  0.2436E-01  0.1258E+00  0.1258E+00
     -6.835  0.2371E-01  0.2371E-01  0.1282E+00  0.1282E+00
     -6.734  0.2377E-01  0.2377E-01  0.1306E+00  0.1306E+00
     -6.634  0.2974E-01  0.2974E-01  0.1336E+00  0.1336E+00
     -6.533  0.3112E-01  0.3112E-01  0.1367E+00  0.1367E+00
     -6.432  0.2678E-01  0.2678E-01  0.1394E+00  0.1394E+00
     -6.332  0.1998E-01  0.1998E-01  0.1414E+00  0.1414E+00
     -6.231  0.1720E-01  0.1720E-01  0.1432E+00  0.1432E+00
     -6.130  0.1892E-01  0.1892E-01  0.1451E+00  0.1451E+00
     -6.030  0.1717E-01  0.1717E-01  0.1468E+00  0.1468E+00
     -5.929  0.1712E-01  0.1712E-01  0.1485E+00  0.1485E+00
     -5.828  0.1503E-01  0.1503E-01  0.1500E+00  0.1500E+00
     -5.728  0.1592E-01  0.1592E-01  0.1516E+00  0.1516E+00
     -5.627  0.1577E-01  0.1577E-01  0.1532E+00  0.1532E+00
     -5.526  0.1269E-01  0.1269E-01  0.1545E+00  0.1545E+00
     -5.426  0.1495E-01  0.1495E-01  0.1560E+00  0.1560E+00
     -5.325  0.1573E-01  0.1573E-01  0.1576E+00  0.1576E+00
     -5.224  0.1679E-01  0.1679E-01  0.1593E+00  0.1593E+00
     -5.124  0.1410E-01  0.1410E-01  0.1607E+00  0.1607E+00
     -5.023  0.1771E-01  0.1771E-01  0.1625E+00  0.1625E+00
     -4.922  0.2269E-01  0.2269E-01  0.1648E+00  0.1648E+00
     -4.822  0.1112E-01  0.1112E-01  0.1659E+00  0.1659E+00
     -4.721  0.7837E-02  0.7836E-02  0.1667E+00  0.1667E+00
     -4.620  0.1957E-01  0.1957E-01  0.1687E+00  0.1687E+00
     -4.520  0.2020E-01  0.2020E-01  0.1707E+00  0.1707E+00
     -4.419  0.1498E-01  0.1498E-01  0.1722E+00  0.1722E+00
     -4.318  0.1928E-01  0.1928E-01  0.1741E+00  0.1741E+00
     -4.218  0.2644E-01  0.2644E-01  0.1768E+00  0.1768E+00
     -4.117  0.2281E-01  0.2281E-01  0.1791E+00  0.1791E+00
     -4.016  0.2010E-01  0.2010E-01  0.1811E+00  0.1811E+00
     -3.916  0.2855E-01  0.2855E-01  0.1840E+00  0.1840E+00
     -3.815  0.3042E-01  0.3042E-01  0.1871E+00  0.1871E+00
     -3.714  0.2174E-01  0.2174E-01  0.1892E+00  0.1892E+00
     -3.614  0.1904E-01  0.1904E-01  0.1912E+00  0.1912E+00
     -3.513  0.1427E-01  0.1427E-01  0.1926E+00  0.1926E+00
     -3.412  0.1232E-01  0.1232E-01  0.1938E+00  0.1938E+00
     -3.312  0.9838E-02  0.9839E-02  0.1948E+00  0.1948E+00
     -3.211  0.8556E-02  0.8556E-02  0.1957E+00  0.1957E+00
     -3.110  0.1406E-01  0.1406E-01  0.1971E+00  0.1971E+00
     -3.010  0.1618E-01  0.1618E-01  0.1987E+00  0.1987E+00
     -2.909  0.1262E-01  0.1262E-01  0.2000E+00  0.2000E+00
     -2.808  0.1154E-01  0.1154E-01  0.2012E+00  0.2012E+00
     -2.708  0.9597E-02  0.9597E-02  0.2021E+00  0.2021E+00
     -2.607  0.1193E-01  0.1193E-01  0.2033E+00  0.2033E+00
     -2.506  0.1820E-01  0.1820E-01  0.2052E+00  0.2052E+00
     -2.405  0.1108E-01  0.1108E-01  0.2063E+00  0.2063E+00
     -2.305  0.6579E-02  0.6578E-02  0.2069E+00  0.2069E+00
     -2.204  0.1144E-01  0.1144E-01  0.2081E+00  0.2081E+00
     -2.103  0.9717E-02  0.9717E-02  0.2091E+00  0.2091E+00
     -2.003  0.6783E-02  0.6783E-02  0.2098E+00  0.2098E+00
     -1.902  0.8136E-02  0.8136E-02  0.2106E+00  0.2106E+00
     -1.801  0.8481E-02  0.8481E-02  0.2114E+00  0.2114E+00
     -1.701  0.5840E-02  0.5840E-02  0.2120E+00  0.2120E+00
     -1.600  0.8078E-02  0.8078E-02  0.2128E+00  0.2128E+00
     -1.499  0.9719E-02  0.9719E-02  0.2138E+00  0.2138E+00
     -1.399  0.4780E-02  0.4780E-02  0.2143E+00  0.2143E+00
     -1.298  0.5620E-02  0.5620E-02  0.2149E+00  0.2149E+00
     -1.197  0.7384E-02  0.7384E-02  0.2156E+00  0.2156E+00
     -1.097  0.5590E-02  0.5590E-02  0.2162E+00  0.2162E+00
     -0.996  0.6000E-02  0.6000E-02  0.2168E+00  0.2168E+00
     -0.895  0.4613E-02  0.4613E-02  0.2172E+00  0.2172E+00
     -0.795  0.2555E-02  0.2555E-02  0.2175E+00  0.2175E+00
     -0.694  0.1189E-02  0.1189E-02  0.2176E+00  0.2176E+00
     -0.593  0.3121E-02  0.3121E-02  0.2179E+00  0.2179E+00
     -0.493  0.3879E-02  0.3879E-02  0.2183E+00  0.2183E+00
     -0.392  0.1200E-02  0.1200E-02  0.2184E+00  0.2184E+00
     -0.291  0.1556E-02  0.1556E-02  0.2186E+00  0.2186E+00
     -0.191  0.4581E-02  0.4581E-02  0.2190E+00  0.2190E+00
     -0.090  0.4741E-02  0.4741E-02  0.2195E+00  0.2195E+00
      0.011  0.5088E-02  0.5088E-02  0.2200E+00  0.2200E+00
      0.111  0.5785E-02  0.5785E-02  0.2206E+00  0.2206E+00
      0.212  0.5956E-02  0.5956E-02  0.2212E+00  0.2212E+00
      0.313  0.1110E-01  0.1110E-01  0.2223E+00  0.2223E+00
      0.413  0.9453E-02  0.9454E-02  0.2233E+00  0.2233E+00
      0.514  0.7810E-02  0.7810E-02  0.2241E+00  0.2241E+00
      0.615  0.1102E-01  0.1102E-01  0.2252E+00  0.2252E+00
      0.715  0.1082E-01  0.1082E-01  0.2263E+00  0.2263E+00
      0.816  0.7815E-02  0.7815E-02  0.2271E+00  0.2271E+00
      0.917  0.8684E-02  0.8684E-02  0.2279E+00  0.2279E+00
      1.017  0.1266E-01  0.1266E-01  0.2292E+00  0.2292E+00
      1.118  0.1610E-01  0.1610E-01  0.2308E+00  0.2308E+00
      1.219  0.1698E-01  0.1698E-01  0.2325E+00  0.2325E+00
      1.319  0.1415E-01  0.1415E-01  0.2340E+00  0.2340E+00
      1.420  0.7993E-02  0.7993E-02  0.2348E+00  0.2348E+00
      1.521  0.9270E-02  0.9270E-02  0.2357E+00  0.2357E+00
      1.621  0.1024E-01  0.1024E-01  0.2367E+00  0.2367E+00
      1.722  0.8381E-02  0.8381E-02  0.2376E+00  0.2376E+00
      1.823  0.1005E-01  0.1005E-01  0.2386E+00  0.2386E+00
      1.923  0.1305E-01  0.1305E-01  0.2399E+00  0.2399E+00
      2.024  0.1813E-01  0.1813E-01  0.2417E+00  0.2417E+00
      2.125  0.1225E-01  0.1225E-01  0.2430E+00  0.2430E+00
      2.225  0.3945E-02  0.3945E-02  0.2434E+00  0.2434E+00
      2.326  0.7412E-02  0.7412E-02  0.2441E+00  0.2441E+00
      2.427  0.1071E-01  0.1071E-01  0.2452E+00  0.2452E+00
      2.527  0.1201E-01  0.1201E-01  0.2464E+00  0.2464E+00
      2.628  0.1588E-01  0.1588E-01  0.2480E+00  0.2480E+00
      2.729  0.1676E-01  0.1676E-01  0.2497E+00  0.2497E+00
      2.829  0.1455E-01  0.1455E-01  0.2511E+00  0.2511E+00
      2.930  0.1302E-01  0.1302E-01  0.2524E+00  0.2524E+00
      3.031  0.1091E-01  0.1091E-01  0.2535E+00  0.2535E+00
      3.131  0.1576E-01  0.1576E-01  0.2551E+00  0.2551E+00
      3.232  0.2130E-01  0.2130E-01  0.2573E+00  0.2573E+00
      3.333  0.1852E-01  0.1852E-01  0.2591E+00  0.2591E+00
      3.433  0.1787E-01  0.1787E-01  0.2609E+00  0.2609E+00
      3.534  0.2524E-01  0.2524E-01  0.2635E+00  0.2635E+00
      3.635  0.2818E-01  0.2818E-01  0.2663E+00  0.2663E+00
      3.735  0.1976E-01  0.1977E-01  0.2683E+00  0.2683E+00
      3.836  0.1557E-01  0.1557E-01  0.2699E+00  0.2699E+00
      3.937  0.1898E-01  0.1898E-01  0.2718E+00  0.2718E+00
      4.037  0.1997E-01  0.1997E-01  0.2738E+00  0.2738E+00
      4.138  0.1761E-01  0.1761E-01  0.2756E+00  0.2756E+00
      4.239  0.2212E-01  0.2212E-01  0.2778E+00  0.2778E+00
      4.339  0.2213E-01  0.2213E-01  0.2800E+00  0.2800E+00
      4.440  0.2000E-01  0.2000E-01  0.2820E+00  0.2820E+00
      4.541  0.2470E-01  0.2470E-01  0.2845E+00  0.2845E+00
      4.641  0.2865E-01  0.2865E-01  0.2874E+00  0.2874E+00
      4.742  0.2508E-01  0.2507E-01  0.2899E+00  0.2899E+00
      4.843  0.2102E-01  0.2102E-01  0.2921E+00  0.2920E+00
      4.943  0.1681E-01  0.1681E-01  0.2937E+00  0.2937E+00
      5.044  0.2717E-01  0.2717E-01  0.2965E+00  0.2965E+00
      5.145  0.2746E-01  0.2747E-01  0.2992E+00  0.2992E+00
      5.245  0.2267E-01  0.2266E-01  0.3015E+00  0.3015E+00
      5.346  0.2687E-01  0.2686E-01  0.3042E+00  0.3042E+00
      5.447  0.3075E-01  0.3076E-01  0.3073E+00  0.3073E+00
      5.547  0.2830E-01  0.2831E-01  0.3102E+00  0.3102E+00
      5.648  0.2797E-01  0.2796E-01  0.3130E+00  0.3130E+00
      5.749  0.2146E-01  0.2146E-01  0.3152E+00  0.3151E+00
      5.849  0.1204E-01  0.1204E-01  0.3164E+00  0.3164E+00
      5.950  0.2368E-01  0.2367E-01  0.3187E+00  0.3187E+00
      6.051  0.3487E-01  0.3488E-01  0.3223E+00  0.3223E+00
      6.151  0.2975E-01  0.2975E-01  0.3253E+00  0.3253E+00
      6.252  0.3393E-01  0.3393E-01  0.3287E+00  0.3287E+00
      6.353  0.3378E-01  0.3379E-01  0.3321E+00  0.3321E+00
      6.454  0.2470E-01  0.2470E-01  0.3346E+00  0.3346E+00
      6.554  0.2630E-01  0.2629E-01  0.3372E+00  0.3372E+00
      6.655  0.2810E-01  0.2811E-01  0.3400E+00  0.3400E+00
      6.756  0.2652E-01  0.2652E-01  0.3427E+00  0.3427E+00
      6.856  0.3655E-01  0.3655E-01  0.3464E+00  0.3464E+00
      6.957  0.3969E-01  0.3969E-01  0.3504E+00  0.3504E+00
      7.058  0.3383E-01  0.3383E-01  0.3538E+00  0.3538E+00
      7.158  0.3087E-01  0.3086E-01  0.3569E+00  0.3569E+00
      7.259  0.2670E-01  0.2670E-01  0.3596E+00  0.3596E+00
      7.360  0.3389E-01  0.3389E-01  0.3630E+00  0.3630E+00
      7.460  0.3855E-01  0.3855E-01  0.3669E+00  0.3669E+00
      7.561  0.2764E-01  0.2764E-01  0.3697E+00  0.3697E+00
      7.662  0.2080E-01  0.2080E-01  0.3717E+00  0.3717E+00
      7.762  0.1907E-01  0.1907E-01  0.3737E+00  0.3737E+00
      7.863  0.9596E-02  0.9599E-02  0.3746E+00  0.3746E+00
      7.964  0.3005E-02  0.3005E-02  0.3749E+00  0.3749E+00
      8.064  0.6215E-03  0.6220E-03  0.3750E+00  0.3750E+00
      8.165  0.3238E-04  0.3243E-04  0.3750E+00  0.3750E+00
      8.266  0.2822E-06  0.2828E-06  0.3750E+00  0.3750E+00
      8.366  0.3635E-09  0.3646E-09  0.3750E+00  0.3750E+00
      8.467  0.6589E-13  0.6614E-13  0.3750E+00  0.3750E+00
      8.568  0.1436E-17  0.1436E-17  0.3750E+00  0.3750E+00
      8.668  0.0000E+00  0.0000E+00  0.3750E+00  0.3750E+00
      8.769  0.0000E+00  0.0000E+00  0.3750E+00  0.3750E+00
      8.870  0.0000E+00  0.0000E+00  0.3750E+00  0.3750E+00
      8.970  0.0000E+00  0.0000E+00  0.3750E+00  0.3750E+00
      9.071  0.0000E+00  0.0000E+00  0.3750E+00  0.3750E+00
      9.172  0.0000E+00  0.0000E+00  0.3750E+00  0.3750E+00
      9.272  0.0000E+00  0.0000E+00  0.3750E+00  0.3750E+00
