Lattice                                 
           1
     4.364768    2.520000    0.000000
    -4.364768    2.520000    0.000000
     0.000000    0.000000   15.000000
   B    C 
     8     8
Direct configuration=     1
   0.66888689  0.00000000  0.10000000
   0.33111211  0.00000000  0.10000000
   0.00000000  0.33111211  0.10000000
   0.00000000  0.66888689  0.10000000
   0.33111211  0.33111211  0.10000000
   0.66888689  0.66888689  0.10000000
   0.66666600  0.33333300  0.09922189
   0.33333300  0.66666600  0.10077811
   0.16666600  0.33333300  0.46773333
   0.33333300  0.16666600  0.46773333
   0.16666600  0.83333300  0.46773333
   0.33333300  0.66666600  0.46773333
   0.66666600  0.33333300  0.46773333
   0.83333300  0.16666600  0.46773333
   0.66666600  0.83333300  0.46773333
   0.83333300  0.66666600  0.46773333
Direct configuration=     2
   0.66910738 -0.00000004  0.10002642
   0.33089157 -0.00000004  0.10002642
   0.00000004  0.33089162  0.10002642
   0.00000004  0.66910743  0.10002642
   0.33089157  0.33089162  0.10002642
   0.66910738  0.66910743  0.10002642
   0.66666600  0.33333300  0.09926041
   0.33333300  0.66666600  0.10080048
   0.16666377  0.33332855  0.46770589
   0.33332867  0.16666384  0.46770591
   0.16666377  0.83333523  0.46770589
   0.33333300  0.66666600  0.46770589
   0.66666600  0.33333300  0.46770597
   0.83333516  0.16666384  0.46770591
   0.66667045  0.83333523  0.46770589
   0.83333516  0.66667033  0.46770591
Direct configuration=     3
   0.66906040 -0.00000004  0.10002079
   0.33093857 -0.00000004  0.10002079
   0.00000004  0.33093860  0.10002079
   0.00000004  0.66906043  0.10002079
   0.33093857  0.33093860  0.10002079
   0.66906040  0.66906043  0.10002079
   0.66666600  0.33333300  0.09925220
   0.33333300  0.66666600  0.10079572
   0.16666425  0.33332950  0.46771174
   0.33332960  0.16666430  0.46771175
   0.16666425  0.83333475  0.46771174
   0.33333300  0.66666600  0.46771174
   0.66666600  0.33333300  0.46771180
   0.83333470  0.16666430  0.46771175
   0.66666950  0.83333475  0.46771174
   0.83333470  0.66666940  0.46771175
Direct configuration=     4
   0.66906112 -0.00000006  0.10005582
   0.33093782 -0.00000006  0.10005582
   0.00000006  0.33093788  0.10005582
   0.00000006  0.66906118  0.10005582
   0.33093782  0.33093788  0.10005582
   0.66906112  0.66906118  0.10005582
   0.66666600  0.33333300  0.09930359
   0.33333300  0.66666600  0.10082461
   0.16666669  0.33333439  0.46767541
   0.33333433  0.16666666  0.46767545
   0.16666669  0.83333231  0.46767541
   0.33333300  0.66666600  0.46767540
   0.66666600  0.33333300  0.46767554
   0.83333234  0.16666666  0.46767545
   0.66666461  0.83333231  0.46767541
   0.83333234  0.66666467  0.46767545
Direct configuration=     5
   0.66906330 -0.00000013  0.10016093
   0.33093557 -0.00000013  0.10016093
   0.00000013  0.33093570  0.10016093
   0.00000013  0.66906343  0.10016093
   0.33093557  0.33093570  0.10016093
   0.66906330  0.66906343  0.10016093
   0.66666600  0.33333300  0.09945773
   0.33333300  0.66666600  0.10091129
   0.16667402  0.33334905  0.46756643
   0.33334852  0.16667376  0.46756655
   0.16667402  0.83332498  0.46756643
   0.33333300  0.66666600  0.46756638
   0.66666600  0.33333300  0.46756676
   0.83332524  0.16667376  0.46756655
   0.66664995  0.83332498  0.46756643
   0.83332524  0.66665048  0.46756655
Direct configuration=     6
   0.66906764 -0.00000028  0.10037114
   0.33093108 -0.00000028  0.10037114
   0.00000028  0.33093136  0.10037114
   0.00000028  0.66906792  0.10037114
   0.33093108  0.33093136  0.10037114
   0.66906764  0.66906792  0.10037114
   0.66666600  0.33333300  0.09976602
   0.33333300  0.66666600  0.10108464
   0.16668869  0.33337837  0.46734847
   0.33337692  0.16668796  0.46734873
   0.16668869  0.83331031  0.46734847
   0.33333300  0.66666600  0.46734835
   0.66666600  0.33333300  0.46734919
   0.83331104  0.16668796  0.46734873
   0.66662063  0.83331031  0.46734847
   0.83331104  0.66662208  0.46734873
Direct configuration=     7
   0.66907633 -0.00000057  0.10079156
   0.33092209 -0.00000057  0.10079156
   0.00000057  0.33092267  0.10079156
   0.00000057  0.66907691  0.10079156
   0.33092209  0.33092267  0.10079156
   0.66907633  0.66907691  0.10079156
   0.66666600  0.33333300  0.10038261
   0.33333300  0.66666600  0.10143134
   0.16671801  0.33343702  0.46691255
   0.33343371  0.16671635  0.46691311
   0.16671801  0.83328099  0.46691255
   0.33333300  0.66666600  0.46691230
   0.66666600  0.33333300  0.46691406
   0.83328265  0.16671635  0.46691311
   0.66656198  0.83328099  0.46691255
   0.83328265  0.66656529  0.46691311
Direct configuration=     8
   0.66909372 -0.00000116  0.10163241
   0.33090412 -0.00000116  0.10163241
   0.00000116  0.33090528  0.10163241
   0.00000116  0.66909488  0.10163241
   0.33090412  0.33090528  0.10163241
   0.66909372  0.66909488  0.10163241
   0.66666600  0.33333300  0.10161577
   0.33333300  0.66666600  0.10212475
   0.16677666  0.33355433  0.46604071
   0.33354728  0.16677314  0.46604186
   0.16677666  0.83322234  0.46604071
   0.33333300  0.66666600  0.46604018
   0.66666600  0.33333300  0.46604379
   0.83322586  0.16677314  0.46604186
   0.66644467  0.83322234  0.46604071
   0.83322586  0.66645172  0.46604186
Direct configuration=     9
   0.66912849 -0.00000234  0.10331410
   0.33086817 -0.00000234  0.10331410
   0.00000234  0.33087051  0.10331410
   0.00000234  0.66913083  0.10331410
   0.33086817  0.33087051  0.10331410
   0.66912849  0.66913083  0.10331410
   0.66666600  0.33333300  0.10408210
   0.33333300  0.66666600  0.10351157
   0.16689397  0.33378893  0.46429702
   0.33377444  0.16688672  0.46429937
   0.16689397  0.83310503  0.46429702
   0.33333300  0.66666600  0.46429594
   0.66666600  0.33333300  0.46430325
   0.83311228  0.16688672  0.46429937
   0.66621007  0.83310503  0.46429702
   0.83311228  0.66622456  0.46429937
Direct configuration=    10
   0.66919802 -0.00000470  0.10667749
   0.33079628 -0.00000470  0.10667749
   0.00000470  0.33080098  0.10667749
   0.00000470  0.66920272  0.10667749
   0.33079628  0.33080098  0.10667749
   0.66919802  0.66920272  0.10667749
   0.66666600  0.33333300  0.10901477
   0.33333300  0.66666600  0.10628520
   0.16712857  0.33425814  0.46080965
   0.33422874  0.16711387  0.46081438
   0.16712857  0.83287043  0.46080965
   0.33333300  0.66666600  0.46080747
   0.66666600  0.33333300  0.46082218
   0.83288513  0.16711387  0.46081438
   0.66574086  0.83287043  0.46080965
   0.83288513  0.66577026  0.46081438
Direct configuration=    11
   0.66933709 -0.00000941  0.11340426
   0.33065250 -0.00000941  0.11340426
   0.00000941  0.33066191  0.11340426
   0.00000941  0.66934650  0.11340426
   0.33065250  0.33066191  0.11340426
   0.66933709  0.66934650  0.11340426
   0.66666600  0.33333300  0.11888009
   0.33333300  0.66666600  0.11183246
   0.16759778  0.33519655  0.45383492
   0.33513736  0.16756818  0.45384441
   0.16759778  0.83240122  0.45383492
   0.33333300  0.66666600  0.45383053
   0.66666600  0.33333300  0.45386003
   0.83243082  0.16756818  0.45384441
   0.66480245  0.83240122  0.45383492
   0.83243082  0.66486164  0.45384441
Direct configuration=    12
   0.66961523 -0.00001882  0.12685781
   0.33036494 -0.00001882  0.12685781
   0.00001882  0.33038377  0.12685781
   0.00001882  0.66963406  0.12685781
   0.33036494  0.33038377  0.12685781
   0.66961523  0.66963406  0.12685781
   0.66666600  0.33333300  0.13861074
   0.33333300  0.66666600  0.12292699
   0.16853619  0.33707338  0.43988545
   0.33695458  0.16847679  0.43990446
   0.16853619  0.83146281  0.43988545
   0.33333300  0.66666600  0.43987665
   0.66666600  0.33333300  0.43993573
   0.83152221  0.16847679  0.43990446
   0.66292562  0.83146281  0.43988545
   0.83152221  0.66304442  0.43990446
Direct configuration=    13
   0.66949806 -0.00001486  0.12119044
   0.33048608 -0.00001486  0.12119044
   0.00001486  0.33050094  0.12119044
   0.00001486  0.66951292  0.12119044
   0.33048608  0.33050094  0.12119044
   0.66949806  0.66951292  0.12119044
   0.66666600  0.33333300  0.13029912
   0.33333300  0.66666600  0.11825337
   0.16814088  0.33628276  0.44576173
   0.33618907  0.16809403  0.44577673
   0.16814088  0.83185812  0.44576173
   0.33333300  0.66666600  0.44575478
   0.66666600  0.33333300  0.44580141
   0.83190497  0.16809403  0.44577673
   0.66371624  0.83185812  0.44576173
   0.83190497  0.66380993  0.44577673
Direct configuration=    14
   0.66949808 -0.00001485  0.12119199
   0.33048607 -0.00001485  0.12119199
   0.00001485  0.33050092  0.12119199
   0.00001485  0.66951293  0.12119199
   0.33048607  0.33050092  0.12119199
   0.66949808  0.66951293  0.12119199
   0.66666600  0.33333300  0.13030139
   0.33333300  0.66666600  0.11825465
   0.16814091  0.33628283  0.44576012
   0.33618913  0.16809407  0.44577512
   0.16814091  0.83185809  0.44576012
   0.33333300  0.66666600  0.44575317
   0.66666600  0.33333300  0.44579980
   0.83190493  0.16809407  0.44577512
   0.66371617  0.83185809  0.44576012
   0.83190493  0.66380987  0.44577512
Direct configuration=    15
   0.66949813 -0.00001483  0.12119666
   0.33048604 -0.00001483  0.12119666
   0.00001483  0.33050087  0.12119666
   0.00001483  0.66951296  0.12119666
   0.33048604  0.33050087  0.12119666
   0.66949813  0.66951296  0.12119666
   0.66666600  0.33333300  0.13030820
   0.33333300  0.66666600  0.11825849
   0.16814102  0.33628303  0.44575528
   0.33618933  0.16809417  0.44577029
   0.16814102  0.83185798  0.44575528
   0.33333300  0.66666600  0.44574834
   0.66666600  0.33333300  0.44579497
   0.83190483  0.16809417  0.44577029
   0.66371597  0.83185798  0.44575528
   0.83190483  0.66380967  0.44577029
Direct configuration=    16
   0.66949824 -0.00001478  0.12120599
   0.33048598 -0.00001478  0.12120599
   0.00001478  0.33050076  0.12120599
   0.00001478  0.66951302  0.12120599
   0.33048598  0.33050076  0.12120599
   0.66949824  0.66951302  0.12120599
   0.66666600  0.33333300  0.13032184
   0.33333300  0.66666600  0.11826616
   0.16814122  0.33628344  0.44574562
   0.33618973  0.16809437  0.44576063
   0.16814122  0.83185778  0.44574562
   0.33333300  0.66666600  0.44573867
   0.66666600  0.33333300  0.44578532
   0.83190463  0.16809437  0.44576063
   0.66371556  0.83185778  0.44574562
   0.83190463  0.66380927  0.44576063
Direct configuration=    17
   0.66949845 -0.00001469  0.12122465
   0.33048587 -0.00001469  0.12122465
   0.00001469  0.33050055  0.12122465
   0.00001469  0.66951313  0.12122465
   0.33048587  0.33050055  0.12122465
   0.66949845  0.66951313  0.12122465
   0.66666600  0.33333300  0.13034910
   0.33333300  0.66666600  0.11828151
   0.16814163  0.33628426  0.44572629
   0.33619053  0.16809477  0.44574131
   0.16814163  0.83185737  0.44572629
   0.33333300  0.66666600  0.44571933
   0.66666600  0.33333300  0.44576603
   0.83190423  0.16809477  0.44574131
   0.66371474  0.83185737  0.44572629
   0.83190423  0.66380847  0.44574131
Direct configuration=    18
   0.66949887 -0.00001450  0.12126197
   0.33048563 -0.00001450  0.12126197
   0.00001450  0.33050013  0.12126197
   0.00001450  0.66951337  0.12126197
   0.33048563  0.33050013  0.12126197
   0.66949887  0.66951337  0.12126197
   0.66666600  0.33333300  0.13040363
   0.33333300  0.66666600  0.11831220
   0.16814245  0.33628590  0.44568763
   0.33619213  0.16809556  0.44570268
   0.16814245  0.83185655  0.44568763
   0.33333300  0.66666600  0.44568066
   0.66666600  0.33333300  0.44572743
   0.83190344  0.16809556  0.44570268
   0.66371310  0.83185655  0.44568763
   0.83190344  0.66380687  0.44570268
Direct configuration=    19
   0.66949970 -0.00001413  0.12133661
   0.33048517 -0.00001413  0.12133661
   0.00001413  0.33049930  0.12133661
   0.00001413  0.66951383  0.12133661
   0.33048517  0.33049930  0.12133661
   0.66949970  0.66951383  0.12133661
   0.66666600  0.33333300  0.13051268
   0.33333300  0.66666600  0.11837358
   0.16814409  0.33628918  0.44561031
   0.33619532  0.16809716  0.44562541
   0.16814409  0.83185491  0.44561031
   0.33333300  0.66666600  0.44560332
   0.66666600  0.33333300  0.44565023
   0.83190184  0.16809716  0.44562541
   0.66370982  0.83185491  0.44561031
   0.83190184  0.66380368  0.44562541
Direct configuration=    20
   0.66950138 -0.00001338  0.12148590
   0.33048424 -0.00001338  0.12148590
   0.00001338  0.33049762  0.12148590
   0.00001338  0.66951476  0.12148590
   0.33048424  0.33049762  0.12148590
   0.66950138  0.66951476  0.12148590
   0.66666600  0.33333300  0.13073079
   0.33333300  0.66666600  0.11849635
   0.16814737  0.33629574  0.44545568
   0.33620171  0.16810035  0.44547087
   0.16814737  0.83185163  0.44545568
   0.33333300  0.66666600  0.44544864
   0.66666600  0.33333300  0.44549584
   0.83189865  0.16810035  0.44547087
   0.66370326  0.83185163  0.44545568
   0.83189865  0.66379729  0.44547087
Direct configuration=    21
   0.66950473 -0.00001188  0.12178447
   0.33048238 -0.00001188  0.12178447
   0.00001188  0.33049427  0.12178447
   0.00001188  0.66951662  0.12178447
   0.33048238  0.33049427  0.12178447
   0.66950473  0.66951662  0.12178447
   0.66666600  0.33333300  0.13116702
   0.33333300  0.66666600  0.11874189
   0.16815393  0.33630886  0.44514641
   0.33621449  0.16810674  0.44516179
   0.16815393  0.83184507  0.44514641
   0.33333300  0.66666600  0.44513928
   0.66666600  0.33333300  0.44518706
   0.83189226  0.16810674  0.44516179
   0.66369014  0.83184507  0.44514641
   0.83189226  0.66378451  0.44516179
Direct configuration=    22
   0.66951144 -0.00000890  0.12238161
   0.33047867 -0.00000890  0.12238161
   0.00000890  0.33048756  0.12238161
   0.00000890  0.66952033  0.12238161
   0.33047867  0.33048756  0.12238161
   0.66951144  0.66952033  0.12238161
   0.66666600  0.33333300  0.13203946
   0.33333300  0.66666600  0.11923296
   0.16816705  0.33633511  0.44452788
   0.33624004  0.16811952  0.44454363
   0.16816705  0.83183195  0.44452788
   0.33333300  0.66666600  0.44452055
   0.66666600  0.33333300  0.44456950
   0.83187948  0.16811952  0.44454363
   0.66366389  0.83183195  0.44452788
   0.83187948  0.66375896  0.44454363
Direct configuration=    23
   0.66952485 -0.00000292  0.12357589
   0.33047124 -0.00000292  0.12357589
   0.00000292  0.33047415  0.12357589
   0.00000292  0.66952776  0.12357589
   0.33047124  0.33047415  0.12357589
   0.66952485  0.66952776  0.12357589
   0.66666600  0.33333300  0.13378435
   0.33333300  0.66666600  0.12021512
   0.16819329  0.33638759  0.44329081
   0.33629114  0.16814507  0.44330732
   0.16819329  0.83180571  0.44329081
   0.33333300  0.66666600  0.44328309
   0.66666600  0.33333300  0.44333438
   0.83185393  0.16814507  0.44330732
   0.66361141  0.83180571  0.44329081
   0.83185393  0.66370786  0.44330732
Direct configuration=    24
   0.66955166  0.00000904  0.12596446
   0.33045637  0.00000904  0.12596446
  -0.00000904  0.33044734  0.12596446
  -0.00000904  0.66954263  0.12596446
   0.33045637  0.33044734  0.12596446
   0.66955166  0.66954263  0.12596446
   0.66666600  0.33333300  0.13727414
   0.33333300  0.66666600  0.12217942
   0.16824578  0.33649256  0.44081666
   0.33639334  0.16819617  0.44083469
   0.16824578  0.83175322  0.44081666
   0.33333300  0.66666600  0.44080818
   0.66666600  0.33333300  0.44086414
   0.83180283  0.16819617  0.44083469
   0.66350644  0.83175322  0.44081666
   0.83180283  0.66360566  0.44083469
Direct configuration=    25
   0.66960530  0.00003295  0.13074159
   0.33042665  0.00003295  0.13074159
  -0.00003295  0.33039370  0.13074159
  -0.00003295  0.66957235  0.13074159
   0.33042665  0.33039370  0.13074159
   0.66960530  0.66957235  0.13074159
   0.66666600  0.33333300  0.14425370
   0.33333300  0.66666600  0.12610802
   0.16835075  0.33670249  0.43586838
   0.33659774  0.16829837  0.43588943
   0.16835075  0.83164825  0.43586838
   0.33333300  0.66666600  0.43585835
   0.66666600  0.33333300  0.43592366
   0.83170063  0.16829837  0.43588943
   0.66329651  0.83164825  0.43586838
   0.83170063  0.66340126  0.43588943
Direct configuration=    26
   0.66971257  0.00008076  0.14029584
   0.33036720  0.00008076  0.14029584
  -0.00008076  0.33028643  0.14029584
  -0.00008076  0.66963180  0.14029584
   0.33036720  0.33028643  0.14029584
   0.66971257  0.66963180  0.14029584
   0.66666600  0.33333300  0.15821283
   0.33333300  0.66666600  0.13396523
   0.16856068  0.33712236  0.42597181
   0.33700655  0.16850277  0.42599891
   0.16856068  0.83143832  0.42597181
   0.33333300  0.66666600  0.42595869
   0.66666600  0.33333300  0.42604270
   0.83149623  0.16850277  0.42599891
   0.66287664  0.83143832  0.42597181
   0.83149623  0.66299245  0.42599891
Direct configuration=    27
   0.66992711  0.00017640  0.15940436
   0.33024829  0.00017640  0.15940436
  -0.00017640  0.33007189  0.15940436
  -0.00017640  0.66975071  0.15940436
   0.33024829  0.33007189  0.15940436
   0.66992711  0.66975071  0.15940436
   0.66666600  0.33333300  0.18613108
   0.33333300  0.66666600  0.14967965
   0.16898055  0.33796209  0.40617867
   0.33782416  0.16891158  0.40621787
   0.16898055  0.83101845  0.40617867
   0.33333300  0.66666600  0.40615937
   0.66666600  0.33333300  0.40628079
   0.83108742  0.16891158  0.40621787
   0.66203691  0.83101845  0.40617867
   0.83108742  0.66217484  0.40621787
Direct configuration=    28
   0.66980644  0.00012261  0.14865677
   0.33031517  0.00012261  0.14865677
  -0.00012261  0.33019256  0.14865677
  -0.00012261  0.66968383  0.14865677
   0.33031517  0.33019256  0.14865677
   0.66980644  0.66968383  0.14865677
   0.66666600  0.33333300  0.17042846
   0.33333300  0.66666600  0.14084107
   0.16874439  0.33748978  0.41731132
   0.33736430  0.16868165  0.41734371
   0.16874439  0.83125461  0.41731132
   0.33333300  0.66666600  0.41729550
   0.66666600  0.33333300  0.41739588
   0.83131735  0.16868165  0.41734371
   0.66250922  0.83125461  0.41731132
   0.83131735  0.66263470  0.41734371
Direct configuration=    29
   0.66986677  0.00014950  0.15403057
   0.33028173  0.00014950  0.15403057
  -0.00014950  0.33013223  0.15403057
  -0.00014950  0.66971727  0.15403057
   0.33028173  0.33013223  0.15403057
   0.66986677  0.66971727  0.15403057
   0.66666600  0.33333300  0.17827977
   0.33333300  0.66666600  0.14526036
   0.16886247  0.33772594  0.41174500
   0.33759423  0.16879661  0.41178079
   0.16886247  0.83113653  0.41174500
   0.33333300  0.66666600  0.41172744
   0.66666600  0.33333300  0.41183833
   0.83120239  0.16879661  0.41178079
   0.66227306  0.83113653  0.41174500
   0.83120239  0.66240477  0.41178079
Direct configuration=    30
   0.66978242  0.00034996  0.16017289
   0.33056654  0.00034996  0.16017289
  -0.00034996  0.33021658  0.16017289
  -0.00034996  0.66943246  0.16017289
   0.33056654  0.33021658  0.16017289
   0.66978242  0.66943246  0.16017289
   0.66666600  0.33333300  0.18710577
   0.33333300  0.66666600  0.15028515
   0.16859132  0.33718364  0.40540441
   0.33706364  0.16853132  0.40544474
   0.16859132  0.83140768  0.40540441
   0.33333300  0.66666600  0.40538555
   0.66666600  0.33333300  0.40550543
   0.83146768  0.16853132  0.40544474
   0.66281536  0.83140768  0.40540441
   0.83146768  0.66293536  0.40544474
Direct configuration=    31
   0.66976514  0.00039100  0.16143057
   0.33062486  0.00039100  0.16143057
  -0.00039100  0.33023386  0.16143057
  -0.00039100  0.66937414  0.16143057
   0.33062486  0.33023386  0.16143057
   0.66976514  0.66937414  0.16143057
   0.66666600  0.33333300  0.18891296
   0.33333300  0.66666600  0.15131402
   0.16853580  0.33707260  0.40410613
   0.33695500  0.16847700  0.40414738
   0.16853580  0.83146320  0.40410613
   0.33333300  0.66666600  0.40408700
   0.66666600  0.33333300  0.40420872
   0.83152200  0.16847700  0.40414738
   0.66292640  0.83146320  0.40410613
   0.83152200  0.66304400  0.40414738
Direct configuration=    32
   0.66961474  0.00055574  0.16092984
   0.33094000  0.00055574  0.16092984
  -0.00055574  0.33038426  0.16092984
  -0.00055574  0.66905900  0.16092984
   0.33094000  0.33038426  0.16092984
   0.66961474  0.66905900  0.16092984
   0.66666600  0.33333300  0.18799357
   0.33333300  0.66666600  0.15088511
   0.16820014  0.33640128  0.40464929
   0.33628850  0.16814375  0.40469338
   0.16820014  0.83179886  0.40464929
   0.33333300  0.66666600  0.40463180
   0.66666600  0.33333300  0.40474910
   0.83185525  0.16814375  0.40469338
   0.66359772  0.83179886  0.40464929
   0.83185525  0.66371050  0.40469338
Direct configuration=    33
   0.66916353  0.00104994  0.15942765
   0.33188542  0.00104994  0.15942765
  -0.00104994  0.33083547  0.15942765
  -0.00104994  0.66811358  0.15942765
   0.33188542  0.33083547  0.15942765
   0.66916353  0.66811358  0.15942765
   0.66666600  0.33333300  0.18523542
   0.33333300  0.66666600  0.14959838
   0.16719315  0.33438731  0.40627878
   0.33428900  0.16714400  0.40633139
   0.16719315  0.83280585  0.40627878
   0.33333300  0.66666600  0.40626621
   0.66666600  0.33333300  0.40637023
   0.83285500  0.16714400  0.40633139
   0.66561169  0.83280585  0.40627878
   0.83285500  0.66571000  0.40633139
Direct configuration=    34
   0.66826110  0.00203836  0.15642327
   0.33377626  0.00203836  0.15642327
  -0.00203836  0.33173790  0.15642327
  -0.00203836  0.66622274  0.15642327
   0.33377626  0.33173790  0.15642327
   0.66826110  0.66622274  0.15642327
   0.66666600  0.33333300  0.17971910
   0.33333300  0.66666600  0.14702492
   0.16517919  0.33035937  0.40953775
   0.33029001  0.16514451  0.40960742
   0.16517919  0.83481981  0.40953775
   0.33333300  0.66666600  0.40953502
   0.66666600  0.33333300  0.40961250
   0.83485449  0.16514451  0.40960742
   0.66963963  0.83481981  0.40953775
   0.83485449  0.66970899  0.40960742
Direct configuration=    35
   0.66882188  0.00142414  0.15829024
   0.33260126  0.00142414  0.15829024
  -0.00142414  0.33117712  0.15829024
  -0.00142414  0.66739774  0.15829024
   0.33260126  0.33117712  0.15829024
   0.66882188  0.66739774  0.15829024
   0.66666600  0.33333300  0.18314702
   0.33333300  0.66666600  0.14862410
   0.16643070  0.33286239  0.40751258
   0.33277504  0.16638702  0.40757165
   0.16643070  0.83356830  0.40751258
   0.33333300  0.66666600  0.40750373
   0.66666600  0.33333300  0.40759771
   0.83361198  0.16638702  0.40757165
   0.66713661  0.83356830  0.40751258
   0.83361198  0.66722396  0.40757165
Direct configuration=    36
   0.66863759  0.00144900  0.15827232
   0.33281041  0.00144900  0.15827232
  -0.00144900  0.33136141  0.15827232
  -0.00144900  0.66718859  0.15827232
   0.33281041  0.33136141  0.15827232
   0.66863759  0.66718859  0.15827232
   0.66666600  0.33333300  0.18281134
   0.33333300  0.66666600  0.14857531
   0.16647907  0.33295913  0.40757483
   0.33288283  0.16644092  0.40763393
   0.16647907  0.83351993  0.40757483
   0.33333300  0.66666600  0.40756521
   0.66666600  0.33333300  0.40765457
   0.83355808  0.16644092  0.40763393
   0.66703987  0.83351993  0.40757483
   0.83355808  0.66711617  0.40763393
Direct configuration=    37
   0.66808472  0.00152355  0.15821859
   0.33343783  0.00152355  0.15821859
  -0.00152355  0.33191428  0.15821859
  -0.00152355  0.66656117  0.15821859
   0.33343783  0.33191428  0.15821859
   0.66808472  0.66656117  0.15821859
   0.66666600  0.33333300  0.18180431
   0.33333300  0.66666600  0.14842894
   0.16662418  0.33324936  0.40776159
   0.33320619  0.16660260  0.40782078
   0.16662418  0.83337482  0.40776159
   0.33333300  0.66666600  0.40774963
   0.66666600  0.33333300  0.40782516
   0.83339640  0.16660260  0.40782078
   0.66674964  0.83337482  0.40776159
   0.83339640  0.66679281  0.40782078
Direct configuration=    38
   0.66697899  0.00167266  0.15811111
   0.33469267  0.00167266  0.15811111
  -0.00167266  0.33302001  0.15811111
  -0.00167266  0.66530633  0.15811111
   0.33469267  0.33302001  0.15811111
   0.66697899  0.66530633  0.15811111
   0.66666600  0.33333300  0.17979023
   0.33333300  0.66666600  0.14813620
   0.16691441  0.33382981  0.40813511
   0.33385291  0.16692596  0.40819446
   0.16691441  0.83308459  0.40813511
   0.33333300  0.66666600  0.40811849
   0.66666600  0.33333300  0.40816634
   0.83307304  0.16692596  0.40819446
   0.66616919  0.83308459  0.40813511
   0.83307304  0.66614609  0.40819446
Direct configuration=    39
   0.66726469  0.00163413  0.15813888
   0.33436845  0.00163413  0.15813888
  -0.00163413  0.33273431  0.15813888
  -0.00163413  0.66563055  0.15813888
   0.33436845  0.33273431  0.15813888
   0.66726469  0.66563055  0.15813888
   0.66666600  0.33333300  0.18031063
   0.33333300  0.66666600  0.14821184
   0.16683942  0.33367984  0.40803860
   0.33368581  0.16684241  0.40809791
   0.16683942  0.83315958  0.40803860
   0.33333300  0.66666600  0.40802318
   0.66666600  0.33333300  0.40807818
   0.83315659  0.16684241  0.40809791
   0.66631916  0.83315958  0.40803860
   0.83315659  0.66631319  0.40809791
Direct configuration=    40
   0.66727666  0.00139377  0.15817605
   0.33411612  0.00139377  0.15817605
  -0.00139377  0.33272234  0.15817605
  -0.00139377  0.66588288  0.15817605
   0.33411612  0.33272234  0.15817605
   0.66727666  0.66588288  0.15817605
   0.66666600  0.33333300  0.17941232
   0.33333300  0.66666600  0.14813025
   0.16678086  0.33356273  0.40813643
   0.33354212  0.16677056  0.40819070
   0.16678086  0.83321814  0.40813643
   0.33333300  0.66666600  0.40811847
   0.66666600  0.33333300  0.40816796
   0.83322844  0.16677056  0.40819070
   0.66643627  0.83321814  0.40813643
   0.83322844  0.66645688  0.40819070
Direct configuration=    41
   0.66731256  0.00067269  0.15828755
   0.33335913  0.00067269  0.15828755
  -0.00067269  0.33268644  0.15828755
  -0.00067269  0.66663987  0.15828755
   0.33335913  0.33268644  0.15828755
   0.66731256  0.66663987  0.15828755
   0.66666600  0.33333300  0.17671741
   0.33333300  0.66666600  0.14788549
   0.16660519  0.33321139  0.40842989
   0.33311103  0.16655501  0.40846906
   0.16660519  0.83339381  0.40842989
   0.33333300  0.66666600  0.40840434
   0.66666600  0.33333300  0.40843729
   0.83344399  0.16655501  0.40846906
   0.66678761  0.83339381  0.40842989
   0.83344399  0.66688797  0.40846906
Direct configuration=    42
   0.66738436 -0.00076948  0.15851054
   0.33184516 -0.00076948  0.15851054
   0.00076948  0.33261464  0.15851054
   0.00076948  0.66815384  0.15851054
   0.33184516  0.33261464  0.15851054
   0.66738436  0.66815384  0.15851054
   0.66666600  0.33333300  0.17132759
   0.33333300  0.66666600  0.14739598
   0.16625386  0.33250871  0.40901683
   0.33224885  0.16612393  0.40902578
   0.16625386  0.83374514  0.40901683
   0.33333300  0.66666600  0.40897609
   0.66666600  0.33333300  0.40897595
   0.83387507  0.16612393  0.40902578
   0.66749029  0.83374514  0.40901683
   0.83387507  0.66775015  0.40902578
Direct configuration=    43
   0.66736322 -0.00034482  0.15844488
   0.33229097 -0.00034482  0.15844488
   0.00034482  0.33263578  0.15844488
   0.00034482  0.66770803  0.15844488
   0.33229097  0.33263578  0.15844488
   0.66736322  0.66770803  0.15844488
   0.66666600  0.33333300  0.17291468
   0.33333300  0.66666600  0.14754012
   0.16635731  0.33271562  0.40884400
   0.33250273  0.16625086  0.40886185
   0.16635731  0.83364169  0.40884400
   0.33333300  0.66666600  0.40880773
   0.66666600  0.33333300  0.40881734
   0.83374814  0.16625086  0.40886185
   0.66728338  0.83364169  0.40884400
   0.83374814  0.66749627  0.40886185
Direct configuration=    44
   0.66807752 -0.00001753  0.15859312
   0.33190394 -0.00001753  0.15859312
   0.00001753  0.33192148  0.15859312
   0.00001753  0.66809506  0.15859312
   0.33190394  0.33192148  0.15859312
   0.66807752  0.66809506  0.15859312
   0.66666600  0.33333300  0.17097898
   0.33333300  0.66666600  0.14738277
   0.16677207  0.33354514  0.40899178
   0.33362879  0.16681390  0.40900771
   0.16677207  0.83322693  0.40899178
   0.33333300  0.66666600  0.40896861
   0.66666600  0.33333300  0.40897912
   0.83318510  0.16681390  0.40900771
   0.66645386  0.83322693  0.40899178
   0.83318510  0.66637021  0.40900771
Direct configuration=    45
   0.66798680 -0.00005910  0.15857429
   0.33195310 -0.00005910  0.15857429
   0.00005910  0.33201220  0.15857429
   0.00005910  0.66804590  0.15857429
   0.33195310  0.33201220  0.15857429
   0.66798680  0.66804590  0.15857429
   0.66666600  0.33333300  0.17122482
   0.33333300  0.66666600  0.14740275
   0.16671939  0.33343979  0.40897301
   0.33348578  0.16674239  0.40898919
   0.16671939  0.83327961  0.40897301
   0.33333300  0.66666600  0.40894818
   0.66666600  0.33333300  0.40895857
   0.83325661  0.16674239  0.40898919
   0.66655921  0.83327961  0.40897301
   0.83325661  0.66651322  0.40898919
Direct configuration=    46
   0.66807183  0.00018260  0.15863955
   0.33210978  0.00018260  0.15863955
  -0.00018260  0.33192717  0.15863955
  -0.00018260  0.66788922  0.15863955
   0.33210978  0.33192717  0.15863955
   0.66807183  0.66788922  0.15863955
   0.66666600  0.33333300  0.17093607
   0.33333300  0.66666600  0.14743728
   0.16667390  0.33334879  0.40894806
   0.33331571  0.16665736  0.40897155
   0.16667390  0.83332510  0.40894806
   0.33333300  0.66666600  0.40893745
   0.66666600  0.33333300  0.40895972
   0.83334164  0.16665736  0.40897155
   0.66665021  0.83332510  0.40894806
   0.83334164  0.66668329  0.40897155
Direct configuration=    47
   0.66809471  0.00024766  0.15865712
   0.33215195  0.00024766  0.15865712
  -0.00024766  0.33190429  0.15865712
  -0.00024766  0.66784705  0.15865712
   0.33215195  0.33190429  0.15865712
   0.66809471  0.66784705  0.15865712
   0.66666600  0.33333300  0.17085836
   0.33333300  0.66666600  0.14744658
   0.16666165  0.33332430  0.40894134
   0.33326994  0.16663447  0.40896680
   0.16666165  0.83333735  0.40894134
   0.33333300  0.66666600  0.40893457
   0.66666600  0.33333300  0.40896003