Lattice                                 
           1
     4.196759    2.423000    0.000000
    -4.196759    2.423000    0.000000
     0.000000    0.000000   15.000000
   B    C 
     4    11
Direct configuration=     1
   0.00415361  0.00267210  0.12034134
   0.35695335  0.00285503  0.09748893
   0.00423858  0.35550699  0.09749256
   0.65142295  0.65006557  0.09747688
   0.32808646  0.32671938  0.10030508
   0.68027775  0.00278085  0.10027562
   0.00416530  0.67883808  0.10026559
   0.08333267  0.41666633  0.33466667
   0.24999967  0.24999933  0.33466667
   0.08333267  0.91666633  0.33466667
   0.24999967  0.74999933  0.33466667
   0.58333267  0.41666633  0.33466667
   0.74999967  0.24999933  0.33466667
   0.58333267  0.91666633  0.33466667
   0.74999967  0.74999933  0.33466667
Direct configuration=     2
   0.00413807  0.00266375  0.11910676
   0.35568872  0.00283319  0.09779957
   0.00413352  0.35446431  0.09786615
   0.65260124  0.65107222  0.09783494
   0.32480489  0.32318609  0.10028500
   0.68397281  0.00286231  0.10031421
   0.00416914  0.68216638  0.10026182
   0.08331627  0.41678492  0.33467300
   0.25017965  0.25027071  0.33477957
   0.08350534  0.91681169  0.33466369
   0.25031981  0.74995622  0.33464475
   0.58328376  0.41664765  0.33462831
   0.74993104  0.25000661  0.33467016
   0.58307198  0.91660737  0.33475198
   0.74951110  0.74976724  0.33469943
Direct configuration=     3
   0.00414599  0.00266801  0.11973585
   0.35633312  0.00284432  0.09764128
   0.00418705  0.35499562  0.09767579
   0.65200083  0.65055927  0.09765249
   0.32647705  0.32498651  0.10029523
   0.68208995  0.00282080  0.10029455
   0.00416719  0.68047041  0.10026374
   0.08332463  0.41672449  0.33466977
   0.25008794  0.25013243  0.33472204
   0.08341735  0.91673762  0.33466521
   0.25015668  0.74997819  0.33465592
   0.58330868  0.41665717  0.33464786
   0.74996601  0.25000290  0.33466838
   0.58320481  0.91663742  0.33470851
   0.74976005  0.74988551  0.33468273
Direct configuration=     4
   0.00414403  0.00269086  0.11865349
   0.35680949  0.00281182  0.09792806
   0.00415464  0.35543411  0.09802553
   0.65163509  0.65000841  0.09798574
   0.32663099  0.32495598  0.10024256
   0.68208389  0.00286072  0.10029732
   0.00417934  0.68036872  0.10022638
   0.08328299  0.41665863  0.33468459
   0.24988336  0.24999062  0.33481518
   0.08320883  0.91663910  0.33467779
   0.24982216  0.75006788  0.33464185
   0.58331282  0.41667923  0.33462884
   0.74996399  0.25003034  0.33467338
   0.58340475  0.91676015  0.33478547
   0.75011098  0.75014408  0.33471314
Direct configuration=     5
   0.00413916  0.00274767  0.11596247
   0.35799384  0.00273101  0.09864105
   0.00407404  0.35652431  0.09889509
   0.65072575  0.64863881  0.09881430
   0.32701372  0.32488006  0.10011159
   0.68206882  0.00295998  0.10030422
   0.00420958  0.68011590  0.10013351
   0.08317946  0.41649487  0.33472145
   0.24937472  0.24963805  0.33504675
   0.08269038  0.91639417  0.33470907
   0.24899046  0.75029088  0.33460687
   0.58332310  0.41673409  0.33458157
   0.74995896  0.25009857  0.33468582
   0.58390186  0.91706532  0.33497683
   0.75098348  0.75078696  0.33478873
Direct configuration=     6
   0.00414258  0.00275154  0.11565933
   0.35810802  0.00272096  0.09870906
   0.00407648  0.35661947  0.09897732
   0.65064252  0.64851448  0.09889277
   0.32708833  0.32492003  0.10011157
   0.68201761  0.00295785  0.10031740
   0.00421651  0.68005240  0.10013729
   0.08317735  0.41654384  0.33472690
   0.24942914  0.24969015  0.33506493
   0.08275066  0.91646592  0.33471562
   0.24909855  0.75027716  0.33460715
   0.58329779  0.41675316  0.33458221
   0.74994725  0.25010485  0.33468863
   0.58379929  0.91703006  0.33499283
   0.75083525  0.75069879  0.33479634
Direct configuration=     7
   0.00415284  0.00276316  0.11474990
   0.35845056  0.00269082  0.09891308
   0.00408379  0.35690495  0.09922400
   0.65039283  0.64814148  0.09912815
   0.32731217  0.32503993  0.10011151
   0.68186397  0.00295147  0.10035692
   0.00423733  0.67986189  0.10014863
   0.08317099  0.41669076  0.33474325
   0.24959239  0.24984642  0.33511945
   0.08293151  0.91668117  0.33473527
   0.24942284  0.75023601  0.33460800
   0.58322187  0.41681039  0.33458414
   0.74991211  0.25012368  0.33469707
   0.58349158  0.91692428  0.33504081
   0.75039057  0.75043426  0.33481914
Direct configuration=     8
   0.00417335  0.00278641  0.11293106
   0.35913564  0.00263052  0.09932112
   0.00409842  0.35747590  0.09971736
   0.64989345  0.64739548  0.09959891
   0.32775983  0.32527974  0.10011140
   0.68155668  0.00293869  0.10043597
   0.00427897  0.67948087  0.10017132
   0.08315827  0.41698459  0.33477595
   0.24991889  0.25015897  0.33522850
   0.08329322  0.91711167  0.33477457
   0.25007141  0.75015369  0.33460970
   0.58307002  0.41692484  0.33458801
   0.74984184  0.25016135  0.33471395
   0.58287616  0.91671273  0.33513678
   0.74950119  0.74990521  0.33486475
Direct configuration=     9
   0.00417542  0.00278875  0.11274742
   0.35920481  0.00262443  0.09936232
   0.00409990  0.35753355  0.09976717
   0.64984303  0.64732016  0.09964644
   0.32780503  0.32530395  0.10011139
   0.68152565  0.00293740  0.10044396
   0.00428317  0.67944240  0.10017361
   0.08315699  0.41701425  0.33477925
   0.24995186  0.25019052  0.33523951
   0.08332973  0.91715513  0.33477853
   0.25013689  0.75014538  0.33460987
   0.58305469  0.41693639  0.33458839
   0.74983475  0.25016516  0.33471565
   0.58281402  0.91669137  0.33514647
   0.74941140  0.74985180  0.33486936
Direct configuration=    10
   0.00419647  0.00277609  0.11224628
   0.35921344  0.00260486  0.09942799
   0.00414114  0.35750635  0.09984031
   0.64986573  0.64732233  0.09971742
   0.32786739  0.32536981  0.10017093
   0.68145771  0.00288701  0.10051392
   0.00430871  0.67937984  0.10023635
   0.08315178  0.41699157  0.33479263
   0.24995062  0.25030674  0.33523805
   0.08331074  0.91708557  0.33479907
   0.25011207  0.75017307  0.33462848
   0.58305732  0.41688006  0.33461236
   0.74978147  0.25018389  0.33472718
   0.58283855  0.91672064  0.33514917
   0.74937420  0.74991283  0.33487918
Direct configuration=    11
   0.00425962  0.00273810  0.11074284
   0.35923933  0.00254616  0.09962501
   0.00426485  0.35742475  0.10005973
   0.64993386  0.64732886  0.09993039
   0.32805445  0.32556738  0.10034957
   0.68125390  0.00273582  0.10072382
   0.00438533  0.67919216  0.10042458
   0.08313615  0.41692352  0.33483275
   0.24994693  0.25065538  0.33523367
   0.08325374  0.91687690  0.33486068
   0.25003758  0.75025612  0.33468431
   0.58306522  0.41671107  0.33468427
   0.74962163  0.25024008  0.33476178
   0.58291214  0.91680845  0.33515727
   0.74926261  0.75009591  0.33490867
Direct configuration=    12
   0.00438592  0.00266213  0.10773597
   0.35929110  0.00242874  0.10001905
   0.00451229  0.35726156  0.10049856
   0.65007010  0.64734191  0.10035631
   0.32842859  0.32596251  0.10070684
   0.68084626  0.00243345  0.10114363
   0.00453856  0.67881679  0.10080105
   0.08310489  0.41678742  0.33491300
   0.24993953  0.25135266  0.33522491
   0.08313976  0.91645955  0.33498389
   0.24988861  0.75042223  0.33479596
   0.58308103  0.41637309  0.33482809
   0.74930195  0.25035247  0.33483098
   0.58305931  0.91698408  0.33517348
   0.74903943  0.75046207  0.33496763
Direct configuration=    13
   0.00441171  0.00263937  0.10720733
   0.35929041  0.00240858  0.10008684
   0.00455616  0.35723531  0.10056731
   0.65009286  0.64735666  0.10042483
   0.32846801  0.32600740  0.10077583
   0.68081066  0.00238167  0.10121823
   0.00456678  0.67876409  0.10087220
   0.08305697  0.41683025  0.33492692
   0.24988322  0.25122033  0.33521903
   0.08308631  0.91653930  0.33500583
   0.24983371  0.75040907  0.33482142
   0.58305645  0.41647148  0.33485659
   0.74933664  0.25034155  0.33484695
   0.58305149  0.91703444  0.33517072
   0.74912596  0.75046117  0.33497928
Direct configuration=    14
   0.00448906  0.00257111  0.10562140
   0.35928836  0.00234810  0.10029022
   0.00468775  0.35715656  0.10077358
   0.65016112  0.64740092  0.10063040
   0.32858629  0.32614205  0.10098279
   0.68070386  0.00222631  0.10144205
   0.00465144  0.67860598  0.10108566
   0.08291321  0.41695872  0.33496870
   0.24971427  0.25082334  0.33520139
   0.08292596  0.91677853  0.33507166
   0.24966899  0.75036962  0.33489780
   0.58298270  0.41676663  0.33494208
   0.74944072  0.25030878  0.33489489
   0.58302804  0.91718555  0.33516246
   0.74938556  0.75045848  0.33501426
Direct configuration=    15
   0.00464376  0.00243458  0.10244954
   0.35928425  0.00222714  0.10069698
   0.00495095  0.35699906  0.10118613
   0.65029763  0.64748945  0.10104153
   0.32882285  0.32641135  0.10139672
   0.68049025  0.00191559  0.10188968
   0.00482074  0.67828976  0.10151257
   0.08262569  0.41721567  0.33505225
   0.24937638  0.25002937  0.33516610
   0.08260528  0.91725699  0.33520331
   0.24933956  0.75029070  0.33505057
   0.58283521  0.41735694  0.33511307
   0.74964888  0.25024324  0.33499075
   0.58298113  0.91748775  0.33514593
   0.74990476  0.75045308  0.33508420
Direct configuration=    16
   0.00455093  0.00251651  0.10435293
   0.35928671  0.00229972  0.10045289
   0.00479301  0.35709357  0.10093857
   0.65021571  0.64743633  0.10079482
   0.32868089  0.32624975  0.10114833
   0.68061843  0.00210205  0.10162106
   0.00471914  0.67847952  0.10125639
   0.08279823  0.41706148  0.33500211
   0.24957915  0.25050582  0.33518727
   0.08279772  0.91696987  0.33512431
   0.24953725  0.75033806  0.33495890
   0.58292372  0.41700270  0.33501046
   0.74952397  0.25028257  0.33493323
   0.58300928  0.91730640  0.33515585
   0.74959320  0.75045632  0.33504223
Direct configuration=    17
   0.00455677  0.00249749  0.10429207
   0.35932545  0.00229979  0.10048031
   0.00478201  0.35714152  0.10095167
   0.65016747  0.64740317  0.10081228
   0.32862776  0.32617450  0.10114589
   0.68071277  0.00212407  0.10160689
   0.00471819  0.67851329  0.10125187
   0.08283232  0.41706954  0.33500245
   0.24956083  0.25044633  0.33518845
   0.08285375  0.91704952  0.33512262
   0.24957013  0.75038089  0.33496961
   0.58290065  0.41704304  0.33501262
   0.74953741  0.25034315  0.33494272
   0.58293080  0.91719149  0.33515136
   0.74955103  0.75042287  0.33504852
Direct configuration=    18
   0.00457108  0.00245093  0.10414314
   0.35942024  0.00229995  0.10054743
   0.00475508  0.35725889  0.10098373
   0.65004940  0.64732203  0.10085500
   0.32849772  0.32599034  0.10113992
   0.68094364  0.00217796  0.10157222
   0.00471586  0.67859594  0.10124082
   0.08291575  0.41708927  0.33500329
   0.24951601  0.25030073  0.33519131
   0.08299090  0.91724445  0.33511850
   0.24965062  0.75048572  0.33499584
   0.58284419  0.41714177  0.33501791
   0.74957032  0.25049143  0.33496595
   0.58273871  0.91691026  0.33514036
   0.74944783  0.75034100  0.33506393
Direct configuration=    19
   0.00457960  0.00242355  0.10409748
   0.35950440  0.00230152  0.10058942
   0.00473324  0.35732436  0.10099793
   0.64996198  0.64725603  0.10087751
   0.32844799  0.32590354  0.10112737
   0.68104999  0.00222072  0.10153518
   0.00471073  0.67863416  0.10122385
   0.08292010  0.41709246  0.33500479
   0.24952934  0.25035492  0.33519352
   0.08296333  0.91720271  0.33511462
   0.24962714  0.75047972  0.33500974
   0.58283499  0.41711785  0.33502003
   0.74954332  0.25047075  0.33497954
   0.58276438  0.91695258  0.33513621
   0.74945681  0.75036579  0.33507214
Direct configuration=    20
   0.00460146  0.00235329  0.10398031
   0.35972038  0.00230555  0.10069720
   0.00467719  0.35749239  0.10103436
   0.64973760  0.64708664  0.10093526
   0.32832037  0.32568079  0.10109517
   0.68132293  0.00233046  0.10144014
   0.00469756  0.67873226  0.10118029
   0.08293126  0.41710065  0.33500867
   0.24956357  0.25049400  0.33519918
   0.08289259  0.91709559  0.33510468
   0.24956690  0.75046431  0.33504544
   0.58281136  0.41705646  0.33502548
   0.74947404  0.25041768  0.33501442
   0.58283024  0.91706119  0.33512555
   0.74947987  0.75042941  0.33509319
Direct configuration=    21
   0.00461440  0.00233568  0.10394375
   0.35979090  0.00230700  0.10073400
   0.00466740  0.35748344  0.10103906
   0.64969406  0.64704771  0.10094935
   0.32836802  0.32570558  0.10108686
   0.68129354  0.00235519  0.10140029
   0.00469384  0.67870546  0.10116643
   0.08285711  0.41710693  0.33501732
   0.24953679  0.25045179  0.33519940
   0.08287681  0.91713083  0.33510678
   0.24957257  0.75044280  0.33505267
   0.58284232  0.41708678  0.33503265
   0.74950561  0.25041054  0.33502314
   0.58283480  0.91711407  0.33513151
   0.74947915  0.75041687  0.33509612
Direct configuration=    22
   0.00462252  0.00232461  0.10392080
   0.35983518  0.00230791  0.10075711
   0.00466125  0.35747781  0.10104201
   0.64966672  0.64702327  0.10095820
   0.32839794  0.32572114  0.10108164
   0.68127508  0.00237071  0.10137527
   0.00469151  0.67868863  0.10115773
   0.08281055  0.41711088  0.33502276
   0.24951998  0.25042528  0.33519954
   0.08286691  0.91715296  0.33510810
   0.24957613  0.75042929  0.33505721
   0.58286176  0.41710581  0.33503715
   0.74952544  0.25040607  0.33502861
   0.58283767  0.91714728  0.33513525
   0.74947869  0.75040900  0.33509796
Direct configuration=    23
   0.00463863  0.00230984  0.10388052
   0.35985283  0.00231022  0.10078760
   0.00466147  0.35742341  0.10103811
   0.64968138  0.64703160  0.10096429
   0.32845707  0.32576736  0.10108015
   0.68122564  0.00237551  0.10133696
   0.00469103  0.67864260  0.10114989
   0.08282190  0.41710646  0.33503595
   0.24950784  0.25043628  0.33520023
   0.08287741  0.91716088  0.33511427
   0.24957288  0.75046047  0.33506147
   0.58285119  0.41710530  0.33504752
   0.74951420  0.25043856  0.33503558
   0.58281630  0.91711031  0.33514782
   0.74945758  0.75042188  0.33509899
Direct configuration=    24
   0.00465728  0.00229273  0.10383387
   0.35987327  0.00231289  0.10082290
   0.00466173  0.35736042  0.10103359
   0.64969836  0.64704124  0.10097134
   0.32852555  0.32582088  0.10107842
   0.68116838  0.00238106  0.10129259
   0.00469048  0.67858929  0.10114080
   0.08283504  0.41710135  0.33505122
   0.24949378  0.25044903  0.33520102
   0.08288956  0.91717004  0.33512141
   0.24956912  0.75049657  0.33506640
   0.58283894  0.41710471  0.33505954
   0.74950118  0.25047618  0.33504366
   0.58279155  0.91706750  0.33516237
   0.74943313  0.75043679  0.33510020
Direct configuration=    25
   0.00467689  0.00227322  0.10377614
   0.35983334  0.00231443  0.10084825
   0.00467014  0.35729769  0.10102068
   0.64976237  0.64709035  0.10096948
   0.32853450  0.32581846  0.10108505
   0.68118582  0.00236625  0.10125385
   0.00469665  0.67855955  0.10113972
   0.08285219  0.41713210  0.33506703
   0.24950517  0.25047572  0.33520666
   0.08286383  0.91716836  0.33512978
   0.24954648  0.75049205  0.33507339
   0.58280209  0.41711437  0.33507162
   0.74947250  0.25045827  0.33505436
   0.58278561  0.91709639  0.33517892
   0.74943977  0.75044347  0.33510440
Direct configuration=    26
   0.00470703  0.00224324  0.10368742
   0.35977195  0.00231681  0.10088720
   0.00468307  0.35720128  0.10100085
   0.64986077  0.64716584  0.10096661
   0.32854825  0.32581473  0.10109525
   0.68121262  0.00234350  0.10119429
   0.00470615  0.67851385  0.10113805
   0.08287855  0.41717936  0.33509133
   0.24952268  0.25051674  0.33521533
   0.08282427  0.91716577  0.33514264
   0.24951167  0.75048509  0.33508413
   0.58274545  0.41712921  0.33509019
   0.74942842  0.25043073  0.33507082
   0.58277648  0.91714079  0.33520437
   0.74944998  0.75045373  0.33511085
Direct configuration=    27
   0.00472561  0.00222501  0.10361718
   0.35975411  0.00231043  0.10090060
   0.00469854  0.35717688  0.10098306
   0.64990326  0.64718308  0.10095771
   0.32853923  0.32578925  0.10110718
   0.68125245  0.00231706  0.10116308
   0.00472105  0.67850040  0.10114276
   0.08281910  0.41716975  0.33510499
   0.24948317  0.25050523  0.33522804
   0.08281965  0.91719127  0.33515081
   0.24950939  0.75050229  0.33509638
   0.58276863  0.41714411  0.33510066
   0.74944186  0.25046502  0.33508642
   0.58276699  0.91715356  0.33521926
   0.74942430  0.75046733  0.33512121
Direct configuration=    28
   0.00475370  0.00219745  0.10351097
   0.35972713  0.00230077  0.10092087
   0.00472192  0.35713998  0.10095614
   0.64996752  0.64720914  0.10094425
   0.32852558  0.32575071  0.10112522
   0.68131269  0.00227710  0.10111588
   0.00474358  0.67848007  0.10114989
   0.08272920  0.41715521  0.33512565
   0.24942341  0.25048782  0.33524725
   0.08281267  0.91722981  0.33516316
   0.24950594  0.75052830  0.33511491
   0.58280368  0.41716665  0.33511649
   0.74946218  0.25051688  0.33511001
   0.58275264  0.91717286  0.33524177
   0.74938547  0.75048791  0.33513688
Direct configuration=    29
   0.00477070  0.00218450  0.10343155
   0.35977015  0.00228339  0.10092327
   0.00474270  0.35715021  0.10093867
   0.64996160  0.64716647  0.10093229
   0.32853938  0.32573822  0.10113694
   0.68132355  0.00224951  0.10109197
   0.00476536  0.67846984  0.10115587
   0.08272547  0.41717030  0.33513789
   0.24941298  0.25051067  0.33526478
   0.08280058  0.91723973  0.33517261
   0.24949254  0.75054684  0.33513123
   0.58278267  0.41717724  0.33512678
   0.74944012  0.25053209  0.33512842
   0.58273380  0.91717811  0.33525486
   0.74936574  0.75050353  0.33515220
Direct configuration=    30
   0.00482169  0.00214567  0.10319328
   0.35989920  0.00223127  0.10093047
   0.00480506  0.35718090  0.10088626
   0.64994383  0.64703845  0.10089642
   0.32858078  0.32570075  0.10117209
   0.68135613  0.00216675  0.10102024
   0.00483071  0.67843916  0.10117382
   0.08271425  0.41721558  0.33517460
   0.24938168  0.25057923  0.33531735
   0.08276430  0.91726947  0.33520095
   0.24945233  0.75060247  0.33518022
   0.58271964  0.41720902  0.33515765
   0.74937392  0.25057772  0.33518368
   0.58267726  0.91719385  0.33529414
   0.74930657  0.75055038  0.33519818
Direct configuration=    31
   0.00492367  0.00206800  0.10271674
   0.36015730  0.00212702  0.10094487
   0.00492977  0.35724227  0.10078142
   0.64990829  0.64678241  0.10082467
   0.32866358  0.32562580  0.10124240
   0.68142130  0.00200124  0.10087678
   0.00496139  0.67837781  0.10120972
   0.08269183  0.41730613  0.33524801
   0.24931907  0.25071635  0.33542251
   0.08269173  0.91732894  0.33525764
   0.24937191  0.75071373  0.33527819
   0.58259357  0.41727258  0.33521939
   0.74924152  0.25066898  0.33529418
   0.58256419  0.91722532  0.33537269
   0.74918822  0.75064408  0.33529012
Direct configuration=    32
   0.00487360  0.00210613  0.10295071
   0.36003058  0.00217820  0.10093780
   0.00486854  0.35721214  0.10083289
   0.64992574  0.64690812  0.10085990
   0.32862293  0.32566259  0.10120788
   0.68138930  0.00208250  0.10094721
   0.00489723  0.67840793  0.10119210
   0.08270284  0.41726167  0.33521197
   0.24934981  0.25064903  0.33537088
   0.08272736  0.91729974  0.33522981
   0.24941139  0.75065911  0.33523009
   0.58265547  0.41724137  0.33518908
   0.74930653  0.25062417  0.33523993
   0.58261971  0.91720987  0.33533412
   0.74924633  0.75059808  0.33524498
Direct configuration=    33
   0.00489890  0.00208910  0.10282788
   0.36009053  0.00214182  0.10093389
   0.00489931  0.35720580  0.10082279
   0.64992512  0.64684595  0.10085108
   0.32865678  0.32563481  0.10120695
   0.68140581  0.00205786  0.10091615
   0.00493039  0.67839627  0.10118663
   0.08266675  0.41730730  0.33523564
   0.24932855  0.25064302  0.33539362
   0.08267716  0.91733682  0.33525374
   0.24936848  0.75064922  0.33525241
   0.58262001  0.41728790  0.33521291
   0.74929206  0.25061597  0.33526213
   0.58260718  0.91728166  0.33535686
   0.74926030  0.75060715  0.33526666
Direct configuration=    34
   0.00491894  0.00207560  0.10273061
   0.36013800  0.00211301  0.10093079
   0.00492368  0.35720079  0.10081480
   0.64992463  0.64679672  0.10084410
   0.32868360  0.32561281  0.10120621
   0.68141889  0.00203834  0.10089154
   0.00495665  0.67838703  0.10118230
   0.08263818  0.41734344  0.33525439
   0.24931172  0.25063827  0.33541162
   0.08263740  0.91736618  0.33527270
   0.24933449  0.75064140  0.33527009
   0.58259194  0.41732476  0.33523178
   0.74928061  0.25060947  0.33527972
   0.58259726  0.91733852  0.33537487
   0.74927136  0.75061433  0.33528382
Direct configuration=    35
   0.00494701  0.00205360  0.10259157
   0.36016984  0.00206557  0.10091937
   0.00495609  0.35716374  0.10082374
   0.64995661  0.64675663  0.10084649
   0.32872623  0.32556467  0.10118152
   0.68145692  0.00202761  0.10086370
   0.00499103  0.67836786  0.10115783
   0.08259225  0.41735600  0.33528582
   0.24926798  0.25066091  0.33543289
   0.08260697  0.91739074  0.33530914
   0.24929654  0.75067456  0.33529262
   0.58257593  0.41734748  0.33526681
   0.74925988  0.25065083  0.33529841
   0.58257720  0.91736812  0.33540279
   0.74924685  0.75065235  0.33530665
Direct configuration=    36
   0.00503122  0.00198757  0.10217447
   0.36026538  0.00192322  0.10088509
   0.00505331  0.35705260  0.10085059
   0.65005256  0.64663636  0.10085365
   0.32885413  0.32542026  0.10110746
   0.68157103  0.00199541  0.10078017
   0.00509416  0.67831037  0.10108442
   0.08245449  0.41739369  0.33538010
   0.24913678  0.25072885  0.33549670
   0.08251568  0.91746444  0.33541847
   0.24918266  0.75077404  0.33536020
   0.58252790  0.41741563  0.33537189
   0.74919770  0.25077489  0.33535447
   0.58251701  0.91745692  0.33548654
   0.74917334  0.75076641  0.33537512
Direct configuration=    37
   0.00519965  0.00185551  0.10134026
   0.36045644  0.00163854  0.10081654
   0.00524774  0.35683032  0.10090429
   0.65024446  0.64639583  0.10086798
   0.32910993  0.32513144  0.10095933
   0.68179924  0.00193100  0.10061311
   0.00530043  0.67819539  0.10093760
   0.08217895  0.41746907  0.33556865
   0.24887437  0.25086471  0.33562432
   0.08233308  0.91761182  0.33563713
   0.24895492  0.75097300  0.33549536
   0.58243185  0.41755195  0.33558207
   0.74907333  0.25102303  0.33546659
   0.58239664  0.91763451  0.33565405
   0.74902630  0.75099453  0.33551206
Direct configuration=    38
   0.00514688  0.00189689  0.10160163
   0.36039658  0.00172773  0.10083802
   0.00518683  0.35689997  0.10088746
   0.65018434  0.64647119  0.10086349
   0.32902978  0.32522193  0.10100574
   0.68172774  0.00195118  0.10066545
   0.00523580  0.67823141  0.10098360
   0.08226528  0.41744545  0.33550958
   0.24895659  0.25082214  0.33558434
   0.08239029  0.91756564  0.33556862
   0.24902627  0.75091067  0.33545301
   0.58246194  0.41750924  0.33551622
   0.74911230  0.25094528  0.33543146
   0.58243435  0.91757887  0.33560157
   0.74907237  0.75092306  0.33546915
Direct configuration=    39
   0.00516694  0.00187582  0.10150667
   0.36040899  0.00169973  0.10082914
   0.00520991  0.35688039  0.10089405
   0.65021451  0.64645327  0.10086526
   0.32905900  0.32519425  0.10098630
   0.68175685  0.00193640  0.10064981
   0.00525829  0.67820411  0.10096524
   0.08226202  0.41747839  0.33552832
   0.24894994  0.25085115  0.33560201
   0.08237385  0.91758780  0.33559066
   0.24901726  0.75092870  0.33547124
   0.58242827  0.41753173  0.33553728
   0.74908027  0.25095450  0.33544717
   0.58240103  0.91759090  0.33561836
   0.74904019  0.75093353  0.33548782
Direct configuration=    40
   0.00522712  0.00181260  0.10122182
   0.36044621  0.00161573  0.10080250
   0.00527915  0.35682165  0.10091379
   0.65030501  0.64639951  0.10087058
   0.32914667  0.32511120  0.10092799
   0.68184417  0.00189204  0.10060288
   0.00532577  0.67812218  0.10091017
   0.08225226  0.41757719  0.33558455
   0.24892999  0.25093816  0.33565502
   0.08232455  0.91765427  0.33565680
   0.24899024  0.75098280  0.33552591
   0.58232726  0.41759920  0.33560045
   0.74898420  0.25098216  0.33549431
   0.58230105  0.91762702  0.33566875
   0.74894368  0.75096495  0.33554382
Direct configuration=    41
   0.00534748  0.00168617  0.10065211
   0.36052065  0.00144773  0.10074922
   0.00541764  0.35670418  0.10095329
   0.65048603  0.64629199  0.10088121
   0.32932201  0.32494510  0.10081136
   0.68201882  0.00180333  0.10050903
   0.00546073  0.67795833  0.10080004
   0.08223273  0.41777479  0.33569700
   0.24889010  0.25111219  0.33576104
   0.08222594  0.91778721  0.33578906
   0.24893619  0.75109100  0.33563526
   0.58212523  0.41773414  0.33572678
   0.74879206  0.25103748  0.33558859
   0.58210109  0.91769924  0.33576951
   0.74875064  0.75102779  0.33565582
Direct configuration=    42
   0.00538480  0.00164158  0.10051185
   0.36053934  0.00142413  0.10073397
   0.00545804  0.35668013  0.10095634
   0.65054042  0.64627721  0.10087899
   0.32936035  0.32492873  0.10078115
   0.68205195  0.00174939  0.10049921
   0.00549360  0.67789601  0.10077347
   0.08219284  0.41779944  0.33571504
   0.24885079  0.25113397  0.33579830
   0.08218766  0.91781394  0.33580934
   0.24889246  0.75112117  0.33567143
   0.58209767  0.41776442  0.33574622
   0.74876615  0.25107011  0.33562312
   0.58207898  0.91773601  0.33578774
   0.74873229  0.75106443  0.33569318
Direct configuration=    43
   0.00549677  0.00150781  0.10009107
   0.36059539  0.00135333  0.10068820
   0.00557921  0.35660799  0.10096551
   0.65070360  0.64623287  0.10087232
   0.32947535  0.32487962  0.10069049
   0.68215133  0.00158758  0.10046973
   0.00559220  0.67770904  0.10069376
   0.08207315  0.41787338  0.33576913
   0.24873288  0.25119933  0.33591007
   0.08207285  0.91789411  0.33587017
   0.24876126  0.75121166  0.33577992
   0.58201501  0.41785526  0.33580452
   0.74868843  0.25116800  0.33572672
   0.58201263  0.91784633  0.33584242
   0.74867726  0.75117435  0.33580528
Direct configuration=    44
   0.00572071  0.00124028  0.09924951
   0.36070751  0.00121173  0.10059668
   0.00582157  0.35646371  0.10098386
   0.65102996  0.64614419  0.10085899
   0.32970537  0.32478140  0.10050918
   0.68235010  0.00126395  0.10041078
   0.00578940  0.67733509  0.10053435
   0.08183377  0.41802127  0.33587733
   0.24849706  0.25133005  0.33613362
   0.08184321  0.91805446  0.33599182
   0.24849886  0.75139264  0.33599692
   0.58184969  0.41803694  0.33592112
   0.74853299  0.25136379  0.33593391
   0.58187994  0.91806698  0.33595178
   0.74856721  0.75139418  0.33602949
Direct configuration=    45
   0.00555933  0.00143307  0.09985597
   0.36062672  0.00131377  0.10066263
   0.00564692  0.35656768  0.10097064
   0.65079478  0.64620810  0.10086860
   0.32953961  0.32485218  0.10063984
   0.68220686  0.00149717  0.10045326
   0.00564729  0.67760457  0.10064923
   0.08200627  0.41791470  0.33579936
   0.24866700  0.25123585  0.33597252
   0.08200870  0.91793891  0.33590415
   0.24868795  0.75126222  0.33584054
   0.58196882  0.41790602  0.33583710
   0.74864501  0.25122270  0.33578460
   0.58197556  0.91790797  0.33587297
   0.74864652  0.75123576  0.33586792
Direct configuration=    46
   0.00560976  0.00141046  0.09975524
   0.36070535  0.00131320  0.10065281
   0.00568467  0.35648743  0.10095425
   0.65080768  0.64616721  0.10085525
   0.32954060  0.32484685  0.10061944
   0.68219959  0.00143544  0.10046679
   0.00568067  0.67762159  0.10063371
   0.08196887  0.41792551  0.33581630
   0.24863225  0.25126708  0.33599797
   0.08199796  0.91797208  0.33591616
   0.24868066  0.75129118  0.33586307
   0.58195952  0.41792154  0.33585054
   0.74862416  0.25126381  0.33581094
   0.58194087  0.91792213  0.33589566
   0.74859472  0.75125514  0.33589123
Direct configuration=    47
   0.00567585  0.00138082  0.09962324
   0.36080839  0.00131245  0.10063993
   0.00573415  0.35638227  0.10093277
   0.65082459  0.64611363  0.10083776
   0.32954190  0.32483987  0.10059270
   0.68219006  0.00135455  0.10048451
   0.00572441  0.67764390  0.10061337
   0.08191985  0.41793969  0.33583850
   0.24858672  0.25130801  0.33603131
   0.08198388  0.91801554  0.33593189
   0.24867110  0.75132914  0.33589259
   0.58194732  0.41794188  0.33586816
   0.74859685  0.25131769  0.33584545
   0.58189540  0.91794068  0.33592539
   0.74852685  0.75128054  0.33592177
Direct configuration=    48
   0.00572495  0.00134526  0.09954514
   0.36087913  0.00131729  0.10063764
   0.00575965  0.35634005  0.10090292
   0.65082575  0.64607705  0.10081793
   0.32953653  0.32482731  0.10057504
   0.68221046  0.00130157  0.10051007
   0.00575879  0.67763489  0.10060145
   0.08191773  0.41799560  0.33586195
   0.24858943  0.25132886  0.33604310
   0.08193564  0.91802787  0.33594508
   0.24862771  0.75133571  0.33590243
   0.58188812  0.41797965  0.33588506
   0.74856103  0.25130153  0.33586290
   0.58187903  0.91798739  0.33595745
   0.74853338  0.75130064  0.33593116
Direct configuration=    49
   0.00574474  0.00133093  0.09951367
   0.36090764  0.00131925  0.10063672
   0.00576993  0.35632304  0.10089089
   0.65082622  0.64606230  0.10080995
   0.32953437  0.32482225  0.10056793
   0.68221868  0.00128022  0.10052037
   0.00577264  0.67763126  0.10059664
   0.08191688  0.41801813  0.33587140
   0.24859052  0.25133727  0.33604785
   0.08191620  0.91803284  0.33595039
   0.24861023  0.75133835  0.33590640
   0.58186426  0.41799487  0.33589187
   0.74854659  0.25129502  0.33586993
   0.58187242  0.91800621  0.33597037
   0.74853601  0.75130874  0.33593494
Direct configuration=    50
   0.00577911  0.00127988  0.09946013
   0.36094021  0.00131473  0.10064276
   0.00578144  0.35633037  0.10085844
   0.65083529  0.64604657  0.10079102
   0.32954339  0.32480140  0.10054938
   0.68227053  0.00125010  0.10054515
   0.00580234  0.67757834  0.10058357
   0.08189631  0.41802254  0.33589535
   0.24855184  0.25135543  0.33605057
   0.08189936  0.91804703  0.33596232
   0.24858151  0.75137738  0.33591028
   0.58185408  0.41800931  0.33590892