   15   15  128    2
  0.1913050E+02  0.4700000E-09  0.4700000E-09  0.1500000E-08  0.5000000E-15
  1.000000000000000E-004
  CAR 
 Lattice                                 
     56     74     48
 
  0.0000000E+00  0.0000000E+00  0.0000000E+00  0.6944444E-02
      1        -16.604823      -16.604823   1.000000   1.000000
      2        -13.725558      -13.725558   1.000000   1.000000
      3        -11.107145      -11.107145   1.000000   1.000000
      4        -11.099221      -11.099221   1.000000   1.000000
      5        -11.097191      -11.097191   1.000000   1.000000
      6        -10.229470      -10.229470   1.000000   1.000000
      7        -10.228371      -10.228371   1.000000   1.000000
      8        -10.224877      -10.224877   1.000000   1.000000
      9         -9.820034       -9.820034   1.000000   1.000000
     10         -9.819110       -9.819110   1.000000   1.000000
     11         -6.754095       -6.754095   1.000000   1.000000
     12         -5.759544       -5.759544   1.000000   1.000000
     13         -5.755388       -5.755388   1.000000   1.000000
     14         -4.801971       -4.801971   1.000000   1.000000
     15         -3.979779       -3.979779   1.000000   1.000000
     16         -3.198069       -3.198069   1.000000   1.000000
     17         -3.195340       -3.195340   1.000000   1.000000
     18         -3.190337       -3.190337   1.000000   1.000000
     19         -2.984293       -2.984293   1.000000   1.000000
     20          0.363730        0.363730   1.000000   1.000000
     21          0.368926        0.368926   1.000000   1.000000
     22          0.775630        0.775630   1.000000   1.000000
     23          0.784784        0.784784   1.000000   1.000000
     24          0.837767        0.837767   1.000000   1.000000
     25          0.845894        0.845894   1.000000   1.000000
     26          0.856565        0.856565   1.000000   1.000000
     27          2.779629        2.779629   1.000000   1.000000
     28          2.782064        2.782064   1.000000   1.000000
     29          4.602290        4.602290   0.000000   0.000000
     30          4.604224        4.604224   0.000000   0.000000
     31          4.930168        4.930168   0.000000   0.000000
     32          5.332220        5.332220   0.000000   0.000000
     33          5.336088        5.336088   0.000000   0.000000
     34          5.746039        5.746039   0.000000   0.000000
     35          6.662681        6.662680   0.000000   0.000000
     36          7.223114        7.223114   0.000000   0.000000
     37          7.233199        7.233199   0.000000   0.000000
     38         11.044334       11.044333   0.000000   0.000000
     39         11.274573       11.274573   0.000000   0.000000
     40         11.292335       11.292335   0.000000   0.000000
     41         11.305955       11.305955   0.000000   0.000000
     42         11.483650       11.483650   0.000000   0.000000
     43         12.050877       12.050877   0.000000   0.000000
     44         12.071990       12.071990   0.000000   0.000000
     45         12.321171       12.321171   0.000000   0.000000
     46         12.656752       12.656752   0.000000   0.000000
     47         12.906755       12.906755   0.000000   0.000000
     48         12.914258       12.914258   0.000000   0.000000
 
  0.8333333E-01  0.5492152E-17  0.0000000E+00  0.1388889E-01
      1        -16.562388      -16.562388   1.000000   1.000000
      2        -13.696703      -13.696703   1.000000   1.000000
      3        -11.673758      -11.673758   1.000000   1.000000
      4        -11.278385      -11.278385   1.000000   1.000000
      5        -11.271815      -11.271815   1.000000   1.000000
      6         -9.987512       -9.987512   1.000000   1.000000
      7         -9.987190       -9.987190   1.000000   1.000000
      8         -9.926924       -9.926924   1.000000   1.000000
      9         -9.843517       -9.843517   1.000000   1.000000
     10         -9.587722       -9.587722   1.000000   1.000000
     11         -6.652526       -6.652526   1.000000   1.000000
     12         -5.878522       -5.878522   1.000000   1.000000
     13         -5.673829       -5.673829   1.000000   1.000000
     14         -4.750415       -4.750415   1.000000   1.000000
     15         -3.741005       -3.741005   1.000000   1.000000
     16         -3.326388       -3.326388   1.000000   1.000000
     17         -3.320593       -3.320593   1.000000   1.000000
     18         -3.154319       -3.154319   1.000000   1.000000
     19         -2.937977       -2.937977   1.000000   1.000000
     20          0.191547        0.191547   1.000000   1.000000
     21          0.273235        0.273235   1.000000   1.000000
     22          0.562094        0.562094   1.000000   1.000000
     23          0.571573        0.571573   1.000000   1.000000
     24          0.665152        0.665152   1.000000   1.000000
     25          0.798935        0.798935   1.000000   1.000000
     26          0.816562        0.816562   1.000000   1.000000
     27          2.545401        2.545401   1.000000   1.000000
     28          2.652568        2.652568   1.000000   1.000000
     29          4.618500        4.618500   0.000000   0.000000
     30          4.750224        4.750224   0.000000   0.000000
     31          5.109930        5.109930   0.000000   0.000000
     32          5.403771        5.403771   0.000000   0.000000
     33          5.487378        5.487378   0.000000   0.000000
     34          6.126634        6.126634   0.000000   0.000000
     35          6.758810        6.758809   0.000000   0.000000
     36          7.333840        7.333840   0.000000   0.000000
     37          7.427255        7.427255   0.000000   0.000000
     38         11.057350       11.057350   0.000000   0.000000
     39         11.292934       11.292934   0.000000   0.000000
     40         11.373283       11.373283   0.000000   0.000000
     41         11.488364       11.488364   0.000000   0.000000
     42         11.504087       11.504087   0.000000   0.000000
     43         12.090048       12.090048   0.000000   0.000000
     44         12.244981       12.244981   0.000000   0.000000
     45         12.351496       12.351496   0.000000   0.000000
     46         12.632945       12.632945   0.000000   0.000000
     47         12.667585       12.667585   0.000000   0.000000
     48         12.777970       12.777970   0.000000   0.000000
 
 -0.1446742E-17  0.8333333E-01  0.0000000E+00  0.1388889E-01
      1        -16.562393      -16.562393   1.000000   1.000000
      2        -13.696704      -13.696704   1.000000   1.000000
      3        -11.674777      -11.674777   1.000000   1.000000
      4        -11.277990      -11.277990   1.000000   1.000000
      5        -11.270618      -11.270618   1.000000   1.000000
      6         -9.989145       -9.989145   1.000000   1.000000
      7         -9.986105       -9.986105   1.000000   1.000000
      8         -9.927777       -9.927777   1.000000   1.000000
      9         -9.842857       -9.842857   1.000000   1.000000
     10         -9.587579       -9.587579   1.000000   1.000000
     11         -6.652442       -6.652442   1.000000   1.000000
     12         -5.878393       -5.878393   1.000000   1.000000
     13         -5.674056       -5.674056   1.000000   1.000000
     14         -4.750423       -4.750423   1.000000   1.000000
     15         -3.741036       -3.741036   1.000000   1.000000
     16         -3.327252       -3.327252   1.000000   1.000000
     17         -3.320669       -3.320669   1.000000   1.000000
     18         -3.153325       -3.153325   1.000000   1.000000
     19         -2.937981       -2.937981   1.000000   1.000000
     20          0.192516        0.192516   1.000000   1.000000
     21          0.272226        0.272226   1.000000   1.000000
     22          0.564419        0.564419   1.000000   1.000000
     23          0.571149        0.571149   1.000000   1.000000
     24          0.661180        0.661180   1.000000   1.000000
     25          0.799382        0.799382   1.000000   1.000000
     26          0.818446        0.818446   1.000000   1.000000
     27          2.543662        2.543662   1.000000   1.000000
     28          2.654408        2.654408   1.000000   1.000000
     29          4.617396        4.617396   0.000000   0.000000
     30          4.749657        4.749657   0.000000   0.000000
     31          5.109980        5.109980   0.000000   0.000000
     32          5.408644        5.408644   0.000000   0.000000
     33          5.485970        5.485970   0.000000   0.000000
     34          6.123663        6.123663   0.000000   0.000000
     35          6.759196        6.759196   0.000000   0.000000
     36          7.331839        7.331839   0.000000   0.000000
     37          7.429815        7.429815   0.000000   0.000000
     38         11.057616       11.057616   0.000000   0.000000
     39         11.294935       11.294935   0.000000   0.000000
     40         11.373327       11.373327   0.000000   0.000000
     41         11.485253       11.485253   0.000000   0.000000
     42         11.503611       11.503611   0.000000   0.000000
     43         12.086622       12.086622   0.000000   0.000000
     44         12.248631       12.248631   0.000000   0.000000
     45         12.351351       12.351351   0.000000   0.000000
     46         12.633157       12.633156   0.000000   0.000000
     47         12.663860       12.663859   0.000000   0.000000
     48         12.782278       12.782278   0.000000   0.000000
 
 -0.8333333E-01  0.8333333E-01  0.0000000E+00  0.1388889E-01
      1        -16.562418      -16.562418   1.000000   1.000000
      2        -13.696732      -13.696732   1.000000   1.000000
      3        -11.679085      -11.679085   1.000000   1.000000
      4        -11.272551      -11.272551   1.000000   1.000000
      5        -11.269415      -11.269415   1.000000   1.000000
      6         -9.989170       -9.989170   1.000000   1.000000
      7         -9.988377       -9.988377   1.000000   1.000000
      8         -9.927297       -9.927297   1.000000   1.000000
      9         -9.843447       -9.843447   1.000000   1.000000
     10         -9.587637       -9.587637   1.000000   1.000000
     11         -6.652419       -6.652419   1.000000   1.000000
     12         -5.880694       -5.880694   1.000000   1.000000
     13         -5.671112       -5.671112   1.000000   1.000000
     14         -4.750473       -4.750473   1.000000   1.000000
     15         -3.741827       -3.741827   1.000000   1.000000
     16         -3.327570       -3.327570   1.000000   1.000000
     17         -3.325180       -3.325180   1.000000   1.000000
     18         -3.148258       -3.148258   1.000000   1.000000
     19         -2.938007       -2.938007   1.000000   1.000000
     20          0.195433        0.195433   1.000000   1.000000
     21          0.269281        0.269281   1.000000   1.000000
     22          0.558914        0.558914   1.000000   1.000000
     23          0.573425        0.573425   1.000000   1.000000
     24          0.657306        0.657306   1.000000   1.000000
     25          0.805150        0.805150   1.000000   1.000000
     26          0.820678        0.820678   1.000000   1.000000
     27          2.540549        2.540549   1.000000   1.000000
     28          2.657246        2.657246   1.000000   1.000000
     29          4.618369        4.618369   0.000000   0.000000
     30          4.750701        4.750701   0.000000   0.000000
     31          5.109938        5.109938   0.000000   0.000000
     32          5.406433        5.406433   0.000000   0.000000
     33          5.487834        5.487834   0.000000   0.000000
     34          6.118815        6.118815   0.000000   0.000000
     35          6.761282        6.761281   0.000000   0.000000
     36          7.327199        7.327199   0.000000   0.000000
     37          7.435335        7.435335   0.000000   0.000000
     38         11.058037       11.058036   0.000000   0.000000
     39         11.307335       11.307335   0.000000   0.000000
     40         11.373192       11.373192   0.000000   0.000000
     41         11.483757       11.483757   0.000000   0.000000
     42         11.490644       11.490644   0.000000   0.000000
     43         12.075164       12.075164   0.000000   0.000000
     44         12.261398       12.261398   0.000000   0.000000
     45         12.348622       12.348622   0.000000   0.000000
     46         12.623995       12.623995   0.000000   0.000000
     47         12.665683       12.665683   0.000000   0.000000
     48         12.790387       12.790387   0.000000   0.000000
 
  0.1666667E+00  0.2831689E-17  0.0000000E+00  0.1388889E-01
      1        -16.435190      -16.435190   1.000000   1.000000
      2        -13.612735      -13.612735   1.000000   1.000000
      3        -12.476247      -12.476247   1.000000   1.000000
      4        -11.567114      -11.567114   1.000000   1.000000
      5        -11.561669      -11.561669   1.000000   1.000000
      6        -10.211557      -10.211557   1.000000   1.000000
      7         -9.916716       -9.916716   1.000000   1.000000
      8         -9.486074       -9.486074   1.000000   1.000000
      9         -9.480923       -9.480923   1.000000   1.000000
     10         -8.599020       -8.599020   1.000000   1.000000
     11         -6.500894       -6.500894   1.000000   1.000000
     12         -5.984139       -5.984139   1.000000   1.000000
     13         -5.436554       -5.436554   1.000000   1.000000
     14         -4.596083       -4.596083   1.000000   1.000000
     15         -3.693738       -3.693738   1.000000   1.000000
     16         -3.687990       -3.687990   1.000000   1.000000
     17         -3.190811       -3.190811   1.000000   1.000000
     18         -3.026712       -3.026712   1.000000   1.000000
     19         -2.801267       -2.801267   1.000000   1.000000
     20         -0.301348       -0.301348   1.000000   1.000000
     21         -0.077586       -0.077586   1.000000   1.000000
     22          0.008259        0.008259   1.000000   1.000000
     23          0.015454        0.015454   1.000000   1.000000
     24          0.338519        0.338519   1.000000   1.000000
     25          0.698868        0.698868   1.000000   1.000000
     26          0.728238        0.728238   1.000000   1.000000
     27          1.951380        1.951380   1.000000   1.000000
     28          2.399089        2.399089   1.000000   1.000000
     29          4.612970        4.612970   0.000000   0.000000
     30          5.101446        5.101445   0.000000   0.000000
     31          5.370021        5.370021   0.000000   0.000000
     32          5.763083        5.763083   0.000000   0.000000
     33          6.168251        6.168251   0.000000   0.000000
     34          6.658846        6.658845   0.000000   0.000000
     35          7.197696        7.197696   0.000000   0.000000
     36          7.617205        7.617205   0.000000   0.000000
     37          7.942325        7.942325   0.000000   0.000000
     38         10.888214       10.888214   0.000000   0.000000
     39         11.097296       11.097296   0.000000   0.000000
     40         11.345345       11.345345   0.000000   0.000000
     41         11.772600       11.772600   0.000000   0.000000
     42         12.039621       12.039621   0.000000   0.000000
     43         12.058133       12.058133   0.000000   0.000000
     44         12.134344       12.134344   0.000000   0.000000
     45         12.190671       12.190671   0.000000   0.000000
     46         12.544996       12.544996   0.000000   0.000000
     47         12.793680       12.793680   0.000000   0.000000
     48         12.943561       12.943560   0.000000   0.000000
 
  0.2831689E-17  0.1666667E+00  0.0000000E+00  0.1388889E-01
      1        -16.435213      -16.435213   1.000000   1.000000
      2        -13.612742      -13.612742   1.000000   1.000000
      3        -12.476912      -12.476912   1.000000   1.000000
      4        -11.566296      -11.566296   1.000000   1.000000
      5        -11.561098      -11.561098   1.000000   1.000000
      6        -10.212190      -10.212190   1.000000   1.000000
      7         -9.916041       -9.916041   1.000000   1.000000
      8         -9.485630       -9.485630   1.000000   1.000000
      9         -9.482047       -9.482047   1.000000   1.000000
     10         -8.599217       -8.599217   1.000000   1.000000
     11         -6.500383       -6.500383   1.000000   1.000000
     12         -5.984324       -5.984324   1.000000   1.000000
     13         -5.436958       -5.436958   1.000000   1.000000
     14         -4.596122       -4.596122   1.000000   1.000000
     15         -3.694427       -3.694427   1.000000   1.000000
     16         -3.688034       -3.688034   1.000000   1.000000
     17         -3.190896       -3.190896   1.000000   1.000000
     18         -3.025772       -3.025772   1.000000   1.000000
     19         -2.801278       -2.801278   1.000000   1.000000
     20         -0.300666       -0.300666   1.000000   1.000000
     21         -0.079053       -0.079053   1.000000   1.000000
     22          0.007459        0.007459   1.000000   1.000000
     23          0.019198        0.019198   1.000000   1.000000
     24          0.334652        0.334652   1.000000   1.000000
     25          0.699398        0.699398   1.000000   1.000000
     26          0.730049        0.730049   1.000000   1.000000
     27          1.949568        1.949568   1.000000   1.000000
     28          2.401350        2.401350   1.000000   1.000000
     29          4.611922        4.611922   0.000000   0.000000
     30          5.100069        5.100069   0.000000   0.000000
     31          5.369968        5.369968   0.000000   0.000000
     32          5.766761        5.766762   0.000000   0.000000
     33          6.169051        6.169051   0.000000   0.000000
     34          6.655447        6.655447   0.000000   0.000000
     35          7.195723        7.195723   0.000000   0.000000
     36          7.617021        7.617021   0.000000   0.000000
     37          7.945319        7.945319   0.000000   0.000000
     38         10.885217       10.885216   0.000000   0.000000
     39         11.096514       11.096513   0.000000   0.000000
     40         11.347747       11.347747   0.000000   0.000000
     41         11.769430       11.769429   0.000000   0.000000
     42         12.037191       12.037191   0.000000   0.000000
     43         12.057301       12.057301   0.000000   0.000000
     44         12.133233       12.133233   0.000000   0.000000
     45         12.194393       12.194393   0.000000   0.000000
     46         12.544595       12.544595   0.000000   0.000000
     47         12.797110       12.797110   0.000000   0.000000
     48         12.948317       12.948317   0.000000   0.000000
 
 -0.1666667E+00  0.1666667E+00  0.0000000E+00  0.1388889E-01
      1        -16.435313      -16.435313   1.000000   1.000000
      2        -13.612851      -13.612851   1.000000   1.000000
      3        -12.479799      -12.479799   1.000000   1.000000
      4        -11.562521      -11.562521   1.000000   1.000000
      5        -11.558937      -11.558937   1.000000   1.000000
      6        -10.211756      -10.211756   1.000000   1.000000
      7         -9.916333       -9.916333   1.000000   1.000000
      8         -9.487266       -9.487266   1.000000   1.000000
      9         -9.482704       -9.482704   1.000000   1.000000
     10         -8.600607       -8.600607   1.000000   1.000000
     11         -6.501086       -6.501086   1.000000   1.000000
     12         -5.984417       -5.984417   1.000000   1.000000
     13         -5.434618       -5.434618   1.000000   1.000000
     14         -4.596311       -4.596311   1.000000   1.000000
     15         -3.694459       -3.694459   1.000000   1.000000
     16         -3.691943       -3.691943   1.000000   1.000000
     17         -3.193033       -3.193033   1.000000   1.000000
     18         -3.020918       -3.020918   1.000000   1.000000
     19         -2.801346       -2.801346   1.000000   1.000000
     20         -0.298722       -0.298722   1.000000   1.000000
     21         -0.084321       -0.084321   1.000000   1.000000
     22          0.005467        0.005467   1.000000   1.000000
     23          0.022609        0.022609   1.000000   1.000000
     24          0.330816        0.330816   1.000000   1.000000
     25          0.704459        0.704459   1.000000   1.000000
     26          0.733067        0.733067   1.000000   1.000000
     27          1.945367        1.945367   1.000000   1.000000
     28          2.406200        2.406200   1.000000   1.000000
     29          4.614148        4.614148   0.000000   0.000000
     30          5.100578        5.100578   0.000000   0.000000
     31          5.368629        5.368629   0.000000   0.000000
     32          5.765237        5.765237   0.000000   0.000000
     33          6.169443        6.169443   0.000000   0.000000
     34          6.647539        6.647538   0.000000   0.000000
     35          7.196072        7.196072   0.000000   0.000000
     36          7.617137        7.617137   0.000000   0.000000
     37          7.950669        7.950669   0.000000   0.000000
     38         10.881198       10.881198   0.000000   0.000000
     39         11.095391       11.095390   0.000000   0.000000
     40         11.360211       11.360211   0.000000   0.000000
     41         11.760324       11.760323   0.000000   0.000000
     42         12.034669       12.034669   0.000000   0.000000
     43         12.045101       12.045101   0.000000   0.000000
     44         12.126882       12.126882   0.000000   0.000000
     45         12.197553       12.197553   0.000000   0.000000
     46         12.544077       12.544076   0.000000   0.000000
     47         12.809135       12.809135   0.000000   0.000000
     48         12.956359       12.956359   0.000000   0.000000
 
  0.2500000E+00  0.7835902E-17  0.0000000E+00  0.1388889E-01
      1        -16.223570      -16.223570   1.000000   1.000000
      2        -13.483383      -13.483383   1.000000   1.000000
      3        -13.235657      -13.235657   1.000000   1.000000
      4        -11.823258      -11.823258   1.000000   1.000000
      5        -11.818381      -11.818381   1.000000   1.000000
      6        -10.570734      -10.570734   1.000000   1.000000
      7        -10.001632      -10.001632   1.000000   1.000000
      8         -8.889612       -8.889612   1.000000   1.000000
      9         -8.884411       -8.884411   1.000000   1.000000
     10         -7.532231       -7.532231   1.000000   1.000000
     11         -6.628297       -6.628297   1.000000   1.000000
     12         -5.662391       -5.662391   1.000000   1.000000
     13         -5.087094       -5.087094   1.000000   1.000000
     14         -4.340080       -4.340080   1.000000   1.000000
     15         -4.238154       -4.238154   1.000000   1.000000
     16         -4.232537       -4.232537   1.000000   1.000000
     17         -2.817005       -2.817005   1.000000   1.000000
     18         -2.583546       -2.583546   1.000000   1.000000
     19         -2.543716       -2.543716   1.000000   1.000000
     20         -1.052415       -1.052415   1.000000   1.000000
     21         -0.834596       -0.834596   1.000000   1.000000
     22         -0.717048       -0.717048   1.000000   1.000000
     23         -0.378468       -0.378468   1.000000   1.000000
     24         -0.099311       -0.099311   1.000000   1.000000
     25          0.573618        0.573618   1.000000   1.000000
     26          0.616109        0.616109   1.000000   1.000000
     27          1.241892        1.241892   1.000000   1.000000
     28          2.149870        2.149870   1.000000   1.000000
     29          4.565184        4.565184   0.000000   0.000000
     30          5.525742        5.525742   0.000000   0.000000
     31          5.660902        5.660902   0.000000   0.000000
     32          6.328892        6.328892   0.000000   0.000000
     33          6.968679        6.968678   0.000000   0.000000
     34          7.257008        7.257008   0.000000   0.000000
     35          7.838642        7.838642   0.000000   0.000000
     36          8.149751        8.149751   0.000000   0.000000
     37          8.573800        8.573800   0.000000   0.000000
     38         10.072915       10.072915   0.000000   0.000000
     39         10.765260       10.765260   0.000000   0.000000
     40         10.994656       10.994656   0.000000   0.000000
     41         11.484714       11.484714   0.000000   0.000000
     42         11.758841       11.758841   0.000000   0.000000
     43         12.161254       12.161254   0.000000   0.000000
     44         12.478282       12.478282   0.000000   0.000000
     45         12.581736       12.581736   0.000000   0.000000
     46         12.761871       12.761871   0.000000   0.000000
     47         12.861767       12.861767   0.000000   0.000000
     48         12.960791       12.960791   0.000000   0.000000
 
  0.7835902E-17  0.2500000E+00  0.0000000E+00  0.1388889E-01
      1        -16.223621      -16.223621   1.000000   1.000000
      2        -13.483399      -13.483399   1.000000   1.000000
      3        -13.236144      -13.236144   1.000000   1.000000
      4        -11.822145      -11.822145   1.000000   1.000000
      5        -11.818148      -11.818148   1.000000   1.000000
      6        -10.571304      -10.571304   1.000000   1.000000
      7        -10.001008      -10.001008   1.000000   1.000000
      8         -8.889289       -8.889289   1.000000   1.000000
      9         -8.885632       -8.885632   1.000000   1.000000
     10         -7.532553       -7.532553   1.000000   1.000000
     11         -6.627580       -6.627580   1.000000   1.000000
     12         -5.662667       -5.662667   1.000000   1.000000
     13         -5.087763       -5.087763   1.000000   1.000000
     14         -4.340173       -4.340173   1.000000   1.000000
     15         -4.238573       -4.238573   1.000000   1.000000
     16         -4.232506       -4.232506   1.000000   1.000000
     17         -2.816156       -2.816156   1.000000   1.000000
     18         -2.583709       -2.583709   1.000000   1.000000
     19         -2.543706       -2.543706   1.000000   1.000000
     20         -1.052059       -1.052059   1.000000   1.000000
     21         -0.835689       -0.835689   1.000000   1.000000
     22         -0.713719       -0.713719   1.000000   1.000000
     23         -0.378986       -0.378986   1.000000   1.000000
     24         -0.102607       -0.102607   1.000000   1.000000
     25          0.574162        0.574162   1.000000   1.000000
     26          0.617919        0.617919   1.000000   1.000000
     27          1.240252        1.240252   1.000000   1.000000
     28          2.152336        2.152336   1.000000   1.000000
     29          4.564439        4.564439   0.000000   0.000000
     30          5.524187        5.524187   0.000000   0.000000
     31          5.660350        5.660350   0.000000   0.000000
     32          6.332285        6.332285   0.000000   0.000000
     33          6.966564        6.966563   0.000000   0.000000
     34          7.258127        7.258127   0.000000   0.000000
     35          7.832978        7.832978   0.000000   0.000000
     36          8.151343        8.151343   0.000000   0.000000
     37          8.577207        8.577207   0.000000   0.000000
     38         10.066970       10.066970   0.000000   0.000000
     39         10.766932       10.766931   0.000000   0.000000
     40         10.991695       10.991694   0.000000   0.000000
     41         11.488043       11.488043   0.000000   0.000000
     42         11.762076       11.762076   0.000000   0.000000
     43         12.160211       12.160211   0.000000   0.000000
     44         12.477541       12.477540   0.000000   0.000000
     45         12.588292       12.588291   0.000000   0.000000
     46         12.763264       12.763264   0.000000   0.000000
     47         12.859654       12.859654   0.000000   0.000000
     48         12.959337       12.959337   0.000000   0.000000
 
 -0.2500000E+00  0.2500000E+00  0.0000000E+00  0.1388889E-01
      1        -16.223848      -16.223848   1.000000   1.000000
      2        -13.483659      -13.483659   1.000000   1.000000
      3        -13.238293      -13.238293   1.000000   1.000000
      4        -11.819095      -11.819095   1.000000   1.000000
      5        -11.815378      -11.815378   1.000000   1.000000
      6        -10.570932      -10.570932   1.000000   1.000000
      7        -10.000981      -10.000981   1.000000   1.000000
      8         -8.891243       -8.891243   1.000000   1.000000
      9         -8.886932       -8.886932   1.000000   1.000000
     10         -7.534492       -7.534492   1.000000   1.000000
     11         -6.628467       -6.628467   1.000000   1.000000
     12         -5.661410       -5.661410   1.000000   1.000000
     13         -5.086153       -5.086153   1.000000   1.000000
     14         -4.340595       -4.340595   1.000000   1.000000
     15         -4.238109       -4.238109   1.000000   1.000000
     16         -4.235442       -4.235442   1.000000   1.000000
     17         -2.811659       -2.811659   1.000000   1.000000
     18         -2.585746       -2.585746   1.000000   1.000000
     19         -2.545178       -2.545178   1.000000   1.000000
     20         -1.051340       -1.051340   1.000000   1.000000
     21         -0.839765       -0.839765   1.000000   1.000000
     22         -0.710197       -0.710197   1.000000   1.000000
     23         -0.379815       -0.379815   1.000000   1.000000