Lattice                                 
           1
     4.070319    2.350000    0.000000
    -4.070319    2.350000    0.000000
     0.000000    0.000000   15.000000
   B    C 
     4    11
Direct configuration=     1
   0.00415361  0.00267210  0.12034134
   0.35695335  0.00285503  0.09748893
   0.00423858  0.35550699  0.09749256
   0.65142295  0.65006557  0.09747688
   0.32808646  0.32671938  0.10030508
   0.68027775  0.00278085  0.10027562
   0.00416530  0.67883808  0.10026559
   0.99999933  0.49999967  0.34000000
   0.16666633  0.33333267  0.34000000
   0.99999933  0.99999967  0.34000000
   0.16666633  0.83333267  0.34000000
   0.49999933  0.49999967  0.34000000
   0.66666633  0.33333267  0.34000000
   0.49999933  0.99999967  0.34000000
   0.66666633  0.83333267  0.34000000
Lattice                                 
           1
     4.458387    2.574058    0.000018
    -4.458356    2.574005    0.000051
    -0.000062    0.000219   14.968393
   B    C 
     4    11
Direct configuration=     2
   0.00419143  0.00278339  0.12038621
   0.35693473  0.00293448  0.09753311
   0.00402421  0.35535188  0.09753579
   0.65156919  0.65002149  0.09752412
   0.32794448  0.32632860  0.10032113
   0.68062446  0.00300624  0.10029705
   0.00400257  0.67900710  0.10028838
   0.00008711  0.49999819  0.33997656
   0.16687786  0.33386304  0.34000500
   0.99999735  0.99999311  0.33987560
   0.16697734  0.83311974  0.34000713
   0.50001411  0.50009758  0.33997876
   0.66666534  0.33333700  0.33993565
   0.49991379  0.99991171  0.33997639
   0.66613670  0.83301379  0.34000514
Lattice                                 
           1
     4.197583    2.423478    0.000006
    -4.197573    2.423460    0.000017
    -0.000020    0.000072   14.989635
   B    C 
     4    11
Direct configuration=     3
   0.00416822  0.00271511  0.12035599
   0.35694616  0.00288573  0.09750336
   0.00415574  0.35544705  0.09750668
   0.65147947  0.65004854  0.09749230
   0.32803160  0.32656837  0.10031032
   0.68041173  0.00286795  0.10028262
   0.00410241  0.67890339  0.10027303
   0.00003325  0.49999910  0.33999235
   0.16674807  0.33353762  0.34000163
   0.99999856  0.99999713  0.33995938
   0.16678652  0.83325038  0.34000233
   0.50000504  0.50003750  0.33999306
   0.66666595  0.33333434  0.33997899
   0.49996628  0.99996568  0.33999229
   0.66646166  0.83320944  0.34000168
Lattice                                 
           1
     4.190728    2.419520    0.000005
    -4.190718    2.419503    0.000016
    -0.000019    0.000068   14.990193
   B    C 
     4    11
Direct configuration=     4
   0.00416758  0.00271320  0.12035520
   0.35694648  0.00288437  0.09750258
   0.00415941  0.35544971  0.09750591
   0.65147696  0.65004929  0.09749147
   0.32803403  0.32657506  0.10031003
   0.68040579  0.00286409  0.10028224
   0.00410520  0.67890050  0.10027263
   0.00003175  0.49999912  0.33999276
   0.16674445  0.33352854  0.34000155
   0.99999860  0.99999724  0.33996158
   0.16678119  0.83325403  0.34000220
   0.50000479  0.50003583  0.33999344
   0.66666597  0.33333426  0.33998012
   0.49996774  0.99996718  0.33999271
   0.66647074  0.83321491  0.34000159
Lattice                                 
           1
     4.190278    2.419260    0.000005
    -4.190268    2.419243    0.000016
    -0.000019    0.000068   14.990230
   B    C 
     4    11
Direct configuration=     5
   0.00416753  0.00271308  0.12035514
   0.35694650  0.00288428  0.09750253
   0.00415965  0.35544988  0.09750586
   0.65147680  0.65004934  0.09749141
   0.32803419  0.32657550  0.10031001
   0.68040540  0.00286383  0.10028222
   0.00410538  0.67890031  0.10027260
   0.00003165  0.49999912  0.33999279
   0.16674421  0.33352794  0.34000154
   0.99999860  0.99999725  0.33996172
   0.16678084  0.83325427  0.34000219
   0.50000477  0.50003572  0.33999346
   0.66666597  0.33333426  0.33998020
   0.49996784  0.99996728  0.33999273
   0.66647133  0.83321527  0.34000158
Lattice                                 
           1
     4.191630    2.420062    0.000025
    -4.191613    2.420033    0.000035
    -0.000019    0.000187   14.956246
   B    C 
     4    11
Direct configuration=     6
   0.00417434  0.00274612  0.11946113
   0.35606970  0.00295229  0.09781572
   0.00403251  0.35448729  0.09781771
   0.65245828  0.65090894  0.09780769
   0.32539834  0.32379786  0.10034001
   0.68316831  0.00298325  0.10031879
   0.00398776  0.68155665  0.10031138
  -0.00004105  0.49998718  0.33997918
   0.16662253  0.33323472  0.34000673
   0.00000022  0.00000197  0.33988183
   0.16661912  0.83338142  0.34000894
   0.50000924  0.49997200  0.33998140
   0.66666917  0.33333283  0.33992986
   0.50002473  0.00003935  0.33997890
   0.66676747  0.83338546  0.34000673
Lattice                                 
           1
     4.191098    2.419747    0.000017
    -4.191085    2.419723    0.000027
    -0.000019    0.000140   14.969601
   B    C 
     4    11
Direct configuration=     7
   0.00417166  0.00273313  0.11981325
   0.35641415  0.00292558  0.09769236
   0.00408246  0.35486545  0.09769488
   0.65207271  0.65057125  0.09768312
   0.32643383  0.32488906  0.10032819
   0.68208290  0.00293634  0.10030438
   0.00403397  0.68051311  0.10029610
  -0.00001249  0.49999187  0.33998454
   0.16667033  0.33334991  0.34000469
  -0.00000041  0.00000011  0.33991330
   0.16668265  0.83333147  0.34000628
   0.50000748  0.49999703  0.33998615
   0.66666791  0.33333339  0.33994969
   0.50000238  0.00001104  0.33998435
   0.66665113  0.83331860  0.34000470
Lattice                                 
           1
     4.191634    2.420070    0.000044
    -4.191618    2.420041    0.000050
    -0.000011    0.000291   14.929137
   B    C 
     4    11
Direct configuration=     8
   0.00417954  0.00276784  0.11895420
   0.35683975  0.00297711  0.09802225
   0.00398081  0.35522650  0.09802340
   0.65172882  0.65012749  0.09801618
   0.32655498  0.32490784  0.10033774
   0.68205173  0.00301836  0.10032119
   0.00394819  0.68040384  0.10031500
   0.00007770  0.50001037  0.33997111
   0.16675843  0.33359213  0.33999882
   0.00000167 -0.00000272  0.33984580
   0.16682707  0.83323930  0.34000176
   0.49999985  0.50007065  0.33997407
   0.66666531  0.33333558  0.33989508
   0.49993879 -0.00007444  0.33997069
   0.66640803  0.83316748  0.33999872
Lattice                                 
           1
     4.193242    2.421038    0.000123
    -4.193217    2.420995    0.000116
     0.000012    0.000743   14.807747
   B    C 
     4    11
Direct configuration=     9
   0.00420329  0.00287204  0.11637007
   0.35811633  0.00313167  0.09901460
   0.00367587  0.35630950  0.09901161
   0.65069725  0.64879635  0.09901807
   0.32691840  0.32496417  0.10036645
   0.68195823  0.00326436  0.10037173
   0.00369085  0.68007609  0.10037184
   0.00034823  0.50006588  0.33993070
   0.16702271  0.33431868  0.33998116
   0.00000795 -0.00001123  0.33964275
   0.16726024  0.83296283  0.33998815
   0.49997695  0.50029149  0.33993774
   0.66665752  0.33334216  0.33973081
   0.49974804 -0.00033085  0.33992960
   0.66567881  0.83271419  0.33998072
Lattice                                 
           1
     4.193914    2.421443    0.000156
    -4.193886    2.421394    0.000144
     0.000022    0.000932   14.756970
   B    C 
     4    11
Direct configuration=    10
   0.00421332  0.00291571  0.11528028
   0.35865007  0.00319625  0.09943309
   0.00354832  0.35676229  0.09942836
   0.65026589  0.64823973  0.09944060
   0.32707035  0.32498772  0.10037856
   0.68191913  0.00336722  0.10039305
   0.00358325  0.67993904  0.10039581
   0.00046135  0.50008909  0.33991366
   0.16713321  0.33462247  0.33997371
   0.00001058 -0.00001478  0.33955712
   0.16744137  0.83284722  0.33998241
   0.49996737  0.50038383  0.33992242
   0.66665427  0.33334491  0.33966153
   0.49966828 -0.00043805  0.33991228
   0.66537390  0.83252466  0.33997313
Lattice                                 
           1
     4.193881    2.421408    0.000166
    -4.193861    2.421372    0.000149
     0.000030    0.000981   14.743033
   B    C 
     4    11
Direct configuration=    11
   0.00421485  0.00292183  0.11497239
   0.35874839  0.00320381  0.09952753
   0.00353257  0.35685177  0.09952248
   0.65017996  0.64813721  0.09953582
   0.32714259  0.32504917  0.10040447
   0.68185538  0.00337342  0.10042107
   0.00357369  0.67986895  0.10042440
   0.00038010  0.50007538  0.33990868
   0.16706954  0.33443296  0.33996798
   0.00000877 -0.00001183  0.33954459
   0.16732825  0.83291809  0.33997693
   0.49997266  0.50031662  0.33991766
   0.66665887  0.33334389  0.33964740
   0.49972746 -0.00036067  0.33990722
   0.66556759  0.83264674  0.33996738
Lattice                                 
           1
     4.193782    2.421302    0.000197
    -4.193785    2.421307    0.000166
     0.000054    0.001127   14.701221
   B    C 
     4    11
Direct configuration=    12
   0.00421945  0.00294018  0.11404782
   0.35904333  0.00322650  0.09981114
   0.00348533  0.35712018  0.09980512
   0.64992215  0.64782964  0.09982175
   0.32735931  0.32523350  0.10048229
   0.68166410  0.00339201  0.10050524
   0.00354500  0.67965868  0.10051024
   0.00013635  0.50003425  0.33989371
   0.16687853  0.33386439  0.33995079
   0.00000335 -0.00000296  0.33950695
   0.16698889  0.83313068  0.33996049
   0.49998853  0.50011498  0.33990336
   0.66667268  0.33334084  0.33960498
   0.49990501 -0.00012851  0.33989203
   0.66614865  0.83301298  0.33995011
Lattice                                 
           1
     4.193584    2.421091    0.000258
    -4.193633    2.421176    0.000199
     0.000104    0.001420   14.617598
   B    C 
     4    11
Direct configuration=    13
   0.00422871  0.00297694  0.11219344
   0.35963323  0.00327185  0.10037996
   0.00339083  0.35765701  0.10037199
   0.64940650  0.64721447  0.10039523
   0.32779276  0.32560218  0.10063835
   0.68128154  0.00342918  0.10067404
   0.00348762  0.67923811  0.10068240
  -0.00035117  0.49995198  0.33986369
   0.16649648  0.33272724  0.33991632
  -0.00000748  0.00001476  0.33943146
   0.16631016  0.83355586  0.33992751
   0.50002027  0.49971171  0.33987469
   0.66670029  0.33333473  0.33951988
   0.50026011  0.00033582  0.33986156
   0.66731083  0.83374550  0.33991547
Lattice                                 
           1
     4.193646    2.421158    0.000239
    -4.193681    2.421217    0.000189
     0.000088    0.001328   14.643914
   B    C 
     4    11
Direct configuration=    14
   0.00422575  0.00296534  0.11278034
   0.35944759  0.00325758  0.10019993
   0.00342058  0.35748807  0.10019258
   0.64956880  0.64740808  0.10021373
   0.32765635  0.32548615  0.10058896
   0.68140194  0.00341749  0.10062061
   0.00350568  0.67937047  0.10062791
  -0.00019774  0.49997787  0.33987319
   0.16661672  0.33308512  0.33992723
  -0.00000408  0.00000918  0.33945535
   0.16652377  0.83342206  0.33993795
   0.50001028  0.49983862  0.33988376
   0.66669160  0.33333665  0.33954682
   0.50014835  0.00018969  0.33987121
   0.66694507  0.83351496  0.33992643
Lattice                                 
           1
     4.193382    2.421019    0.000253
    -4.193406    2.421061    0.000190
     0.000110    0.001376   14.628955
   B    C 
     4    11
Direct configuration=    15
   0.00422339  0.00295485  0.11242290
   0.35936820  0.00324101  0.10024481
   0.00345304  0.35743154  0.10023764
   0.64962110  0.64748954  0.10025840
   0.32768559  0.32556259  0.10067758
   0.68132853  0.00337332  0.10071005
   0.00354316  0.67933808  0.10071741
  -0.00014214  0.49997886  0.33986620
   0.16658785  0.33308919  0.33991365
   0.00000486  0.00000978  0.33947197
   0.16653789  0.83344020  0.33992396
   0.50002050  0.49988577  0.33987624
   0.66668342  0.33333665  0.33954820
   0.50011266  0.00014530  0.33986413
   0.66693262  0.83349066  0.33991287
Lattice                                 
           1
     4.192588    2.420604    0.000295
    -4.192581    2.420591    0.000194
     0.000176    0.001519   14.584079
   B    C 
     4    11
Direct configuration=    16
   0.00421632  0.00292338  0.11134949
   0.35913001  0.00319130  0.10037960
   0.00355042  0.35726192  0.10037295
   0.64977800  0.64773390  0.10039254
   0.32777331  0.32579192  0.10094371
   0.68110829  0.00324079  0.10097862
   0.00365559  0.67924090  0.10098618
   0.00002467  0.49998183  0.33984519
   0.16650122  0.33310140  0.33987286
   0.00003166  0.00001159  0.33952186
   0.16658028  0.83349462  0.33988195
   0.50005117  0.50002724  0.33985364
   0.66665890  0.33333666  0.33955238
   0.50000558  0.00001213  0.33984290
   0.66689526  0.83341774  0.33987214
Lattice                                 
           1
     4.191001    2.419775    0.000378
    -4.190930    2.419651    0.000203
     0.000308    0.001805   14.494327
   B    C 
     4    11
Direct configuration=    17
   0.00420226  0.00286048  0.10919605
   0.35865352  0.00309185  0.10065000
   0.00374520  0.35692261  0.10064442
   0.65009184  0.64822273  0.10066165
   0.32794876  0.32625066  0.10147761
   0.68066771  0.00297569  0.10151742
   0.00388048  0.67904650  0.10152537
   0.00035835  0.49998776  0.33980303
   0.16632793  0.33312583  0.33979105
   0.00008526  0.00001521  0.33962194
   0.16666506  0.83360348  0.33979768
   0.50011253  0.50031022  0.33980831
   0.66660983  0.33333669  0.33956075
   0.49979140 -0.00025425  0.33980030
   0.66682053  0.83327188  0.33979042
Lattice                                 
           1
     4.193557    2.420954    0.000410
    -4.193641    2.421099    0.000204
     0.000361    0.001910   14.466745
   B    C 
     4    11
Direct configuration=    18
   0.00418939  0.00282676  0.10850141
   0.35869582  0.00306051  0.10071790
   0.00382936  0.35700451  0.10071362
   0.64998804  0.64821030  0.10072719
   0.32796527  0.32633729  0.10164255
   0.68058116  0.00293597  0.10167966
   0.00393182  0.67898964  0.10168633
  -0.00004616  0.50004363  0.33978055
   0.16687851  0.33355788  0.33978564
  -0.00004403  0.00000049  0.33967405
   0.16681060  0.83320952  0.33979113
   0.49992229  0.49996596  0.33978432
   0.66673740  0.33334887  0.33959863
   0.49999506  0.00000245  0.33977791
   0.66652616  0.83327356  0.33978511
Lattice                                 
           1
     4.193258    2.420816    0.000407
    -4.193323    2.420929    0.000204
     0.000355    0.001897   14.469977
   B    C 
     4    11
Direct configuration=    19
   0.00419089  0.00283071  0.10858296
   0.35869086  0.00306418  0.10070993
   0.00381950  0.35699492  0.10070549
   0.65000020  0.64821176  0.10071950
   0.32796333  0.32632714  0.10162319
   0.68059130  0.00294063  0.10166061
   0.00392580  0.67899630  0.10166743
   0.00000122  0.50003709  0.33978319
   0.16681403  0.33350728  0.33978627
  -0.00002889  0.00000221  0.33966793
   0.16679356  0.83325565  0.33979190
   0.49994457  0.50000627  0.33978714
   0.66672246  0.33334744  0.33959419
   0.49997121 -0.00002761  0.33978054
   0.66656063  0.83327336  0.33978573
Lattice                                 
           1
     4.194219    2.421568    0.000420
    -4.194197    2.421530    0.000204
     0.000379    0.001938   14.464806
   B    C 
     4    11
Direct configuration=    20
   0.00418254  0.00281391  0.10842772
   0.35887843  0.00306727  0.10073065
   0.00383396  0.35717444  0.10072723
   0.64980096  0.64804036  0.10073806
   0.32791198  0.32624782  0.10162673
   0.68067134  0.00299024  0.10165983
   0.00389880  0.67902920  0.10166526
   0.00000068  0.49998268  0.33977707
   0.16669750  0.33344512  0.33980599
   0.00003378  0.00000963  0.33969088
   0.16673227  0.83330672  0.33981122
   0.50006355  0.50000882  0.33978045
   0.66666201  0.33334101  0.33962486
   0.50003639  0.00004166  0.33977450
   0.66655648  0.83326845  0.33980554
Lattice                                 
           1
     4.194745    2.421979    0.000427
    -4.194675    2.421859    0.000204
     0.000392    0.001960   14.461974
   B    C 
     4    11
Direct configuration=    21
   0.00417797  0.00280472  0.10834271
   0.35898108  0.00306895  0.10074200
   0.00384187  0.35727270  0.10073913
   0.64969192  0.64794656  0.10074823
   0.32788387  0.32620441  0.10162866
   0.68071514  0.00301739  0.10165940
   0.00388401  0.67904720  0.10166407
   0.00000038  0.49995290  0.33977372
   0.16663373  0.33341110  0.33981679
   0.00006809  0.00001369  0.33970345
   0.16669873  0.83333467  0.33982180
   0.50012867  0.50001022  0.33977680
   0.66662893  0.33333749  0.33964166
   0.50007207  0.00007958  0.33977120
   0.66655420  0.83326576  0.33981638
Lattice                                 
           1
     4.194741    2.421922    0.000445
    -4.194707    2.421863    0.000203
     0.000423    0.002011   14.457355
   B    C 
     4    11
Direct configuration=    22
   0.00416778  0.00278066  0.10818022
   0.35917866  0.00308000  0.10076726
   0.00384787  0.35745672  0.10076563
   0.64948604  0.64776293  0.10077063
   0.32781060  0.32608404  0.10160945
   0.68083923  0.00308703  0.10163388
   0.00384057  0.67910735  0.10163656
   0.00002551  0.49996252  0.33977649
   0.16662844  0.33336846  0.33984503
   0.00003339  0.00001105  0.33973618
   0.16672774  0.83337743  0.33984974
   0.50008162  0.50005422  0.33977906
   0.66666540  0.33334133  0.33967698
   0.49999065  0.00001796  0.33977415
   0.66663719  0.83327563  0.33984474
Lattice                                 
           1
     4.194735    2.421830    0.000473
    -4.194757    2.421870    0.000202
     0.000474    0.002091   14.450042
   B    C 
     4    11
Direct configuration=    23
   0.00415165  0.00274255  0.10792288
   0.35949145  0.00309748  0.10080725
   0.00385736  0.35774804  0.10080759
   0.64916010  0.64747222  0.10080612
   0.32769459  0.32589350  0.10157903
   0.68103567  0.00319729  0.10159346
   0.00377180  0.67920257  0.10159300
   0.00006528  0.49997776  0.33978086
   0.16662006  0.33330095  0.33988975
  -0.00002153  0.00000688  0.33978803
   0.16677366  0.83344513  0.33989398
   0.50000712  0.50012387  0.33978265
   0.66672315  0.33334742  0.33973291
   0.49986176 -0.00007958  0.33977883
   0.66676857  0.83329125  0.33988965
Lattice                                 
           1
     4.194738    2.421881    0.000457
    -4.194729    2.421866    0.000202
     0.000446    0.002046   14.454120
   B    C 
     4    11
Direct configuration=    24
   0.00416064  0.00276380  0.10806645
   0.35931703  0.00308773  0.10078494
   0.00385206  0.35758560  0.10078418
   0.64934185  0.64763432  0.10078632
   0.32775928  0.32599975  0.10159600
   0.68092613  0.00313581  0.10161601
   0.00381015  0.67914948  0.10161730
   0.00004310  0.49996926  0.33977842
   0.16662473  0.33333859  0.33986480
   0.00000910  0.00000921  0.33975910
   0.16674805  0.83340738  0.33986930
   0.50004866  0.50008503  0.33978065
   0.66669095  0.33334403  0.33970171
   0.49993363 -0.00002519  0.33977622
   0.66669531  0.83328254  0.33986460
Lattice                                 
           1
     4.193801    2.421316    0.000472
    -4.193798    2.421311    0.000202
     0.000471    0.002089   14.452033
   B    C 
     4    11
Direct configuration=    25
   0.00415644  0.00274839  0.10795753
   0.35931079  0.00309892  0.10079779
   0.00384485  0.35757121  0.10079768
   0.64934763  0.64763763  0.10079732
   0.32776471  0.32598513  0.10156890
   0.68094714  0.00315957  0.10158421
   0.00379122  0.67915289  0.10158410
   0.00005709  0.50002515  0.33980025
   0.16671746  0.33342505  0.33988288
   0.00000692  0.00000813  0.33978944
   0.16674780  0.83331872  0.33988739
   0.49999422  0.50004675  0.33980243
   0.66669276  0.33334560  0.33971520
   0.49997026 -0.00004221  0.33979815
   0.66661138  0.83328641  0.33988271
Lattice                                 
           1
     4.193392    2.421070    0.000478
    -4.193392    2.421068    0.000202
     0.000482    0.002108   14.451123
   B    C 
     4    11
Direct configuration=    26
   0.00415460  0.00274167  0.10791001
   0.35930806  0.00310380  0.10080340
   0.00384170  0.35756493  0.10080357
   0.64935015  0.64763907  0.10080212
   0.32776709  0.32597875  0.10155708
   0.68095631  0.00316994  0.10157033
   0.00378297  0.67915438  0.10156961
   0.00006320  0.50004954  0.33980977
   0.16675792  0.33346279  0.33989078
   0.00000597  0.00000766  0.33980268
   0.16674768  0.83328002  0.33989528
   0.49997046  0.50003004  0.33981194
   0.66669355  0.33334628  0.33972109
   0.49998625 -0.00004964  0.33980772
   0.66657476  0.83328809  0.33989062
Lattice                                 
           1
     4.193232    2.420994    0.000496
    -4.193213    2.420960    0.000204
     0.000510    0.002166   14.449499
   B    C 
     4    11
Direct configuration=    27
   0.00415341  0.00273522  0.10778999
   0.35922545  0.00311543  0.10080778
   0.00383044  0.35747383  0.10080846
   0.64943934  0.64771676  0.10080485
   0.32783051  0.32604182  0.10152362
   0.68089591  0.00316773  0.10153200
   0.00378031  0.67909826  0.10152986
   0.00003960  0.50000577  0.33984580
   0.16670756  0.33344566  0.33991265
   0.00002650  0.00001011  0.33983736
   0.16674474  0.83331100  0.33991732
   0.50003523  0.50003376  0.33984817
   0.66667461  0.33334413  0.33973181
   0.50000540 -0.00000326  0.33984383
   0.66657164  0.83327110  0.33991250
Lattice                                 
           1
     4.192925    2.420848    0.000530
    -4.192870    2.420751    0.000207
     0.000563    0.002278   14.446385
   B    C 
     4    11
Direct configuration=    28
   0.00415112  0.00272285  0.10755990
   0.35906707  0.00313771  0.10081619
   0.00380886  0.35729920  0.10081783
   0.64961031  0.64786570  0.10081007
   0.32795210  0.32616272  0.10145949
   0.68078013  0.00316350  0.10145851
   0.00377522  0.67899069  0.10145365
  -0.00000563  0.49992186  0.33991486
   0.16661103  0.33341283  0.33995458
   0.00006584  0.00001480  0.33990387
   0.16673911  0.83337039  0.33995957
   0.50015941  0.50004088  0.33991764
   0.66663829  0.33334001  0.33975237
   0.50004213  0.00008566  0.33991304
   0.66656567  0.83323853  0.33995443
Lattice                                 
           1
     4.193140    2.420930    0.000541
    -4.193102    2.420866    0.000209
     0.000579    0.002317   14.445392
   B    C 
     4    11
Direct configuration=    29
   0.00415114  0.00272377  0.10748367
   0.35903514  0.00314287  0.10081381
   0.00380380  0.35726251  0.10081569
   0.64964755  0.64789750  0.10080687
   0.32797533  0.32619045  0.10144082
   0.68075073  0.00315794  0.10143717
   0.00377754  0.67896503  0.10143154
  -0.00000555  0.49993138  0.33993602
   0.16662489  0.33340592  0.33997186
   0.00005188  0.00001373  0.33992324
   0.16674603  0.83337270  0.33997693
   0.50013482  0.50004296  0.33993896
   0.66665332  0.33334194  0.33976349
   0.50002471  0.00007046  0.33993424
   0.66658934  0.83324816  0.33997169
Lattice                                 
           1
     4.193783    2.421179    0.000575
    -4.193801    2.421210    0.000214
     0.000628    0.002434   14.442412
   B    C 
     4    11
Direct configuration=    30
   0.00415117  0.00272651  0.10725497
   0.35893936  0.00315836  0.10080664
   0.00378861  0.35715246  0.10080926
   0.64975927  0.64799289  0.10079729
   0.32804502  0.32627363  0.10138480
   0.68066251  0.00314128  0.10137316
   0.00378452  0.67888807  0.10136519
  -0.00000529  0.49995996  0.33999951
   0.16666646  0.33338519  0.34002367
   0.00000999  0.00001050  0.33998136
   0.16676680  0.83337963  0.34002900
   0.50006107  0.50004920  0.34000293
   0.66669839  0.33334775  0.33979686
   0.49997245  0.00002487  0.33999787
   0.66666033  0.83327704  0.34002348
Lattice                                 
           1
     4.195069    2.421675    0.000642
    -4.195198    2.421899    0.000225
     0.000725    0.002668   14.436451
   B    C 
     4    11
Direct configuration=    31
   0.00415126  0.00273200  0.10679746
   0.35874781  0.00318934  0.10079232
   0.00375823  0.35693240  0.10079642
   0.64998268  0.64818364  0.10077811
   0.32818440  0.32643996  0.10127273
   0.68048610  0.00310795  0.10124512
   0.00379846  0.67873416  0.10123246
  -0.00000479  0.50001709  0.34012652
   0.16674960  0.33334373  0.34012732
  -0.00007378  0.00000405  0.34009763
   0.16680832  0.83339349  0.34013317
   0.49991358  0.50006167  0.34013090
   0.66678853  0.33335936  0.33986362
   0.49986795 -0.00006631  0.34012515
   0.66680231  0.83333480  0.34012707
Lattice                                 
           1
     4.194223    2.421349    0.000598
    -4.194279    2.421446    0.000218
     0.000661    0.002514   14.440372
   B    C 
     4    11
Direct configuration=    32
   0.00415119  0.00272838  0.10709858
   0.35887380  0.00316897  0.10080174
   0.00377821  0.35707713  0.10080487
   0.64983573  0.64805817  0.10079073
   0.32809272  0.32633055  0.10134649
   0.68060213  0.00312987  0.10132940
   0.00378929  0.67883538  0.10131982
  -0.00000512  0.49997952  0.34004293
   0.16669492  0.33337100  0.34005910
  -0.00001868  0.00000830  0.34002110
   0.16678101  0.83338438  0.34006461
   0.50001059  0.50005348  0.34004668
   0.66672925  0.33335172  0.33981968
   0.49993669 -0.00000634  0.34004138
   0.66670893  0.83329681  0.34005889
Lattice                                 
           1
     4.194419    2.421537    0.000621
    -4.194447    2.421585    0.000223
     0.000693    0.002598   14.438461
   B    C 
     4    11
Direct configuration=    33
   0.00415216  0.00273752  0.10693989
   0.35889472  0.00316959  0.10078294
   0.00377472  0.35709369  0.10078636
   0.64981972  0.64803884  0.10077098
   0.32806469  0.32631498  0.10131682
   0.68061128  0.00311671  0.10129582
   0.00379813  0.67885225  0.10128512
   0.00004928  0.50001948  0.34007875
   0.16670829  0.33339321  0.34010401
   0.00000130  0.00001071  0.34005391
   0.16675466  0.83335107  0.34010952
   0.49999448  0.50005333  0.34008272
   0.66671095  0.33335118  0.33985821
   0.49995913 -0.00003828  0.34007721
   0.66666717  0.83330304  0.34010374
Lattice                                 
           1
     4.195007    2.422100    0.000691
    -4.194950    2.422001    0.000237
     0.000789    0.002849   14.432726
   B    C 
     4    11
Direct configuration=    34
   0.00415510  0.00276495  0.10646376
   0.35895748  0.00317145  0.10072653
   0.00376425  0.35714334  0.10073082
   0.64977168  0.64798085  0.10071169
   0.32798062  0.32626827  0.10122780
   0.68063875  0.00307724  0.10119507
   0.00382465  0.67890287  0.10118104
   0.00021245  0.50013936  0.34018623
   0.16674836  0.33345985  0.34023873
   0.00006122  0.00001793  0.34015234
   0.16667561  0.83325113  0.34024428
   0.49994614  0.50005288  0.34019086
   0.66665605  0.33334955  0.33997380
   0.50002643 -0.00013409  0.34018473
   0.66654188  0.83332174  0.34023830
Lattice                                 
           1
     4.196185    2.423228    0.000830
    -4.195958    2.422835    0.000265
     0.000982    0.003352   14.421255
   B    C 
     4    11
Direct configuration=    35
   0.00416105  0.00281984  0.10551113
   0.35908298  0.00317516  0.10061366
   0.00374331  0.35724264  0.10061970
   0.64967562  0.64786490  0.10059308
   0.32781253  0.32617487  0.10104970
   0.68069369  0.00299831  0.10099350
   0.00387769  0.67900410  0.10097277
   0.00053870  0.50037907  0.34040128
   0.16682849  0.33359310  0.34050829
   0.00018104  0.00003237  0.34034929
   0.16651753  0.83305129  0.34051391
   0.49984946  0.50005199  0.34040724
   0.66654626  0.33334629  0.34020508
   0.50016100 -0.00032570  0.34039984
   0.66629132  0.83335912  0.34050752
Lattice                                 
           1
     4.195349    2.422428    0.000731
    -4.195243    2.422243    0.000245
     0.000845    0.002995   14.429395
   B    C 
     4    11
Direct configuration=    36
   0.00415675  0.00278084  0.10618771
   0.35899394  0.00317253  0.10069383
   0.00375816  0.35717218  0.10069862
   0.64974375  0.64794715  0.10067732
   0.32793176  0.32624111  0.10117619
   0.68065470  0.00305430  0.10113666
   0.00384005  0.67893227  0.10112069
   0.00030729  0.50020904  0.34024855
   0.16677168  0.33349859  0.34031684
   0.00009606  0.00002215  0.34020941
   0.16662969  0.83319307  0.34032241
   0.49991806  0.50005263  0.34025356
   0.66662416  0.33334861  0.34004082
   0.50006555 -0.00018974  0.34024706
   0.66646909  0.83333260  0.34031631
Lattice                                 
           1
     4.195335    2.422426    0.000744
    -4.195229    2.422243    0.000248
     0.000863    0.003041   14.428321
   B    C 
     4    11
Direct configuration=    37
   0.00415704  0.00278414  0.10609876
   0.35901476  0.00317078  0.10068153
   0.00375730  0.35719356  0.10068643
   0.64972276  0.64792556  0.10066466
   0.32791527  0.32622960  0.10116038
   0.68066380  0.00304830  0.10111907
   0.00384389  0.67894571  0.10110260
   0.00029999  0.50020241  0.34026855
   0.16677033  0.33349911  0.34034198
   0.00009493  0.00002239  0.34022832
   0.16663576  0.83319734  0.34034752
   0.49992364  0.50005364  0.34027366
   0.66662633  0.33334886  0.34006405
   0.50006367 -0.00018324  0.34026707
   0.66647122  0.83332917  0.34034142
Lattice                                 
           1
     4.195293    2.422423    0.000783
    -4.195188    2.422242    0.000255
     0.000918    0.003180   14.425098
   B    C 
     4    11
Direct configuration=    38
   0.00415791  0.00279404  0.10583186
   0.35907724  0.00316554  0.10064464
   0.00375474  0.35725771  0.10064985
   0.64965981  0.64786079  0.10062666
   0.32786581  0.32619506  0.10111295
   0.68069109  0.00303030  0.10106631
   0.00385540  0.67898601  0.10104834
   0.00027808  0.50018252  0.34032856
   0.16676628  0.33350067  0.34041739
   0.00009153  0.00002313  0.34028506
   0.16665396  0.83321014  0.34042286
   0.49994036  0.50005666  0.34033394
   0.66663284  0.33334961  0.34013375
   0.50005801 -0.00016374  0.34032708