       N       E                     dE             d eps       ncg     rms          rms(c)
DAV:   1     0.268535917011E+03    0.26854E+03   -0.22611E+04  8256   0.862E+02
DAV:   2    -0.100586782117E+03   -0.36912E+03   -0.35547E+03 11680   0.210E+02
DAV:   3    -0.127294775310E+03   -0.26708E+02   -0.26356E+02 10976   0.576E+01
DAV:   4    -0.127827185757E+03   -0.53241E+00   -0.53133E+00 11376   0.934E+00
DAV:   5    -0.127843484265E+03   -0.16299E-01   -0.16295E-01 11616   0.153E+00    0.227E+01
DAV:   6    -0.943887835470E+02    0.33455E+02   -0.52823E+01  8976   0.216E+01    0.123E+01
DAV:   7    -0.105817914439E+03   -0.11429E+02   -0.12500E+01  9616   0.112E+01    0.673E+00
DAV:   8    -0.111726660532E+03   -0.59087E+01   -0.51878E+00 10176   0.680E+00    0.371E+00
DAV:   9    -0.116837628114E+03   -0.51110E+01   -0.26711E+00  9472   0.475E+00    0.248E+00
DAV:  10    -0.121094998657E+03   -0.42574E+01   -0.32772E+00  9760   0.483E+00    0.131E+00
DAV:  11    -0.122853869612E+03   -0.17589E+01   -0.13982E+00  9776   0.273E+00    0.801E-01
DAV:  12    -0.123753924562E+03   -0.90005E+00   -0.67844E-01 10064   0.184E+00    0.408E-01
DAV:  13    -0.124070729497E+03   -0.31680E+00   -0.16921E-01  9440   0.101E+00    0.193E-01
DAV:  14    -0.124122483212E+03   -0.51754E-01   -0.22321E-02  9536   0.412E-01    0.104E-01
DAV:  15    -0.124144727786E+03   -0.22245E-01   -0.11198E-02  9024   0.298E-01    0.551E-02
DAV:  16    -0.124145955976E+03   -0.12282E-02   -0.18312E-03  9104   0.183E-01    0.361E-02
DAV:  17    -0.124146782556E+03   -0.82658E-03   -0.69633E-04  8960   0.110E-01    0.150E-02
DAV:  18    -0.124146804674E+03   -0.22119E-04   -0.14060E-04  8320   0.511E-02    0.878E-03
DAV:  19    -0.124146854702E+03   -0.50027E-04   -0.38105E-05  8416   0.285E-02    0.518E-03
DAV:  20    -0.124146893531E+03   -0.38829E-04   -0.18391E-05  8704   0.182E-02    0.364E-03
DAV:  21    -0.124146937453E+03   -0.43922E-04   -0.14568E-05  8288   0.154E-02    0.244E-03
DAV:  22    -0.124146962088E+03   -0.24635E-04   -0.62757E-06  8496   0.103E-02    0.138E-03
DAV:  23    -0.124146966613E+03   -0.45251E-05   -0.18248E-06  9952   0.559E-03    0.654E-04
DAV:  24    -0.124146970163E+03   -0.35499E-05   -0.37699E-07  8528   0.236E-03    0.333E-04
DAV:  25    -0.124146971325E+03   -0.11619E-05   -0.11994E-07  8704   0.131E-03    0.186E-04
DAV:  26    -0.124146971753E+03   -0.42839E-06   -0.50887E-08  7616   0.826E-04
   1 F= -.12563493E+03 E0= -.12563190E+03  d E =-.125635E+03  mag=     0.0000
       N       E                     dE             d eps       ncg     rms          rms(c)
DAV:   1    -0.124149749188E+03   -0.27779E-02   -0.44788E-01  8448   0.184E+00    0.240E-01
DAV:   2    -0.124147507784E+03    0.22414E-02   -0.11486E-02  9952   0.311E-01    0.114E-01
DAV:   3    -0.124147054705E+03    0.45308E-03   -0.19126E-03 10304   0.118E-01    0.334E-02
DAV:   4    -0.124147038252E+03    0.16453E-04   -0.26056E-04 10368   0.404E-02    0.159E-02
DAV:   5    -0.124147036664E+03    0.15879E-05   -0.18268E-05 10464   0.128E-02    0.480E-03
DAV:   6    -0.124147037785E+03   -0.11213E-05   -0.40897E-06  9440   0.637E-03    0.190E-03
DAV:   7    -0.124147039334E+03   -0.15483E-05   -0.52347E-07  7984   0.320E-03    0.710E-04
DAV:   8    -0.124147040690E+03   -0.13559E-05   -0.57266E-07  7888   0.339E-03    0.325E-04
DAV:   9    -0.124147041937E+03   -0.12477E-05   -0.92482E-07  8656   0.422E-03    0.242E-04
DAV:  10    -0.124147042244E+03   -0.30646E-06   -0.51749E-07  7984   0.312E-03
   2 F= -.12563523E+03 E0= -.12563221E+03  d E =-.296885E-03  mag=     0.0000
       N       E                     dE             d eps       ncg     rms          rms(c)
DAV:   1    -0.124149395122E+03   -0.23532E-02   -0.10311E-01  8416   0.883E-01    0.115E-01
DAV:   2    -0.124148883818E+03    0.51130E-03   -0.26082E-03  9888   0.148E-01    0.548E-02
DAV:   3    -0.124148779559E+03    0.10426E-03   -0.45047E-04 10832   0.570E-02    0.156E-02
DAV:   4    -0.124148776134E+03    0.34254E-05   -0.61241E-05  9952   0.203E-02    0.753E-03
DAV:   5    -0.124148776186E+03   -0.52662E-07   -0.46350E-06  9616   0.765E-03
   3 F= -.12563686E+03 E0= -.12563384E+03  d E =-.192301E-02  mag=    -0.0000
       N       E                     dE             d eps       ncg     rms          rms(c)
DAV:   1    -0.124148775722E+03    0.41222E-06   -0.56961E-06  8688   0.910E-03    0.955E-04
DAV:   2    -0.124148775528E+03    0.19357E-06   -0.15555E-06  7904   0.570E-03
   4 F= -.12563686E+03 E0= -.12563384E+03  d E =-.192319E-02  mag=    -0.0000
       N       E                     dE             d eps       ncg     rms          rms(c)
DAV:   1    -0.124148776334E+03   -0.61282E-06   -0.27206E-06  8288   0.700E-03    0.502E-04
DAV:   2    -0.124148776127E+03    0.20731E-06   -0.15340E-06  7936   0.559E-03
   5 F= -.12563686E+03 E0= -.12563384E+03  d E =-.192344E-02  mag=    -0.0000
       N       E                     dE             d eps       ncg     rms          rms(c)
DAV:   1    -0.124148776605E+03   -0.27112E-06   -0.17704E-06  7968   0.590E-03    0.353E-04
DAV:   2    -0.124148776430E+03    0.17582E-06   -0.11786E-06  7904   0.484E-03
   6 F= -.12563686E+03 E0= -.12563384E+03  d E =-.192350E-02  mag=    -0.0000
       N       E                     dE             d eps       ncg     rms          rms(c)
DAV:   1    -0.124148780926E+03   -0.43203E-05   -0.40637E-03  8320   0.249E-01    0.112E-02
DAV:   2    -0.124148782183E+03   -0.12574E-05   -0.64159E-05  8768   0.329E-02    0.777E-03
DAV:   3    -0.124148781730E+03    0.45333E-06   -0.56553E-06  9232   0.114E-02
   7 F= -.12563691E+03 E0= -.12563389E+03  d E =-.506365E-04  mag=     0.0000
       N       E                     dE             d eps       ncg     rms          rms(c)
DAV:   1    -0.124148790910E+03   -0.87266E-05   -0.36688E-02  8256   0.748E-01    0.344E-02
DAV:   2    -0.124148802075E+03   -0.11165E-04   -0.56819E-04  8784   0.974E-02    0.237E-02
DAV:   3    -0.124148795685E+03    0.63904E-05   -0.46156E-05  9792   0.315E-02    0.652E-03
DAV:   4    -0.124148797577E+03   -0.18921E-05   -0.16685E-05  8496   0.179E-02    0.277E-03
DAV:   5    -0.124148803626E+03   -0.60489E-05   -0.16935E-05  8288   0.189E-02    0.794E-04
DAV:   6    -0.124148795919E+03    0.77064E-05   -0.10820E-05  8144   0.149E-02    0.436E-04
DAV:   7    -0.124148795572E+03    0.34768E-06   -0.67547E-07  7936   0.360E-03
   8 F= -.12563706E+03 E0= -.12563404E+03  d E =-.200692E-03  mag=    -0.0000
       N       E                     dE             d eps       ncg     rms          rms(c)
DAV:   1    -0.124148796932E+03   -0.10127E-05   -0.14626E-01  8256   0.149E+00    0.673E-02
DAV:   2    -0.124148847111E+03   -0.50179E-04   -0.22884E-03  8544   0.194E-01    0.467E-02
DAV:   3    -0.124148815583E+03    0.31528E-04   -0.17206E-04 10144   0.587E-02    0.131E-02
DAV:   4    -0.124148818613E+03   -0.30294E-05   -0.41379E-05  8784   0.209E-02    0.542E-03
DAV:   5    -0.124148819835E+03   -0.12227E-05   -0.14432E-06  8928   0.535E-03    0.109E-03
DAV:   6    -0.124148819822E+03    0.13102E-07   -0.78511E-07  7920   0.400E-03
   9 F= -.12563736E+03 E0= -.12563434E+03  d E =-.498302E-03  mag=    -0.0000
       N       E                     dE             d eps       ncg     rms          rms(c)
DAV:   1    -0.124148756604E+03    0.63231E-04   -0.58514E-01  8256   0.299E+00    0.135E-01
DAV:   2    -0.124148969425E+03   -0.21282E-03   -0.91687E-03  8688   0.389E-01    0.933E-02
DAV:   3    -0.124148837779E+03    0.13165E-03   -0.68533E-04 10368   0.117E-01    0.265E-02
DAV:   4    -0.124148847570E+03   -0.97912E-05   -0.16508E-04  9776   0.426E-02    0.108E-02
DAV:   5    -0.124148849062E+03   -0.14918E-05   -0.99683E-06  9488   0.149E-02    0.212E-03
DAV:   6    -0.124148848810E+03    0.25176E-06   -0.10031E-05  8128   0.143E-02    0.126E-03
DAV:   7    -0.124148849153E+03   -0.34311E-06   -0.81219E-06  8384   0.123E-02
  10 F= -.12563794E+03 E0= -.12563492E+03  d E =-.107792E-02  mag=     0.0000
       N       E                     dE             d eps       ncg     rms          rms(c)
DAV:   1    -0.124148443791E+03    0.40502E-03   -0.23396E+00  8256   0.597E+00    0.271E-01
DAV:   2    -0.124149321443E+03   -0.87765E-03   -0.36805E-02  8320   0.779E-01    0.187E-01
DAV:   3    -0.124148806028E+03    0.51542E-03   -0.26823E-03 10608   0.231E-01    0.555E-02
DAV:   4    -0.124148839013E+03   -0.32985E-04   -0.62624E-04  9840   0.812E-02    0.219E-02
DAV:   5    -0.124148837359E+03    0.16539E-05   -0.23594E-05 10496   0.218E-02    0.378E-03
DAV:   6    -0.124148837319E+03    0.39797E-07   -0.13570E-05  8336   0.168E-02    0.230E-03
DAV:   7    -0.124148846549E+03   -0.92297E-05   -0.23675E-05  8448   0.217E-02    0.127E-03
DAV:   8    -0.124148839800E+03    0.67490E-05   -0.16921E-05  8704   0.185E-02    0.984E-04
DAV:   9    -0.124148843715E+03   -0.39150E-05   -0.31662E-06  8832   0.766E-03    0.653E-04
DAV:  10    -0.124148846964E+03   -0.32499E-05   -0.21257E-06  8768   0.623E-03    0.315E-04
DAV:  11    -0.124148850902E+03   -0.39376E-05   -0.97232E-07  9040   0.365E-03    0.248E-04
DAV:  12    -0.124148851920E+03   -0.10175E-05   -0.72423E-08  8464   0.745E-04    0.190E-04
DAV:  13    -0.124148852140E+03   -0.22076E-06   -0.16155E-08  7504   0.268E-04
  11 F= -.12563905E+03 E0= -.12563604E+03  d E =-.219601E-02  mag=    -0.0000
       N       E                     dE             d eps       ncg     rms          rms(c)
DAV:   1    -0.124146698028E+03    0.21539E-02   -0.93540E+00  8256   0.119E+01    0.554E-01
DAV:   2    -0.124150532518E+03   -0.38345E-02   -0.14985E-01  8256   0.157E+00    0.375E-01
DAV:   3    -0.124148435800E+03    0.20967E-02   -0.10079E-02 10976   0.442E-01    0.130E-01
DAV:   4    -0.124148559451E+03   -0.12365E-03   -0.21650E-03  9824   0.150E-01    0.463E-02
DAV:   5    -0.124148534545E+03    0.24906E-04   -0.62763E-05 11392   0.304E-02    0.801E-03
DAV:   6    -0.124148527642E+03    0.69029E-05   -0.46671E-06  9760   0.722E-03    0.455E-03
DAV:   7    -0.124148533792E+03   -0.61501E-05   -0.24378E-06  8736   0.513E-03    0.174E-03
DAV:   8    -0.124148543383E+03   -0.95904E-05   -0.95958E-07  8576   0.282E-03    0.155E-03
DAV:   9    -0.124148550840E+03   -0.74570E-05   -0.41819E-07  8528   0.183E-03    0.664E-04
DAV:  10    -0.124148557966E+03   -0.71267E-05   -0.48530E-07  8192   0.175E-03    0.459E-04
DAV:  11    -0.124148562573E+03   -0.46070E-05   -0.26765E-07  7952   0.115E-03    0.410E-04
DAV:  12    -0.124148565485E+03   -0.29118E-05   -0.27452E-07  7888   0.108E-03    0.163E-04
DAV:  13    -0.124148565582E+03   -0.96878E-07   -0.24019E-08  8432   0.637E-04
  12 F= -.12564106E+03 E0= -.12563805E+03  d E =-.419885E-02  mag=     0.0000
       N       E                     dE             d eps       ncg     rms          rms(c)
DAV:   1    -0.124135684073E+03    0.12881E-01   -0.37331E+01  8256   0.239E+01    0.121E+00
DAV:   2    -0.124155046618E+03   -0.19363E-01   -0.63846E-01  8256   0.325E+00    0.760E-01
DAV:   3    -0.124147371819E+03    0.76748E-02   -0.35883E-02 11616   0.803E-01    0.370E-01
DAV:   4    -0.124146956216E+03    0.41560E-03   -0.64896E-03 10896   0.295E-01    0.110E-01
DAV:   5    -0.124146851991E+03    0.10423E-03   -0.34766E-04  9856   0.693E-02    0.155E-02
DAV:   6    -0.124146836730E+03    0.15261E-04   -0.35440E-05 11040   0.208E-02    0.981E-03
DAV:   7    -0.124146848691E+03   -0.11961E-04   -0.87873E-06  9184   0.103E-02    0.398E-03
DAV:   8    -0.124146879645E+03   -0.30954E-04   -0.41289E-06  9280   0.632E-03    0.379E-03
DAV:   9    -0.124146904455E+03   -0.24810E-04   -0.42379E-06  9712   0.822E-03    0.117E-03
DAV:  10    -0.124146916584E+03   -0.12129E-04   -0.46717E-06  9248   0.954E-03    0.125E-03
DAV:  11    -0.124146922003E+03   -0.54198E-05   -0.25497E-06  9632   0.725E-03    0.907E-04
DAV:  12    -0.124146928880E+03   -0.68771E-05   -0.13499E-06  9040   0.424E-03    0.392E-04
DAV:  13    -0.124146930700E+03   -0.18191E-05   -0.30663E-07  8672   0.222E-03    0.177E-04
DAV:  14    -0.124146930998E+03   -0.29809E-06   -0.10809E-07  8080   0.136E-03
  13 F= -.12564425E+03 E0= -.12564126E+03  d E =-.739054E-02  mag=     0.0000
       N       E                     dE             d eps       ncg     rms          rms(c)
DAV:   1    -0.124035724876E+03    0.11121E+00   -0.14796E+02  8256   0.475E+01    0.319E+00
DAV:   2    -0.124173708558E+03   -0.13798E+00   -0.31595E+00  8384   0.723E+00    0.164E+00
DAV:   3    -0.124147529028E+03    0.26180E-01   -0.13972E-01 11968   0.150E+00    0.116E+00
DAV:   4    -0.124139888136E+03    0.76409E-02   -0.22864E-02 11968   0.644E-01    0.284E-01
DAV:   5    -0.124139431336E+03    0.45680E-03   -0.42102E-03 11088   0.244E-01    0.628E-02
DAV:   6    -0.124139156162E+03    0.27517E-03   -0.80333E-04 10688   0.103E-01    0.191E-02
DAV:   7    -0.124139180498E+03   -0.24336E-04   -0.39884E-05 11328   0.222E-02    0.944E-03
DAV:   8    -0.124139242255E+03   -0.61757E-04   -0.28224E-05  8896   0.146E-02    0.843E-03
DAV:   9    -0.124139295729E+03   -0.53474E-04   -0.74504E-06  9536   0.720E-03    0.380E-03
DAV:  10    -0.124139338894E+03   -0.43165E-04   -0.58837E-06  9328   0.789E-03    0.403E-03
DAV:  11    -0.124139353802E+03   -0.14909E-04   -0.23990E-06 10000   0.585E-03    0.252E-03
DAV:  12    -0.124139366549E+03   -0.12746E-04   -0.19226E-06  9248   0.416E-03    0.134E-03
DAV:  13    -0.124139370764E+03   -0.42156E-05   -0.55956E-07  8816   0.300E-03    0.289E-04
DAV:  14    -0.124139372562E+03   -0.17977E-05   -0.46983E-07  8304   0.288E-03    0.130E-04
DAV:  15    -0.124139372744E+03   -0.18220E-06   -0.88703E-08  8528   0.127E-03
  14 F= -.12564742E+03 E0= -.12564451E+03  d E =-.105607E-01  mag=    -0.0000
       N       E                     dE             d eps       ncg     rms          rms(c)
DAV:   1    -0.124139372594E+03   -0.31750E-07   -0.96676E-06 10000   0.121E-02    0.554E-04
DAV:   2    -0.124139372599E+03   -0.51386E-08   -0.14054E-07  8112   0.159E-03
  15 F= -.12564742E+03 E0= -.12564451E+03  d E =-.277988E-05  mag=    -0.0000
       N       E                     dE             d eps       ncg     rms          rms(c)
DAV:   1    -0.124139372037E+03    0.55667E-06   -0.85552E-05  9456   0.362E-02    0.169E-03
DAV:   2    -0.124139372057E+03   -0.20153E-07   -0.12395E-06  8912   0.461E-03
  16 F= -.12564743E+03 E0= -.12564452E+03  d E =-.110144E-04  mag=    -0.0000
       N       E                     dE             d eps       ncg     rms          rms(c)
DAV:   1    -0.124139370885E+03    0.11521E-05   -0.34047E-04  8608   0.723E-02    0.344E-03
DAV:   2    -0.124139370975E+03   -0.90138E-07   -0.50400E-06  9184   0.920E-03
  17 F= -.12564745E+03 E0= -.12564453E+03  d E =-.274876E-04  mag=    -0.0000
       N       E                     dE             d eps       ncg     rms          rms(c)
DAV:   1    -0.124139368517E+03    0.23677E-05   -0.13683E-03  8416   0.145E-01    0.697E-03
DAV:   2    -0.124139368837E+03   -0.31959E-06   -0.20427E-05  8512   0.185E-02    0.480E-03
DAV:   3    -0.124139368665E+03    0.17155E-06   -0.16655E-06  9008   0.576E-03
  18 F= -.12564748E+03 E0= -.12564457E+03  d E =-.602997E-04  mag=    -0.0000
       N       E                     dE             d eps       ncg     rms          rms(c)
DAV:   1    -0.124139363464E+03    0.53729E-05   -0.55849E-03  8304   0.292E-01    0.136E-02
DAV:   2    -0.124139364923E+03   -0.14586E-05   -0.85117E-05  8736   0.376E-02    0.934E-03
DAV:   3    -0.124139363979E+03    0.94367E-06   -0.66253E-06  9872   0.116E-02
  19 F= -.12564754E+03 E0= -.12564463E+03  d E =-.125904E-03  mag=     0.0000
       N       E                     dE             d eps       ncg     rms          rms(c)
DAV:   1    -0.124139352264E+03    0.12658E-04   -0.22329E-02  8288   0.584E-01    0.271E-02
DAV:   2    -0.124139357962E+03   -0.56981E-05   -0.33932E-04  8768   0.752E-02    0.187E-02
DAV:   3    -0.124139354182E+03    0.37808E-05   -0.26478E-05  9600   0.231E-02    0.504E-03
DAV:   4    -0.124139354772E+03   -0.58995E-06   -0.66075E-06  8848   0.850E-03
  20 F= -.12564768E+03 E0= -.12564476E+03  d E =-.257459E-03  mag=     0.0000
       N       E                     dE             d eps       ncg     rms          rms(c)
DAV:   1    -0.124139322509E+03    0.31672E-04   -0.88841E-02  8272   0.116E+00    0.522E-02
DAV:   2    -0.124139350919E+03   -0.28410E-04   -0.13713E-03  8736   0.151E-01    0.361E-02
DAV:   3    -0.124139332627E+03    0.18291E-04   -0.10233E-04 10752   0.453E-02    0.101E-02
DAV:   4    -0.124139334954E+03   -0.23269E-05   -0.24898E-05  8496   0.167E-02    0.417E-03
DAV:   5    -0.124139335959E+03   -0.10045E-05   -0.16650E-06  8000   0.643E-03    0.874E-04
DAV:   6    -0.124139336061E+03   -0.10207E-06   -0.19367E-06  8256   0.681E-03
  21 F= -.12564794E+03 E0= -.12564503E+03  d E =-.520966E-03  mag=     0.0000
       N       E                     dE             d eps       ncg     rms          rms(c)
DAV:   1    -0.124139248447E+03    0.87511E-04   -0.35542E-01  8256   0.233E+00    0.105E-01
DAV:   2    -0.124139369677E+03   -0.12123E-03   -0.55105E-03  8480   0.302E-01    0.726E-02
DAV:   3    -0.124139289330E+03    0.80347E-04   -0.41504E-04 10480   0.913E-02    0.204E-02
DAV:   4    -0.124139296153E+03   -0.68233E-05   -0.10130E-04  9632   0.341E-02    0.837E-03
DAV:   5    -0.124139298720E+03   -0.25669E-05   -0.78988E-06  8608   0.141E-02    0.167E-03
DAV:   6    -0.124139298325E+03    0.39494E-06   -0.89602E-06  8240   0.147E-02
  22 F= -.12564847E+03 E0= -.12564556E+03  d E =-.105068E-02  mag=     0.0000
       N       E                     dE             d eps       ncg     rms          rms(c)
DAV:   1    -0.124139010072E+03    0.28865E-03   -0.14214E+00  8256   0.465E+00    0.211E-01
DAV:   2    -0.124139508723E+03   -0.49865E-03   -0.22105E-02  8256   0.605E-01    0.145E-01
DAV:   3    -0.124139198196E+03    0.31053E-03   -0.16381E-03  9824   0.181E-01    0.419E-02
DAV:   4    -0.124139219826E+03   -0.21630E-04   -0.39286E-04 10112   0.666E-02    0.168E-02
DAV:   5    -0.124139223183E+03   -0.33570E-05   -0.27082E-05  9344   0.258E-02    0.305E-03
DAV:   6    -0.124139222927E+03    0.25557E-06   -0.29463E-05  8400   0.267E-02    0.200E-03
DAV:   7    -0.124139220785E+03    0.21424E-05   -0.21813E-05  8448   0.223E-02    0.112E-03
DAV:   8    -0.124139218186E+03    0.25985E-05   -0.53500E-06  8368   0.110E-02    0.906E-04
DAV:   9    -0.124139221942E+03   -0.37561E-05   -0.30875E-07  8160   0.172E-03    0.409E-04
DAV:  10    -0.124139225218E+03   -0.32756E-05   -0.25598E-07  8240   0.152E-03    0.250E-04
DAV:  11    -0.124139227154E+03   -0.19362E-05   -0.15708E-07  8416   0.108E-03    0.274E-04
DAV:  12    -0.124139227781E+03   -0.62672E-06   -0.36723E-08  7984   0.465E-04
  23 F= -.12564954E+03 E0= -.12564663E+03  d E =-.212667E-02  mag=     0.0000
       N       E                     dE             d eps       ncg     rms          rms(c)
DAV:   1    -0.124138103870E+03    0.11233E-02   -0.56829E+00  8256   0.931E+00    0.427E-01
DAV:   2    -0.124140197491E+03   -0.20936E-02   -0.89304E-02  8256   0.122E+00    0.291E-01
DAV:   3    -0.124138967623E+03    0.12299E-02   -0.62688E-03 10864   0.351E-01    0.932E-02
DAV:   4    -0.124139052517E+03   -0.84894E-04   -0.14030E-03 10272   0.120E-01    0.346E-02
DAV:   5    -0.124139039842E+03    0.12675E-04   -0.38903E-05 11040   0.241E-02    0.607E-03
DAV:   6    -0.124139035593E+03    0.42490E-05   -0.37426E-06 10288   0.643E-03    0.346E-03
DAV:   7    -0.124139039997E+03   -0.44034E-05   -0.16436E-06  8368   0.432E-03    0.166E-03
DAV:   8    -0.124139046492E+03   -0.64951E-05   -0.70842E-07  8480   0.297E-03    0.111E-03
DAV:   9    -0.124139051739E+03   -0.52470E-05   -0.85102E-07  8704   0.357E-03    0.404E-04
DAV:  10    -0.124139055972E+03   -0.42331E-05   -0.82006E-07  8544   0.350E-03    0.455E-04
DAV:  11    -0.124139059072E+03   -0.31003E-05   -0.34582E-07  8464   0.191E-03    0.322E-04
DAV:  12    -0.124139060731E+03   -0.16592E-05   -0.13300E-07  8160   0.876E-04    0.126E-04
DAV:  13    -0.124139060841E+03   -0.10944E-06   -0.15997E-08  8240   0.485E-04
  24 F= -.12565172E+03 E0= -.12564881E+03  d E =-.430088E-02  mag=    -0.0000
       N       E                     dE             d eps       ncg     rms          rms(c)
DAV:   1    -0.124133470758E+03    0.55900E-02   -0.22699E+01  8256   0.186E+01    0.901E-01
DAV:   2    -0.124143535467E+03   -0.10065E-01   -0.37147E-01  8256   0.248E+00    0.587E-01
DAV:   3    -0.124138622944E+03    0.49125E-02   -0.22588E-02 11008   0.649E-01    0.248E-01
DAV:   4    -0.124138673962E+03   -0.51018E-04   -0.43975E-03 11008   0.228E-01    0.784E-02
DAV:   5    -0.124138629617E+03    0.44345E-04   -0.16463E-04 10304   0.487E-02    0.105E-02
DAV:   6    -0.124138622723E+03    0.68945E-05   -0.88118E-06 12144   0.995E-03    0.775E-03
DAV:   7    -0.124138637331E+03   -0.14608E-04   -0.84332E-06  8800   0.946E-03    0.432E-03
DAV:   8    -0.124138654149E+03   -0.16818E-04   -0.17059E-06  9152   0.388E-03    0.185E-03
DAV:   9    -0.124138668785E+03   -0.14636E-04   -0.13506E-06  9232   0.357E-03    0.737E-04
DAV:  10    -0.124138678065E+03   -0.92796E-05   -0.13769E-06  9408   0.448E-03    0.807E-04
DAV:  11    -0.124138681748E+03   -0.36833E-05   -0.78074E-07  9280   0.382E-03    0.636E-04
DAV:  12    -0.124138685743E+03   -0.39950E-05   -0.40032E-07  8000   0.186E-03    0.219E-04
DAV:  13    -0.124138686662E+03   -0.91904E-06   -0.92846E-08  8656   0.104E-03
  25 F= -.12565623E+03 E0= -.12565331E+03  d E =-.880701E-02  mag=     0.0000
       N       E                     dE             d eps       ncg     rms          rms(c)
DAV:   1    -0.124095006984E+03    0.43679E-01   -0.90286E+01  8256   0.371E+01    0.218E+00
DAV:   2    -0.124157170605E+03   -0.62164E-01   -0.17115E+00  8256   0.534E+00    0.122E+00
DAV:   3    -0.124140677652E+03    0.16493E-01   -0.82996E-02 11744   0.118E+00    0.763E-01
DAV:   4    -0.124137992791E+03    0.26849E-02   -0.14070E-02 11776   0.481E-01    0.196E-01
DAV:   5    -0.124137759917E+03    0.23287E-03   -0.15386E-03 11232   0.149E-01    0.345E-02
DAV:   6    -0.124137642527E+03    0.11739E-03   -0.36297E-04 10432   0.693E-02    0.154E-02
DAV:   7    -0.124137666633E+03   -0.24106E-04   -0.17805E-05 10832   0.146E-02    0.645E-03
DAV:   8    -0.124137717447E+03   -0.50814E-04   -0.16625E-05  8736   0.111E-02    0.597E-03
DAV:   9    -0.124137754073E+03   -0.36626E-04   -0.50067E-06  9552   0.697E-03    0.259E-03
DAV:  10    -0.124137782457E+03   -0.28383E-04   -0.58923E-06  9360   0.909E-03    0.276E-03
DAV:  11    -0.124137791229E+03   -0.87728E-05   -0.21709E-06  9968   0.603E-03    0.191E-03
DAV:  12    -0.124137799012E+03   -0.77828E-05   -0.10818E-06  8928   0.342E-03    0.960E-04
DAV:  13    -0.124137801353E+03   -0.23413E-05   -0.39687E-07  9376   0.263E-03    0.435E-04
DAV:  14    -0.124137802495E+03   -0.11416E-05   -0.17214E-07  7904   0.161E-03    0.944E-05
DAV:  15    -0.124137802919E+03   -0.42421E-06   -0.26794E-08  8592   0.445E-04
  26 F= -.12566595E+03 E0= -.12566303E+03  d E =-.185284E-01  mag=    -0.0000
       N       E                     dE             d eps       ncg     rms          rms(c)
DAV:   1    -0.123639316838E+03    0.49849E+00   -0.35315E+02  8256   0.735E+01    0.706E+00
DAV:   2    -0.124228586591E+03   -0.58927E+00   -0.10204E+01  8288   0.129E+01    0.305E+00
DAV:   3    -0.124167889318E+03    0.60697E-01   -0.37470E-01 11904   0.239E+00    0.251E+00
DAV:   4    -0.124135884203E+03    0.32005E-01   -0.63332E-02 10272   0.112E+00    0.594E-01
DAV:   5    -0.124135553546E+03    0.33066E-03   -0.22309E-02 11760   0.525E-01    0.175E-01
DAV:   6    -0.124134886641E+03    0.66691E-03   -0.20238E-03 10320   0.166E-01    0.250E-02
DAV:   7    -0.124134880048E+03    0.65928E-05   -0.15029E-04 11616   0.436E-02    0.145E-02
DAV:   8    -0.124134971871E+03   -0.91823E-04   -0.38713E-05  8656   0.181E-02    0.744E-03
DAV:   9    -0.124135074172E+03   -0.10230E-03   -0.26058E-05  9232   0.125E-02    0.678E-03
DAV:  10    -0.124135120213E+03   -0.46041E-04   -0.49702E-06  9440   0.584E-03    0.313E-03
DAV:  11    -0.124135155049E+03   -0.34836E-04   -0.44320E-06  9168   0.458E-03    0.243E-03
DAV:  12    -0.124135170370E+03   -0.15321E-04   -0.17928E-06  9744   0.276E-03    0.130E-03
DAV:  13    -0.124135176798E+03   -0.64282E-05   -0.45372E-07  8512   0.169E-03    0.480E-04
DAV:  14    -0.124135179340E+03   -0.25421E-05   -0.14946E-07  8848   0.115E-03    0.156E-04
DAV:  15    -0.124135180365E+03   -0.10250E-05   -0.55815E-08  8416   0.700E-04    0.105E-04
DAV:  16    -0.124135180842E+03   -0.47669E-06   -0.24367E-08  8400   0.364E-04
  27 F= -.12568838E+03 E0= -.12568546E+03  d E =-.409590E-01  mag=    -0.0000
       N       E                     dE             d eps       ncg     rms          rms(c)
DAV:   1    -0.118170583748E+03    0.59646E+01   -0.12951E+03  8256   0.141E+02    0.311E+01
DAV:   2    -0.124701852613E+03   -0.65313E+01   -0.81914E+01  8320   0.357E+01    0.121E+01
DAV:   3    -0.124391038015E+03    0.31081E+00   -0.20257E+00 10528   0.548E+00    0.978E+00
DAV:   4    -0.124128518585E+03    0.26252E+00   -0.47920E-01 10656   0.285E+00    0.256E+00
DAV:   5    -0.124126285646E+03    0.22329E-02   -0.13082E-01 11632   0.124E+00    0.279E-01
DAV:   6    -0.124123900676E+03    0.23850E-02   -0.69141E-03 10912   0.321E-01    0.702E-02
DAV:   7    -0.124123778616E+03    0.12206E-03   -0.49198E-04 11376   0.815E-02    0.779E-02
DAV:   8    -0.124123841945E+03   -0.63329E-04   -0.30048E-04  9040   0.542E-02    0.316E-02
DAV:   9    -0.124123971389E+03   -0.12944E-03   -0.51516E-05  9424   0.203E-02    0.257E-02
DAV:  10    -0.124124092904E+03   -0.12151E-03   -0.33335E-05  9008   0.157E-02    0.588E-03
DAV:  11    -0.124124135780E+03   -0.42877E-04   -0.51120E-06  9344   0.547E-03    0.475E-03
DAV:  12    -0.124124183703E+03   -0.47923E-04   -0.10801E-05  8944   0.720E-03    0.214E-03
DAV:  13    -0.124124197234E+03   -0.13531E-04   -0.16812E-06 10272   0.339E-03    0.124E-03
DAV:  14    -0.124124202572E+03   -0.53385E-05   -0.34397E-07  9152   0.163E-03    0.495E-04
DAV:  15    -0.124124204691E+03   -0.21190E-05   -0.78687E-08  9296   0.789E-04    0.248E-04
DAV:  16    -0.124124206128E+03   -0.14373E-05   -0.62687E-08  8560   0.583E-04    0.912E-05
DAV:  17    -0.124124206714E+03   -0.58565E-06   -0.23174E-08  8656   0.313E-04
  28 F= -.12574724E+03 E0= -.12574431E+03  d E =-.998246E-01  mag=     0.0000
       N       E                     dE             d eps       ncg     rms          rms(c)
DAV:   1    -0.747035045501E+02    0.49421E+02   -0.38064E+03  8256   0.234E+02    0.666E+01
DAV:   2    -0.126802750983E+03   -0.52099E+02   -0.57165E+02  8256   0.892E+01    0.262E+01
DAV:   3    -0.125665321720E+03    0.11374E+01   -0.14756E+01 10320   0.147E+01    0.208E+01
DAV:   4    -0.124016974722E+03    0.16483E+01   -0.29156E+00 10256   0.638E+00    0.585E+00
DAV:   5    -0.123969492442E+03    0.47482E-01   -0.53144E-01 12064   0.251E+00    0.106E+00
DAV:   6    -0.123967994192E+03    0.14982E-02   -0.21986E-02 11456   0.585E-01    0.480E-01
DAV:   7    -0.123968075625E+03   -0.81433E-04   -0.33807E-03 10640   0.222E-01    0.166E-01
DAV:   8    -0.123967964678E+03    0.11095E-03   -0.50071E-04 11744   0.776E-02    0.219E-02
DAV:   9    -0.123968002082E+03   -0.37404E-04   -0.10755E-04 10608   0.321E-02    0.399E-02
DAV:  10    -0.123968051652E+03   -0.49570E-04   -0.31708E-05 10320   0.173E-02    0.122E-02
DAV:  11    -0.123968143406E+03   -0.91754E-04   -0.41514E-05  9952   0.159E-02    0.601E-03
DAV:  12    -0.123968193850E+03   -0.50444E-04   -0.16308E-05 10240   0.939E-03    0.487E-03
DAV:  13    -0.123968214842E+03   -0.20992E-04   -0.77225E-06  9920   0.759E-03    0.184E-03
DAV:  14    -0.123968219300E+03   -0.44578E-05   -0.70739E-07  9920   0.261E-03    0.157E-03
DAV:  15    -0.123968223394E+03   -0.40943E-05   -0.33145E-07  9200   0.172E-03    0.495E-04
DAV:  16    -0.123968225946E+03   -0.25523E-05   -0.13538E-07  9200   0.101E-03    0.928E-04
DAV:  17    -0.123968228232E+03   -0.22860E-05   -0.11238E-07  9280   0.792E-04    0.429E-04
DAV:  18    -0.123968229683E+03   -0.14502E-05   -0.94626E-08  9136   0.662E-04    0.130E-04
DAV:  19    -0.123968230169E+03   -0.48650E-06   -0.20559E-08  8448   0.316E-04
  29 F= -.12584436E+03 E0= -.12584154E+03  d E =-.196945E+00  mag=    -0.0000
       N       E                     dE             d eps       ncg     rms          rms(c)
DAV:   1    -0.119383394470E+03    0.45848E+01   -0.11649E+03  8256   0.134E+02    0.273E+01
DAV:   2    -0.124564177227E+03   -0.51808E+01   -0.66488E+01  8384   0.326E+01    0.106E+01
DAV:   3    -0.124301431347E+03    0.26275E+00   -0.16955E+00 12192   0.502E+00    0.880E+00
DAV:   4    -0.124088575334E+03    0.21286E+00   -0.43794E-01 10976   0.270E+00    0.211E+00
DAV:   5    -0.124089582459E+03   -0.10071E-02   -0.11501E-01 11552   0.116E+00    0.209E-01
DAV:   6    -0.124087519040E+03    0.20634E-02   -0.69834E-03 10976   0.314E-01    0.998E-02
DAV:   7    -0.124087362224E+03    0.15682E-03   -0.55084E-04 11296   0.877E-02    0.763E-02
DAV:   8    -0.124087358507E+03    0.37169E-05   -0.16527E-04  9440   0.466E-02    0.592E-02
DAV:   9    -0.124087452711E+03   -0.94205E-04   -0.56697E-05 10064   0.223E-02    0.396E-02
DAV:  10    -0.124087585769E+03   -0.13306E-03   -0.31368E-05  9632   0.174E-02    0.713E-03
DAV:  11    -0.124087742198E+03   -0.15643E-03   -0.11302E-05 10096   0.977E-03    0.106E-02
DAV:  12    -0.124087778302E+03   -0.36104E-04   -0.11548E-06  8672   0.376E-03    0.806E-03
DAV:  13    -0.124087819072E+03   -0.40770E-04   -0.81605E-07  9472   0.340E-03    0.151E-03
DAV:  14    -0.124087834751E+03   -0.15679E-04   -0.41049E-07  9568   0.247E-03    0.237E-03
DAV:  15    -0.124087839680E+03   -0.49293E-05   -0.15233E-07  9184   0.127E-03    0.731E-04
DAV:  16    -0.124087841813E+03   -0.21326E-05   -0.47843E-08  8768   0.636E-04    0.264E-04
DAV:  17    -0.124087842260E+03   -0.44716E-06   -0.18425E-08  8880   0.442E-04
  30 F= -.12582352E+03 E0= -.12582066E+03  d E =-.176098E+00  mag=    -0.0000
       N       E                     dE             d eps       ncg     rms          rms(c)
DAV:   1    -0.123578578818E+03    0.50926E+00   -0.34104E+02  8256   0.726E+01    0.681E+00
DAV:   2    -0.124132656605E+03   -0.55408E+00   -0.98207E+00  8896   0.127E+01    0.296E+00
DAV:   3    -0.124075828133E+03    0.56828E-01   -0.36242E-01 11408   0.235E+00    0.242E+00
DAV:   4    -0.124045282117E+03    0.30546E-01   -0.61937E-02 11296   0.109E+00    0.572E-01
DAV:   5    -0.124044776644E+03    0.50547E-03   -0.19560E-02 11968   0.498E-01    0.167E-01
DAV:   6    -0.124044217318E+03    0.55933E-03   -0.19419E-03 10336   0.165E-01    0.223E-02
DAV:   7    -0.124044241831E+03   -0.24513E-04   -0.14554E-04 11520   0.431E-02    0.138E-02
DAV:   8    -0.124044336278E+03   -0.94447E-04   -0.43690E-05  8832   0.199E-02    0.560E-03
DAV:   9    -0.124044391963E+03   -0.55685E-04   -0.12521E-05 10352   0.923E-03    0.608E-03
DAV:  10    -0.124044449195E+03   -0.57232E-04   -0.11989E-05  8640   0.782E-03    0.286E-03
DAV:  11    -0.124044465668E+03   -0.16474E-04   -0.27106E-06 10000   0.492E-03    0.170E-03
DAV:  12    -0.124044472161E+03   -0.64930E-05   -0.80187E-07  8576   0.322E-03    0.114E-03
DAV:  13    -0.124044478067E+03   -0.59052E-05   -0.63493E-07  8784   0.210E-03    0.943E-04
DAV:  14    -0.124044479748E+03   -0.16819E-05   -0.12541E-07  9264   0.113E-03    0.291E-04
DAV:  15    -0.124044480314E+03   -0.56591E-06   -0.32462E-08  9104   0.741E-04
  31 F= -.12584884E+03 E0= -.12584613E+03  d E =-.201418E+00  mag=    -0.0000
       N       E                     dE             d eps       ncg     rms          rms(c)
DAV:   1    -0.124017065723E+03    0.27414E-01   -0.30562E+01  8256   0.218E+01    0.107E+00
DAV:   2    -0.124031090892E+03   -0.14025E-01   -0.51358E-01  9088   0.292E+00    0.685E-01
DAV:   3    -0.124025067679E+03    0.60232E-02   -0.29972E-02 10816   0.737E-01    0.315E-01
DAV:   4    -0.124024946588E+03    0.12109E-03   -0.57102E-03 11552   0.265E-01    0.940E-02
DAV:   5    -0.124024904531E+03    0.42056E-04   -0.22982E-04 10720   0.602E-02    0.131E-02
DAV:   6    -0.124024893588E+03    0.10944E-04   -0.24944E-05 12320   0.179E-02    0.942E-03
DAV:   7    -0.124024904601E+03   -0.11013E-04   -0.84699E-06  9824   0.107E-02    0.266E-03
DAV:   8    -0.124024922260E+03   -0.17659E-04   -0.48176E-06  8720   0.678E-03    0.369E-03
DAV:   9    -0.124024938423E+03   -0.16164E-04   -0.23103E-06  9312   0.485E-03    0.107E-03
DAV:  10    -0.124024945616E+03   -0.71926E-05   -0.89317E-07  9216   0.355E-03    0.902E-04
DAV:  11    -0.124024949462E+03   -0.38457E-05   -0.39950E-07  8928   0.251E-03    0.610E-04
DAV:  12    -0.124024952575E+03   -0.31135E-05   -0.28956E-07  8576   0.139E-03    0.404E-04
DAV:  13    -0.124024953519E+03   -0.94368E-06   -0.57971E-08  9648   0.633E-04
  32 F= -.12585158E+03 E0= -.12584887E+03  d E =-.204163E+00  mag=    -0.0000
       N       E                     dE             d eps       ncg     rms          rms(c)
DAV:   1    -0.123746633311E+03    0.27832E+00   -0.22742E+02  8256   0.594E+01    0.458E+00
DAV:   2    -0.124020147735E+03   -0.27351E+00   -0.55887E+00  8928   0.960E+00    0.217E+00
DAV:   3    -0.123983396999E+03    0.36751E-01   -0.22996E-01 11520   0.189E+00    0.166E+00
DAV:   4    -0.123967885816E+03    0.15511E-01   -0.36888E-02 12192   0.825E-01    0.396E-01
DAV:   5    -0.123967173564E+03    0.71225E-03   -0.86556E-03 12160   0.349E-01    0.116E-01
DAV:   6    -0.123966779520E+03    0.39404E-03   -0.12718E-03 10240   0.136E-01    0.188E-02
DAV:   7    -0.123966811185E+03   -0.31665E-04   -0.12424E-04 11040   0.395E-02    0.117E-02
DAV:   8    -0.123966892902E+03   -0.81716E-04   -0.39232E-05  9984   0.215E-02    0.551E-03
DAV:   9    -0.123966923251E+03   -0.30350E-04   -0.10453E-05 11520   0.867E-03    0.489E-03
DAV:  10    -0.123966973409E+03   -0.50158E-04   -0.10191E-05  9248   0.753E-03    0.208E-03
DAV:  11    -0.123966988197E+03   -0.14787E-04   -0.28326E-06  9728   0.534E-03    0.147E-03
DAV:  12    -0.123966994401E+03   -0.62040E-05   -0.98587E-07  9296   0.374E-03    0.110E-03
DAV:  13    -0.123966997744E+03   -0.33435E-05   -0.36854E-07  9584   0.207E-03    0.698E-04
DAV:  14    -0.123967000025E+03   -0.22807E-05   -0.27563E-07  9328   0.137E-03    0.244E-04
DAV:  15    -0.123967000421E+03   -0.39654E-06   -0.37024E-08  9584   0.831E-04
  33 F= -.12585923E+03 E0= -.12585637E+03  d E =-.764445E-02  mag=    -0.0000
       N       E                     dE             d eps       ncg     rms          rms(c)
DAV:   1    -0.123985667267E+03   -0.18667E-01   -0.21916E+01  8256   0.184E+01    0.899E-01
DAV:   2    -0.123994165883E+03   -0.84986E-02   -0.35131E-01  9216   0.243E+00    0.575E-01
DAV:   3    -0.123989985894E+03    0.41800E-02   -0.22358E-02 11296   0.642E-01    0.250E-01
DAV:   4    -0.123990125996E+03   -0.14010E-03   -0.43484E-03 10240   0.223E-01    0.843E-02
DAV:   5    -0.123990116749E+03    0.92470E-05   -0.15060E-04 11328   0.524E-02    0.110E-02
DAV:   6    -0.123990112601E+03    0.41483E-05   -0.18844E-05 10192   0.156E-02    0.813E-03
DAV:   7    -0.123990115085E+03   -0.24841E-05   -0.45281E-06  8960   0.896E-03    0.199E-03
DAV:   8    -0.123990123579E+03   -0.84940E-05   -0.30375E-06  8256   0.626E-03    0.304E-03
DAV:   9    -0.123990134045E+03   -0.10467E-04   -0.18297E-06  8048   0.540E-03    0.107E-03
DAV:  10    -0.123990141386E+03   -0.73402E-05   -0.11925E-06  8976   0.550E-03    0.780E-04
DAV:  11    -0.123990147549E+03   -0.61637E-05   -0.52060E-07  8672   0.354E-03    0.608E-04
DAV:  12    -0.123990152322E+03   -0.47726E-05   -0.13202E-07  9456   0.132E-03    0.348E-04
DAV:  13    -0.123990154073E+03   -0.17508E-05   -0.36917E-08  9376   0.626E-04    0.147E-04
DAV:  14    -0.123990154516E+03   -0.44363E-06   -0.91418E-09  8720   0.383E-04
  34 F= -.12586159E+03 E0= -.12585877E+03  d E =-.100040E-01  mag=    -0.0000
       N       E                     dE             d eps       ncg     rms          rms(c)
DAV:   1    -0.124011573385E+03   -0.21419E-01   -0.31581E+00  8256   0.702E+00    0.320E-01
DAV:   2    -0.124012765677E+03   -0.11923E-02   -0.50296E-02  9152   0.919E-01    0.218E-01
DAV:   3    -0.124012097459E+03    0.66822E-03   -0.37790E-03 11456   0.272E-01    0.722E-02
DAV:   4    -0.124012154454E+03   -0.56995E-04   -0.86720E-04  9568   0.986E-02    0.307E-02
DAV:   5    -0.124012159319E+03   -0.48649E-05   -0.31362E-05 11936   0.230E-02    0.628E-03
DAV:   6    -0.124012158059E+03    0.12602E-05   -0.60282E-06 10704   0.940E-03    0.268E-03
DAV:   7    -0.124012158285E+03   -0.22593E-06   -0.68286E-07  8032   0.355E-03
  35 F= -.12587603E+03 E0= -.12587323E+03  d E =-.144472E-01  mag=    -0.0000
       N       E                     dE             d eps       ncg     rms          rms(c)
DAV:   1    -0.124047971478E+03   -0.35813E-01   -0.28369E+01  8256   0.210E+01    0.104E+00
DAV:   2    -0.124061233415E+03   -0.13262E-01   -0.47526E-01  9280   0.283E+00    0.662E-01
DAV:   3    -0.124055656036E+03    0.55774E-02   -0.29689E-02 11552   0.739E-01    0.310E-01
DAV:   4    -0.124055721244E+03   -0.65208E-04   -0.56165E-03 10752   0.262E-01    0.108E-01
DAV:   5    -0.124055704177E+03    0.17067E-04   -0.25456E-04 11264   0.667E-02    0.158E-02
DAV:   6    -0.124055698864E+03    0.53132E-05   -0.44140E-05 10560   0.252E-02    0.900E-03
DAV:   7    -0.124055700248E+03   -0.13836E-05   -0.62259E-06  9824   0.106E-02    0.460E-03
DAV:   8    -0.124055711385E+03   -0.11137E-04   -0.60643E-06  9072   0.102E-02    0.283E-03
DAV:   9    -0.124055723699E+03   -0.12314E-04   -0.32079E-06  8608   0.718E-03    0.268E-03
DAV:  10    -0.124055735129E+03   -0.11430E-04   -0.22546E-06  9104   0.724E-03    0.110E-03
DAV:  11    -0.124055742294E+03   -0.71645E-05   -0.12136E-06  9264   0.534E-03    0.777E-04
DAV:  12    -0.124055750131E+03   -0.78376E-05   -0.32565E-07  9424   0.233E-03    0.584E-04
DAV:  13    -0.124055754251E+03   -0.41196E-05   -0.93040E-08  8992   0.108E-03    0.258E-04
DAV:  14    -0.124055755283E+03   -0.10319E-05   -0.26912E-08  8992   0.644E-04    0.152E-04
DAV:  15    -0.124055755764E+03   -0.48092E-06   -0.90430E-09  8400   0.341E-04
  36 F= -.12589732E+03 E0= -.12589456E+03  d E =-.357306E-01  mag=    -0.0000
       N       E                     dE             d eps       ncg     rms          rms(c)
DAV:   1    -0.124059271224E+03   -0.35159E-02   -0.62661E-01  8256   0.313E+00    0.141E-01
DAV:   2    -0.124059491618E+03   -0.22039E-03   -0.99896E-03  9024   0.409E-01    0.972E-02
DAV:   3    -0.124059372825E+03    0.11879E-03   -0.76652E-04 11520   0.123E-01    0.300E-02
DAV:   4    -0.124059383873E+03   -0.11048E-04   -0.18244E-04  9024   0.454E-02    0.132E-02
DAV:   5    -0.124059386332E+03   -0.24583E-05   -0.65231E-06 11456   0.106E-02    0.276E-03
DAV:   6    -0.124059386089E+03    0.24257E-06   -0.15043E-06  9840   0.482E-03
  37 F= -.12589768E+03 E0= -.12589493E+03  d E =-.360948E-01  mag=     0.0000
       N       E                     dE             d eps       ncg     rms          rms(c)
DAV:   1    -0.124060218381E+03   -0.83205E-03   -0.90597E-03  8800   0.390E-01    0.181E-02
DAV:   2    -0.124060222379E+03   -0.39978E-05   -0.12085E-04 11808   0.436E-02    0.119E-02
DAV:   3    -0.124060220421E+03    0.19576E-05   -0.94355E-06 10128   0.133E-02    0.294E-03
DAV:   4    -0.124060220792E+03   -0.37125E-06   -0.15959E-06  9440   0.470E-03
  38 F= -.12589845E+03 E0= -.12589570E+03  d E =-.773535E-03  mag=     0.0000
       N       E                     dE             d eps       ncg     rms          rms(c)
DAV:   1    -0.124061834355E+03   -0.16139E-02   -0.81516E-02  8864   0.117E+00    0.541E-02
DAV:   2    -0.124061870633E+03   -0.36278E-04   -0.10872E-03 12000   0.131E-01    0.356E-02
DAV:   3    -0.124061850145E+03    0.20488E-04   -0.84922E-05 10848   0.399E-02    0.889E-03
DAV:   4    -0.124061851091E+03   -0.94560E-06   -0.14446E-05 10624   0.141E-02    0.394E-03
DAV:   5    -0.124061851671E+03   -0.58025E-06   -0.88269E-07  8160   0.374E-03
  39 F= -.12589990E+03 E0= -.12589714E+03  d E =-.222177E-02  mag=    -0.0000
       N       E                     dE             d eps       ncg     rms          rms(c)
DAV:   1    -0.124061144062E+03    0.70703E-03   -0.32618E-01  8960   0.234E+00    0.108E-01
DAV:   2    -0.124061291897E+03   -0.14783E-03   -0.43472E-03 11968   0.261E-01    0.712E-02
DAV:   3    -0.124061204337E+03    0.87559E-04   -0.34483E-04 11056   0.804E-02    0.175E-02
DAV:   4    -0.124061206637E+03   -0.22994E-05   -0.58484E-05 10912   0.283E-02    0.787E-03
DAV:   5    -0.124061208066E+03   -0.14295E-05   -0.38686E-06 11056   0.755E-03    0.309E-03
DAV:   6    -0.124061208097E+03   -0.30808E-07   -0.60300E-07  8032   0.381E-03
  40 F= -.12589890E+03 E0= -.12589611E+03  d E =-.121617E-02  mag=    -0.0000
       N       E                     dE             d eps       ncg     rms          rms(c)
DAV:   1    -0.124062178446E+03   -0.97038E-03   -0.15709E-01  8864   0.162E+00    0.753E-02
DAV:   2    -0.124062246298E+03   -0.67852E-04   -0.20798E-03 11984   0.181E-01    0.494E-02
DAV:   3    -0.124062204871E+03    0.41427E-04   -0.16296E-04 11040   0.553E-02    0.125E-02
DAV:   4    -0.124062206416E+03   -0.15449E-05   -0.27847E-05 10608   0.199E-02    0.553E-03
DAV:   5    -0.124062207321E+03   -0.90473E-06   -0.20152E-06  9824   0.622E-03
  41 F= -.12590015E+03 E0= -.12589738E+03  d E =-.246632E-02  mag=     0.0000
       N       E                     dE             d eps       ncg     rms          rms(c)
DAV:   1    -0.124062858895E+03   -0.65248E-03   -0.65683E-03  8416   0.331E-01    0.138E-02
DAV:   2    -0.124062859885E+03   -0.99049E-06   -0.57489E-05 11440   0.315E-02    0.877E-03
DAV:   3    -0.124062859992E+03   -0.10636E-06   -0.52650E-06  9664   0.112E-02
  42 F= -.12590076E+03 E0= -.12589799E+03  d E =-.616113E-03  mag=    -0.0000
       N       E                     dE             d eps       ncg     rms          rms(c)
DAV:   1    -0.124064585578E+03   -0.17257E-02   -0.59422E-02  8288   0.997E-01    0.420E-02
DAV:   2    -0.124064600026E+03   -0.14448E-04   -0.51685E-04 11488   0.935E-02    0.268E-02
DAV:   3    -0.124064595865E+03    0.41610E-05   -0.42127E-05  9664   0.296E-02    0.459E-03
DAV:   4    -0.124064596078E+03   -0.21366E-06   -0.99933E-06  9152   0.142E-02
  43 F= -.12590239E+03 E0= -.12589962E+03  d E =-.224323E-02  mag=    -0.0000
       N       E                     dE             d eps       ncg     rms          rms(c)
DAV:   1    -0.124067040236E+03   -0.24444E-02   -0.23730E-01  8256   0.199E+00    0.835E-02
DAV:   2    -0.124067104026E+03   -0.63791E-04   -0.20705E-03 11776   0.187E-01    0.532E-02
DAV:   3    -0.124067082233E+03    0.21794E-04   -0.16849E-04 10016   0.596E-02    0.916E-03
DAV:   4    -0.124067082133E+03    0.99774E-07   -0.41874E-05  9680   0.295E-02    0.480E-03
DAV:   5    -0.124067089294E+03   -0.71610E-05   -0.17531E-05  8832   0.204E-02    0.232E-03
DAV:   6    -0.124067079439E+03    0.98553E-05   -0.97923E-06  9568   0.150E-02    0.775E-04
DAV:   7    -0.124067078921E+03    0.51808E-06   -0.44848E-07  9008   0.333E-03
  44 F= -.12590466E+03 E0= -.12590189E+03  d E =-.451126E-02  mag=     0.0000
       N       E                     dE             d eps       ncg     rms          rms(c)
DAV:   1    -0.124067957498E+03   -0.87806E-03   -0.94829E-01  8256   0.398E+00    0.167E-01
DAV:   2    -0.124068222968E+03   -0.26547E-03   -0.82413E-03 12032   0.372E-01    0.106E-01
DAV:   3    -0.124068100267E+03    0.12270E-03   -0.64824E-04 10432   0.112E-01    0.182E-02
DAV:   4    -0.124068107959E+03   -0.76914E-05   -0.12116E-04 11040   0.388E-02    0.938E-03
DAV:   5    -0.124068109974E+03   -0.20154E-05   -0.46313E-06 12480   0.842E-03    0.283E-03
DAV:   6    -0.124068110168E+03   -0.19395E-06   -0.42927E-07  8160   0.313E-03
  45 F= -.12590527E+03 E0= -.12590250E+03  d E =-.512572E-02  mag=    -0.0000
       N       E                     dE             d eps       ncg     rms          rms(c)
DAV:   1    -0.124068309105E+03   -0.19913E-03   -0.13794E-01  8288   0.152E+00    0.635E-02
DAV:   2    -0.124068345249E+03   -0.36144E-04   -0.11923E-03 11808   0.141E-01    0.405E-02
DAV:   3    -0.124068330808E+03    0.14441E-04   -0.93780E-05 10192   0.426E-02    0.677E-03
DAV:   4    -0.124068332127E+03   -0.13193E-05   -0.17640E-05 11200   0.150E-02    0.353E-03
DAV:   5    -0.124068332926E+03   -0.79862E-06   -0.70998E-07  8528   0.409E-03
  46 F= -.12590565E+03 E0= -.12590288E+03  d E =-.550547E-02  mag=     0.0000
       N       E                     dE             d eps       ncg     rms          rms(c)
DAV:   1    -0.124069333154E+03   -0.10010E-02   -0.30435E-02  8256   0.722E-01    0.411E-02
DAV:   2    -0.124069317378E+03    0.15776E-04   -0.41597E-04 11584   0.848E-02    0.230E-02
DAV:   3    -0.124069308273E+03    0.91044E-05   -0.46811E-05 10672   0.287E-02    0.731E-03
DAV:   4    -0.124069308236E+03    0.37350E-07   -0.78583E-06  9520   0.116E-02
  47 F= -.12590662E+03 E0= -.12590387E+03  d E =-.971169E-03  mag=     0.0000
       N       E                     dE             d eps       ncg     rms          rms(c)
DAV:   1    -0.124070235549E+03   -0.92728E-03   -0.13249E-01  8256   0.151E+00    0.857E-02
DAV:   2    -0.124070174060E+03    0.61489E-04   -0.18187E-03 11616   0.177E-01    0.480E-02
DAV:   3    -0.124070134466E+03    0.39593E-04   -0.20095E-04 10944   0.593E-02    0.154E-02
DAV:   4    -0.124070133841E+03    0.62574E-06   -0.32854E-05 10272   0.229E-02    0.708E-03
DAV:   5    -0.124070134751E+03   -0.91021E-06   -0.34950E-06  8928   0.855E-03
  48 F= -.12590744E+03 E0= -.12590474E+03  d E =-.178727E-02  mag=    -0.0000
       N       E                     dE             d eps       ncg     rms          rms(c)
DAV:   1    -0.124071058862E+03   -0.92502E-03   -0.39350E-02  8256   0.772E-01    0.438E-02
DAV:   2    -0.124071046993E+03    0.11868E-04   -0.40733E-04 11296   0.829E-02    0.253E-02
DAV:   3    -0.124071037986E+03    0.90067E-05   -0.49220E-05 10032   0.302E-02    0.752E-03
DAV:   4    -0.124071037694E+03    0.29217E-06   -0.10821E-05  8912   0.156E-02    0.348E-03
DAV:   5    -0.124071038457E+03   -0.76264E-06   -0.40601E-06  8736   0.101E-02
  49 F= -.12590839E+03 E0= -.12590572E+03  d E =-.948912E-03  mag=     0.0000
       N       E                     dE             d eps       ncg     rms          rms(c)
DAV:   1    -0.124071784925E+03   -0.74723E-03   -0.15683E-01  8256   0.154E+00    0.874E-02
DAV:   2    -0.124071739724E+03    0.45200E-04   -0.16255E-03 11616   0.165E-01    0.503E-02
DAV:   3    -0.124071701951E+03    0.37774E-04   -0.18755E-04 10400   0.572E-02    0.151E-02
DAV:   4    -0.124071701051E+03    0.89936E-06   -0.33006E-05  9584   0.244E-02    0.688E-03
DAV:   5    -0.124071702200E+03   -0.11490E-05   -0.53022E-06  9136   0.114E-02    0.252E-03
DAV:   6    -0.124071702990E+03   -0.79031E-06   -0.55253E-06  8672   0.115E-02
  50 F= -.12590914E+03 E0= -.12590652E+03  d E =-.170162E-02  mag=     0.0000
       N       E                     dE             d eps       ncg     rms          rms(c)
DAV:   1    -0.124072541710E+03   -0.83951E-03   -0.36523E-02  8256   0.740E-01    0.365E-02
DAV:   2    -0.124072538991E+03    0.27189E-05   -0.26142E-04 10944   0.647E-02    0.220E-02
DAV:   3    -0.124072534929E+03    0.40622E-05   -0.24779E-05  9616   0.199E-02    0.503E-03
DAV:   4    -0.124072535271E+03   -0.34269E-06   -0.39926E-06  9776   0.872E-03
  51 F= -.12591003E+03 E0= -.12590740E+03  d E =-.887187E-03  mag=     0.0000
       N       E                     dE             d eps       ncg     rms          rms(c)
DAV:   1    -0.124074076329E+03   -0.15414E-02   -0.32850E-01  8256   0.222E+00    0.109E-01
DAV:   2    -0.124074062512E+03    0.13817E-04   -0.23376E-03 11232   0.194E-01    0.660E-02
DAV:   3    -0.124074020891E+03    0.41621E-04   -0.21985E-04 10016   0.590E-02    0.149E-02
DAV:   4    -0.124074022527E+03   -0.16366E-05   -0.32255E-05 10016   0.235E-02    0.579E-03
DAV:   5    -0.124074024374E+03   -0.18471E-05   -0.54623E-06  9504   0.113E-02    0.217E-03
DAV:   6    -0.124074024736E+03   -0.36221E-06   -0.53202E-06  9200   0.112E-02
  52 F= -.12591168E+03 E0= -.12590905E+03  d E =-.254327E-02  mag=     0.0000
       N       E                     dE             d eps       ncg     rms          rms(c)
DAV:   1    -0.124072721020E+03    0.13034E-02   -0.13129E+00  8256   0.444E+00    0.218E-01
DAV:   2    -0.124072683694E+03    0.37326E-04   -0.92813E-03 11552   0.386E-01    0.132E-01
DAV:   3    -0.124072502994E+03    0.18070E-03   -0.87671E-04 10720   0.117E-01    0.289E-02
DAV:   4    -0.124072508662E+03   -0.56683E-05   -0.11950E-04 10672   0.419E-02    0.115E-02
DAV:   5    -0.124072511506E+03   -0.28443E-05   -0.86144E-06 10304   0.119E-02    0.406E-03
DAV:   6    -0.124072512459E+03   -0.95308E-06   -0.26874E-06  9312   0.840E-03
  53 F= -.12591051E+03 E0= -.12590784E+03  d E =-.137286E-02  mag=     0.0000
       N       E                     dE             d eps       ncg     rms          rms(c)
DAV:   1    -0.124074290603E+03   -0.17791E-02   -0.63447E-01  8256   0.308E+00    0.151E-01
DAV:   2    -0.124074269725E+03    0.20878E-04   -0.44841E-03 11232   0.268E-01    0.917E-02
DAV:   3    -0.124074188402E+03    0.81323E-04   -0.42024E-04 10848   0.817E-02    0.201E-02
DAV:   4    -0.124074192994E+03   -0.45925E-05   -0.60507E-05  9728   0.321E-02    0.791E-03
DAV:   5    -0.124074196256E+03   -0.32615E-05   -0.96127E-06  9568   0.149E-02    0.292E-03
DAV:   6    -0.124074196542E+03   -0.28658E-06   -0.91568E-06  9472   0.147E-02
  54 F= -.12591196E+03 E0= -.12590932E+03  d E =-.281817E-02  mag=     0.0000
       N       E                     dE             d eps       ncg     rms          rms(c)
DAV:   1    -0.124074539225E+03   -0.34297E-03   -0.10259E-01  8544   0.134E+00    0.726E-02
DAV:   2    -0.124074507602E+03    0.31623E-04   -0.13448E-03 11408   0.150E-01    0.418E-02
DAV:   3    -0.124074476641E+03    0.30961E-04   -0.12371E-04 10304   0.467E-02    0.126E-02
DAV:   4    -0.124074476464E+03    0.17749E-06   -0.19214E-05 10000   0.178E-02    0.457E-03
DAV:   5    -0.124074477129E+03   -0.66474E-06   -0.23533E-06  9648   0.743E-03
  55 F= -.12591237E+03 E0= -.12590970E+03  d E =-.406425E-03  mag=    -0.0000
       N       E                     dE             d eps       ncg     rms          rms(c)
DAV:   1    -0.124074561101E+03   -0.84638E-04   -0.62940E-03  8368   0.332E-01    0.180E-02
DAV:   2    -0.124074558234E+03    0.28673E-05   -0.83979E-05 10448   0.383E-02    0.103E-02
DAV:   3    -0.124074556778E+03    0.14562E-05   -0.89606E-06  8432   0.139E-02    0.315E-03
DAV:   4    -0.124074557002E+03   -0.22396E-06   -0.35251E-06  8368   0.945E-03
  56 F= -.12591241E+03 E0= -.12590975E+03  d E =-.454989E-03  mag=    -0.0000
       N       E                     dE             d eps       ncg     rms          rms(c)
DAV:   1    -0.124074561547E+03   -0.47692E-05   -0.52449E-03  8976   0.304E-01    0.225E-02
DAV:   2    -0.124074548810E+03    0.12737E-04   -0.12411E-04  9504   0.464E-02    0.111E-02
DAV:   3    -0.124074546541E+03    0.22688E-05   -0.15173E-05  9760   0.161E-02    0.400E-03
DAV:   4    -0.124074546793E+03   -0.25163E-06   -0.40580E-06  8368   0.969E-03
  57 F= -.12591248E+03 E0= -.12590981E+03  d E =-.666794E-04  mag=    -0.0000
       N       E                     dE             d eps       ncg     rms          rms(c)
DAV:   1    -0.124074550711E+03   -0.41695E-05   -0.15314E-05  8320   0.181E-02    0.120E-03
DAV:   2    -0.124074550201E+03    0.51021E-06   -0.21654E-06  7488   0.731E-03
  58 F= -.12591248E+03 E0= -.12590981E+03  d E =-.664664E-04  mag=    -0.0000
       N       E                     dE             d eps       ncg     rms          rms(c)
DAV:   1    -0.124074491261E+03    0.59450E-04   -0.77563E-04  8448   0.118E-01    0.542E-03
DAV:   2    -0.124074491210E+03    0.50530E-07   -0.11334E-05  8928   0.144E-02    0.338E-03
DAV:   3    -0.124074491179E+03    0.31095E-07   -0.11743E-06  7120   0.562E-03
  59 F= -.12591250E+03 E0= -.12590984E+03  d E =-.211021E-04  mag=     0.0000
       N       E                     dE             d eps       ncg     rms          rms(c)
DAV:   1    -0.124074365915E+03    0.12530E-03   -0.23976E-03  8464   0.207E-01    0.981E-03
DAV:   2    -0.124074365892E+03    0.22635E-07   -0.33643E-05  9632   0.243E-02    0.611E-03
DAV:   3    -0.124074365659E+03    0.23261E-06   -0.31499E-06  9584   0.873E-03
  60 F= -.12591252E+03 E0= -.12590985E+03  d E =-.363914E-04  mag=    -0.0000
       N       E                     dE             d eps       ncg     rms          rms(c)
DAV:   1    -0.124074228194E+03    0.13770E-03   -0.20871E-03  8352   0.187E-01    0.944E-03
DAV:   2    -0.124074228179E+03    0.15402E-07   -0.38112E-05  8560   0.265E-02    0.621E-03
DAV:   3    -0.124074227965E+03    0.21346E-06   -0.43657E-06  9360   0.105E-02
  61 F= -.12591253E+03 E0= -.12590987E+03  d E =-.172903E-04  mag=     0.0000
       N       E                     dE             d eps       ncg     rms          rms(c)
DAV:   1    -0.124074161442E+03    0.66736E-04   -0.42298E-04  8416   0.847E-02    0.490E-03
DAV:   2    -0.124074161127E+03    0.31499E-06   -0.82826E-06  8416   0.137E-02
  62 F= -.12591254E+03 E0= -.12590987E+03  d E =-.195271E-04  mag=     0.0000
       N       E                     dE             d eps       ncg     rms          rms(c)
DAV:   1    -0.124074061208E+03    0.10023E-03   -0.81706E-04  8416   0.115E-01    0.580E-03
DAV:   2    -0.124074060922E+03    0.28546E-06   -0.14145E-05  8368   0.172E-02    0.392E-03
DAV:   3    -0.124074061384E+03   -0.46174E-06   -0.26100E-06  8128   0.851E-03
  63 F= -.12591255E+03 E0= -.12590988E+03  d E =-.142977E-04  mag=    -0.0000
       N       E                     dE             d eps       ncg     rms          rms(c)
DAV:   1    -0.124073755308E+03    0.30561E-03   -0.74773E-03  8352   0.347E-01    0.160E-02
DAV:   2    -0.124073756577E+03   -0.12695E-05   -0.11990E-04  8416   0.457E-02    0.109E-02
DAV:   3    -0.124073755983E+03    0.59454E-06   -0.10266E-05  9376   0.159E-02    0.339E-03
DAV:   4    -0.124073757008E+03   -0.10249E-05   -0.61654E-06  8416   0.122E-02    0.150E-03
DAV:   5    -0.124073755971E+03    0.10366E-05   -0.35439E-06  8304   0.896E-03    0.723E-04
DAV:   6    -0.124073755587E+03    0.38387E-06   -0.60743E-07  7840   0.369E-03
  64 F= -.12591259E+03 E0= -.12590992E+03  d E =-.507527E-04  mag=    -0.0000
       N       E                     dE             d eps       ncg     rms          rms(c)
DAV:   1    -0.124073120447E+03    0.63552E-03   -0.29827E-02  8304   0.692E-01    0.314E-02
DAV:   2    -0.124073128670E+03   -0.82229E-05   -0.47819E-04  8384   0.888E-02    0.213E-02
DAV:   3    -0.124073123237E+03    0.54336E-05   -0.33461E-05  9888   0.256E-02    0.661E-03
DAV:   4    -0.124073123902E+03   -0.66465E-06   -0.77001E-06 10096   0.917E-03
  65 F= -.12591264E+03 E0= -.12590997E+03  d E =-.104117E-03  mag=    -0.0000
       N       E                     dE             d eps       ncg     rms          rms(c)
DAV:   1    -0.124071760365E+03    0.13629E-02   -0.11925E-01  8256   0.138E+00    0.627E-02
DAV:   2    -0.124071797648E+03   -0.37283E-04   -0.19048E-03  8416   0.177E-01    0.424E-02
DAV:   3    -0.124071774944E+03    0.22704E-04   -0.13226E-04  9920   0.509E-02    0.132E-02
DAV:   4    -0.124071776810E+03   -0.18659E-05   -0.30346E-05 10528   0.182E-02    0.518E-03
DAV:   5    -0.124071777094E+03   -0.28366E-06   -0.94957E-07  8240   0.436E-03
  66 F= -.12591267E+03 E0= -.12590999E+03  d E =-.129574E-03  mag=     0.0000
       N       E                     dE             d eps       ncg     rms          rms(c)
DAV:   1    -0.124072201506E+03   -0.42470E-03   -0.11208E-02  8384   0.424E-01    0.194E-02
DAV:   2    -0.124072204625E+03   -0.31187E-05   -0.17679E-04  9408   0.541E-02    0.131E-02
DAV:   3    -0.124072203110E+03    0.15152E-05   -0.12625E-05  9888   0.157E-02    0.403E-03
DAV:   4    -0.124072203535E+03   -0.42499E-06   -0.29310E-06  8992   0.589E-03
  67 F= -.12591267E+03 E0= -.12591000E+03  d E =-.133992E-03  mag=     0.0000
       N       E                     dE             d eps       ncg     rms          rms(c)
DAV:   1    -0.124072150611E+03    0.52499E-04   -0.22598E-04  8704   0.601E-02    0.275E-03
DAV:   2    -0.124072150713E+03   -0.10260E-06   -0.38672E-06  9552   0.826E-03
  68 F= -.12591268E+03 E0= -.12591000E+03  d E =-.724295E-05  mag=     0.0000
       N       E                     dE             d eps       ncg     rms          rms(c)
DAV:   1    -0.124071990573E+03    0.16004E-03   -0.20173E-03  8320   0.180E-01    0.841E-03
DAV:   2    -0.124071991061E+03   -0.48826E-06   -0.31429E-05  9360   0.230E-02    0.576E-03
DAV:   3    -0.124071990895E+03    0.16588E-06   -0.23674E-06  9120   0.712E-03
  69 F= -.12591270E+03 E0= -.12591002E+03  d E =-.276508E-04  mag=    -0.0000
       N       E                     dE             d eps       ncg     rms          rms(c)
DAV:   1    -0.124071667359E+03    0.32370E-03   -0.81782E-03  8336   0.361E-01    0.166E-02
DAV:   2    -0.124071669643E+03   -0.22831E-05   -0.12739E-04  8480   0.460E-02    0.113E-02
DAV:   3    -0.124071668551E+03    0.10912E-05   -0.91427E-06  9344   0.138E-02    0.345E-03
DAV:   4    -0.124071668860E+03   -0.30829E-06   -0.26861E-06  8448   0.693E-03
  70 F= -.12591274E+03 E0= -.12591006E+03  d E =-.662120E-04  mag=    -0.0000
       N       E                     dE             d eps       ncg     rms          rms(c)
DAV:   1    -0.124071008305E+03    0.66025E-03   -0.32558E-02  8320   0.721E-01    0.321E-02
DAV:   2    -0.124071019608E+03   -0.11303E-04   -0.51418E-04  8416   0.923E-02    0.220E-02
DAV:   3    -0.124071014367E+03    0.52413E-05   -0.35563E-05  9600   0.272E-02    0.690E-03
DAV:   4    -0.124071015375E+03   -0.10079E-05   -0.10291E-05  9168   0.136E-02    0.272E-03
DAV:   5    -0.124071016251E+03   -0.87581E-06   -0.44778E-06  9232   0.104E-02
  71 F= -.12591281E+03 E0= -.12591012E+03  d E =-.135328E-03  mag=     0.0000
       N       E                     dE             d eps       ncg     rms          rms(c)
DAV:   1    -0.124069641677E+03    0.13737E-02   -0.13025E-01  8288   0.144E+00    0.640E-02
DAV:   2    -0.124069689518E+03   -0.47840E-04   -0.20590E-03  9072   0.184E-01    0.438E-02
DAV:   3    -0.124069666504E+03    0.23013E-04   -0.13868E-04  9856   0.522E-02    0.138E-02
DAV:   4    -0.124069668687E+03   -0.21828E-05   -0.32423E-05 10320   0.191E-02    0.529E-03
DAV:   5    -0.124069669138E+03   -0.45047E-06   -0.15716E-06  8896   0.637E-03
  72 F= -.12591290E+03 E0= -.12591021E+03  d E =-.234108E-03  mag=    -0.0000
       N       E                     dE             d eps       ncg     rms          rms(c)
DAV:   1    -0.124066713906E+03    0.29548E-02   -0.52114E-01  8256   0.289E+00    0.128E-01
DAV:   2    -0.124066921428E+03   -0.20752E-03   -0.82618E-03  9504   0.368E-01    0.879E-02
DAV:   3    -0.124066816377E+03    0.10505E-03   -0.55647E-04 10560   0.105E-01    0.277E-02
DAV:   4    -0.124066823454E+03   -0.70767E-05   -0.12968E-04 10720   0.384E-02    0.106E-02
DAV:   5    -0.124066824611E+03   -0.11573E-05   -0.71661E-06 10928   0.133E-02    0.223E-03
DAV:   6    -0.124066824242E+03    0.36924E-06   -0.46632E-06  9040   0.106E-02
  73 F= -.12591296E+03 E0= -.12591024E+03  d E =-.290717E-03  mag=    -0.0000
       N       E                     dE             d eps       ncg     rms          rms(c)
DAV:   1    -0.124066374077E+03    0.45053E-03   -0.14902E-02  8288   0.488E-01    0.217E-02
DAV:   2    -0.124066379682E+03   -0.56047E-05   -0.23768E-04  9648   0.628E-02    0.148E-02
DAV:   3    -0.124066377908E+03    0.17735E-05   -0.16463E-05  9376   0.186E-02    0.471E-03
DAV:   4    -0.124066378756E+03   -0.84756E-06   -0.49314E-06  9360   0.958E-03
  74 F= -.12591301E+03 E0= -.12591029E+03  d E =-.467304E-04  mag=    -0.0000
       N       E                     dE             d eps       ncg     rms          rms(c)
DAV:   1    -0.124064987619E+03    0.13903E-02   -0.13401E-01  8256   0.146E+00    0.651E-02
DAV:   2    -0.124065037197E+03   -0.49579E-04   -0.21213E-03  9376   0.187E-01    0.445E-02
DAV:   3    -0.124065014730E+03    0.22467E-04   -0.14500E-04  9632   0.542E-02    0.141E-02
DAV:   4    -0.124065017727E+03   -0.29963E-05   -0.37973E-05  8976   0.246E-02    0.549E-03
DAV:   5    -0.124065020927E+03   -0.32002E-05   -0.11553E-05  9344   0.169E-02    0.164E-03
DAV:   6    -0.124065016439E+03    0.44876E-05   -0.65675E-06  8896   0.122E-02    0.856E-04
DAV:   7    -0.124065016325E+03    0.11382E-06   -0.43140E-07  8896   0.318E-03
  75 F= -.12591312E+03 E0= -.12591039E+03  d E =-.163116E-03  mag=     0.0000
       N       E                     dE             d eps       ncg     rms          rms(c)
DAV:   1    -0.124062072913E+03    0.29435E-02   -0.53602E-01  8256   0.293E+00    0.130E-01
DAV:   2    -0.124062283829E+03   -0.21092E-03   -0.85098E-03  9408   0.374E-01    0.891E-02
DAV:   3    -0.124062177082E+03    0.10675E-03   -0.57325E-04  9792   0.106E-01    0.283E-02
DAV:   4    -0.124062184279E+03   -0.71975E-05   -0.13198E-04 10688   0.376E-02    0.108E-02
DAV:   5    -0.124062184946E+03   -0.66647E-06   -0.43903E-06 11120   0.873E-03
  76 F= -.12591326E+03 E0= -.12591050E+03  d E =-.298957E-03  mag=     0.0000
       N       E                     dE             d eps       ncg     rms          rms(c)
DAV:   1    -0.124061269235E+03    0.91504E-03   -0.51497E-02  8256   0.907E-01    0.401E-02
DAV:   2    -0.124061289159E+03   -0.19925E-04   -0.81924E-04  9296   0.116E-01    0.273E-02
DAV:   3    -0.124061280436E+03    0.87239E-05   -0.55004E-05  9568   0.328E-02    0.871E-03
DAV:   4    -0.124061281568E+03   -0.11321E-05   -0.12716E-05  9632   0.119E-02    0.338E-03
DAV:   5    -0.124061281940E+03   -0.37266E-06   -0.53882E-07  7408   0.367E-03
  77 F= -.12591328E+03 E0= -.12591050E+03  d E =-.316450E-03  mag=    -0.0000
       N       E                     dE             d eps       ncg     rms          rms(c)
DAV:   1    -0.124060219158E+03    0.10624E-02   -0.66989E-02  8256   0.104E+00    0.459E-02
DAV:   2    -0.124060243816E+03   -0.24658E-04   -0.10654E-03  9328   0.132E-01    0.314E-02
DAV:   3    -0.124060232688E+03    0.11129E-04   -0.71952E-05  9456   0.376E-02    0.996E-03
DAV:   4    -0.124060234148E+03   -0.14606E-05   -0.16964E-05  9248   0.142E-02    0.385E-03
DAV:   5    -0.124060234627E+03   -0.47873E-06   -0.13022E-06  8112   0.598E-03
  78 F= -.12591328E+03 E0= -.12591050E+03  d E =-.321880E-03  mag=     0.0000
       N       E                     dE             d eps       ncg     rms          rms(c)
DAV:   1    -0.124060740874E+03   -0.50673E-03   -0.15594E-02  8256   0.499E-01    0.223E-02
DAV:   2    -0.124060746107E+03   -0.52335E-05   -0.24551E-04  9392   0.638E-02    0.153E-02
DAV:   3    -0.124060744015E+03    0.20922E-05   -0.17357E-05  9968   0.189E-02    0.481E-03
DAV:   4    -0.124060744764E+03   -0.74864E-06   -0.49710E-06  8480   0.944E-03
  79 F= -.12591328E+03 E0= -.12591051E+03  d E =-.322884E-03  mag=     0.0000
       N       E                     dE             d eps       ncg     rms          rms(c)
DAV:   1    -0.124060963253E+03   -0.21924E-03   -0.22933E-03  8256   0.195E-01    0.972E-03
DAV:   2    -0.124060963425E+03   -0.17261E-06   -0.38553E-05  9520   0.268E-02    0.627E-03
DAV:   3    -0.124060963580E+03   -0.15497E-06   -0.47921E-06  8768   0.112E-02
  80 F= -.12591332E+03 E0= -.12591055E+03  d E =-.392716E-04  mag=    -0.0000
       N       E                     dE             d eps       ncg     rms          rms(c)
DAV:   1    -0.124061505257E+03   -0.54183E-03   -0.17004E-02  8256   0.529E-01    0.267E-02
DAV:   2    -0.124061505287E+03   -0.30223E-07   -0.27595E-04  9504   0.687E-02    0.173E-02
DAV:   3    -0.124061502148E+03    0.31394E-05   -0.25460E-05 10544   0.239E-02    0.492E-03
DAV:   4    -0.124061503153E+03   -0.10051E-05   -0.10643E-05  8720   0.158E-02    0.223E-03
DAV:   5    -0.124061502868E+03    0.28470E-06   -0.61372E-06  8384   0.120E-02
  81 F= -.12591337E+03 E0= -.12591060E+03  d E =-.904538E-04  mag=     0.0000
       N       E                     dE             d eps       ncg     rms          rms(c)
DAV:   1    -0.124061565161E+03   -0.62008E-04   -0.28809E-04  9744   0.693E-02    0.332E-03
DAV:   2    -0.124061565146E+03    0.15250E-07   -0.46931E-06 10912   0.902E-03
  82 F= -.12591337E+03 E0= -.12591059E+03  d E =-.894231E-04  mag=    -0.0000
       N       E                     dE             d eps       ncg     rms          rms(c)
DAV:   1    -0.124061711570E+03   -0.14641E-03   -0.16254E-03  8912   0.167E-01    0.887E-03
DAV:   2    -0.124061711492E+03    0.77871E-07   -0.25665E-05 10448   0.206E-02    0.570E-03
DAV:   3    -0.124061711037E+03    0.45525E-06   -0.23402E-06  9568   0.700E-03
  83 F= -.12591339E+03 E0= -.12591062E+03  d E =-.215921E-04  mag=    -0.0000
       N       E                     dE             d eps       ncg     rms          rms(c)
DAV:   1    -0.124061784631E+03   -0.73139E-04   -0.52152E-04  8928   0.947E-02    0.514E-03
DAV:   2    -0.124061784594E+03    0.36622E-07   -0.81791E-06  9248   0.119E-02
  84 F= -.12591340E+03 E0= -.12591062E+03  d E =-.254572E-04  mag=    -0.0000
       N       E                     dE             d eps       ncg     rms          rms(c)
DAV:   1    -0.124061799115E+03   -0.14484E-04   -0.19798E-05  8752   0.191E-02    0.161E-03
DAV:   2    -0.124061799053E+03    0.62480E-07   -0.40406E-07  6816   0.339E-03
  85 F= -.12591340E+03 E0= -.12591062E+03  d E =-.253898E-04  mag=    -0.0000
       N       E                     dE             d eps       ncg     rms          rms(c)
DAV:   1    -0.124061845056E+03   -0.45941E-04   -0.28591E-04  8928   0.703E-02    0.381E-03
DAV:   2    -0.124061844813E+03    0.24365E-06   -0.46037E-06  8656   0.984E-03
  86 F= -.12591341E+03 E0= -.12591063E+03  d E =-.687295E-05  mag=    -0.0000
       N       E                     dE             d eps       ncg     rms          rms(c)
DAV:   1    -0.124061933171E+03   -0.88114E-04   -0.12763E-03  8400   0.148E-01    0.847E-03
DAV:   2    -0.124061932384E+03    0.78680E-06   -0.18430E-05  9136   0.186E-02    0.497E-03
DAV:   3    -0.124061932337E+03    0.46495E-07   -0.23239E-06  8464   0.744E-03
  87 F= -.12591341E+03 E0= -.12591063E+03  d E =-.118680E-04  mag=     0.0000
       N       E                     dE             d eps       ncg     rms          rms(c)
DAV:   1    -0.124061970266E+03   -0.37883E-04   -0.24262E-04  8752   0.641E-02    0.327E-03
DAV:   2    -0.124061970065E+03    0.20114E-06   -0.32005E-06  8384   0.862E-03
  88 F= -.12591342E+03 E0= -.12591064E+03  d E =-.587082E-05  mag=     0.0000
       N       E                     dE             d eps       ncg     rms          rms(c)
DAV:   1    -0.124062079004E+03   -0.10874E-03   -0.21432E-03  8352   0.190E-01    0.918E-03
DAV:   2    -0.124062078634E+03    0.37022E-06   -0.22933E-05  9136   0.209E-02    0.579E-03
DAV:   3    -0.124062079287E+03   -0.65313E-06   -0.36923E-06  8016   0.998E-03
  89 F= -.12591343E+03 E0= -.12591065E+03  d E =-.195356E-04  mag=    -0.0000
       N       E                     dE             d eps       ncg     rms          rms(c)
DAV:   1    -0.124062273371E+03   -0.19474E-03   -0.86571E-03  8256   0.381E-01    0.179E-02
DAV:   2    -0.124062273428E+03   -0.57198E-07   -0.91086E-05  9984   0.403E-02    0.113E-02
DAV:   3    -0.124062273553E+03   -0.12519E-06   -0.10128E-05  8688   0.158E-02    0.281E-03
DAV:   4    -0.124062273589E+03   -0.35846E-07   -0.58376E-06  8320   0.123E-02
  90 F= -.12591343E+03 E0= -.12591065E+03  d E =-.228459E-04  mag=    -0.0000
       N       E                     dE             d eps       ncg     rms          rms(c)
DAV:   1    -0.124062192284E+03    0.81269E-04   -0.16395E-03  8256   0.166E-01    0.747E-03
DAV:   2    -0.124062191889E+03    0.39489E-06   -0.18383E-05  9584   0.190E-02    0.470E-03
DAV:   3    -0.124062192368E+03   -0.47845E-06   -0.31982E-06  8192   0.935E-03
  91 F= -.12591344E+03 E0= -.12591066E+03  d E =-.248373E-04  mag=     0.0000
       N       E                     dE             d eps       ncg     rms          rms(c)
DAV:   1    -0.124062262290E+03   -0.70400E-04   -0.10169E-03  8320   0.131E-01    0.743E-03
DAV:   2    -0.124062261435E+03    0.85453E-06   -0.16499E-05  8960   0.182E-02    0.419E-03
DAV:   3    -0.124062261580E+03   -0.14477E-06   -0.30167E-06  8048   0.874E-03
  92 F= -.12591345E+03 E0= -.12591067E+03  d E =-.122557E-04  mag=    -0.0000
       N       E                     dE             d eps       ncg     rms          rms(c)
DAV:   1    -0.124062312989E+03   -0.51554E-04   -0.70622E-04  8256   0.110E-01    0.665E-03
DAV:   2    -0.124062312299E+03    0.69008E-06   -0.11272E-05  8416   0.154E-02    0.380E-03
DAV:   3    -0.124062312617E+03   -0.31811E-06   -0.25491E-06  7360   0.814E-03
  93 F= -.12591345E+03 E0= -.12591067E+03  d E =-.159921E-04  mag=     0.0000
       N       E                     dE             d eps       ncg     rms          rms(c)
DAV:   1    -0.124062366828E+03   -0.54529E-04   -0.97890E-04  8256   0.131E-01    0.647E-03
DAV:   2    -0.124062366556E+03    0.27170E-06   -0.11593E-05  8672   0.153E-02    0.406E-03
DAV:   3    -0.124062367049E+03   -0.49326E-06   -0.24216E-06  7440   0.792E-03
  94 F= -.12591346E+03 E0= -.12591068E+03  d E =-.113812E-04  mag=    -0.0000
       N       E                     dE             d eps       ncg     rms          rms(c)
DAV:   1    -0.124062458739E+03   -0.92183E-04   -0.35809E-03  8256   0.250E-01    0.122E-02
DAV:   2    -0.124062458525E+03    0.21414E-06   -0.38800E-05  9392   0.266E-02    0.758E-03
DAV:   3    -0.124062458849E+03   -0.32424E-06   -0.49470E-06  8448   0.110E-02
  95 F= -.12591347E+03 E0= -.12591068E+03  d E =-.208406E-04  mag=     0.0000
       N       E                     dE             d eps       ncg     rms          rms(c)
DAV:   1    -0.124062499036E+03   -0.40512E-04   -0.91858E-04  8288   0.129E-01    0.617E-03
DAV:   2    -0.124062498490E+03    0.54614E-06   -0.12201E-05  8288   0.167E-02    0.397E-03
DAV:   3    -0.124062499710E+03   -0.12194E-05   -0.37871E-06  8320   0.998E-03    0.140E-03
DAV:   4    -0.124062498766E+03    0.94339E-06   -0.38962E-06  8272   0.963E-03
  96 F= -.12591348E+03 E0= -.12591069E+03  d E =-.849820E-05  mag=     0.0000
       N       E                     dE             d eps       ncg     rms          rms(c)
DAV:   1    -0.124062550866E+03   -0.51156E-04   -0.21565E-03  9232   0.197E-01    0.895E-03
DAV:   2    -0.124062551237E+03   -0.37135E-06   -0.23092E-05 11056   0.199E-02    0.572E-03
DAV:   3    -0.124062551001E+03    0.23573E-06   -0.16033E-06  9280   0.556E-03
  97 F= -.12591348E+03 E0= -.12591069E+03  d E =-.124659E-04  mag=    -0.0000
       N       E                     dE             d eps       ncg     rms          rms(c)
DAV:   1    -0.124062587333E+03   -0.36096E-04   -0.11107E-03  8272   0.142E-01    0.648E-03
DAV:   2    -0.124062587581E+03   -0.24727E-06   -0.11238E-05 10144   0.139E-02    0.419E-03
DAV:   3    -0.124062587522E+03    0.58470E-07   -0.75514E-07  6704   0.409E-03
  98 F= -.12591349E+03 E0= -.12591070E+03  d E =-.766533E-05  mag=     0.0000
       N       E                     dE             d eps       ncg     rms          rms(c)
DAV:   1    -0.124062623296E+03   -0.35716E-04   -0.14494E-03  8256   0.163E-01    0.721E-03
DAV:   2    -0.124062623662E+03   -0.36603E-06   -0.14900E-05  9584   0.160E-02    0.467E-03
DAV:   3    -0.124062623580E+03    0.82328E-07   -0.10223E-06  7104   0.482E-03
  99 F= -.12591350E+03 E0= -.12591070E+03  d E =-.107343E-04  mag=    -0.0000
       N       E                     dE             d eps       ncg     rms          rms(c)
DAV:   1    -0.124062645155E+03   -0.21493E-04   -0.63134E-04  8288   0.109E-01    0.499E-03
DAV:   2    -0.124062645261E+03   -0.10577E-06   -0.74179E-06  9008   0.118E-02
 100 F= -.12591350E+03 E0= -.12591070E+03  d E =-.648014E-05  mag=    -0.0000
       N       E                     dE             d eps       ncg     rms          rms(c)
DAV:   1    -0.124062672668E+03   -0.27513E-04   -0.15560E-03  8256   0.171E-01    0.846E-03
DAV:   2    -0.124062672818E+03   -0.14971E-06   -0.16923E-05  9392   0.176E-02    0.538E-03
DAV:   3    -0.124062672714E+03    0.10385E-06   -0.15905E-06  7616   0.616E-03
 101 F= -.12591351E+03 E0= -.12591070E+03  d E =-.997622E-05  mag=     0.0000
       N       E                     dE             d eps       ncg     rms          rms(c)
DAV:   1    -0.124062690551E+03   -0.17733E-04   -0.75331E-04  8256   0.119E-01    0.527E-03
DAV:   2    -0.124062690741E+03   -0.19060E-06   -0.80489E-06  8848   0.125E-02
 102 F= -.12591351E+03 E0= -.12591071E+03  d E =-.608283E-05  mag=     0.0000
       N       E                     dE             d eps       ncg     rms          rms(c)
DAV:   1    -0.124062725838E+03   -0.35287E-04   -0.46583E-03  8256   0.297E-01    0.132E-02
DAV:   2    -0.124062727159E+03   -0.13213E-05   -0.45567E-05  9440   0.284E-02    0.875E-03
DAV:   3    -0.124062727004E+03    0.15470E-06   -0.38006E-06  8608   0.954E-03
 103 F= -.12591352E+03 E0= -.12591071E+03  d E =-.125732E-04  mag=    -0.0000
       N       E                     dE             d eps       ncg     rms          rms(c)
DAV:   1    -0.124062742357E+03   -0.15197E-04   -0.80823E-04  8256   0.124E-01    0.554E-03
DAV:   2    -0.124062742371E+03   -0.14197E-07   -0.87842E-06  8416   0.136E-02
 104 F= -.12591352E+03 E0= -.12591071E+03  d E =-.706431E-05  mag=    -0.0000
       N       E                     dE             d eps       ncg     rms          rms(c)
DAV:   1    -0.124062782170E+03   -0.39813E-04   -0.72541E-03  8256   0.370E-01    0.163E-02
DAV:   2    -0.124062784172E+03   -0.20027E-05   -0.70172E-05  9376   0.351E-02    0.109E-02
DAV:   3    -0.124062784703E+03   -0.53113E-06   -0.68791E-06  8608   0.132E-02
 105 F= -.12591354E+03 E0= -.12591072E+03  d E =-.245003E-04  mag=     0.0000
       N       E                     dE             d eps       ncg     rms          rms(c)
DAV:   1    -0.124062833101E+03   -0.48929E-04   -0.29066E-02  8256   0.739E-01    0.312E-02
DAV:   2    -0.124062843341E+03   -0.10240E-04   -0.27778E-04 10224   0.687E-02    0.209E-02
DAV:   3    -0.124062841982E+03    0.13592E-05   -0.19603E-05  9040   0.211E-02    0.576E-03
DAV:   4    -0.124062842264E+03   -0.28211E-06   -0.10180E-05  8320   0.161E-02    0.196E-03
DAV:   5    -0.124062840773E+03    0.14914E-05   -0.60546E-06  8368   0.119E-02    0.105E-03
DAV:   6    -0.124062839606E+03    0.11670E-05   -0.14444E-06  8160   0.574E-03    0.338E-04
DAV:   7    -0.124062839548E+03    0.57648E-07   -0.56971E-08  8016   0.113E-03
 106 F= -.12591355E+03 E0= -.12591072E+03  d E =-.295748E-04  mag=    -0.0000
       N       E                     dE             d eps       ncg     rms          rms(c)
DAV:   1    -0.124062824179E+03    0.15427E-04   -0.30459E-03  8272   0.239E-01    0.100E-02
DAV:   2    -0.124062825255E+03   -0.10760E-05   -0.28824E-05 10384   0.217E-02    0.667E-03
DAV:   3    -0.124062824927E+03    0.32768E-06   -0.15338E-06  8000   0.510E-03
 107 F= -.12591355E+03 E0= -.12591072E+03  d E =-.310510E-04  mag=     0.0000
       N       E                     dE             d eps       ncg     rms          rms(c)
DAV:   1    -0.124062836396E+03   -0.11141E-04   -0.53125E-04  8320   0.999E-02    0.375E-03
DAV:   2    -0.124062836629E+03   -0.23341E-06   -0.51108E-06 10592   0.909E-03
 108 F= -.12591356E+03 E0= -.12591073E+03  d E =-.619648E-05  mag=     0.0000
       N       E                     dE             d eps       ncg     rms          rms(c)
DAV:   1    -0.124062867695E+03   -0.31299E-04   -0.47678E-03  8256   0.300E-01    0.126E-02
DAV:   2    -0.124062869750E+03   -0.20555E-05   -0.42939E-05 10864   0.264E-02    0.860E-03
DAV:   3    -0.124062869315E+03    0.43570E-06   -0.21753E-06  9168   0.606E-03
 109 F= -.12591357E+03 E0= -.12591074E+03  d E =-.223055E-04  mag=    -0.0000
       N       E                     dE             d eps       ncg     rms          rms(c)
DAV:   1    -0.124062918026E+03   -0.48276E-04   -0.19105E-02  8256   0.600E-01    0.241E-02
DAV:   2    -0.124062927251E+03   -0.92248E-05   -0.17288E-04 11248   0.531E-02    0.166E-02
DAV:   3    -0.124062925542E+03    0.17091E-05   -0.81033E-06 10496   0.117E-02    0.419E-03
DAV:   4    -0.124062925655E+03   -0.11259E-06   -0.83426E-07  9104   0.350E-03
 110 F= -.12591359E+03 E0= -.12591075E+03  d E =-.454635E-04  mag=    -0.0000
       N       E                     dE             d eps       ncg     rms          rms(c)
DAV:   1    -0.124062972552E+03   -0.47010E-04   -0.76453E-02  8256   0.120E+00    0.480E-02
DAV:   2    -0.124063009412E+03   -0.36860E-04   -0.69458E-04 11264   0.106E-01    0.329E-02
DAV:   3    -0.124063001596E+03    0.78167E-05   -0.32571E-05 10736   0.234E-02    0.840E-03
DAV:   4    -0.124063001983E+03   -0.38695E-06   -0.34603E-06 10736   0.703E-03
 111 F= -.12591360E+03 E0= -.12591074E+03  d E =-.555840E-04  mag=    -0.0000
       N       E                     dE             d eps       ncg     rms          rms(c)
DAV:   1    -0.124062975671E+03    0.25925E-04   -0.10432E-02  8320   0.443E-01    0.175E-02
DAV:   2    -0.124062980169E+03   -0.44983E-05   -0.94307E-05 10736   0.391E-02    0.120E-02
DAV:   3    -0.124062979080E+03    0.10894E-05   -0.45165E-06  8944   0.878E-03    0.309E-03
DAV:   4    -0.124062979150E+03   -0.70120E-07   -0.50484E-07  5920   0.318E-03
 112 F= -.12591361E+03 E0= -.12591075E+03  d E =-.572411E-04  mag=    -0.0000
       N       E                     dE             d eps       ncg     rms          rms(c)
DAV:   1    -0.124062995664E+03   -0.16585E-04   -0.11688E-03  8304   0.148E-01    0.576E-03
DAV:   2    -0.124062996175E+03   -0.51070E-06   -0.10602E-05  8800   0.132E-02    0.398E-03
DAV:   3    -0.124062996095E+03    0.80528E-07   -0.56800E-07  7120   0.368E-03
 113 F= -.12591362E+03 E0= -.12591076E+03  d E =-.934096E-05  mag=     0.0000
       N       E                     dE             d eps       ncg     rms          rms(c)
DAV:   1    -0.124063041871E+03   -0.45695E-04   -0.10545E-02  8320   0.446E-01    0.176E-02
DAV:   2    -0.124063047043E+03   -0.51725E-05   -0.93882E-05 10208   0.389E-02    0.122E-02
DAV:   3    -0.124063046256E+03    0.78744E-06   -0.43432E-06  9184   0.905E-03
 114 F= -.12591364E+03 E0= -.12591078E+03  d E =-.366883E-04  mag=    -0.0000
       N       E                     dE             d eps       ncg     rms          rms(c)
DAV:   1    -0.124063123722E+03   -0.76679E-04   -0.42176E-02  8288   0.892E-01    0.353E-02
DAV:   2    -0.124063145008E+03   -0.21286E-04   -0.37497E-04 10752   0.777E-02    0.245E-02
DAV:   3    -0.124063141553E+03    0.34550E-05   -0.16933E-05  9520   0.173E-02    0.609E-03
DAV:   4    -0.124063141766E+03   -0.21257E-06   -0.24673E-06  8800   0.733E-03
 115 F= -.12591369E+03 E0= -.12591081E+03  d E =-.865912E-04  mag=    -0.0000
       N       E                     dE             d eps       ncg     rms          rms(c)
DAV:   1    -0.124063246630E+03   -0.10508E-03   -0.16879E-01  8256   0.178E+00    0.703E-02
DAV:   2    -0.124063331687E+03   -0.85058E-04   -0.15059E-03 10976   0.156E-01    0.487E-02
DAV:   3    -0.124063316149E+03    0.15538E-04   -0.67637E-05 10000   0.343E-02    0.123E-02
DAV:   4    -0.124063316894E+03   -0.74521E-06   -0.90452E-06  9008   0.136E-02
 116 F= -.12591378E+03 E0= -.12591088E+03  d E =-.170576E-03  mag=    -0.0000
       N       E                     dE             d eps       ncg     rms          rms(c)
DAV:   1    -0.124063327181E+03   -0.11032E-04   -0.67489E-01  8256   0.357E+00    0.141E-01
DAV:   2    -0.124063671067E+03   -0.34389E-03   -0.60246E-03 11104   0.312E-01    0.975E-02
DAV:   3    -0.124063606021E+03    0.65046E-04   -0.27022E-04 10320   0.683E-02    0.247E-02
DAV:   4    -0.124063608560E+03   -0.25384E-05   -0.33992E-05 10240   0.256E-02    0.692E-03
DAV:   5    -0.124063609660E+03   -0.11001E-05   -0.90950E-06  8768   0.152E-02    0.273E-03
DAV:   6    -0.124063609864E+03   -0.20412E-06   -0.96679E-06  8752   0.151E-02
 117 F= -.12591389E+03 E0= -.12591098E+03  d E =-.281652E-03  mag=     0.0000
       N       E                     dE             d eps       ncg     rms          rms(c)
DAV:   1    -0.124062848983E+03    0.76068E-03   -0.26954E+00  8256   0.714E+00    0.281E-01
DAV:   2    -0.124064226724E+03   -0.13777E-02   -0.24144E-02 11232   0.623E-01    0.195E-01
DAV:   3    -0.124063952520E+03    0.27420E-03   -0.10688E-03 11072   0.133E-01    0.506E-02
DAV:   4    -0.124063961382E+03   -0.88621E-05   -0.11401E-04 11568   0.397E-02    0.139E-02
DAV:   5    -0.124063960270E+03    0.11123E-05   -0.78541E-06 11936   0.111E-02    0.496E-03
DAV:   6    -0.124063960295E+03   -0.24553E-07   -0.15559E-06 10768   0.548E-03
 118 F= -.12591388E+03 E0= -.12591113E+03  d E =-.268977E-03  mag=    -0.0000
       N       E                     dE             d eps       ncg     rms          rms(c)
DAV:   1    -0.124063481463E+03    0.47881E-03   -0.79589E-01  8256   0.388E+00    0.153E-01
DAV:   2    -0.124063882215E+03   -0.40075E-03   -0.70950E-03 11136   0.338E-01    0.106E-01
DAV:   3    -0.124063804152E+03    0.78062E-04   -0.31960E-04 10416   0.730E-02    0.271E-02
DAV:   4    -0.124063807389E+03   -0.32371E-05   -0.34175E-05 10480   0.222E-02    0.754E-03
DAV:   5    -0.124063807386E+03    0.36489E-08   -0.28531E-06 10032   0.765E-03
 119 F= -.12591392E+03 E0= -.12591105E+03  d E =-.313237E-03  mag=     0.0000
       N       E                     dE             d eps       ncg     rms          rms(c)
DAV:   1    -0.124063862097E+03   -0.54707E-04   -0.18063E-02  8256   0.584E-01    0.232E-02
DAV:   2    -0.124063870468E+03   -0.83714E-05   -0.15960E-04 10096   0.512E-02    0.161E-02
DAV:   3    -0.124063869593E+03    0.87549E-06   -0.89072E-06  9872   0.142E-02
 120 F= -.12591395E+03 E0= -.12591110E+03  d E =-.330596E-04  mag=    -0.0000
       N       E                     dE             d eps       ncg     rms          rms(c)
DAV:   1    -0.124063984622E+03   -0.11415E-03   -0.16269E-01  8256   0.175E+00    0.693E-02
DAV:   2    -0.124064068420E+03   -0.83798E-04   -0.14369E-03 10768   0.152E-01    0.481E-02
DAV:   3    -0.124064055137E+03    0.13283E-04   -0.65928E-05  9632   0.351E-02    0.122E-02
DAV:   4    -0.124064055734E+03   -0.59623E-06   -0.12154E-05  8672   0.172E-02    0.339E-03
DAV:   5    -0.124064056378E+03   -0.64396E-06   -0.66864E-06  8480   0.129E-02
 121 F= -.12591405E+03 E0= -.12591125E+03  d E =-.132421E-03  mag=     0.0000
       N       E                     dE             d eps       ncg     rms          rms(c)
DAV:   1    -0.124064147549E+03   -0.91815E-04   -0.65059E-01  8256   0.350E+00    0.138E-01
DAV:   2    -0.124064483940E+03   -0.33639E-03   -0.57572E-03 11264   0.304E-01    0.957E-02
DAV:   3    -0.124064421823E+03    0.62117E-04   -0.25382E-04 10432   0.658E-02    0.244E-02
DAV:   4    -0.124064424182E+03   -0.23583E-05   -0.30652E-05 10480   0.237E-02    0.667E-03
DAV:   5    -0.124064424717E+03   -0.53505E-06   -0.68279E-06  8784   0.133E-02
 122 F= -.12591425E+03 E0= -.12591163E+03  d E =-.325884E-03  mag=    -0.0000
       N       E                     dE             d eps       ncg     rms          rms(c)
DAV:   1    -0.124063841036E+03    0.58315E-03   -0.25993E+00  8256   0.701E+00    0.275E-01
DAV:   2    -0.124065213698E+03   -0.13727E-02   -0.23131E-02 11360   0.609E-01    0.191E-01
DAV:   3    -0.124064963394E+03    0.25030E-03   -0.10018E-03 10624   0.131E-01    0.496E-02
DAV:   4    -0.124064971394E+03   -0.80008E-05   -0.12281E-04 10656   0.478E-02    0.133E-02
DAV:   5    -0.124064973646E+03   -0.22520E-05   -0.27589E-05  9408   0.267E-02    0.523E-03
DAV:   6    -0.124064977305E+03   -0.36583E-05   -0.30270E-05  8928   0.273E-02    0.218E-03
DAV:   7    -0.124064963405E+03    0.13900E-04   -0.10185E-05  9504   0.156E-02    0.692E-04
DAV:   8    -0.124064963460E+03   -0.54788E-07   -0.14004E-07  9104   0.180E-03
 123 F= -.12591444E+03 E0= -.12591235E+03  d E =-.515652E-03  mag=    -0.0000
       N       E                     dE             d eps       ncg     rms          rms(c)
DAV:   1    -0.124065181229E+03   -0.21782E-03   -0.20165E-01  8320   0.195E+00    0.768E-02
DAV:   2    -0.124065285049E+03   -0.10382E-03   -0.17952E-03 11344   0.170E-01    0.532E-02
DAV:   3    -0.124065264842E+03    0.20207E-04   -0.78542E-05 11472   0.363E-02    0.138E-02
DAV:   4    -0.124065265486E+03   -0.64424E-06   -0.89570E-06 11456   0.112E-02
 124 F= -.12591465E+03 E0= -.12591273E+03  d E =-.212168E-03  mag=     0.0000
       N       E                     dE             d eps       ncg     rms          rms(c)
DAV:   1    -0.124065365277E+03   -0.10043E-03   -0.11703E-01  8384   0.149E+00    0.588E-02
DAV:   2    -0.124065427778E+03   -0.62501E-04   -0.10463E-03 11360   0.129E-01    0.408E-02
DAV:   3    -0.124065416861E+03    0.10917E-04   -0.45560E-05 11680   0.278E-02    0.104E-02
DAV:   4    -0.124065417236E+03   -0.37457E-06   -0.52173E-06 11120   0.869E-03
 125 F= -.12591473E+03 E0= -.12591292E+03  d E =-.295510E-03  mag=     0.0000
       N       E                     dE             d eps       ncg     rms          rms(c)
DAV:   1    -0.124065279232E+03    0.13763E-03   -0.46747E-01  8256   0.297E+00    0.117E-01
DAV:   2    -0.124065526776E+03   -0.24754E-03   -0.41734E-03 11328   0.258E-01    0.811E-02
DAV:   3    -0.124065480156E+03    0.46621E-04   -0.18087E-04 11632   0.554E-02    0.209E-02
DAV:   4    -0.124065481411E+03   -0.12557E-05   -0.20958E-05 11488   0.173E-02    0.563E-03
DAV:   5    -0.124065481235E+03    0.17644E-06   -0.15196E-06 10560   0.508E-03
 126 F= -.12591466E+03 E0= -.12591301E+03  d E =-.222695E-03  mag=    -0.0000
       N       E                     dE             d eps       ncg     rms          rms(c)
DAV:   1    -0.124065351962E+03    0.12945E-03   -0.26641E-01  8256   0.224E+00    0.882E-02
DAV:   2    -0.124065489450E+03   -0.13749E-03   -0.23605E-03 11328   0.194E-01    0.612E-02
DAV:   3    -0.124065463250E+03    0.26200E-04   -0.10303E-04 10960   0.420E-02    0.156E-02
DAV:   4    -0.124065464313E+03   -0.10630E-05   -0.12586E-05  9808   0.142E-02    0.425E-03
DAV:   5    -0.124065464427E+03   -0.11409E-06   -0.15971E-06  8864   0.627E-03
 127 F= -.12591474E+03 E0= -.12591298E+03  d E =-.309234E-03  mag=     0.0000
       N       E                     dE             d eps       ncg     rms          rms(c)
DAV:   1    -0.124065642054E+03   -0.17774E-03   -0.38086E-03  8752   0.255E-01    0.110E-02
DAV:   2    -0.124065642367E+03   -0.31397E-06   -0.38534E-05 11008   0.269E-02    0.698E-03
DAV:   3    -0.124065642766E+03   -0.39857E-06   -0.47696E-06  9776   0.115E-02
 128 F= -.12591494E+03 E0= -.12591317E+03  d E =-.196132E-03  mag=    -0.0000
