       N       E                     dE             d eps       ncg     rms          rms(c)
DAV:   1     0.203060149291E+03    0.20306E+03   -0.25718E+04 14208   0.859E+02
DAV:   2    -0.116450025200E+03   -0.31951E+03   -0.31816E+03 20112   0.163E+02
DAV:   3    -0.129436507053E+03   -0.12986E+02   -0.12976E+02 26640   0.431E+01
DAV:   4    -0.129461482941E+03   -0.24976E-01   -0.24976E-01 20112   0.182E+00
DAV:   5    -0.129461542000E+03   -0.59058E-04   -0.59058E-04 25680   0.902E-02    0.245E+01
DAV:   6    -0.921653478166E+02    0.37296E+02   -0.71927E+01 25824   0.255E+01    0.139E+01
DAV:   7    -0.100615629852E+03   -0.84503E+01   -0.98748E+00 21936   0.101E+01    0.813E+00
DAV:   8    -0.110472692019E+03   -0.98571E+01   -0.88612E+00 24816   0.897E+00    0.437E+00
DAV:   9    -0.117312592319E+03   -0.68399E+01   -0.40577E+00 19584   0.622E+00    0.279E+00
DAV:  10    -0.123651866724E+03   -0.63393E+01   -0.84169E+00 24192   0.709E+00    0.161E+00
DAV:  11    -0.125274160294E+03   -0.16223E+01   -0.23531E+00 25872   0.367E+00    0.985E-01
DAV:  12    -0.125430444514E+03   -0.15628E+00   -0.23082E-01 19248   0.141E+00    0.443E-01
DAV:  13    -0.125465426024E+03   -0.34982E-01   -0.24384E-02 18192   0.568E-01    0.181E-01
DAV:  14    -0.125488427998E+03   -0.23002E-01   -0.66432E-03 20400   0.286E-01    0.816E-02
DAV:  15    -0.125495138584E+03   -0.67106E-02   -0.28832E-03 18576   0.152E-01    0.424E-02
DAV:  16    -0.125497145103E+03   -0.20065E-02   -0.59320E-04 16320   0.804E-02    0.221E-02
DAV:  17    -0.125498402998E+03   -0.12579E-02   -0.15224E-04 18336   0.510E-02    0.168E-02
DAV:  18    -0.125499178117E+03   -0.77512E-03   -0.81758E-05 17280   0.390E-02    0.117E-02
DAV:  19    -0.125499601751E+03   -0.42363E-03   -0.40310E-05 20640   0.253E-02    0.691E-03
DAV:  20    -0.125499637275E+03   -0.35524E-04   -0.18034E-05 22560   0.173E-02    0.405E-03
DAV:  21    -0.125499662847E+03   -0.25572E-04   -0.57617E-06 21120   0.980E-03    0.214E-03
DAV:  22    -0.125499686556E+03   -0.23708E-04   -0.27207E-06 22464   0.583E-03    0.131E-03
DAV:  23    -0.125499697761E+03   -0.11206E-04   -0.13953E-06 21600   0.388E-03    0.689E-04
DAV:  24    -0.125499700156E+03   -0.23946E-05   -0.27317E-07 23232   0.204E-03    0.364E-04
DAV:  25    -0.125499701178E+03   -0.10224E-05   -0.11190E-07 20928   0.114E-03    0.184E-04
DAV:  26    -0.125499701679E+03   -0.50034E-06   -0.27820E-08 22464   0.565E-04
   1 F= -.12710419E+03 E0= -.12710342E+03  d E =-.127104E+03  mag=    -0.0000
       N       E                     dE             d eps       ncg     rms          rms(c)
DAV:   1    -0.125507026965E+03   -0.73258E-02   -0.30586E+00 14208   0.560E+00    0.477E-01
DAV:   2    -0.125498890386E+03    0.81366E-02   -0.60988E-02 26016   0.740E-01    0.212E-01
DAV:   3    -0.125497936349E+03    0.95404E-03   -0.53645E-03 22320   0.216E-01    0.824E-02
DAV:   4    -0.125497892794E+03    0.43555E-04   -0.59207E-04 25536   0.740E-02    0.239E-02
DAV:   5    -0.125497895370E+03   -0.25759E-05   -0.18197E-05 24528   0.147E-02    0.888E-03
DAV:   6    -0.125497895490E+03   -0.12079E-06   -0.23715E-06 22080   0.510E-03
   2 F= -.12710185E+03 E0= -.12710107E+03  d E =0.234373E-02  mag=    -0.0000
       N       E                     dE             d eps       ncg     rms          rms(c)
DAV:   1    -0.125508764786E+03   -0.10869E-01   -0.89077E-01 14208   0.303E+00    0.258E-01
DAV:   2    -0.125506339659E+03    0.24251E-02   -0.17730E-02 26352   0.397E-01    0.114E-01
DAV:   3    -0.125506069319E+03    0.27034E-03   -0.15295E-03 24000   0.116E-01    0.449E-02
DAV:   4    -0.125506057224E+03    0.12096E-04   -0.16931E-04 22992   0.395E-02    0.124E-02
DAV:   5    -0.125506058006E+03   -0.78209E-06   -0.58631E-06 23472   0.824E-03
   3 F= -.12711030E+03 E0= -.12710953E+03  d E =-.610853E-02  mag=    -0.0000
       N       E                     dE             d eps       ncg     rms          rms(c)
DAV:   1    -0.125510143325E+03   -0.40861E-02   -0.23483E-01 14208   0.186E+00    0.106E-01
DAV:   2    -0.125510151101E+03   -0.77764E-05   -0.21439E-03 28032   0.198E-01    0.611E-02
DAV:   3    -0.125510137973E+03    0.13128E-04   -0.22648E-04 22848   0.558E-02    0.208E-02
DAV:   4    -0.125510138352E+03   -0.37890E-06   -0.43506E-05 25680   0.234E-02    0.877E-03
DAV:   5    -0.125510139030E+03   -0.67802E-06   -0.19962E-06 23088   0.592E-03
   4 F= -.12711428E+03 E0= -.12711351E+03  d E =-.398111E-02  mag=     0.0000
       N       E                     dE             d eps       ncg     rms          rms(c)
DAV:   1    -0.125512186433E+03   -0.20481E-02   -0.39611E-01 14208   0.241E+00    0.137E-01
DAV:   2    -0.125512211513E+03   -0.25080E-04   -0.36155E-03 25824   0.257E-01    0.792E-02
DAV:   3    -0.125512191164E+03    0.20350E-04   -0.39255E-04 22272   0.736E-02    0.270E-02
