 vasp.6.3.2 27Jun22 (build Dec 22 2022 13:13:19) complex                        
  
 executed on             LinuxIFC date 2023.08.22  23:24:16
 running   48 mpi-ranks, with    1 threads/rank
 distrk:  each k-point on   48 cores,    1 groups
 distr:  one band on NCORE=   1 cores,   48 groups


--------------------------------------------------------------------------------------------------------


 INCAR:
   SYSTEM = Lattice
   ISTART = 0
   ICHARG = 2
   PREC = Accurate
   ENCUT = 450
   LCHARG = .FALSE.
   LWAVE = .FALSE.
   ALGO = Normal
   NELM = 64
   EDIFF = 1E-6
   EDIFFG = -1E-3
   SIGMA = 0.1
   ISMEAR = 0
   ISPIN = 2
   NSW = 128
   IBRION = 2
   POTIM = .5
   ISIF = 2
   GGA = PE
   IVDW = 12

 POTCAR:    PAW_PBE B 06Sep2000                   
 POTCAR:    PAW_PBE C 08Apr2002                   
 -----------------------------------------------------------------------------
|                                                                             |
|           W    W    AA    RRRRR   N    N  II  N    N   GGGG   !!!           |
|           W    W   A  A   R    R  NN   N  II  NN   N  G    G  !!!           |
|           W    W  A    A  R    R  N N  N  II  N N  N  G       !!!           |
|           W WW W  AAAAAA  RRRRR   N  N N  II  N  N N  G  GGG   !            |
|           WW  WW  A    A  R   R   N   NN  II  N   NN  G    G                |
|           W    W  A    A  R    R  N    N  II  N    N   GGGG   !!!           |
|                                                                             |
|     You use a magnetic or noncollinear calculation, but did not specify     |
|     the initial magnetic moment with the MAGMOM tag. Note that a            |
|     default of 1 will be used for all atoms. This ferromagnetic setup       |
|     may break the symmetry of the crystal, in particular it may rule        |
|     out finding an antiferromagnetic solution. Thence, we recommend         |
|     setting the initial magnetic moment manually or verifying carefully     |
|     that this magnetic setup is desired.                                    |
|                                                                             |
 -----------------------------------------------------------------------------

 POTCAR:    PAW_PBE B 06Sep2000                   
   SHA256 =  a32ced30f5ae56fd4d10b4325ff17eb3e4e38ee0f4288bc219fb012fddfa6e97 B/POTCAR              
   COPYR  = (c) Copyright 06Sep2000 Georg Kresse                                                    
   COPYR  = This file is part of the software VASP. Any use, copying, and all other rights are regul
   COPYR  = If you do not have a valid VASP license, you may not use, copy or distribute this file. 
   VRHFIN =B: s2p1                                                                                  
   LEXCH  = PE                                                                                      
   EATOM  =    71.1703 eV,    5.2309 Ry                                                             
                                                                                                    
   TITEL  = PAW_PBE B 06Sep2000                                                                     
   LULTRA =        F    use ultrasoft PP ?                                                          
   IUNSCR =        1    unscreen: 0-lin 1-nonlin 2-no                                               
   RPACOR =    1.200    partial core radius                                                         
   POMASS =   10.811; ZVAL   =    3.000    mass and valenz                                          
   RCORE  =    1.700    outmost cutoff radius                                                       
   RWIGS  =    1.710; RWIGS  =    0.905    wigner-seitz radius (au A)                               
   ENMAX  =  318.614; ENMIN  =  238.960 eV                                                          
   ICORE  =        2    local potential                                                             
   LCOR   =        T    correct aug charges                                                         
   LPAW   =        T    paw PP                                                                      
   EAUG   =  535.514                                                                                
   DEXC   =    0.000                                                                                
   RMAX   =    1.732    core radius for proj-oper                                                   
   RAUG   =    1.300    factor for augmentation sphere                                              
   RDEP   =    1.757    radius for radial grids                                                     
   RDEPT  =    1.436    core radius for aug-charge                                                  
                                                                                                    
   Atomic configuration                                                                             
    4 entries                                                                                       
     n  l   j            E        occ.                                                              
     1  0  0.50      -180.5896   2.0000                                                             
     2  0  0.50        -9.4431   2.0000                                                             
     2  1  0.50        -3.6068   1.0000                                                             
     3  2  1.50        -4.0817   0.0000                                                             
   Description                                                                                      
     l       E           TYP  RCUT    TYP  RCUT                                                     
     0     -9.4430752     23  1.500                                                                 
     0      0.8675899     23  1.500                                                                 
     1     -3.6067955     23  1.700                                                                 
     1      6.1086146     23  1.700                                                                 
     2     -4.0817478      7  1.700                                                                 
  local pseudopotential read in
  partial core-charges read in
  partial kinetic energy density read in
  atomic valenz-charges read in
  non local Contribution for L=           0  read in
    real space projection operators read in
  non local Contribution for L=           0  read in
    real space projection operators read in
  non local Contribution for L=           1  read in
    real space projection operators read in
  non local Contribution for L=           1  read in
    real space projection operators read in
    PAW grid and wavefunctions read in
 
   number of l-projection  operators is LMAX  =           4
   number of lm-projection operators is LMMAX =           8
 
 POTCAR:    PAW_PBE C 08Apr2002                   
   SHA256 =  253f7b50bb8d59471dbedb8285d89021f4a42ed1a2c5d38a03a736e69125dd95 C/POTCAR              
   COPYR  = (c) Copyright 08Apr2002 Georg Kresse                                                    
   COPYR  = This file is part of the software VASP. Any use, copying, and all other rights are regul
   COPYR  = If you do not have a valid VASP license, you may not use, copy or distribute this file. 
   VRHFIN =C: s2p2                                                                                  
   LEXCH  = PE                                                                                      
   EATOM  =   147.1560 eV,   10.8157 Ry                                                             
                                                                                                    
   TITEL  = PAW_PBE C 08Apr2002                                                                     
   LULTRA =        F    use ultrasoft PP ?                                                          
   IUNSCR =        1    unscreen: 0-lin 1-nonlin 2-no                                               
   RPACOR =    1.200    partial core radius                                                         
   POMASS =   12.011; ZVAL   =    4.000    mass and valenz                                          
   RCORE  =    1.500    outmost cutoff radius                                                       
   RWIGS  =    1.630; RWIGS  =    0.863    wigner-seitz radius (au A)                               
   ENMAX  =  400.000; ENMIN  =  300.000 eV                                                          
   ICORE  =        2    local potential                                                             
   LCOR   =        T    correct aug charges                                                         
   LPAW   =        T    paw PP                                                                      
   EAUG   =  644.873                                                                                
   DEXC   =    0.000                                                                                
   RMAX   =    1.529    core radius for proj-oper                                                   
   RAUG   =    1.300    factor for augmentation sphere                                              
   RDEP   =    1.501    radius for radial grids                                                     
   RDEPT  =    1.300    core radius for aug-charge                                                  
                                                                                                    
   Atomic configuration                                                                             
    4 entries                                                                                       
     n  l   j            E        occ.                                                              
     1  0  0.50      -273.3789   2.0000                                                             
     2  0  0.50       -13.7508   2.0000                                                             
     2  1  0.50        -5.2854   2.0000                                                             
     3  2  1.50        -5.4423   0.0000                                                             
   Description                                                                                      
     l       E           TYP  RCUT    TYP  RCUT                                                     
     0    -13.7508458     23  1.200                                                                 
     0     -8.2022199     23  1.200                                                                 
     1     -5.2854383     23  1.500                                                                 
     1     34.0145650     23  1.500                                                                 
     2     -5.4423304      7  1.500                                                                 
  local pseudopotential read in
  partial core-charges read in
  partial kinetic energy density read in
  atomic valenz-charges read in
  non local Contribution for L=           0  read in
    real space projection operators read in
  non local Contribution for L=           0  read in
    real space projection operators read in
  non local Contribution for L=           1  read in
    real space projection operators read in
  non local Contribution for L=           1  read in
    real space projection operators read in
    PAW grid and wavefunctions read in
 
   number of l-projection  operators is LMAX  =           4
   number of lm-projection operators is LMMAX =           8
 
  PAW_PBE B 06Sep2000                   :
 energy of atom  1       EATOM=  -71.1703
 kinetic energy error for atom=    0.0015 (will be added to EATOM!!)
  PAW_PBE C 08Apr2002                   :
 energy of atom  2       EATOM= -147.1560
 kinetic energy error for atom=    0.0116 (will be added to EATOM!!)
 
 
 POSCAR: Graphene-B4C3 Top with lattice parameter
  positions in direct lattice
  No initial velocities read in
 exchange correlation table for  LEXCH =        8
   RHO(1)=    0.500       N(1)  =     2000
   RHO(2)=  100.500       N(2)  =     4000

 VTST: version 4.2, (08/11/21)

 CHAIN: initializing optimizer
 
 OPT: Using VASP Conjugate-Gradient optimizer
 CHAIN: Read ICHAIN            0
 
 POSCAR: Graphene-B4C3 Top with lattice parameter
  positions in direct lattice
  No initial velocities read in
 


--------------------------------------------------------------------------------------------------------


 ion  position               nearest neighbor table
   1  0.004  0.003  0.120-   7 1.60   6 1.60   5 1.60   4 1.74   2 1.74   3 1.74
   2  0.357  0.003  0.097-   6 1.57   5 1.64   7 1.64   1 1.74
   3  0.004  0.356  0.097-   7 1.57   5 1.64   6 1.64   1 1.74
   4  0.651  0.650  0.097-   5 1.57   6 1.64   7 1.64   1 1.74
   5  0.328  0.327  0.100-   4 1.57   1 1.60   3 1.64   2 1.64
   6  0.680  0.003  0.100-   2 1.57   1 1.60   4 1.64   3 1.64
   7  0.004  0.679  0.100-   3 1.57   1 1.60   4 1.64   2 1.64
   8  1.000  0.500  0.334-  13 1.40  11 1.40   9 1.40
   9  0.167  0.333  0.334-  12 1.40  10 1.40   8 1.40
  10  1.000  1.000  0.334-  15 1.40   9 1.40  11 1.40
  11  0.167  0.833  0.334-  14 1.40   8 1.40  10 1.40
  12  0.500  0.500  0.334-   9 1.40  15 1.40  13 1.40
  13  0.667  0.333  0.334-   8 1.40  14 1.40  12 1.40
  14  0.500  1.000  0.334-  11 1.40  13 1.40  15 1.40
  15  0.667  0.833  0.334-  10 1.40  12 1.40  14 1.40
 
  LATTYP: Found a hexagonal cell.
 ALAT       =     4.8400000000
 C/A-ratio  =     3.0991735537
  
  Lattice vectors:
  
 A1 = (   4.1915629543,   2.4200000000,   0.0000000000)
 A2 = (  -4.1915629543,   2.4200000000,   0.0000000000)
 A3 = (   0.0000000000,   0.0000000000,  15.0000000000)


Analysis of symmetry for initial positions (statically):
=====================================================================
 Subroutine PRICEL returns:
 Original cell was already a primitive cell.
 

 Routine SETGRP: Setting up the symmetry group for a 
 hexagonal supercell.


 Subroutine GETGRP returns: Found  1 space group operations
 (whereof  1 operations were pure point group operations)
 out of a pool of 24 trial point group operations.


The static configuration has the point symmetry C_1 .


Analysis of symmetry for dynamics (positions and initial velocities):
=====================================================================
 Subroutine PRICEL returns:
 Original cell was already a primitive cell.
 

 Routine SETGRP: Setting up the symmetry group for a 
 hexagonal supercell.


 Subroutine GETGRP returns: Found  1 space group operations
 (whereof  1 operations were pure point group operations)
 out of a pool of 24 trial point group operations.


The dynamic configuration has the point symmetry C_1 .


Analysis of structural, dynamic, and magnetic symmetry:
=====================================================================
 Subroutine PRICEL returns:
 Original cell was already a primitive cell.
 

 Routine SETGRP: Setting up the symmetry group for a 
 hexagonal supercell.


 Subroutine GETGRP returns: Found  1 space group operations
 (whereof  1 operations were pure point group operations)
 out of a pool of 24 trial point group operations.


The overall configuration has the point symmetry C_1 .


 Subroutine INISYM returns: Found  1 space group operations
 (whereof  1 operations are pure point group operations),
 and found     1 'primitive' translations


----------------------------------------------------------------------------------------

                                     Primitive cell                                     

  volume of cell :     304.3075

  direct lattice vectors                    reciprocal lattice vectors
     4.191562954  2.420000000  0.000000000     0.119287246  0.206611570  0.000000000
    -4.191562954  2.420000000  0.000000000    -0.119287246  0.206611570  0.000000000
     0.000000000  0.000000000 15.000000000     0.000000000  0.000000000  0.066666667

  length of vectors
     4.840000000  4.840000000 15.000000000     0.238574491  0.238574491  0.066666667

  position of ions in fractional coordinates (direct lattice)
     0.004153607  0.002672102  0.120341338
     0.356953351  0.002855031  0.097488934
     0.004238577  0.355506992  0.097492564
     0.651422953  0.650065570  0.097476879
     0.328086463  0.326719375  0.100305078
     0.680277748  0.002780852  0.100275621
     0.004165300  0.678838078  0.100265587
     0.999999333  0.499999667  0.333733333
     0.166666333  0.333332667  0.333733333
     0.999999333  0.999999667  0.333733333
     0.166666333  0.833332667  0.333733333
     0.499999333  0.499999667  0.333733333
     0.666666333  0.333332667  0.333733333
     0.499999333  0.999999667  0.333733333
     0.666666333  0.833332667  0.333733333

  ion indices of the primitive-cell ions
   primitive index   ion index
                 1           1
                 2           2
                 3           3
                 4           4
                 5           5
                 6           6
                 7           7
                 8           8
                 9           9
                10          10
                11          11
                12          12
                13          13
                14          14
                15          15

----------------------------------------------------------------------------------------

 
 
 KPOINTS: k-points                                

Automatic generation of k-mesh.
 Grid dimensions read from file:
 generate k-points for:   12   12    1

 Generating k-lattice:

  Cartesian coordinates                     Fractional coordinates (reciprocal lattice)
     0.009940604  0.017217631  0.000000000     0.083333333  0.000000000  0.000000000
    -0.009940604  0.017217631  0.000000000     0.000000000  0.083333333  0.000000000
     0.000000000  0.000000000  0.066666667     0.000000000  0.000000000  1.000000000

  Length of vectors
     0.019881208  0.019881208  0.066666667

  Shift w.r.t. Gamma in fractional coordinates (k-lattice)
     0.000000000  0.000000000  0.000000000

 
 Subroutine IBZKPT returns following result:
 ===========================================
 
 Found     74 irreducible k-points:
 
 Following reciprocal coordinates:
            Coordinates               Weight
  0.000000  0.000000  0.000000      1.000000
  0.083333  0.000000  0.000000      2.000000
  0.000000  0.083333  0.000000      2.000000
 -0.083333  0.083333  0.000000      2.000000
  0.166667  0.000000  0.000000      2.000000
  0.000000  0.166667  0.000000      2.000000
 -0.166667  0.166667  0.000000      2.000000
  0.250000  0.000000  0.000000      2.000000
  0.000000  0.250000  0.000000      2.000000
 -0.250000  0.250000  0.000000      2.000000
  0.333333  0.000000  0.000000      2.000000
 -0.000000  0.333333  0.000000      2.000000
 -0.333333  0.333333  0.000000      2.000000
  0.416667  0.000000  0.000000      2.000000
 -0.000000  0.416667  0.000000      2.000000
 -0.416667  0.416667  0.000000      2.000000
  0.500000  0.000000  0.000000      1.000000
  0.000000  0.500000  0.000000      1.000000
  0.500000  0.500000  0.000000      1.000000
  0.083333  0.083333  0.000000      2.000000
 -0.083333  0.166667  0.000000      2.000000
 -0.166667  0.083333  0.000000      2.000000
  0.166667  0.083333  0.000000      2.000000
 -0.083333  0.250000  0.000000      2.000000
 -0.250000  0.166667  0.000000      2.000000
 -0.166667  0.250000  0.000000      2.000000
  0.083333  0.166667  0.000000      2.000000
  0.250000 -0.083333  0.000000      2.000000
  0.250000  0.083333  0.000000      2.000000
 -0.083333  0.333333  0.000000      2.000000
 -0.333333  0.250000  0.000000      2.000000
 -0.250000  0.333333  0.000000      2.000000
  0.083333  0.250000  0.000000      2.000000
  0.333333 -0.083333  0.000000      2.000000
  0.333333  0.083333  0.000000      2.000000
 -0.083333  0.416667  0.000000      2.000000
 -0.416667  0.333333  0.000000      2.000000
 -0.333333  0.416667  0.000000      2.000000
  0.083333  0.333333  0.000000      2.000000
  0.416667 -0.083333  0.000000      2.000000
  0.416667  0.083333  0.000000      2.000000
 -0.083333  0.500000  0.000000      2.000000
  0.500000  0.416667  0.000000      2.000000
 -0.416667  0.500000  0.000000      2.000000
  0.083333  0.416667  0.000000      2.000000
  0.500000 -0.083333  0.000000      2.000000
  0.166667  0.166667  0.000000      2.000000
 -0.166667  0.333333  0.000000      2.000000
 -0.333333  0.166667  0.000000      2.000000
  0.250000  0.166667  0.000000      2.000000
 -0.166667  0.416667  0.000000      2.000000
 -0.416667  0.250000  0.000000      2.000000
 -0.250000  0.416667  0.000000      2.000000
  0.166667  0.250000  0.000000      2.000000
  0.416667 -0.166667  0.000000      2.000000
  0.333333  0.166667  0.000000      2.000000
 -0.166667  0.500000  0.000000      2.000000
  0.500000  0.333333  0.000000      2.000000
 -0.333333  0.500000  0.000000      2.000000
  0.166667  0.333333  0.000000      2.000000
  0.500000 -0.166667  0.000000      2.000000
  0.416667  0.166667  0.000000      2.000000
 -0.166667 -0.416667  0.000000      2.000000
  0.416667  0.416667  0.000000      2.000000
  0.250000  0.250000  0.000000      2.000000
 -0.250000  0.500000  0.000000      2.000000
  0.500000  0.250000  0.000000      2.000000
  0.333333  0.250000  0.000000      2.000000
 -0.250000 -0.416667  0.000000      2.000000
  0.416667  0.333333  0.000000      2.000000
 -0.333333 -0.416667  0.000000      2.000000
  0.250000  0.333333  0.000000      2.000000
 -0.416667 -0.250000  0.000000      2.000000
  0.333333  0.333333  0.000000      2.000000
 
 Following cartesian coordinates:
            Coordinates               Weight
  0.000000  0.000000  0.000000      1.000000
  0.009941  0.017218  0.000000      2.000000
 -0.009941  0.017218  0.000000      2.000000
 -0.019881 -0.000000  0.000000      2.000000
  0.019881  0.034435  0.000000      2.000000
 -0.019881  0.034435  0.000000      2.000000
 -0.039762  0.000000  0.000000      2.000000
  0.029822  0.051653  0.000000      2.000000
 -0.029822  0.051653  0.000000      2.000000
 -0.059644 -0.000000  0.000000      2.000000
  0.039762  0.068871  0.000000      2.000000
 -0.039762  0.068871  0.000000      2.000000
 -0.079525 -0.000000  0.000000      2.000000
  0.049703  0.086088  0.000000      2.000000
 -0.049703  0.086088  0.000000      2.000000
 -0.099406 -0.000000  0.000000      2.000000
  0.059644  0.103306  0.000000      1.000000
 -0.059644  0.103306  0.000000      1.000000
  0.000000  0.206612  0.000000      1.000000
 -0.000000  0.034435  0.000000      2.000000
 -0.029822  0.017218  0.000000      2.000000
 -0.029822 -0.017218  0.000000      2.000000
  0.009941  0.051653  0.000000      2.000000
 -0.039762  0.034435  0.000000      2.000000
 -0.049703 -0.017218  0.000000      2.000000
 -0.049703  0.017218  0.000000      2.000000
 -0.009941  0.051653  0.000000      2.000000
  0.039762  0.034435  0.000000      2.000000
  0.019881  0.068871  0.000000      2.000000
 -0.049703  0.051653  0.000000      2.000000
 -0.069584 -0.017218  0.000000      2.000000
 -0.069584  0.017218  0.000000      2.000000
 -0.019881  0.068871  0.000000      2.000000
  0.049703  0.051653  0.000000      2.000000
  0.029822  0.086088  0.000000      2.000000
 -0.059644  0.068871  0.000000      2.000000
 -0.089465 -0.017218  0.000000      2.000000
 -0.089465  0.017218  0.000000      2.000000
 -0.029822  0.086088  0.000000      2.000000
  0.059644  0.068871  0.000000      2.000000
  0.039762  0.103306  0.000000      2.000000
 -0.069584  0.086088  0.000000      2.000000
  0.009941  0.189394  0.000000      2.000000
 -0.109347  0.017218  0.000000      2.000000
 -0.039762  0.103306  0.000000      2.000000
  0.069584  0.086088  0.000000      2.000000
 -0.000000  0.068871  0.000000      2.000000
 -0.059644  0.034435  0.000000      2.000000
 -0.059644 -0.034435  0.000000      2.000000
  0.009941  0.086088  0.000000      2.000000
 -0.069584  0.051653  0.000000      2.000000
 -0.079525 -0.034435  0.000000      2.000000
 -0.079525  0.034435  0.000000      2.000000
 -0.009941  0.086088  0.000000      2.000000
  0.069584  0.051653  0.000000      2.000000
  0.019881  0.103306  0.000000      2.000000
 -0.079525  0.068871  0.000000      2.000000
  0.019881  0.172176  0.000000      2.000000
 -0.099406  0.034435  0.000000      2.000000
 -0.019881  0.103306  0.000000      2.000000
  0.079525  0.068871  0.000000      2.000000
  0.029822  0.120523  0.000000      2.000000
  0.029822 -0.120523  0.000000      2.000000
  0.000000  0.172176  0.000000      2.000000
  0.000000  0.103306  0.000000      2.000000
 -0.089465  0.051653  0.000000      2.000000
  0.029822  0.154959  0.000000      2.000000
  0.009941  0.120523  0.000000      2.000000
  0.019881 -0.137741  0.000000      2.000000
  0.009941  0.154959  0.000000      2.000000
  0.009941 -0.154959  0.000000      2.000000
 -0.009941  0.120523  0.000000      2.000000
 -0.019881 -0.137741  0.000000      2.000000
 -0.000000  0.137741  0.000000      2.000000
 


--------------------------------------------------------------------------------------------------------




 Dimension of arrays:
   k-points           NKPTS =     74   k-points in BZ     NKDIM =     74   number of bands    NBANDS=     48
   number of dos      NEDOS =    301   number of ions     NIONS =     15
   non local maximal  LDIM  =      4   non local SUM 2l+1 LMDIM =      8
   total plane-waves  NPLWV = 139968
   max r-space proj   IRMAX =      1   max aug-charges    IRDMAX=   7371
   dimension x,y,z NGX =    36 NGY =   36 NGZ =  108
   dimension x,y,z NGXF=    72 NGYF=   72 NGZF=  216
   support grid    NGXF=    72 NGYF=   72 NGZF=  216
   ions per type =               4  11
   NGX,Y,Z   is equivalent  to a cutoff of  12.37, 12.37, 11.97 a.u.
   NGXF,Y,Z  is equivalent  to a cutoff of  24.73, 24.73, 23.94 a.u.

 SYSTEM =  Lattice                                 
 POSCAR =  Graphene-B4C3 Top with lattice parameter

 Startparameter for this run:
   NWRITE =      2    write-flag & timer
   PREC   = accura    normal or accurate (medium, high low for compatibility)
   ISTART =      0    job   : 0-new  1-cont  2-samecut
   ICHARG =      2    charge: 1-file 2-atom 10-const
   ISPIN  =      2    spin polarized calculation?
   LNONCOLLINEAR =      F non collinear calculations
   LSORBIT =      F    spin-orbit coupling
   INIWAV =      1    electr: 0-lowe 1-rand  2-diag
   LASPH  =      F    aspherical Exc in radial PAW
 Electronic Relaxation 1
   ENCUT  =  450.0 eV  33.07 Ry    5.75 a.u.   8.37  8.37 25.95*2*pi/ulx,y,z
   ENINI  =  450.0     initial cutoff
   ENAUG  =  644.9 eV  augmentation charge cutoff
   NELM   =     64;   NELMIN=  2; NELMDL= -5     # of ELM steps 
   EDIFF  = 0.1E-05   stopping-criterion for ELM
   LREAL  =      F    real-space projection
   NLSPLINE    = F    spline interpolate recip. space projectors
   LCOMPAT=      F    compatible to vasp.4.4
   GGA_COMPAT  = T    GGA compatible to vasp.4.4-vasp.4.6
   LMAXPAW     = -100 max onsite density
   LMAXMIX     =    2 max onsite mixed and CHGCAR
   VOSKOWN=      0    Vosko Wilk Nusair interpolation
   ROPT   =    0.00000   0.00000
 Ionic relaxation
   EDIFFG = -.1E-02   stopping-criterion for IOM
   NSW    =    128    number of steps for IOM
   NBLOCK =      1;   KBLOCK =    128    inner block; outer block 
   IBRION =      2    ionic relax: 0-MD 1-quasi-New 2-CG
   NFREE  =      1    steps in history (QN), initial steepest desc. (CG)
   ISIF   =      2    stress and relaxation
   IWAVPR =     11    prediction:  0-non 1-charg 2-wave 3-comb
   ISYM   =      2    0-nonsym 1-usesym 2-fastsym
   LCORR  =      T    Harris-Foulkes like correction to forces

   POTIM  = 0.5000    time-step for ionic-motion
   TEIN   =    0.0    initial temperature
   TEBEG  =    0.0;   TEEND  =   0.0 temperature during run
   SMASS  =  -3.00    Nose mass-parameter (am)
   estimated Nose-frequenzy (Omega)   =  0.10E-29 period in steps = 0.13E+47 mass=  -0.535E-27a.u.
   SCALEE = 1.0000    scale energy and forces
   NPACO  =    256;   APACO  = 10.0  distance and # of slots for P.C.
   PSTRESS=    0.0 pullay stress

  Mass of Ions in am
   POMASS =  10.81 12.01
  Ionic Valenz
   ZVAL   =   3.00  4.00
  Atomic Wigner-Seitz radii
   RWIGS  =  -1.00 -1.00
  virtual crystal weights 
   VCA    =   1.00  1.00
   NELECT =      56.0000    total number of electrons
   NUPDOWN=      -1.0000    fix difference up-down

 DOS related values:
   EMIN   =  10.00;   EMAX   =-10.00  energy-range for DOS
   EFERMI =   0.00
   ISMEAR =     0;   SIGMA  =   0.10  broadening in eV -4-tet -1-fermi 0-gaus

 Electronic relaxation 2 (details)
   IALGO  =     38    algorithm
   LDIAG  =      T    sub-space diagonalisation (order eigenvalues)
   LSUBROT=      F    optimize rotation matrix (better conditioning)
   TURBO    =      0    0=normal 1=particle mesh
   IRESTART =      0    0=no restart 2=restart with 2 vectors
   NREBOOT  =      0    no. of reboots
   NMIN     =      0    reboot dimension
   EREF     =   0.00    reference energy to select bands
   IMIX   =      4    mixing-type and parameters
     AMIX     =   0.40;   BMIX     =  1.00
     AMIX_MAG =   1.60;   BMIX_MAG =  1.00
     AMIN     =   0.10
     WC   =   100.;   INIMIX=   1;  MIXPRE=   1;  MAXMIX= -45

 Intra band minimization:
   WEIMIN = 0.0010     energy-eigenvalue tresh-hold
   EBREAK =  0.52E-08  absolut break condition
   DEPER  =   0.30     relativ break condition  

   TIME   =   0.40     timestep for ELM

  volume/ion in A,a.u.               =      20.29       136.90
  Fermi-wavevector in a.u.,A,eV,Ry     =   0.931179  1.759674 11.797542  0.867095
  Thomas-Fermi vector in A             =   2.057645
 
 Write flags
   LWAVE        =      F    write WAVECAR
   LDOWNSAMPLE  =      F    k-point downsampling of WAVECAR
   LCHARG       =      F    write CHGCAR
   LVTOT        =      F    write LOCPOT, total local potential
   LVHAR        =      F    write LOCPOT, Hartree potential only
   LELF         =      F    write electronic localiz. function (ELF)
   LORBIT       =      0    0 simple, 1 ext, 2 COOP (PROOUT), +10 PAW based schemes


 Dipole corrections
   LMONO  =      F    monopole corrections only (constant potential shift)
   LDIPOL =      F    correct potential (dipole corrections)
   IDIPOL =      0    1-x, 2-y, 3-z, 4-all directions 
   EPSILON=  1.0000000 bulk dielectric constant

 Exchange correlation treatment:
   GGA     =    PE    GGA type
   LEXCH   =     8    internal setting for exchange type
   LIBXC   =     F    Libxc                    
   VOSKOWN =     0    Vosko Wilk Nusair interpolation
   LHFCALC =     F    Hartree Fock is set to
   LHFONE  =     F    Hartree Fock one center treatment
   AEXX    =    0.0000 exact exchange contribution

 Linear response parameters
   LEPSILON=     F    determine dielectric tensor
   LRPA    =     F    only Hartree local field effects (RPA)
   LNABLA  =     F    use nabla operator in PAW spheres
   LVEL    =     F    velocity operator in full k-point grid
   CSHIFT  =0.1000    complex shift for real part using Kramers Kronig
   OMEGAMAX=  -1.0    maximum frequency
   DEG_THRESHOLD= 0.2000000E-02 threshold for treating states as degnerate
   RTIME   =   -0.100 relaxation time in fs
  (WPLASMAI=    0.000 imaginary part of plasma frequency in eV, 0.658/RTIME)
   DFIELD  = 0.0000000 0.0000000 0.0000000 field for delta impulse in time
 
  Optional k-point grid parameters
   LKPOINTS_OPT  =     F    use optional k-point grid
   KPOINTS_OPT_MODE=     1    mode for optional k-point grid
 
 Orbital magnetization related:
   ORBITALMAG=     F  switch on orbital magnetization
   LCHIMAG   =     F  perturbation theory with respect to B field
   DQ        =  0.001000  dq finite difference perturbation B field
   LLRAUG    =     F  two centre corrections for induced B field



--------------------------------------------------------------------------------------------------------


 conjugate gradient relaxation of ions
 charge density and potential will be updated during run
 spin polarized calculation
 Variant of blocked Davidson
 Davidson routine will perform the subspace rotation
 perform sub-space diagonalisation
    after iterative eigenvector-optimisation
 modified Broyden-mixing scheme, WC =      100.0
 initial mixing is a Kerker type mixing with AMIX =  0.4000 and BMIX =      1.0000
 Hartree-type preconditioning will be used
 using additional bands           20
 reciprocal scheme for non local part
 use partial core corrections
 calculate Harris-corrections to forces 
   (improved forces if not selfconsistent)
 use gradient corrections 
 use of overlap-Matrix (Vanderbilt PP)
 Gauss-broadening in eV      SIGMA  =   0.10


--------------------------------------------------------------------------------------------------------


  energy-cutoff  :      450.00
  volume of cell :      304.31
      direct lattice vectors                 reciprocal lattice vectors
     4.191562954  2.420000000  0.000000000     0.119287246  0.206611570  0.000000000
    -4.191562954  2.420000000  0.000000000    -0.119287246  0.206611570  0.000000000
     0.000000000  0.000000000 15.000000000     0.000000000  0.000000000  0.066666667

  length of vectors
     4.840000000  4.840000000 15.000000000     0.238574491  0.238574491  0.066666667


 
 k-points in units of 2pi/SCALE and weight: k-points                                
   0.00000000  0.00000000  0.00000000       0.007
   0.00994060  0.01721763  0.00000000       0.014
  -0.00994060  0.01721763  0.00000000       0.014
  -0.01988121 -0.00000000  0.00000000       0.014
   0.01988121  0.03443526  0.00000000       0.014
  -0.01988121  0.03443526  0.00000000       0.014
  -0.03976242  0.00000000  0.00000000       0.014
   0.02982181  0.05165289  0.00000000       0.014
  -0.02982181  0.05165289  0.00000000       0.014
  -0.05964362 -0.00000000  0.00000000       0.014
   0.03976242  0.06887052  0.00000000       0.014
  -0.03976242  0.06887052  0.00000000       0.014
  -0.07952483 -0.00000000  0.00000000       0.014
   0.04970302  0.08608815  0.00000000       0.014
  -0.04970302  0.08608815  0.00000000       0.014
  -0.09940604 -0.00000000  0.00000000       0.014
   0.05964362  0.10330579  0.00000000       0.007
  -0.05964362  0.10330579  0.00000000       0.007
   0.00000000  0.20661157  0.00000000       0.007
  -0.00000000  0.03443526  0.00000000       0.014
  -0.02982181  0.01721763  0.00000000       0.014
  -0.02982181 -0.01721763  0.00000000       0.014
   0.00994060  0.05165289  0.00000000       0.014
  -0.03976242  0.03443526  0.00000000       0.014
  -0.04970302 -0.01721763  0.00000000       0.014
  -0.04970302  0.01721763  0.00000000       0.014
  -0.00994060  0.05165289  0.00000000       0.014
   0.03976242  0.03443526  0.00000000       0.014
   0.01988121  0.06887052  0.00000000       0.014
  -0.04970302  0.05165289  0.00000000       0.014
  -0.06958423 -0.01721763  0.00000000       0.014
  -0.06958423  0.01721763  0.00000000       0.014
  -0.01988121  0.06887052  0.00000000       0.014
   0.04970302  0.05165289  0.00000000       0.014
   0.02982181  0.08608815  0.00000000       0.014
  -0.05964362  0.06887052  0.00000000       0.014
  -0.08946543 -0.01721763  0.00000000       0.014
  -0.08946543  0.01721763  0.00000000       0.014
  -0.02982181  0.08608815  0.00000000       0.014
   0.05964362  0.06887052  0.00000000       0.014
   0.03976242  0.10330579  0.00000000       0.014
  -0.06958423  0.08608815  0.00000000       0.014
   0.00994060  0.18939394  0.00000000       0.014
  -0.10934664  0.01721763  0.00000000       0.014
  -0.03976242  0.10330579  0.00000000       0.014
   0.06958423  0.08608815  0.00000000       0.014
  -0.00000000  0.06887052  0.00000000       0.014
  -0.05964362  0.03443526  0.00000000       0.014
  -0.05964362 -0.03443526  0.00000000       0.014
   0.00994060  0.08608815  0.00000000       0.014
  -0.06958423  0.05165289  0.00000000       0.014
  -0.07952483 -0.03443526  0.00000000       0.014
  -0.07952483  0.03443526  0.00000000       0.014
  -0.00994060  0.08608815  0.00000000       0.014
   0.06958423  0.05165289  0.00000000       0.014
   0.01988121  0.10330579  0.00000000       0.014
  -0.07952483  0.06887052  0.00000000       0.014
   0.01988121  0.17217631  0.00000000       0.014
  -0.09940604  0.03443526  0.00000000       0.014
  -0.01988121  0.10330579  0.00000000       0.014
   0.07952483  0.06887052  0.00000000       0.014
   0.02982181  0.12052342  0.00000000       0.014
   0.02982181 -0.12052342  0.00000000       0.014
   0.00000000  0.17217631  0.00000000       0.014
   0.00000000  0.10330579  0.00000000       0.014
  -0.08946543  0.05165289  0.00000000       0.014
   0.02982181  0.15495868  0.00000000       0.014
   0.00994060  0.12052342  0.00000000       0.014
   0.01988121 -0.13774105  0.00000000       0.014
   0.00994060  0.15495868  0.00000000       0.014
   0.00994060 -0.15495868  0.00000000       0.014
  -0.00994060  0.12052342  0.00000000       0.014
  -0.01988121 -0.13774105  0.00000000       0.014
  -0.00000000  0.13774105  0.00000000       0.014
 
 k-points in reciprocal lattice and weights: k-points                                
   0.00000000  0.00000000  0.00000000       0.007
   0.08333333  0.00000000  0.00000000       0.014
   0.00000000  0.08333333  0.00000000       0.014
  -0.08333333  0.08333333  0.00000000       0.014
   0.16666667  0.00000000  0.00000000       0.014
   0.00000000  0.16666667  0.00000000       0.014
  -0.16666667  0.16666667  0.00000000       0.014
   0.25000000  0.00000000  0.00000000       0.014
   0.00000000  0.25000000  0.00000000       0.014
  -0.25000000  0.25000000  0.00000000       0.014
   0.33333333  0.00000000  0.00000000       0.014
  -0.00000000  0.33333333  0.00000000       0.014
  -0.33333333  0.33333333  0.00000000       0.014
   0.41666667  0.00000000  0.00000000       0.014
  -0.00000000  0.41666667  0.00000000       0.014
  -0.41666667  0.41666667  0.00000000       0.014
   0.50000000  0.00000000  0.00000000       0.007
   0.00000000  0.50000000  0.00000000       0.007
   0.50000000  0.50000000  0.00000000       0.007
   0.08333333  0.08333333  0.00000000       0.014
  -0.08333333  0.16666667  0.00000000       0.014
  -0.16666667  0.08333333  0.00000000       0.014
   0.16666667  0.08333333  0.00000000       0.014
  -0.08333333  0.25000000  0.00000000       0.014
  -0.25000000  0.16666667  0.00000000       0.014
  -0.16666667  0.25000000  0.00000000       0.014
   0.08333333  0.16666667  0.00000000       0.014
   0.25000000 -0.08333333  0.00000000       0.014
   0.25000000  0.08333333  0.00000000       0.014
  -0.08333333  0.33333333  0.00000000       0.014
  -0.33333333  0.25000000  0.00000000       0.014
  -0.25000000  0.33333333  0.00000000       0.014
   0.08333333  0.25000000  0.00000000       0.014
   0.33333333 -0.08333333  0.00000000       0.014
   0.33333333  0.08333333  0.00000000       0.014
  -0.08333333  0.41666667  0.00000000       0.014
  -0.41666667  0.33333333  0.00000000       0.014
  -0.33333333  0.41666667  0.00000000       0.014
   0.08333333  0.33333333  0.00000000       0.014
   0.41666667 -0.08333333  0.00000000       0.014
   0.41666667  0.08333333  0.00000000       0.014
  -0.08333333  0.50000000  0.00000000       0.014
   0.50000000  0.41666667  0.00000000       0.014
  -0.41666667  0.50000000  0.00000000       0.014
   0.08333333  0.41666667  0.00000000       0.014
   0.50000000 -0.08333333  0.00000000       0.014
   0.16666667  0.16666667  0.00000000       0.014
  -0.16666667  0.33333333  0.00000000       0.014
  -0.33333333  0.16666667  0.00000000       0.014
   0.25000000  0.16666667  0.00000000       0.014
  -0.16666667  0.41666667  0.00000000       0.014
  -0.41666667  0.25000000  0.00000000       0.014
  -0.25000000  0.41666667  0.00000000       0.014
   0.16666667  0.25000000  0.00000000       0.014
   0.41666667 -0.16666667  0.00000000       0.014
   0.33333333  0.16666667  0.00000000       0.014
  -0.16666667  0.50000000  0.00000000       0.014
   0.50000000  0.33333333  0.00000000       0.014
  -0.33333333  0.50000000  0.00000000       0.014
   0.16666667  0.33333333  0.00000000       0.014
   0.50000000 -0.16666667  0.00000000       0.014
   0.41666667  0.16666667  0.00000000       0.014
  -0.16666667 -0.41666667  0.00000000       0.014
   0.41666667  0.41666667  0.00000000       0.014
   0.25000000  0.25000000  0.00000000       0.014
  -0.25000000  0.50000000  0.00000000       0.014
   0.50000000  0.25000000  0.00000000       0.014
   0.33333333  0.25000000  0.00000000       0.014
  -0.25000000 -0.41666667  0.00000000       0.014
   0.41666667  0.33333333  0.00000000       0.014
  -0.33333333 -0.41666667  0.00000000       0.014
   0.25000000  0.33333333  0.00000000       0.014
  -0.41666667 -0.25000000  0.00000000       0.014
   0.33333333  0.33333333  0.00000000       0.014
 
 position of ions in fractional coordinates (direct lattice) 
   0.00415361  0.00267210  0.12034134
   0.35695335  0.00285503  0.09748893
   0.00423858  0.35550699  0.09749256
   0.65142295  0.65006557  0.09747688
   0.32808646  0.32671938  0.10030508
   0.68027775  0.00278085  0.10027562
   0.00416530  0.67883808  0.10026559
   0.99999933  0.49999967  0.33373333
   0.16666633  0.33333267  0.33373333
   0.99999933  0.99999967  0.33373333
   0.16666633  0.83333267  0.33373333
   0.49999933  0.49999967  0.33373333
   0.66666633  0.33333267  0.33373333
   0.49999933  0.99999967  0.33373333
   0.66666633  0.83333267  0.33373333
 
 position of ions in cartesian coordinates  (Angst):
   0.00620982  0.01651822  1.80512007
   1.48422540  0.87073628  1.46233401
  -1.47236367  0.87058428  1.46238846
   0.00568955  3.14960223  1.46215318
   0.00573023  1.58463013  1.50457617
   2.83977089  1.65300181  1.50413432
  -2.82793342  1.65286818  1.50398380
   2.09578008  3.62999758  5.00600000
  -0.69859243  1.20999758  5.00600000
  -0.00000140  4.83999758  5.00600000
  -2.79437391  2.41999758  5.00600000
  -0.00000140  2.41999758  5.00600000
   1.39718905  2.41999758  5.00600000
  -2.09578287  3.62999758  5.00600000
  -0.69859243  3.62999758  5.00600000
 


--------------------------------------------------------------------------------------------------------


 k-point   1 :   0.0000 0.0000 0.0000  plane waves:    6645
 k-point   2 :   0.0833 0.0000 0.0000  plane waves:    6613
 k-point   3 :   0.0000 0.0833 0.0000  plane waves:    6613
 k-point   4 :  -0.0833 0.0833 0.0000  plane waves:    6613
 k-point   5 :   0.1667 0.0000 0.0000  plane waves:    6635
 k-point   6 :   0.0000 0.1667 0.0000  plane waves:    6635
 k-point   7 :  -0.1667 0.1667 0.0000  plane waves:    6635
 k-point   8 :   0.2500 0.0000 0.0000  plane waves:    6599
 k-point   9 :   0.0000 0.2500 0.0000  plane waves:    6599
 k-point  10 :  -0.2500 0.2500 0.0000  plane waves:    6599
 k-point  11 :   0.3333 0.0000 0.0000  plane waves:    6580
 k-point  12 :  -0.0000 0.3333 0.0000  plane waves:    6580
 k-point  13 :  -0.3333 0.3333 0.0000  plane waves:    6580
 k-point  14 :   0.4167 0.0000 0.0000  plane waves:    6578
 k-point  15 :  -0.0000 0.4167 0.0000  plane waves:    6578
 k-point  16 :  -0.4167 0.4167 0.0000  plane waves:    6578
 k-point  17 :   0.5000 0.0000 0.0000  plane waves:    6594
 k-point  18 :   0.0000 0.5000 0.0000  plane waves:    6594
 k-point  19 :   0.5000 0.5000 0.0000  plane waves:    6594
 k-point  20 :   0.0833 0.0833 0.0000  plane waves:    6621
 k-point  21 :  -0.0833 0.1667 0.0000  plane waves:    6621
 k-point  22 :  -0.1667 0.0833 0.0000  plane waves:    6621
 k-point  23 :   0.1667 0.0833 0.0000  plane waves:    6616
 k-point  24 :  -0.0833 0.2500 0.0000  plane waves:    6616
 k-point  25 :  -0.2500 0.1667 0.0000  plane waves:    6616
 k-point  26 :  -0.1667 0.2500 0.0000  plane waves:    6616
 k-point  27 :   0.0833 0.1667 0.0000  plane waves:    6616
 k-point  28 :   0.2500-0.0833 0.0000  plane waves:    6616
 k-point  29 :   0.2500 0.0833 0.0000  plane waves:    6583
 k-point  30 :  -0.0833 0.3333 0.0000  plane waves:    6583
 k-point  31 :  -0.3333 0.2500 0.0000  plane waves:    6583
 k-point  32 :  -0.2500 0.3333 0.0000  plane waves:    6583
 k-point  33 :   0.0833 0.2500 0.0000  plane waves:    6583
 k-point  34 :   0.3333-0.0833 0.0000  plane waves:    6583
 k-point  35 :   0.3333 0.0833 0.0000  plane waves:    6572
 k-point  36 :  -0.0833 0.4167 0.0000  plane waves:    6572
 k-point  37 :  -0.4167 0.3333 0.0000  plane waves:    6572
 k-point  38 :  -0.3333 0.4167 0.0000  plane waves:    6572
 k-point  39 :   0.0833 0.3333 0.0000  plane waves:    6572
 k-point  40 :   0.4167-0.0833 0.0000  plane waves:    6572
 k-point  41 :   0.4167 0.0833 0.0000  plane waves:    6586
 k-point  42 :  -0.0833 0.5000 0.0000  plane waves:    6586
 k-point  43 :   0.5000 0.4167 0.0000  plane waves:    6586
 k-point  44 :  -0.4167 0.5000 0.0000  plane waves:    6586
 k-point  45 :   0.0833 0.4167 0.0000  plane waves:    6586
 k-point  46 :   0.5000-0.0833 0.0000  plane waves:    6586
 k-point  47 :   0.1667 0.1667 0.0000  plane waves:    6585
 k-point  48 :  -0.1667 0.3333 0.0000  plane waves:    6585
 k-point  49 :  -0.3333 0.1667 0.0000  plane waves:    6585
 k-point  50 :   0.2500 0.1667 0.0000  plane waves:    6578
 k-point  51 :  -0.1667 0.4167 0.0000  plane waves:    6578
 k-point  52 :  -0.4167 0.2500 0.0000  plane waves:    6578
 k-point  53 :  -0.2500 0.4167 0.0000  plane waves:    6578
 k-point  54 :   0.1667 0.2500 0.0000  plane waves:    6578
 k-point  55 :   0.4167-0.1667 0.0000  plane waves:    6578
 k-point  56 :   0.3333 0.1667 0.0000  plane waves:    6593
 k-point  57 :  -0.1667 0.5000 0.0000  plane waves:    6593
 k-point  58 :   0.5000 0.3333 0.0000  plane waves:    6593
 k-point  59 :  -0.3333 0.5000 0.0000  plane waves:    6593
 k-point  60 :   0.1667 0.3333 0.0000  plane waves:    6593
 k-point  61 :   0.5000-0.1667 0.0000  plane waves:    6593
 k-point  62 :   0.4167 0.1667 0.0000  plane waves:    6574
 k-point  63 :  -0.1667-0.4167 0.0000  plane waves:    6574
 k-point  64 :   0.4167 0.4167 0.0000  plane waves:    6574
 k-point  65 :   0.2500 0.2500 0.0000  plane waves:    6586
 k-point  66 :  -0.2500 0.5000 0.0000  plane waves:    6586
 k-point  67 :   0.5000 0.2500 0.0000  plane waves:    6586
 k-point  68 :   0.3333 0.2500 0.0000  plane waves:    6588
 k-point  69 :  -0.2500-0.4167 0.0000  plane waves:    6588
 k-point  70 :   0.4167 0.3333 0.0000  plane waves:    6588
 k-point  71 :  -0.3333-0.4167 0.0000  plane waves:    6588
 k-point  72 :   0.2500 0.3333 0.0000  plane waves:    6588
 k-point  73 :  -0.4167-0.2500 0.0000  plane waves:    6588
 k-point  74 :   0.3333 0.3333 0.0000  plane waves:    6588

 maximum and minimum number of plane-waves per node :      6645     6572

 maximum number of plane-waves:      6645
 maximum index in each direction: 
   IXMAX=    8   IYMAX=    8   IZMAX=   25
   IXMIN=   -8   IYMIN=   -8   IZMIN=  -25


 serial   3D FFT for wavefunctions
 parallel 3D FFT for charge:
    minimum data exchange during FFTs selected (reduces bandwidth)


 total amount of memory used by VASP MPI-rank0   126335. kBytes
=======================================================================

   base      :      30000. kBytes
   nonl-proj :      64798. kBytes
   fftplans  :       1560. kBytes
   grid      :      13745. kBytes
   one-center:         92. kBytes
   wavefun   :      16140. kBytes
 
     INWAV:  cpu time      0.0000: real time      0.0000
 Broyden mixing: mesh for mixing (old mesh)
   NGX = 17   NGY = 17   NGZ = 51
  (NGX  = 72   NGY  = 72   NGZ  =216)
  gives a total of  14739 points

 initial charge density was supplied:
 charge density of overlapping atoms calculated
 number of electron      56.0000000 magnetization      15.0000000
 keeping initial charge density in first step


--------------------------------------------------------------------------------------------------------


 Maximum index for augmentation-charges          395 (set IRDMAX)


--------------------------------------------------------------------------------------------------------


 First call to EWALD:  gamma=   0.264
 Maximum number of real-space cells 4x 4x 2
 Maximum number of reciprocal cells 2x 2x 6

    FEWALD:  cpu time      0.0015: real time      0.0015


--------------------------------------- Iteration      1(   1)  ---------------------------------------


    POTLOK:  cpu time      0.0397: real time      0.0415
    SETDIJ:  cpu time      0.0039: real time      0.0039
     EDDAV:  cpu time      5.4578: real time      5.5062
       DOS:  cpu time      0.0018: real time      0.0034
    --------------------------------------------
      LOOP:  cpu time      5.5032: real time      5.5550

 eigenvalue-minimisations  : 14208
 total energy-change (2. order) : 0.2030601E+03  (-0.2571758E+04)
 number of electron      56.0000000 magnetization      15.0000000
 augmentation part       56.0000000 magnetization      15.0000000

 Free energy of the ion-electron system (eV)
  ---------------------------------------------------
  alpha Z        PSCENC =        58.45171928
  Ewald energy   TEWEN  =      4798.58565077
  -Hartree energ DENC   =     -6353.82430063
  -exchange      EXHF   =         0.00000000
  -V(xc)+E(xc)   XCENC  =       175.25270503
  PAW double counting   =      1365.87943566    -1368.52100941
  entropy T*S    EENTRO =        -0.01526866
  eigenvalues    EBANDS =      -376.01220334
  atomic energy  EATOM  =      1903.26342058
  Solvation  Ediel_sol  =         0.00000000
  ---------------------------------------------------
  free energy    TOTEN  =       203.06014929 eV

  energy without entropy =      203.07541796  energy(sigma->0) =      203.06778362


--------------------------------------------------------------------------------------------------------




--------------------------------------- Iteration      1(   2)  ---------------------------------------


     EDDAV:  cpu time      7.8436: real time      7.9096
       DOS:  cpu time      0.0011: real time      0.0011
    --------------------------------------------
      LOOP:  cpu time      7.8447: real time      7.9107

 eigenvalue-minimisations  : 20112
 total energy-change (2. order) :-0.3195102E+03  (-0.3181557E+03)
 number of electron      56.0000000 magnetization      15.0000000
 augmentation part       56.0000000 magnetization      15.0000000

 Free energy of the ion-electron system (eV)
  ---------------------------------------------------
  alpha Z        PSCENC =        58.45171928
  Ewald energy   TEWEN  =      4798.58565077
  -Hartree energ DENC   =     -6353.82430063
  -exchange      EXHF   =         0.00000000
  -V(xc)+E(xc)   XCENC  =       175.25270503
  PAW double counting   =      1365.87943566    -1368.52100941
  entropy T*S    EENTRO =        -0.00005307
  eigenvalues    EBANDS =      -695.53759342
  atomic energy  EATOM  =      1903.26342058
  Solvation  Ediel_sol  =         0.00000000
  ---------------------------------------------------
  free energy    TOTEN  =      -116.45002520 eV

  energy without entropy =     -116.44997213  energy(sigma->0) =     -116.44999866


--------------------------------------------------------------------------------------------------------




--------------------------------------- Iteration      1(   3)  ---------------------------------------


     EDDAV:  cpu time     11.1708: real time     11.2454
       DOS:  cpu time      0.0011: real time      0.0011
    --------------------------------------------
      LOOP:  cpu time     11.1719: real time     11.2465

 eigenvalue-minimisations  : 26640
 total energy-change (2. order) :-0.1298648E+02  (-0.1297551E+02)
 number of electron      56.0000000 magnetization      15.0000000
 augmentation part       56.0000000 magnetization      15.0000000

 Free energy of the ion-electron system (eV)
  ---------------------------------------------------
  alpha Z        PSCENC =        58.45171928
  Ewald energy   TEWEN  =      4798.58565077
  -Hartree energ DENC   =     -6353.82430063
  -exchange      EXHF   =         0.00000000
  -V(xc)+E(xc)   XCENC  =       175.25270503
  PAW double counting   =      1365.87943566    -1368.52100941
  entropy T*S    EENTRO =        -0.00315280
  eigenvalues    EBANDS =      -708.52097555
  atomic energy  EATOM  =      1903.26342058
  Solvation  Ediel_sol  =         0.00000000
  ---------------------------------------------------
  free energy    TOTEN  =      -129.43650705 eV

  energy without entropy =     -129.43335426  energy(sigma->0) =     -129.43493066


--------------------------------------------------------------------------------------------------------




--------------------------------------- Iteration      1(   4)  ---------------------------------------


     EDDAV:  cpu time      8.0929: real time      8.1584
       DOS:  cpu time      0.0011: real time      0.0011
    --------------------------------------------
      LOOP:  cpu time      8.0940: real time      8.1595

 eigenvalue-minimisations  : 20112
 total energy-change (2. order) :-0.2497589E-01  (-0.2497563E-01)
 number of electron      56.0000000 magnetization      15.0000000
 augmentation part       56.0000000 magnetization      15.0000000

 Free energy of the ion-electron system (eV)
  ---------------------------------------------------
  alpha Z        PSCENC =        58.45171928
  Ewald energy   TEWEN  =      4798.58565077
  -Hartree energ DENC   =     -6353.82430063
  -exchange      EXHF   =         0.00000000
  -V(xc)+E(xc)   XCENC  =       175.25270503
  PAW double counting   =      1365.87943566    -1368.52100941
  entropy T*S    EENTRO =        -0.00317303
  eigenvalues    EBANDS =      -708.54593120
  atomic energy  EATOM  =      1903.26342058
  Solvation  Ediel_sol  =         0.00000000
  ---------------------------------------------------
  free energy    TOTEN  =      -129.46148294 eV

  energy without entropy =     -129.45830991  energy(sigma->0) =     -129.45989643


--------------------------------------------------------------------------------------------------------




--------------------------------------- Iteration      1(   5)  ---------------------------------------


     EDDAV:  cpu time     10.7023: real time     10.7736
       DOS:  cpu time      0.0011: real time      0.0011
    CHARGE:  cpu time      0.2608: real time      0.2755
    MIXING:  cpu time      0.0019: real time      0.0024
    --------------------------------------------
      LOOP:  cpu time     10.9661: real time     11.0527

 eigenvalue-minimisations  : 25680
 total energy-change (2. order) :-0.5905807E-04  (-0.5905772E-04)
 number of electron      55.9999998 magnetization      11.4640713
 augmentation part        1.2079160 magnetization      11.2823779

 Broyden mixing:
  rms(total) = 0.24478E+01    rms(broyden)= 0.24476E+01
  rms(prec ) = 0.26226E+01
  weight for this iteration     100.00

 Free energy of the ion-electron system (eV)
  ---------------------------------------------------
  alpha Z        PSCENC =        58.45171928
  Ewald energy   TEWEN  =      4798.58565077
  -Hartree energ DENC   =     -6353.82430063
  -exchange      EXHF   =         0.00000000
  -V(xc)+E(xc)   XCENC  =       175.25270503
  PAW double counting   =      1365.87943566    -1368.52100941
  entropy T*S    EENTRO =        -0.00317313
  eigenvalues    EBANDS =      -708.54599016
  atomic energy  EATOM  =      1903.26342058
  Solvation  Ediel_sol  =         0.00000000
  ---------------------------------------------------
  free energy    TOTEN  =      -129.46154200 eV

  energy without entropy =     -129.45836887  energy(sigma->0) =     -129.45995543


--------------------------------------------------------------------------------------------------------




--------------------------------------- Iteration      1(   6)  ---------------------------------------


    POTLOK:  cpu time      0.0355: real time      0.0390
    SETDIJ:  cpu time      0.0034: real time      0.0036
     EDDAV:  cpu time     10.6762: real time     10.7352
       DOS:  cpu time      0.0011: real time      0.0011
    CHARGE:  cpu time      0.2576: real time      0.2656
    MIXING:  cpu time      0.0010: real time      0.0013
    --------------------------------------------
      LOOP:  cpu time     10.9749: real time     11.0458

 eigenvalue-minimisations  : 25824
 total energy-change (2. order) : 0.3729619E+02  (-0.7192683E+01)
 number of electron      55.9999998 magnetization       7.8493449
 augmentation part        1.1547655 magnetization       7.4869509

 Broyden mixing:
  rms(total) = 0.13939E+01    rms(broyden)= 0.13938E+01
  rms(prec ) = 0.15058E+01
  weight for this iteration     100.00

 eigenvalues of (default mixing * dielectric matrix)
  average eigenvalue GAMMA=   1.0722
  1.0722

 Free energy of the ion-electron system (eV)
  ---------------------------------------------------
  alpha Z        PSCENC =        58.45171928
  Ewald energy   TEWEN  =      4798.58565077
  -Hartree energ DENC   =     -6428.58639301
  -exchange      EXHF   =         0.00000000
  -V(xc)+E(xc)   XCENC  =       199.25310686
  PAW double counting   =      2644.17940003    -2648.03592875
  entropy T*S    EENTRO =        -0.00595320
  eigenvalues    EBANDS =      -619.27037038
  atomic energy  EATOM  =      1903.26342058
  Solvation  Ediel_sol  =         0.00000000
  ---------------------------------------------------
  free energy    TOTEN  =       -92.16534782 eV

  energy without entropy =      -92.15939462  energy(sigma->0) =      -92.16237122


--------------------------------------------------------------------------------------------------------




--------------------------------------- Iteration      1(   7)  ---------------------------------------


    POTLOK:  cpu time      0.0330: real time      0.0390
    SETDIJ:  cpu time      0.0033: real time      0.0034
     EDDAV:  cpu time      8.9673: real time      9.0298
       DOS:  cpu time      0.0011: real time      0.0010
    CHARGE:  cpu time      0.2563: real time      0.2633
    MIXING:  cpu time      0.0009: real time      0.0012
    --------------------------------------------
      LOOP:  cpu time      9.2618: real time      9.3376

 eigenvalue-minimisations  : 21936
 total energy-change (2. order) :-0.8450282E+01  (-0.9874796E+00)
 number of electron      55.9999998 magnetization       4.2688848
 augmentation part        1.0946384 magnetization       4.0061722

 Broyden mixing:
  rms(total) = 0.81323E+00    rms(broyden)= 0.81314E+00
  rms(prec ) = 0.84628E+00
  weight for this iteration     100.00

 eigenvalues of (default mixing * dielectric matrix)
  average eigenvalue GAMMA=   1.3874
  0.8819  1.8930

 Free energy of the ion-electron system (eV)
  ---------------------------------------------------
  alpha Z        PSCENC =        58.45171928
  Ewald energy   TEWEN  =      4798.58565077
  -Hartree energ DENC   =     -6501.83705981
  -exchange      EXHF   =         0.00000000
  -V(xc)+E(xc)   XCENC  =       193.49900920
  PAW double counting   =      4178.64655241    -4183.18508771
  entropy T*S    EENTRO =        -0.00557543
  eigenvalues    EBANDS =      -548.03425915
  atomic energy  EATOM  =      1903.26342058
  Solvation  Ediel_sol  =         0.00000000
  ---------------------------------------------------
  free energy    TOTEN  =      -100.61562985 eV

  energy without entropy =     -100.61005442  energy(sigma->0) =     -100.61284214


--------------------------------------------------------------------------------------------------------




--------------------------------------- Iteration      1(   8)  ---------------------------------------


    POTLOK:  cpu time      0.0307: real time      0.0320
    SETDIJ:  cpu time      0.0033: real time      0.0034
     EDDAV:  cpu time     10.3032: real time     10.3631
       DOS:  cpu time      0.0010: real time      0.0010
    CHARGE:  cpu time      0.2585: real time      0.2682
    MIXING:  cpu time      0.0007: real time      0.0008
    --------------------------------------------
      LOOP:  cpu time     10.5974: real time     10.6685

 eigenvalue-minimisations  : 24816
 total energy-change (2. order) :-0.9857062E+01  (-0.8861163E+00)
 number of electron      55.9999998 magnetization       2.8190362
 augmentation part        1.0475592 magnetization       2.7221081

 Broyden mixing:
  rms(total) = 0.43672E+00    rms(broyden)= 0.43665E+00
  rms(prec ) = 0.44924E+00
  weight for this iteration     100.00

 eigenvalues of (default mixing * dielectric matrix)
  average eigenvalue GAMMA=   1.3739
  2.3991  1.0635  0.6589

 Free energy of the ion-electron system (eV)
  ---------------------------------------------------
  alpha Z        PSCENC =        58.45171928
  Ewald energy   TEWEN  =      4798.58565077
  -Hartree energ DENC   =     -6551.78234794
  -exchange      EXHF   =         0.00000000
  -V(xc)+E(xc)   XCENC  =       189.60848512
  PAW double counting   =      5647.96543507    -5652.73278522
  entropy T*S    EENTRO =        -0.00001453
  eigenvalues    EBANDS =      -503.83225514
  atomic energy  EATOM  =      1903.26342058
  Solvation  Ediel_sol  =         0.00000000
  ---------------------------------------------------
  free energy    TOTEN  =      -110.47269202 eV

  energy without entropy =     -110.47267749  energy(sigma->0) =     -110.47268475


--------------------------------------------------------------------------------------------------------




--------------------------------------- Iteration      1(   9)  ---------------------------------------


    POTLOK:  cpu time      0.0331: real time      0.0345
    SETDIJ:  cpu time      0.0032: real time      0.0033
     EDDAV:  cpu time      7.8170: real time      7.8662
       DOS:  cpu time      0.0009: real time      0.0009
    CHARGE:  cpu time      0.2546: real time      0.2625
    MIXING:  cpu time      0.0009: real time      0.0009
    --------------------------------------------
      LOOP:  cpu time      8.1097: real time      8.1684

 eigenvalue-minimisations  : 19584
 total energy-change (2. order) :-0.6839900E+01  (-0.4057672E+00)
 number of electron      55.9999998 magnetization       1.4973729
 augmentation part        1.0367556 magnetization       1.4173078

 Broyden mixing:
  rms(total) = 0.27942E+00    rms(broyden)= 0.27938E+00
  rms(prec ) = 0.29326E+00
  weight for this iteration     100.00

 eigenvalues of (default mixing * dielectric matrix)
  average eigenvalue GAMMA=   1.4505
  2.5819  1.7535  0.8577  0.6087

 Free energy of the ion-electron system (eV)
  ---------------------------------------------------
  alpha Z        PSCENC =        58.45171928
  Ewald energy   TEWEN  =      4798.58565077
  -Hartree energ DENC   =     -6557.69420071
  -exchange      EXHF   =         0.00000000
  -V(xc)+E(xc)   XCENC  =       185.70985167
  PAW double counting   =      5932.04590976    -5936.70951954
  entropy T*S    EENTRO =        -0.00000452
  eigenvalues    EBANDS =      -500.96541961
  atomic energy  EATOM  =      1903.26342058
  Solvation  Ediel_sol  =         0.00000000
  ---------------------------------------------------
  free energy    TOTEN  =      -117.31259232 eV

  energy without entropy =     -117.31258780  energy(sigma->0) =     -117.31259006


--------------------------------------------------------------------------------------------------------




--------------------------------------- Iteration      1(  10)  ---------------------------------------


    POTLOK:  cpu time      0.0300: real time      0.0303
    SETDIJ:  cpu time      0.0035: real time      0.0036
     EDDAV:  cpu time     10.0110: real time     10.0853
       DOS:  cpu time      0.0010: real time      0.0010
    CHARGE:  cpu time      0.2590: real time      0.2645
    MIXING:  cpu time      0.0009: real time      0.0009
    --------------------------------------------
      LOOP:  cpu time     10.3055: real time     10.3857

 eigenvalue-minimisations  : 24192
 total energy-change (2. order) :-0.6339274E+01  (-0.8416910E+00)
 number of electron      55.9999998 magnetization       0.8293723
 augmentation part        1.0276471 magnetization       0.7887745

 Broyden mixing:
  rms(total) = 0.16100E+00    rms(broyden)= 0.16084E+00
  rms(prec ) = 0.17924E+00
  weight for this iteration     100.00

 eigenvalues of (default mixing * dielectric matrix)
  average eigenvalue GAMMA=   1.4812
  2.5337  2.5337  0.8700  0.8700  0.5988

 Free energy of the ion-electron system (eV)
  ---------------------------------------------------
  alpha Z        PSCENC =        58.45171928
  Ewald energy   TEWEN  =      4798.58565077
  -Hartree energ DENC   =     -6555.78319930
  -exchange      EXHF   =         0.00000000
  -V(xc)+E(xc)   XCENC  =       182.22524061
  PAW double counting   =      5975.31538420    -5979.77584323
  entropy T*S    EENTRO =        -0.00067654
  eigenvalues    EBANDS =      -505.93356310
  atomic energy  EATOM  =      1903.26342058
  Solvation  Ediel_sol  =         0.00000000
  ---------------------------------------------------
  free energy    TOTEN  =      -123.65186672 eV

  energy without entropy =     -123.65119019  energy(sigma->0) =     -123.65152846


--------------------------------------------------------------------------------------------------------




--------------------------------------- Iteration      1(  11)  ---------------------------------------


    POTLOK:  cpu time      0.0325: real time      0.0347
    SETDIJ:  cpu time      0.0035: real time      0.0037
     EDDAV:  cpu time     10.6569: real time     10.7162
       DOS:  cpu time      0.0010: real time      0.0010
    CHARGE:  cpu time      0.2532: real time      0.2628
    MIXING:  cpu time      0.0009: real time      0.0009
    --------------------------------------------
      LOOP:  cpu time     10.9479: real time     11.0193

 eigenvalue-minimisations  : 25872
 total energy-change (2. order) :-0.1622294E+01  (-0.2353053E+00)
 number of electron      55.9999998 magnetization       0.3423689
 augmentation part        1.0282623 magnetization       0.3235674

 Broyden mixing:
  rms(total) = 0.98506E-01    rms(broyden)= 0.98396E-01
  rms(prec ) = 0.10991E+00
  weight for this iteration     100.00

 eigenvalues of (default mixing * dielectric matrix)
  average eigenvalue GAMMA=   1.5177
  3.0577  2.2363  1.5523  0.9188  0.7301  0.6108

 Free energy of the ion-electron system (eV)
  ---------------------------------------------------
  alpha Z        PSCENC =        58.45171928
  Ewald energy   TEWEN  =      4798.58565077
  -Hartree energ DENC   =     -6552.49781933
  -exchange      EXHF   =         0.00000000
  -V(xc)+E(xc)   XCENC  =       181.10148614
  PAW double counting   =      5880.94079152    -5885.31875322
  entropy T*S    EENTRO =        -0.00117132
  eigenvalues    EBANDS =      -509.79948471
  atomic energy  EATOM  =      1903.26342058
  Solvation  Ediel_sol  =         0.00000000
  ---------------------------------------------------
  free energy    TOTEN  =      -125.27416029 eV

  energy without entropy =     -125.27298897  energy(sigma->0) =     -125.27357463


--------------------------------------------------------------------------------------------------------




--------------------------------------- Iteration      1(  12)  ---------------------------------------


    POTLOK:  cpu time      0.0294: real time      0.0320
    SETDIJ:  cpu time      0.0032: real time      0.0033
     EDDAV:  cpu time      7.5384: real time      7.5883
       DOS:  cpu time      0.0010: real time      0.0010
    CHARGE:  cpu time      0.2579: real time      0.2654
    MIXING:  cpu time      0.0009: real time      0.0009
    --------------------------------------------
      LOOP:  cpu time      7.8307: real time      7.8908

 eigenvalue-minimisations  : 19248
 total energy-change (2. order) :-0.1562842E+00  (-0.2308199E-01)
 number of electron      55.9999998 magnetization       0.1164479
 augmentation part        1.0295174 magnetization       0.1083475

 Broyden mixing:
  rms(total) = 0.44276E-01    rms(broyden)= 0.44251E-01
  rms(prec ) = 0.48971E-01
  weight for this iteration     100.00

 eigenvalues of (default mixing * dielectric matrix)
  average eigenvalue GAMMA=   1.5680
  3.5957  2.1313  2.1313  0.8932  0.8932  0.7242  0.6072

 Free energy of the ion-electron system (eV)
  ---------------------------------------------------
  alpha Z        PSCENC =        58.45171928
  Ewald energy   TEWEN  =      4798.58565077
  -Hartree energ DENC   =     -6552.08285730
  -exchange      EXHF   =         0.00000000
  -V(xc)+E(xc)   XCENC  =       180.78203683
  PAW double counting   =      5824.02712855    -5828.42235337
  entropy T*S    EENTRO =        -0.00147885
  eigenvalues    EBANDS =      -510.03371099
  atomic energy  EATOM  =      1903.26342058
  Solvation  Ediel_sol  =         0.00000000
  ---------------------------------------------------
  free energy    TOTEN  =      -125.43044451 eV

  energy without entropy =     -125.42896566  energy(sigma->0) =     -125.42970509


--------------------------------------------------------------------------------------------------------




--------------------------------------- Iteration      1(  13)  ---------------------------------------


    POTLOK:  cpu time      0.0300: real time      0.0305
    SETDIJ:  cpu time      0.0034: real time      0.0034
     EDDAV:  cpu time      7.2328: real time      7.2843
       DOS:  cpu time      0.0010: real time      0.0010
    CHARGE:  cpu time      0.2560: real time      0.2675
    MIXING:  cpu time      0.0009: real time      0.0009
    --------------------------------------------
      LOOP:  cpu time      7.5241: real time      7.5876

 eigenvalue-minimisations  : 18192
 total energy-change (2. order) :-0.3498151E-01  (-0.2438364E-02)
 number of electron      55.9999998 magnetization       0.0339042
 augmentation part        1.0295967 magnetization       0.0312367

 Broyden mixing:
  rms(total) = 0.18070E-01    rms(broyden)= 0.18066E-01
  rms(prec ) = 0.22067E-01
  weight for this iteration     100.00

 eigenvalues of (default mixing * dielectric matrix)
  average eigenvalue GAMMA=   1.5839
  3.9499  2.3005  2.3005  1.0229  0.8966  0.8966  0.6127  0.6915

 Free energy of the ion-electron system (eV)
  ---------------------------------------------------
  alpha Z        PSCENC =        58.45171928
  Ewald energy   TEWEN  =      4798.58565077
  -Hartree energ DENC   =     -6552.69072610
  -exchange      EXHF   =         0.00000000
  -V(xc)+E(xc)   XCENC  =       180.70506840
  PAW double counting   =      5802.69477674    -5807.11094324
  entropy T*S    EENTRO =        -0.00153395
  eigenvalues    EBANDS =      -509.36285850
  atomic energy  EATOM  =      1903.26342058
  Solvation  Ediel_sol  =         0.00000000
  ---------------------------------------------------
  free energy    TOTEN  =      -125.46542602 eV

  energy without entropy =     -125.46389208  energy(sigma->0) =     -125.46465905


--------------------------------------------------------------------------------------------------------




--------------------------------------- Iteration      1(  14)  ---------------------------------------


    POTLOK:  cpu time      0.0349: real time      0.0394
    SETDIJ:  cpu time      0.0032: real time      0.0034
     EDDAV:  cpu time      8.1032: real time      8.1507
       DOS:  cpu time      0.0009: real time      0.0009
    CHARGE:  cpu time      0.2523: real time      0.2617
    MIXING:  cpu time      0.0010: real time      0.0010
    --------------------------------------------
      LOOP:  cpu time      8.3956: real time      8.4573

 eigenvalue-minimisations  : 20400
 total energy-change (2. order) :-0.2300197E-01  (-0.6643230E-03)
 number of electron      55.9999998 magnetization       0.0034820
 augmentation part        1.0297565 magnetization       0.0024814

 Broyden mixing:
  rms(total) = 0.81592E-02    rms(broyden)= 0.81571E-02
  rms(prec ) = 0.12084E-01
  weight for this iteration     100.00

 eigenvalues of (default mixing * dielectric matrix)
  average eigenvalue GAMMA=   1.5587
  4.1076  2.3047  2.3047  1.3861  0.9225  0.9225  0.7926  0.6158  0.6721

 Free energy of the ion-electron system (eV)
  ---------------------------------------------------
  alpha Z        PSCENC =        58.45171928
  Ewald energy   TEWEN  =      4798.58565077
  -Hartree energ DENC   =     -6552.96606405
  -exchange      EXHF   =         0.00000000
  -V(xc)+E(xc)   XCENC  =       180.65196398
  PAW double counting   =      5780.53803218    -5784.96058728
  entropy T*S    EENTRO =        -0.00153868
  eigenvalues    EBANDS =      -509.05102478
  atomic energy  EATOM  =      1903.26342058
  Solvation  Ediel_sol  =         0.00000000
  ---------------------------------------------------
  free energy    TOTEN  =      -125.48842800 eV

  energy without entropy =     -125.48688932  energy(sigma->0) =     -125.48765866


--------------------------------------------------------------------------------------------------------




--------------------------------------- Iteration      1(  15)  ---------------------------------------


    POTLOK:  cpu time      0.0311: real time      0.0314
    SETDIJ:  cpu time      0.0034: real time      0.0034
     EDDAV:  cpu time      7.4202: real time      7.4666
       DOS:  cpu time      0.0010: real time      0.0010
    CHARGE:  cpu time      0.2559: real time      0.2639
    MIXING:  cpu time      0.0010: real time      0.0010
    --------------------------------------------
      LOOP:  cpu time      7.7126: real time      7.7674

 eigenvalue-minimisations  : 18576
 total energy-change (2. order) :-0.6710586E-02  (-0.2883249E-03)
 number of electron      55.9999998 magnetization      -0.0050471
 augmentation part        1.0297598 magnetization      -0.0052074

 Broyden mixing:
  rms(total) = 0.42383E-02    rms(broyden)= 0.42375E-02
  rms(prec ) = 0.78795E-02
  weight for this iteration     100.00

 eigenvalues of (default mixing * dielectric matrix)
  average eigenvalue GAMMA=   1.5620
  4.1929  2.2996  2.2996  2.0215  0.9811  0.9140  0.9140  0.7397  0.6224  0.6350

 Free energy of the ion-electron system (eV)
  ---------------------------------------------------
  alpha Z        PSCENC =        58.45171928
  Ewald energy   TEWEN  =      4798.58565077
  -Hartree energ DENC   =     -6553.43825149
  -exchange      EXHF   =         0.00000000
  -V(xc)+E(xc)   XCENC  =       180.63696055
  PAW double counting   =      5771.47701540    -5775.90106011
  entropy T*S    EENTRO =        -0.00153922
  eigenvalues    EBANDS =      -508.56905436
  atomic energy  EATOM  =      1903.26342058
  Solvation  Ediel_sol  =         0.00000000
  ---------------------------------------------------
  free energy    TOTEN  =      -125.49513858 eV

  energy without entropy =     -125.49359936  energy(sigma->0) =     -125.49436897


--------------------------------------------------------------------------------------------------------




--------------------------------------- Iteration      1(  16)  ---------------------------------------


    POTLOK:  cpu time      0.0298: real time      0.0300
    SETDIJ:  cpu time      0.0033: real time      0.0033
     EDDAV:  cpu time      6.3870: real time      6.4245
       DOS:  cpu time      0.0010: real time      0.0010
    CHARGE:  cpu time      0.2565: real time      0.2682
    MIXING:  cpu time      0.0010: real time      0.0010
    --------------------------------------------
      LOOP:  cpu time      6.6786: real time      6.7279

 eigenvalue-minimisations  : 16320
 total energy-change (2. order) :-0.2006519E-02  (-0.5931999E-04)
 number of electron      55.9999998 magnetization      -0.0070530
 augmentation part        1.0296392 magnetization      -0.0069946

 Broyden mixing:
  rms(total) = 0.22110E-02    rms(broyden)= 0.22107E-02
  rms(prec ) = 0.53428E-02
  weight for this iteration     100.00

 eigenvalues of (default mixing * dielectric matrix)
  average eigenvalue GAMMA=   1.5565
  4.2280  2.3780  2.3780  2.2477  1.1991  0.9228  0.9228  0.8795  0.7133  0.6204
  0.6316

 Free energy of the ion-electron system (eV)
  ---------------------------------------------------
  alpha Z        PSCENC =        58.45171928
  Ewald energy   TEWEN  =      4798.58565077
  -Hartree energ DENC   =     -6554.07717535
  -exchange      EXHF   =         0.00000000
  -V(xc)+E(xc)   XCENC  =       180.63858342
  PAW double counting   =      5770.03079668    -5774.45588879
  entropy T*S    EENTRO =        -0.00153917
  eigenvalues    EBANDS =      -507.93271252
  atomic energy  EATOM  =      1903.26342058
  Solvation  Ediel_sol  =         0.00000000
  ---------------------------------------------------
  free energy    TOTEN  =      -125.49714510 eV

  energy without entropy =     -125.49560593  energy(sigma->0) =     -125.49637552


--------------------------------------------------------------------------------------------------------




--------------------------------------- Iteration      1(  17)  ---------------------------------------


    POTLOK:  cpu time      0.0294: real time      0.0297
    SETDIJ:  cpu time      0.0034: real time      0.0034
     EDDAV:  cpu time      7.3014: real time      7.3545
       DOS:  cpu time      0.0009: real time      0.0009
    CHARGE:  cpu time      0.2574: real time      0.2656
    MIXING:  cpu time      0.0011: real time      0.0011
    --------------------------------------------
      LOOP:  cpu time      7.5936: real time      7.6552

 eigenvalue-minimisations  : 18336
 total energy-change (2. order) :-0.1257895E-02  (-0.1522432E-04)
 number of electron      55.9999998 magnetization      -0.0062851
 augmentation part        1.0295607 magnetization      -0.0061550

 Broyden mixing:
  rms(total) = 0.16829E-02    rms(broyden)= 0.16828E-02
  rms(prec ) = 0.35614E-02
  weight for this iteration     100.00

 eigenvalues of (default mixing * dielectric matrix)
  average eigenvalue GAMMA=   1.5538
  4.2579  2.5248  2.3639  2.3639  1.5798  1.0371  0.9082  0.9082  0.7730  0.6784
  0.6159  0.6350

 Free energy of the ion-electron system (eV)
  ---------------------------------------------------
  alpha Z        PSCENC =        58.45171928
  Ewald energy   TEWEN  =      4798.58565077
  -Hartree energ DENC   =     -6554.77992041
  -exchange      EXHF   =         0.00000000
  -V(xc)+E(xc)   XCENC  =       180.63819154
  PAW double counting   =      5769.43878988    -5773.86424036
  entropy T*S    EENTRO =        -0.00153916
  eigenvalues    EBANDS =      -507.23047512
  atomic energy  EATOM  =      1903.26342058
  Solvation  Ediel_sol  =         0.00000000
  ---------------------------------------------------
  free energy    TOTEN  =      -125.49840300 eV

  energy without entropy =     -125.49686384  energy(sigma->0) =     -125.49763342


--------------------------------------------------------------------------------------------------------




--------------------------------------- Iteration      1(  18)  ---------------------------------------


    POTLOK:  cpu time      0.0308: real time      0.0310
    SETDIJ:  cpu time      0.0034: real time      0.0035
     EDDAV:  cpu time      6.7920: real time      6.8325
       DOS:  cpu time      0.0010: real time      0.0010
    CHARGE:  cpu time      0.2540: real time      0.2651
    MIXING:  cpu time      0.0011: real time      0.0011
    --------------------------------------------
      LOOP:  cpu time      7.0823: real time      7.1341

 eigenvalue-minimisations  : 17280
 total energy-change (2. order) :-0.7751191E-03  (-0.8175830E-05)
[...]
     21      -5.7712      1.00000
     22      -5.5354      1.00000
     23      -5.2826      1.00000
     24      -5.0992      1.00000
     25      -3.8821      1.00000
     26      -3.5004      1.00000
     27      -2.9539      1.00000
     28      -1.1393      1.00000
     29       0.2559      0.00000
     30       2.2242      0.00000
     31       3.6258      0.00000
     32       3.8635      0.00000
     33       4.5314      0.00000
     34       4.8630      0.00000
     35       4.9775      0.00000
     36       5.2266      0.00000
     37       5.2981      0.00000
     38       5.5243      0.00000
     39       5.8943      0.00000
     40       6.1454      0.00000
     41       6.2397      0.00000
     42       6.5320      0.00000
     43       6.6950      0.00000
     44       7.0896      0.00000
     45       7.2541      0.00000
     46       7.3177      0.00000
     47       7.7539      0.00000
     48       8.3148      0.00000

 k-point    74 :       0.3333    0.3333    0.0000
  band No.  band energies     occupation 
      1     -18.3768      1.00000
      2     -18.3563      1.00000
      3     -18.3461      1.00000
      4     -16.5771      1.00000
      5     -14.3996      1.00000
      6     -14.3919      1.00000
      7     -13.1567      1.00000
      8     -13.1560      1.00000
      9     -11.3649      1.00000
     10      -8.9152      1.00000
     11      -8.9144      1.00000
     12      -8.2441      1.00000
     13      -8.2285      1.00000
     14      -8.2221      1.00000
     15      -7.9573      1.00000
     16      -6.9773      1.00000
     17      -6.9607      1.00000
     18      -6.9587      1.00000
     19      -6.2889      1.00000
     20      -6.0464      1.00000
     21      -6.0443      1.00000
     22      -5.5283      1.00000
     23      -5.5233      1.00000
     24      -5.0725      1.00000
     25      -3.7846      1.00000
     26      -3.3270      1.00000
     27      -3.3124      1.00000
     28      -0.4432      0.56993
     29      -0.4183      0.43007
     30       2.5142      0.00000
     31       3.7714      0.00000
     32       3.9670      0.00000
     33       4.0174      0.00000
     34       4.9087      0.00000
     35       4.9451      0.00000
     36       5.1568      0.00000
     37       5.7710      0.00000
     38       5.7744      0.00000
     39       6.0942      0.00000
     40       6.2973      0.00000
     41       6.3197      0.00000
     42       6.3310      0.00000
     43       6.5391      0.00000
     44       6.5438      0.00000
     45       6.8588      0.00000
     46       7.4932      0.00000
     47       7.4994      0.00000
     48       8.0750      0.00000


--------------------------------------------------------------------------------------------------------


 soft charge-density along one line, spin component           1
         0         1         2         3         4         5         6         7         8         9
 total charge-density along one line
 
 soft charge-density along one line, spin component           2
         0         1         2         3         4         5         6         7         8         9
 total charge-density along one line
 
 pseudopotential strength for first ion, spin component:           1
  6.776  10.343   0.000  -0.004  -0.000   0.000  -0.007  -0.000
 10.343  15.783   0.000  -0.006  -0.000   0.000  -0.010  -0.000
  0.000   0.000  -2.348  -0.000  -0.000  -4.038  -0.000  -0.000
 -0.004  -0.006  -0.000  -2.343   0.000  -0.000  -4.026   0.000
 -0.000  -0.000  -0.000   0.000  -2.348  -0.000   0.000  -4.038
  0.000   0.000  -4.038  -0.000  -0.000  -6.746  -0.000  -0.000
 -0.007  -0.010  -0.000  -4.026   0.000  -0.000  -6.721   0.000
 -0.000  -0.000  -0.000   0.000  -4.038  -0.000   0.000  -6.746
 pseudopotential strength for first ion, spin component:           2
  6.776  10.343   0.000  -0.004  -0.000   0.000  -0.007  -0.000
 10.343  15.783   0.000  -0.006  -0.000   0.000  -0.010  -0.000
  0.000   0.000  -2.348  -0.000  -0.000  -4.038  -0.000  -0.000
 -0.004  -0.006  -0.000  -2.343   0.000  -0.000  -4.026   0.000
 -0.000  -0.000  -0.000   0.000  -2.348  -0.000   0.000  -4.038
  0.000   0.000  -4.038  -0.000  -0.000  -6.746  -0.000  -0.000
 -0.007  -0.010  -0.000  -4.026   0.000  -0.000  -6.721   0.000
 -0.000  -0.000  -0.000   0.000  -4.038  -0.000   0.000  -6.746
 total augmentation occupancy for first ion, spin component:           1
  3.736  -1.081   0.000  -0.523   0.000  -0.000   0.215   0.000
 -1.081   0.337  -0.000   0.241   0.000   0.000  -0.083  -0.000
  0.000  -0.000   4.204   0.000  -0.000  -1.241  -0.000   0.000
 -0.523   0.241   0.000   1.830  -0.000  -0.000  -0.412   0.000
  0.000   0.000  -0.000  -0.000   4.204  -0.000   0.000  -1.241
 -0.000   0.000  -1.241  -0.000  -0.000   0.377   0.000   0.000
  0.215  -0.083  -0.000  -0.412   0.000   0.000   0.097  -0.000
  0.000  -0.000   0.000   0.000  -1.241   0.000  -0.000   0.377
 total augmentation occupancy for first ion, spin component:           2
  0.000  -0.000   0.000   0.000   0.000  -0.000  -0.000  -0.000
 -0.000   0.000  -0.000  -0.000  -0.000   0.000   0.000   0.000
  0.000  -0.000   0.000  -0.000   0.000  -0.000   0.000  -0.000
  0.000  -0.000  -0.000  -0.000  -0.000   0.000   0.000   0.000
  0.000  -0.000   0.000  -0.000   0.000  -0.000   0.000  -0.000
 -0.000   0.000  -0.000   0.000  -0.000   0.000  -0.000   0.000
 -0.000   0.000   0.000   0.000   0.000  -0.000  -0.000  -0.000
 -0.000   0.000  -0.000   0.000  -0.000   0.000  -0.000   0.000


------------------------ aborting loop because EDIFF is reached ----------------------------------------


    CHARGE:  cpu time      0.2565: real time      0.2682
    FORLOC:  cpu time      0.0014: real time      0.0014
    FORNL :  cpu time      0.6996: real time      0.7016
    STRESS:  cpu time      3.2606: real time      3.2706
    FORCOR:  cpu time      0.0249: real time      0.0249
    FORHAR:  cpu time      0.0036: real time      0.0036
    MIXING:  cpu time      0.0007: real time      0.0007
    OFIELD:  cpu time      0.0000: real time      0.0000

 ---------------------------------------------------------------------------------------------

         DFTD3 V3.0 Rev 1        
 Edisp (eV)   -1.60414

 E6    (eV) :    -1.1072
 E8    (eV) :    -0.4970
 % E8        : 30.98
    FORVDW:  cpu time      0.0396: real time      0.0398

  FORCE on cell =-STRESS in cart. coord.  units (eV):
  Direction    XX          YY          ZZ          XY          YZ          ZX
  --------------------------------------------------------------------------------------
  Alpha Z    58.45172    58.45172    58.45172
  Ewald    6551.97961  6552.02868 -8303.73061     0.00876     0.01010    -0.00532
  Hartree  6473.89056  6473.89424 -6390.17626     0.00106     0.00412    -0.00208
  E(xc)    -201.82690  -201.82676  -208.74133     0.00001    -0.00004    -0.00005
  Local  -13618.99084-13619.03325 13985.87032    -0.00699    -0.01365     0.00713
  n-local   -43.20320   -43.20265   -41.53150     0.00013    -0.00035    -0.00004
  augment    -4.09682    -4.09673    -3.66001    -0.00002     0.00002     0.00001
  Kinetic   784.31489   784.30863   904.25549    -0.00047     0.00265     0.00127
  Fock        0.00000     0.00000     0.00000     0.00000     0.00000     0.00000
  vdW        -0.32828    -0.32831    -1.12124    -0.00002    -0.00001    -0.00000
  -------------------------------------------------------------------------------------
  Total       0.19073     0.19555    -0.38343     0.00246     0.00285     0.00093
  in kB       1.00419     1.02960    -2.01874     0.01295     0.01499     0.00489
  external pressure =        0.01 kB  Pullay stress =        0.00 kB


 VOLUME and BASIS-vectors are now :
 -----------------------------------------------------------------------------
  energy-cutoff  :      450.00
  volume of cell :      304.31
      direct lattice vectors                 reciprocal lattice vectors
     4.191562954  2.420000000  0.000000000     0.119287246  0.206611570  0.000000000
    -4.191562954  2.420000000  0.000000000    -0.119287246  0.206611570  0.000000000
     0.000000000  0.000000000 15.000000000     0.000000000  0.000000000  0.066666667

  length of vectors
     4.840000000  4.840000000 15.000000000     0.238574491  0.238574491  0.066666667


 FORCES acting on ions
    electron-ion (+dipol)            ewald-force                    non-local-force                 convergence-correction
 -----------------------------------------------------------------------------------------------
   -.347E-02 0.105E-01 0.166E+03   0.385E-02 -.114E-01 -.164E+03   -.634E-03 0.751E-03 -.170E+01   -.327E-04 0.349E-04 -.244E-02
   -.216E+02 -.120E+02 0.242E+03   0.241E+02 0.135E+02 -.243E+03   -.249E+01 -.148E+01 0.393E+00   -.328E-03 0.778E-03 -.246E-03
   0.212E+02 -.127E+02 0.242E+03   -.238E+02 0.142E+02 -.243E+03   0.252E+01 -.142E+01 0.394E+00   -.518E-03 -.700E-03 -.233E-03
   0.395E+00 0.247E+02 0.242E+03   -.364E+00 -.277E+02 -.243E+03   -.326E-01 0.289E+01 0.393E+00   0.848E-03 -.131E-03 -.250E-03
   0.378E+00 -.380E+02 0.312E+03   -.366E+00 0.440E+02 -.314E+03   -.206E-01 -.598E+01 0.187E+01   0.160E-02 0.239E-03 -.488E-03
   0.327E+02 0.193E+02 0.312E+03   -.379E+02 -.223E+02 -.314E+03   0.519E+01 0.297E+01 0.187E+01   -.100E-02 0.123E-02 -.428E-03
   -.331E+02 0.187E+02 0.312E+03   0.383E+02 -.217E+02 -.314E+03   -.517E+01 0.301E+01 0.188E+01   -.448E-03 -.147E-02 -.450E-03
   -.224E+00 -.160E+00 -.229E+03   0.255E+00 0.188E+00 0.229E+03   0.206E-01 -.465E-02 0.725E-01   -.997E-03 -.997E-04 -.253E-02
   0.968E+00 -.139E+01 -.230E+03   -.104E+01 0.149E+01 0.230E+03   -.138E-01 -.153E-01 0.104E-01   0.834E-03 0.234E-03 -.229E-02
   0.513E-02 0.322E-01 -.231E+03   -.395E-02 -.335E-01 0.231E+03   0.928E-03 0.125E-02 -.369E-01   -.250E-04 -.159E-04 -.259E-02
   -.168E+01 -.102E+00 -.230E+03   0.181E+01 0.115E+00 0.230E+03   -.672E-02 0.191E-01 0.109E-01   -.199E-03 -.798E-03 -.228E-02
   0.263E+00 -.161E+00 -.229E+03   -.301E+00 0.177E+00 0.229E+03   -.537E-02 0.203E-01 0.722E-01   0.559E-03 -.833E-03 -.252E-02
   -.230E-02 -.199E-01 -.228E+03   0.906E-03 0.202E-01 0.228E+03   -.438E-03 -.160E-03 0.589E-01   0.162E-04 -.293E-05 -.312E-02
   -.565E-01 0.281E+00 -.229E+03   0.660E-01 -.320E+00 0.229E+03   -.140E-01 -.147E-01 0.720E-01   0.399E-03 0.899E-03 -.253E-02
   0.731E+00 0.152E+01 -.230E+03   -.781E+00 -.164E+01 0.230E+03   0.190E-01 -.530E-02 0.131E-01   -.586E-03 0.621E-03 -.230E-02
 -----------------------------------------------------------------------------------------------
   -.480E-03 0.104E-02 -.535E+01   0.409E-13 -.866E-14 0.171E-12   0.299E-03 -.988E-03 0.538E+01   0.126E-03 -.120E-04 -.247E-01
 
 
 POSITION                                       TOTAL-FORCE (eV/Angst)
 -----------------------------------------------------------------------------------
      0.00593      0.01681      1.78445        -0.000282     -0.000085     -0.218510
      1.48316      0.87107      1.46907         0.043378      0.022102      0.046004
     -1.47246      0.86906      1.46909        -0.041986      0.026644      0.045787
      0.00697      3.15038      1.46896        -0.001084     -0.048027      0.046442
      0.00730      1.57690      1.50394        -0.006399      0.090184      0.016749
      2.84565      1.65805      1.50366        -0.073370     -0.051363      0.018213
     -2.83524      1.65560      1.50356         0.079428     -0.040236      0.018444
     -2.09616      1.20982      5.00635         0.050293      0.023131      0.006913
     -0.69803      1.20946      5.00713        -0.088117      0.084992      0.000016
      4.19155      2.42001      5.00442         0.002089     -0.000099      0.008378
     -2.79511      2.41982      5.00719         0.115762      0.030496      0.000051
      0.00033      2.41974      5.00640        -0.042865      0.035557      0.006929
      1.39720      2.42000      5.00499        -0.001814      0.000104     -0.002223
      2.09581      1.21041      5.00634        -0.003787     -0.053441      0.006841
     -0.69838      3.63077      5.00713        -0.031245     -0.119960     -0.000034
 -----------------------------------------------------------------------------------
    total drift:                               -0.000054      0.000042     -0.000508


--------------------------------------------------------------------------------------------------------



  FREE ENERGIE OF THE ION-ELECTRON SYSTEM (eV)
  ---------------------------------------------------
  free  energy   TOTEN  =      -127.11427917 eV

  energy  without entropy=     -127.11273611  energy(sigma->0) =     -127.11350764
 
 d Force = 0.3983871E-02[ 0.288E-02, 0.509E-02]  d Energy = 0.3981109E-02 0.276E-05
 d Force =-0.1824432E+00[-0.159E+00,-0.206E+00]  d Ewald  =-0.1824863E+00 0.430E-04


--------------------------------------------------------------------------------------------------------


    POTLOK:  cpu time      0.0349: real time      0.0355


--------------------------------------------------------------------------------------------------------


 stress matrix after NEB project (eV)
      0.19073      0.00246      0.00093
      0.00246      0.19555      0.00285
      0.00093      0.00285     -0.38343
  FORCES: max atom, RMS     0.218510    0.096709
  FORCE total and by dimension    0.374553    0.218510
  Stress total and by dimension    0.470813    0.383426
 Conjugate gradient step on ions:
 trial-energy change:   -0.003981  1 .order   -0.003984   -0.005092   -0.002875
  (g-gl).g = 0.569E-02      g.g   = 0.571E-02  gl.gl    = 0.267E-01
 g(Force)  = 0.571E-02   g(Stress)= 0.000E+00 ortho     = 0.134E-04
 gamma     =   0.21354
 trial     =   0.89204
 opt step  =   2.04906  (harmonic =   2.04906) maximal distance =0.01031763
 next E    =  -127.116147   (d E  =  -0.00585)


--------------------------------------------------------------------------------------------------------


    WAVPRE:  cpu time      0.0045: real time      0.0080
    FEWALD:  cpu time      0.0004: real time      0.0004
    ORTHCH:  cpu time      0.3408: real time      0.3465
     LOOP+:  cpu time     52.1297: real time     52.4847


--------------------------------------- Iteration      5(   1)  ---------------------------------------


    POTLOK:  cpu time      0.0320: real time      0.0326
    SETDIJ:  cpu time      0.0033: real time      0.0033
     EDDAV:  cpu time      5.4474: real time      5.4873
       DOS:  cpu time      0.0010: real time      0.0010
    CHARGE:  cpu time      0.2557: real time      0.2640
    MIXING:  cpu time      0.0006: real time      0.0006
    --------------------------------------------
      LOOP:  cpu time      5.7400: real time      5.7888

 eigenvalue-minimisations  : 14208
 total energy-change (2. order) :-0.2048082E-02  (-0.3961077E-01)
 number of electron      55.9999998 magnetization       0.0000000
 augmentation part        1.0327306 magnetization       0.0000002

 Broyden mixing:
  rms(total) = 0.13701E-01    rms(broyden)= 0.13688E-01
  rms(prec ) = 0.15195E-01
  weight for this iteration     100.00

 Free energy of the ion-electron system (eV)
  ---------------------------------------------------
  alpha Z        PSCENC =        58.45171928
  Ewald energy   TEWEN  =      4800.44694859
  -Hartree energ DENC   =     -6557.52098553
  -exchange      EXHF   =         0.00000000
  -V(xc)+E(xc)   XCENC  =       180.72124808
  PAW double counting   =      5786.41880885    -5790.84818919
  entropy T*S    EENTRO =        -0.00154612
  eigenvalues    EBANDS =      -506.44361096
  atomic energy  EATOM  =      1903.26342058
  Solvation  Ediel_sol  =         0.00000000
  ---------------------------------------------------
  free energy    TOTEN  =      -125.51218643 eV

  energy without entropy =     -125.51064032  energy(sigma->0) =     -125.51141337


--------------------------------------------------------------------------------------------------------




--------------------------------------- Iteration      5(   2)  ---------------------------------------


    POTLOK:  cpu time      0.0323: real time      0.0347
    SETDIJ:  cpu time      0.0033: real time      0.0033
     EDDAV:  cpu time     10.6481: real time     10.7059
       DOS:  cpu time      0.0009: real time      0.0009
    CHARGE:  cpu time      0.2538: real time      0.2647
    MIXING:  cpu time      0.0007: real time      0.0007
    --------------------------------------------
      LOOP:  cpu time     10.9392: real time     11.0103

 eigenvalue-minimisations  : 25824
 total energy-change (2. order) :-0.2508007E-04  (-0.3615474E-03)
 number of electron      55.9999998 magnetization      -0.0000000
 augmentation part        1.0327844 magnetization       0.0000000

 Broyden mixing:
  rms(total) = 0.79238E-02    rms(broyden)= 0.79224E-02
  rms(prec ) = 0.85738E-02
  weight for this iteration     100.00

 eigenvalues of (default mixing * dielectric matrix)
  average eigenvalue GAMMA=   1.7659
  1.7659

 Free energy of the ion-electron system (eV)
  ---------------------------------------------------
  alpha Z        PSCENC =        58.45171928
  Ewald energy   TEWEN  =      4800.44694859
  -Hartree energ DENC   =     -6557.55192640
  -exchange      EXHF   =         0.00000000
  -V(xc)+E(xc)   XCENC  =       180.72271113
  PAW double counting   =      5787.22570780    -5791.65590367
  entropy T*S    EENTRO =        -0.00154542
  eigenvalues    EBANDS =      -506.41334341
  atomic energy  EATOM  =      1903.26342058
  Solvation  Ediel_sol  =         0.00000000
  ---------------------------------------------------
  free energy    TOTEN  =      -125.51221151 eV

  energy without entropy =     -125.51066610  energy(sigma->0) =     -125.51143881


--------------------------------------------------------------------------------------------------------




--------------------------------------- Iteration      5(   3)  ---------------------------------------


    POTLOK:  cpu time      0.0290: real time      0.0307
    SETDIJ:  cpu time      0.0033: real time      0.0033
     EDDAV:  cpu time      8.7793: real time      8.8389
       DOS:  cpu time      0.0010: real time      0.0010
    CHARGE:  cpu time      0.2554: real time      0.2613
    MIXING:  cpu time      0.0007: real time      0.0007
    --------------------------------------------
      LOOP:  cpu time      9.0687: real time      9.1359

 eigenvalue-minimisations  : 22272
 total energy-change (2. order) : 0.2034967E-04  (-0.3925522E-04)
 number of electron      55.9999998 magnetization       0.0000000
 augmentation part        1.0327243 magnetization      -0.0000000

 Broyden mixing:
  rms(total) = 0.26968E-02    rms(broyden)= 0.26962E-02
  rms(prec ) = 0.29685E-02
  weight for this iteration     100.00

 eigenvalues of (default mixing * dielectric matrix)
  average eigenvalue GAMMA=   1.6069
  1.1342  2.0795

 Free energy of the ion-electron system (eV)
  ---------------------------------------------------
  alpha Z        PSCENC =        58.45171928
  Ewald energy   TEWEN  =      4800.44694859
  -Hartree energ DENC   =     -6557.54842430
  -exchange      EXHF   =         0.00000000
  -V(xc)+E(xc)   XCENC  =       180.72265254
  PAW double counting   =      5790.17075319    -5794.60190758
  entropy T*S    EENTRO =        -0.00154503
  eigenvalues    EBANDS =      -506.41580843
  atomic energy  EATOM  =      1903.26342058
  Solvation  Ediel_sol  =         0.00000000
  ---------------------------------------------------
  free energy    TOTEN  =      -125.51219116 eV

  energy without entropy =     -125.51064614  energy(sigma->0) =     -125.51141865


--------------------------------------------------------------------------------------------------------




--------------------------------------- Iteration      5(   4)  ---------------------------------------


    POTLOK:  cpu time      0.0296: real time      0.0298
    SETDIJ:  cpu time      0.0034: real time      0.0034
