Lattice                                 
           1
     4.191563    2.420000    0.000000
    -4.191563    2.420000    0.000000
     0.000000    0.000000   15.000000
   B    C 
     4    11
Direct configuration=     1
   0.00415361  0.00267210  0.12034134
   0.35695335  0.00285503  0.09748893
   0.00423858  0.35550699  0.09749256
   0.65142295  0.65006557  0.09747688
   0.32808646  0.32671938  0.10030508
   0.68027775  0.00278085  0.10027562
   0.00416530  0.67883808  0.10026559
   0.99999933  0.49999967  0.33373333
   0.16666633  0.33333267  0.33373333
   0.99999933  0.99999967  0.33373333
   0.16666633  0.83333267  0.33373333
   0.49999933  0.49999967  0.33373333
   0.66666633  0.33333267  0.33373333
   0.49999933  0.99999967  0.33373333
   0.66666633  0.83333267  0.33373333
Direct configuration=     2
   0.00418088  0.00275361  0.11926768
   0.35588569  0.00303172  0.09782149
   0.00395888  0.35421602  0.09782360
   0.65270707  0.65108932  0.09781288
   0.32482572  0.32311470  0.10029534
   0.68384347  0.00310534  0.10027374
   0.00388657  0.68212117  0.10026640
   0.00012702  0.49997650  0.33374204
   0.16687382  0.33394546  0.33380110
   0.99999916  0.99999362  0.33363227
   0.16706414  0.83312379  0.33380397
   0.50003870  0.50016297  0.33374491
   0.66666623  0.33333786  0.33368489
   0.49985120  0.99987109  0.33374157
   0.66605211  0.83292415  0.33380078
Direct configuration=     3
   0.00416616  0.00270961  0.11984726
   0.35646203  0.00293634  0.09764197
   0.00410987  0.35491290  0.09764490
   0.65201389  0.65053669  0.09763150
   0.32658591  0.32506055  0.10030060
   0.68191865  0.00293018  0.10027476
   0.00403703  0.68034892  0.10026596
   0.00005809  0.49998901  0.33373734
   0.16676182  0.33361467  0.33376452
   0.99999925  0.99999688  0.33368683
   0.16684940  0.83323654  0.33376584
   0.50001745  0.50007482  0.33373866
   0.66666629  0.33333506  0.33371104
   0.49993116  0.99994050  0.33373712
   0.66638368  0.83314467  0.33376437
Direct configuration=     4
   0.00418036  0.00276632  0.11896318
   0.35689438  0.00305046  0.09793808
   0.00391248  0.35520480  0.09793949
   0.65173703  0.65007377  0.09793095
   0.32667798  0.32493539  0.10026245
   0.68202231  0.00312216  0.10024426
   0.00385837  0.68027548  0.10023754
  -0.00008194  0.50000918  0.33375671
   0.16662272  0.33315510  0.33380885
   0.99999998  0.00000279  0.33362792
   0.16654152  0.83338307  0.33381235
   0.49998635  0.49990688  0.33376019
   0.66666940  0.33333222  0.33366624
   0.50008886  0.00008225  0.33375607
   0.66685084  0.83346745  0.33380837
Direct configuration=     5
   0.00419879  0.00283989  0.11781648
   0.35745517  0.00319848  0.09832216
   0.00365646  0.35558341  0.09832159
   0.65137792  0.64947335  0.09831935
   0.32679741  0.32477305  0.10021297
   0.68215677  0.00337116  0.10020472
   0.00362665  0.68018024  0.10020069
  -0.00026357  0.50003535  0.33378184
   0.16644231  0.33255901  0.33386635
   0.00000093  0.00001046  0.33355152
   0.16614218  0.83357312  0.33387267
   0.49994601  0.49968906  0.33378811
   0.66667344  0.33332855  0.33360814
   0.50029341  0.00026610  0.33378065
   0.66745678  0.83388612  0.33386544
Direct configuration=     6
   0.00420120  0.00285036  0.11758110
   0.35756176  0.00321724  0.09839149
   0.00362180  0.35566713  0.09839057
   0.65129897  0.64936074  0.09838942
   0.32686113  0.32480297  0.10021213
   0.68212300  0.00339874  0.10020575
   0.00359842  0.68012055  0.10020219
  -0.00023102  0.50003280  0.33378753
   0.16645842  0.33263272  0.33387464
   0.00000222  0.00000998  0.33354312
   0.16619721  0.83355598  0.33388137
   0.49995205  0.49972533  0.33379420
   0.66667297  0.33332935  0.33359926
   0.50026043  0.00023476  0.33378624
   0.66738210  0.83382869  0.33387366
Direct configuration=     7
   0.00420842  0.00288180  0.11687494
   0.35788154  0.00327352  0.09859948
   0.00351783  0.35591830  0.09859752
   0.65106210  0.64902292  0.09859964
   0.32705232  0.32489270  0.10020962
   0.68202167  0.00348149  0.10020887
   0.00351373  0.67994147  0.10020668
  -0.00013340  0.50002512  0.33380460
   0.16650675  0.33285388  0.33389952
   0.00000610  0.00000854  0.33351791
   0.16636230  0.83350455  0.33390748
   0.49997019  0.49983413  0.33381247
   0.66667156  0.33333176  0.33357262
   0.50016149  0.00014075  0.33380301
   0.66715808  0.83365641  0.33389831
Direct configuration=     8
   0.00422287  0.00294467  0.11546263
   0.35852108  0.00338606  0.09901545
   0.00330988  0.35642063  0.09901142
   0.65058837  0.64834727  0.09902009
   0.32743468  0.32507217  0.10020459
   0.68181901  0.00364698  0.10021510
   0.00334435  0.67958333  0.10021568
   0.00006185  0.50000977  0.33383874
   0.16660342  0.33329619  0.33394927
   0.00001386  0.00000566  0.33346749
   0.16669247  0.83340170  0.33395970
   0.50000646  0.50005173  0.33384901
   0.66666873  0.33333659  0.33351935
   0.49996360 -0.00004727  0.33383654
   0.66671003  0.83331185  0.33394761
Direct configuration=     9
   0.00425176  0.00307041  0.11263800
   0.35980018  0.00361116  0.09984741
   0.00289398  0.35742529  0.09983923
   0.64964091  0.64699598  0.09986098
   0.32819941  0.32543110  0.10019454
   0.68141369  0.00397796  0.10022755
   0.00300559  0.67886705  0.10023367
   0.00045236  0.49997907  0.33390702
   0.16679675  0.33418082  0.33404878
   0.00002936 -0.00000009  0.33336665
   0.16735282  0.83319598  0.33406414
   0.50007901  0.50048693  0.33392209
   0.66666308  0.33334624  0.33341280
   0.49956783 -0.00042332  0.33390361
   0.66581394  0.83262274  0.33404621
Direct configuration=    10
   0.00423309  0.00298916  0.11446327
   0.35897363  0.00346571  0.09930980
   0.00316273  0.35677608  0.09930431
   0.65025316  0.64786918  0.09931760
   0.32770524  0.32519916  0.10020103
   0.68167560  0.00376408  0.10021950
   0.00322449  0.67932991  0.10022204
   0.00020001  0.49999891  0.33386289
   0.16667182  0.33360918  0.33398448
   0.00001934  0.00000363  0.33343181
   0.16692611  0.83332891  0.33399665
   0.50003213  0.50020570  0.33387487
   0.66666673  0.33334000  0.33348165
   0.49982358 -0.00018032  0.33386027
   0.66639299  0.83306804  0.33398249
Direct configuration=    11
   0.00423042  0.00298085  0.11393906
   0.35896301  0.00343342  0.09939308
   0.00320496  0.35680689  0.09938742
   0.65022932  0.64787944  0.09940128
   0.32773454  0.32530705  0.10027042
   0.68157080  0.00367957  0.10029136
   0.00328820  0.67930180  0.10029428
   0.00012852  0.50000896  0.33387433
   0.16672639  0.33361385  0.33398060
   0.00001192  0.00000306  0.33346235
   0.16689134  0.83328425  0.33399247
   0.50001513  0.50012825  0.33388590
   0.66667352  0.33334091  0.33348996
   0.49989423 -0.00011489  0.33387158
   0.66639837  0.83311391  0.33397858
Direct configuration=    12
   0.00422239  0.00295592  0.11236645
   0.35893116  0.00333654  0.09964292
   0.00333166  0.35689934  0.09963677
   0.65015779  0.64791023  0.09965234
   0.32782243  0.32563074  0.10047857
   0.68125638  0.00342606  0.10050691
   0.00347931  0.67921748  0.10051097
  -0.00008596  0.50003911  0.33390863
   0.16689011  0.33362788  0.33396896
  -0.00001033  0.00000134  0.33355397
   0.16678705  0.83315028  0.33397992
   0.49996411  0.49989590  0.33391898
   0.66669387  0.33334363  0.33351490
   0.50010618  0.00008140  0.33390551
   0.66641452  0.83325149  0.33396685
Direct configuration=    13
   0.00420634  0.00290607  0.10922122
   0.35886744  0.00314280  0.10014259
   0.00358505  0.35708423  0.10013547
   0.65001474  0.64797180  0.10015445
   0.32799820  0.32627811  0.10089487
   0.68062755  0.00291903  0.10093803
   0.00386153  0.67904882  0.10094436
  -0.00051492  0.50009941  0.33397723
   0.16721756  0.33365593  0.33394570
  -0.00005484 -0.00000211  0.33373722
   0.16657846  0.83288232  0.33395482
   0.49986208  0.49943120  0.33398515
   0.66673457  0.33334908  0.33356478
   0.50053010  0.00047398  0.33397338
   0.66644682  0.83352667  0.33394339
Direct configuration=    14
   0.00420461  0.00289369  0.10842892
   0.35885463  0.00308427  0.10025413
   0.00368037  0.35713823  0.10024735
   0.64994684  0.64799385  0.10026569
   0.32797159  0.32636944  0.10101208
   0.68053457  0.00281369  0.10105694
   0.00395746  0.67905093  0.10106334
  -0.00027687  0.50002887  0.33398106
   0.16694275  0.33352551  0.33394563
  -0.00000997  0.00000617  0.33379052
   0.16665249  0.83311402  0.33395374
   0.49997860  0.49971525  0.33398775
   0.66670123  0.33334565  0.33360495
   0.50029080  0.00028071  0.33397712
   0.66653156  0.83340706  0.33394346
Direct configuration=    15
   0.00420227  0.00287691  0.10735561
   0.35883728  0.00300498  0.10040522
   0.00380951  0.35721138  0.10039891
   0.64985485  0.64802371  0.10041638
   0.32793554  0.32649317  0.10117087
   0.68040862  0.00267099  0.10121802
   0.00408742  0.67905379  0.10122453
   0.00004560  0.49993331  0.33398625
   0.16657048  0.33334885  0.33394554
   0.00005081  0.00001739  0.33386272
   0.16675278  0.83342789  0.33395226
   0.50013645  0.50010004  0.33399126
   0.66665606  0.33334101  0.33365938
   0.49996664  0.00001888  0.33398218
   0.66664635  0.83324503  0.33394355
Direct configuration=    16
   0.00420179  0.00287198  0.10718168
   0.35889296  0.00299923  0.10043289
   0.00383520  0.35726587  0.10042726
   0.64977173  0.64797797  0.10044302
   0.32788612  0.32641930  0.10119022
   0.68047776  0.00272020  0.10123515
   0.00406667  0.67907837  0.10124110
   0.00008509  0.49998289  0.33397224
   0.16662616  0.33337251  0.33395767
   0.00002866  0.00001321  0.33387137
   0.16676032  0.83339835  0.33396385
   0.50006082  0.50010541  0.33397664
   0.66668021  0.33334563  0.33369535
   0.49993624 -0.00004558  0.33396837
   0.66665093  0.83326199  0.33395587
