  16  16   0   4
  0.2029747E+02  0.5000000E-09  0.5000000E-09  0.1500000E-08  0.5000000E-15
  1.000000000000000E-004
  CAR 
 Lattice                                 
      9.84787134    -21.41993019  301     -0.88917304      1.00000000
    -21.420  0.0000E+00  0.0000E+00  0.0000E+00  0.0000E+00
    -21.316  0.0000E+00  0.0000E+00  0.0000E+00  0.0000E+00
    -21.211  0.0000E+00  0.0000E+00  0.0000E+00  0.0000E+00
    -21.107  0.0000E+00  0.0000E+00  0.0000E+00  0.0000E+00
    -21.003  0.0000E+00  0.0000E+00  0.0000E+00  0.0000E+00
    -20.899  0.0000E+00  0.0000E+00  0.0000E+00  0.0000E+00
    -20.795  0.0000E+00  0.0000E+00  0.0000E+00  0.0000E+00
    -20.690  0.0000E+00  0.0000E+00  0.0000E+00  0.0000E+00
    -20.586  0.2890E-19  0.2890E-19  0.3012E-20  0.3012E-20
    -20.482  0.2362E-14  0.2362E-14  0.2462E-15  0.2462E-15
    -20.378  0.2650E-10  0.2650E-10  0.2762E-11  0.2762E-11
    -20.273  0.3978E-07  0.3978E-07  0.4149E-08  0.4149E-08
    -20.169  0.8675E-05  0.8675E-05  0.9084E-06  0.9083E-06
    -20.065  0.3038E-03  0.3038E-03  0.3257E-04  0.3257E-04
    -19.961  0.2092E-02  0.2092E-02  0.2506E-03  0.2506E-03
    -19.857  0.4347E-02  0.4347E-02  0.7036E-03  0.7036E-03
    -19.752  0.4817E-02  0.4817E-02  0.1206E-02  0.1206E-02
    -19.648  0.5115E-02  0.5115E-02  0.1739E-02  0.1739E-02
    -19.544  0.4528E-02  0.4528E-02  0.2211E-02  0.2211E-02
    -19.440  0.5625E-02  0.5625E-02  0.2797E-02  0.2797E-02
    -19.335  0.4237E-02  0.4237E-02  0.3239E-02  0.3239E-02
    -19.231  0.5036E-02  0.5036E-02  0.3763E-02  0.3763E-02
    -19.127  0.5970E-02  0.5970E-02  0.4386E-02  0.4386E-02
    -19.023  0.3628E-02  0.3628E-02  0.4764E-02  0.4764E-02
    -18.919  0.5005E-02  0.5005E-02  0.5285E-02  0.5285E-02
    -18.814  0.6355E-02  0.6355E-02  0.5948E-02  0.5948E-02
    -18.710  0.4631E-02  0.4631E-02  0.6430E-02  0.6430E-02
    -18.606  0.3120E-02  0.3120E-02  0.6756E-02  0.6756E-02
    -18.502  0.6338E-02  0.6338E-02  0.7416E-02  0.7416E-02
    -18.397  0.6285E-02  0.6285E-02  0.8071E-02  0.8071E-02
    -18.293  0.4256E-02  0.4256E-02  0.8515E-02  0.8515E-02
    -18.189  0.3424E-02  0.3424E-02  0.8872E-02  0.8872E-02
    -18.085  0.6145E-02  0.6145E-02  0.9512E-02  0.9512E-02
    -17.980  0.1185E-01  0.1185E-01  0.1075E-01  0.1075E-01
    -17.876  0.1148E-01  0.1148E-01  0.1194E-01  0.1194E-01
    -17.772  0.1063E-01  0.1063E-01  0.1305E-01  0.1305E-01
    -17.668  0.1247E-01  0.1247E-01  0.1435E-01  0.1435E-01
    -17.564  0.1535E-01  0.1535E-01  0.1595E-01  0.1595E-01
    -17.459  0.1982E-01  0.1982E-01  0.1802E-01  0.1802E-01
    -17.355  0.2047E-01  0.2047E-01  0.2015E-01  0.2015E-01
    -17.251  0.1166E-01  0.1166E-01  0.2136E-01  0.2136E-01
    -17.147  0.4722E-02  0.4723E-02  0.2186E-01  0.2186E-01
    -17.042  0.6760E-02  0.6760E-02  0.2256E-01  0.2256E-01
    -16.938  0.6968E-02  0.6968E-02  0.2329E-01  0.2329E-01
    -16.834  0.5793E-02  0.5793E-02  0.2389E-01  0.2389E-01
    -16.730  0.4726E-02  0.4726E-02  0.2438E-01  0.2438E-01
    -16.626  0.3381E-02  0.3381E-02  0.2474E-01  0.2474E-01
    -16.521  0.2743E-02  0.2743E-02  0.2502E-01  0.2502E-01
    -16.417  0.8299E-02  0.8299E-02  0.2589E-01  0.2589E-01
    -16.313  0.7601E-02  0.7601E-02  0.2668E-01  0.2668E-01
    -16.209  0.4832E-02  0.4832E-02  0.2718E-01  0.2718E-01
    -16.104  0.4308E-02  0.4308E-02  0.2763E-01  0.2763E-01
    -16.000  0.4320E-02  0.4320E-02  0.2808E-01  0.2808E-01
    -15.896  0.3453E-02  0.3453E-02  0.2844E-01  0.2844E-01
    -15.792  0.6372E-02  0.6372E-02  0.2911E-01  0.2911E-01
    -15.687  0.1266E-01  0.1266E-01  0.3043E-01  0.3043E-01
    -15.583  0.1392E-01  0.1392E-01  0.3188E-01  0.3188E-01
    -15.479  0.1526E-01  0.1526E-01  0.3347E-01  0.3347E-01
    -15.375  0.1494E-01  0.1494E-01  0.3502E-01  0.3502E-01
    -15.271  0.1202E-01  0.1202E-01  0.3628E-01  0.3628E-01
    -15.166  0.1198E-01  0.1198E-01  0.3752E-01  0.3752E-01
    -15.062  0.1646E-01  0.1646E-01  0.3924E-01  0.3924E-01
    -14.958  0.1671E-01  0.1671E-01  0.4098E-01  0.4098E-01
    -14.854  0.1373E-01  0.1373E-01  0.4241E-01  0.4241E-01
    -14.749  0.1248E-01  0.1248E-01  0.4371E-01  0.4371E-01
    -14.645  0.9033E-02  0.9033E-02  0.4466E-01  0.4466E-01
    -14.541  0.1151E-01  0.1151E-01  0.4585E-01  0.4585E-01
    -14.437  0.1849E-01  0.1849E-01  0.4778E-01  0.4778E-01
    -14.333  0.1874E-01  0.1874E-01  0.4974E-01  0.4974E-01
    -14.228  0.1143E-01  0.1143E-01  0.5093E-01  0.5093E-01
    -14.124  0.8284E-02  0.8284E-02  0.5179E-01  0.5179E-01
    -14.020  0.6928E-02  0.6928E-02  0.5251E-01  0.5251E-01
    -13.916  0.8146E-02  0.8146E-02  0.5336E-01  0.5336E-01
    -13.811  0.7947E-02  0.7947E-02  0.5419E-01  0.5419E-01
    -13.707  0.5859E-02  0.5859E-02  0.5480E-01  0.5480E-01
    -13.603  0.4816E-02  0.4816E-02  0.5530E-01  0.5530E-01
    -13.499  0.4273E-02  0.4273E-02  0.5575E-01  0.5575E-01
    -13.395  0.5206E-02  0.5206E-02  0.5629E-01  0.5629E-01
    -13.290  0.5636E-02  0.5636E-02  0.5688E-01  0.5688E-01
    -13.186  0.5831E-02  0.5831E-02  0.5749E-01  0.5749E-01
    -13.082  0.7573E-02  0.7573E-02  0.5827E-01  0.5827E-01
    -12.978  0.6566E-02  0.6566E-02  0.5896E-01  0.5896E-01
    -12.873  0.8044E-02  0.8044E-02  0.5980E-01  0.5980E-01
    -12.769  0.7696E-02  0.7696E-02  0.6060E-01  0.6060E-01
    -12.665  0.5359E-02  0.5359E-02  0.6116E-01  0.6116E-01
    -12.561  0.6783E-02  0.6783E-02  0.6187E-01  0.6187E-01
    -12.456  0.3272E-02  0.3272E-02  0.6221E-01  0.6221E-01
    -12.352  0.6457E-02  0.6457E-02  0.6288E-01  0.6288E-01
    -12.248  0.9118E-02  0.9118E-02  0.6383E-01  0.6383E-01
    -12.144  0.6341E-02  0.6341E-02  0.6449E-01  0.6449E-01
    -12.040  0.9180E-02  0.9180E-02  0.6545E-01  0.6545E-01
    -11.935  0.1439E-01  0.1439E-01  0.6695E-01  0.6695E-01
    -11.831  0.1655E-01  0.1655E-01  0.6867E-01  0.6867E-01
    -11.727  0.1504E-01  0.1504E-01  0.7024E-01  0.7024E-01
    -11.623  0.1409E-01  0.1409E-01  0.7171E-01  0.7171E-01
    -11.518  0.1612E-01  0.1612E-01  0.7339E-01  0.7339E-01
    -11.414  0.1170E-01  0.1170E-01  0.7461E-01  0.7461E-01
    -11.310  0.7480E-02  0.7480E-02  0.7539E-01  0.7539E-01
    -11.206  0.1019E-01  0.1019E-01  0.7645E-01  0.7645E-01
    -11.102  0.1303E-01  0.1303E-01  0.7781E-01  0.7781E-01
    -10.997  0.9982E-02  0.9982E-02  0.7885E-01  0.7885E-01
    -10.893  0.4782E-02  0.4782E-02  0.7935E-01  0.7935E-01
    -10.789  0.1037E-01  0.1037E-01  0.8043E-01  0.8043E-01
    -10.685  0.1674E-01  0.1674E-01  0.8217E-01  0.8217E-01
    -10.580  0.1467E-01  0.1467E-01  0.8370E-01  0.8370E-01
    -10.476  0.6727E-02  0.6727E-02  0.8440E-01  0.8440E-01
    -10.372  0.6149E-02  0.6149E-02  0.8504E-01  0.8504E-01
    -10.268  0.1588E-01  0.1588E-01  0.8670E-01  0.8670E-01
    -10.164  0.2011E-01  0.2011E-01  0.8879E-01  0.8879E-01
    -10.059  0.1149E-01  0.1149E-01  0.8999E-01  0.8999E-01
     -9.955  0.8374E-02  0.8374E-02  0.9086E-01  0.9086E-01
     -9.851  0.6694E-02  0.6694E-02  0.9156E-01  0.9156E-01
     -9.747  0.1034E-01  0.1034E-01  0.9264E-01  0.9264E-01
     -9.642  0.1281E-01  0.1281E-01  0.9397E-01  0.9397E-01
     -9.538  0.1193E-01  0.1193E-01  0.9522E-01  0.9522E-01
     -9.434  0.9008E-02  0.9008E-02  0.9616E-01  0.9616E-01
     -9.330  0.7070E-02  0.7070E-02  0.9689E-01  0.9689E-01
     -9.225  0.1078E-01  0.1078E-01  0.9802E-01  0.9802E-01
     -9.121  0.6368E-02  0.6368E-02  0.9868E-01  0.9868E-01
     -9.017  0.3215E-02  0.3215E-02  0.9902E-01  0.9902E-01
     -8.913  0.1011E-01  0.1011E-01  0.1001E+00  0.1001E+00
     -8.809  0.1643E-01  0.1643E-01  0.1018E+00  0.1018E+00
     -8.704  0.1791E-01  0.1791E-01  0.1036E+00  0.1036E+00
     -8.600  0.1097E-01  0.1097E-01  0.1048E+00  0.1048E+00
     -8.496  0.8266E-02  0.8266E-02  0.1057E+00  0.1057E+00
     -8.392  0.9670E-02  0.9670E-02  0.1067E+00  0.1067E+00
     -8.287  0.1426E-01  0.1426E-01  0.1081E+00  0.1081E+00
     -8.183  0.2336E-01  0.2336E-01  0.1106E+00  0.1106E+00
     -8.079  0.2499E-01  0.2499E-01  0.1132E+00  0.1132E+00
     -7.975  0.1805E-01  0.1805E-01  0.1151E+00  0.1151E+00
     -7.871  0.1320E-01  0.1320E-01  0.1164E+00  0.1164E+00
     -7.766  0.1230E-01  0.1230E-01  0.1177E+00  0.1177E+00
     -7.662  0.2194E-01  0.2194E-01  0.1200E+00  0.1200E+00
     -7.558  0.2755E-01  0.2755E-01  0.1229E+00  0.1229E+00
     -7.454  0.2175E-01  0.2175E-01  0.1252E+00  0.1252E+00
     -7.349  0.2123E-01  0.2123E-01  0.1274E+00  0.1274E+00
     -7.245  0.2247E-01  0.2247E-01  0.1297E+00  0.1297E+00
     -7.141  0.2233E-01  0.2233E-01  0.1320E+00  0.1320E+00
     -7.037  0.2589E-01  0.2589E-01  0.1347E+00  0.1347E+00
     -6.933  0.2688E-01  0.2688E-01  0.1375E+00  0.1375E+00
     -6.828  0.1851E-01  0.1851E-01  0.1395E+00  0.1395E+00
     -6.724  0.2156E-01  0.2156E-01  0.1417E+00  0.1417E+00
     -6.620  0.2736E-01  0.2736E-01  0.1446E+00  0.1446E+00
     -6.516  0.2543E-01  0.2543E-01  0.1472E+00  0.1472E+00
     -6.411  0.2381E-01  0.2381E-01  0.1497E+00  0.1497E+00
     -6.307  0.2174E-01  0.2174E-01  0.1520E+00  0.1520E+00
     -6.203  0.2460E-01  0.2460E-01  0.1545E+00  0.1545E+00
     -6.099  0.2171E-01  0.2171E-01  0.1568E+00  0.1568E+00
     -5.994  0.1840E-01  0.1840E-01  0.1587E+00  0.1587E+00
     -5.890  0.1844E-01  0.1844E-01  0.1606E+00  0.1606E+00
     -5.786  0.2143E-01  0.2143E-01  0.1629E+00  0.1629E+00
     -5.682  0.2096E-01  0.2096E-01  0.1650E+00  0.1650E+00
     -5.578  0.2286E-01  0.2286E-01  0.1674E+00  0.1674E+00
     -5.473  0.2134E-01  0.2134E-01  0.1696E+00  0.1696E+00
     -5.369  0.2310E-01  0.2310E-01  0.1721E+00  0.1721E+00
     -5.265  0.2785E-01  0.2785E-01  0.1750E+00  0.1750E+00
     -5.161  0.2259E-01  0.2259E-01  0.1773E+00  0.1773E+00
     -5.056  0.1016E-01  0.1016E-01  0.1784E+00  0.1784E+00
     -4.952  0.1111E-01  0.1111E-01  0.1795E+00  0.1795E+00
     -4.848  0.1836E-01  0.1836E-01  0.1814E+00  0.1814E+00
     -4.744  0.2094E-01  0.2094E-01  0.1836E+00  0.1836E+00
     -4.640  0.1700E-01  0.1700E-01  0.1854E+00  0.1854E+00
     -4.535  0.1465E-01  0.1465E-01  0.1869E+00  0.1869E+00
     -4.431  0.1775E-01  0.1775E-01  0.1888E+00  0.1888E+00
     -4.327  0.2272E-01  0.2272E-01  0.1911E+00  0.1911E+00
     -4.223  0.2346E-01  0.2346E-01  0.1936E+00  0.1936E+00
     -4.118  0.3193E-01  0.3193E-01  0.1969E+00  0.1969E+00
     -4.014  0.3795E-01  0.3795E-01  0.2009E+00  0.2009E+00
     -3.910  0.3151E-01  0.3151E-01  0.2042E+00  0.2042E+00
     -3.806  0.2240E-01  0.2240E-01  0.2065E+00  0.2065E+00
     -3.702  0.1501E-01  0.1501E-01  0.2081E+00  0.2081E+00
     -3.597  0.1517E-01  0.1517E-01  0.2096E+00  0.2096E+00
     -3.493  0.1575E-01  0.1575E-01  0.2113E+00  0.2113E+00
     -3.389  0.1965E-01  0.1965E-01  0.2133E+00  0.2133E+00
     -3.285  0.1924E-01  0.1924E-01  0.2153E+00  0.2153E+00
     -3.180  0.1625E-01  0.1625E-01  0.2170E+00  0.2170E+00
     -3.076  0.1463E-01  0.1463E-01  0.2185E+00  0.2185E+00
     -2.972  0.1484E-01  0.1484E-01  0.2201E+00  0.2201E+00
     -2.868  0.2557E-01  0.2557E-01  0.2228E+00  0.2228E+00
     -2.763  0.2121E-01  0.2121E-01  0.2250E+00  0.2250E+00
     -2.659  0.1263E-01  0.1263E-01  0.2263E+00  0.2263E+00
     -2.555  0.1665E-01  0.1665E-01  0.2280E+00  0.2280E+00
     -2.451  0.2218E-01  0.2218E-01  0.2303E+00  0.2303E+00
     -2.347  0.2053E-01  0.2053E-01  0.2325E+00  0.2325E+00
     -2.242  0.1806E-01  0.1806E-01  0.2344E+00  0.2344E+00
     -2.138  0.1516E-01  0.1516E-01  0.2359E+00  0.2359E+00
     -2.034  0.1414E-01  0.1414E-01  0.2374E+00  0.2374E+00
     -1.930  0.6050E-02  0.6050E-02  0.2380E+00  0.2380E+00
     -1.825  0.3907E-02  0.3907E-02  0.2385E+00  0.2385E+00
     -1.721  0.7234E-02  0.7234E-02  0.2392E+00  0.2392E+00
     -1.617  0.5693E-02  0.5693E-02  0.2398E+00  0.2398E+00
     -1.513  0.5867E-02  0.5867E-02  0.2404E+00  0.2404E+00
     -1.409  0.7027E-02  0.7027E-02  0.2411E+00  0.2411E+00
     -1.304  0.4658E-02  0.4658E-02  0.2416E+00  0.2416E+00
     -1.200  0.3114E-02  0.3114E-02  0.2420E+00  0.2420E+00
     -1.096  0.1085E-02  0.1085E-02  0.2421E+00  0.2421E+00
     -0.992  0.1957E-03  0.1957E-03  0.2421E+00  0.2421E+00
     -0.887  0.1020E-02  0.1020E-02  0.2422E+00  0.2422E+00
     -0.783  0.3423E-02  0.3423E-02  0.2425E+00  0.2425E+00
     -0.679  0.3829E-02  0.3829E-02  0.2429E+00  0.2429E+00
     -0.575  0.6297E-02  0.6297E-02  0.2436E+00  0.2436E+00
     -0.471  0.1036E-01  0.1036E-01  0.2447E+00  0.2447E+00
     -0.366  0.8698E-02  0.8698E-02  0.2456E+00  0.2456E+00
     -0.262  0.9953E-02  0.9953E-02  0.2466E+00  0.2466E+00
     -0.158  0.1279E-01  0.1279E-01  0.2480E+00  0.2480E+00
     -0.054  0.1092E-01  0.1092E-01  0.2491E+00  0.2491E+00
      0.051  0.5190E-02  0.5190E-02  0.2496E+00  0.2496E+00
      0.155  0.2281E-02  0.2281E-02  0.2499E+00  0.2499E+00
      0.259  0.1147E-02  0.1147E-02  0.2500E+00  0.2500E+00
      0.363  0.2185E-02  0.2185E-02  0.2502E+00  0.2502E+00
      0.468  0.7194E-02  0.7194E-02  0.2510E+00  0.2510E+00
      0.572  0.1050E-01  0.1050E-01  0.2521E+00  0.2521E+00
      0.676  0.6115E-02  0.6115E-02  0.2527E+00  0.2527E+00
      0.780  0.3533E-02  0.3533E-02  0.2531E+00  0.2531E+00
      0.884  0.7833E-02  0.7833E-02  0.2539E+00  0.2539E+00
      0.989  0.1146E-01  0.1146E-01  0.2551E+00  0.2551E+00
      1.093  0.1257E-01  0.1257E-01  0.2564E+00  0.2564E+00
      1.197  0.1073E-01  0.1073E-01  0.2575E+00  0.2575E+00
      1.301  0.4526E-02  0.4526E-02  0.2580E+00  0.2580E+00
      1.406  0.4824E-02  0.4824E-02  0.2585E+00  0.2585E+00
      1.510  0.5210E-02  0.5210E-02  0.2590E+00  0.2590E+00
      1.614  0.4958E-02  0.4958E-02  0.2595E+00  0.2595E+00
      1.718  0.6812E-02  0.6812E-02  0.2603E+00  0.2603E+00
      1.822  0.9671E-02  0.9671E-02  0.2613E+00  0.2613E+00
      1.927  0.9953E-02  0.9953E-02  0.2623E+00  0.2623E+00
      2.031  0.3894E-02  0.3894E-02  0.2627E+00  0.2627E+00
      2.135  0.2312E-02  0.2312E-02  0.2629E+00  0.2629E+00
      2.239  0.9564E-02  0.9564E-02  0.2639E+00  0.2639E+00
      2.344  0.1717E-01  0.1717E-01  0.2657E+00  0.2657E+00
      2.448  0.1296E-01  0.1296E-01  0.2671E+00  0.2671E+00
      2.552  0.1104E-01  0.1104E-01  0.2682E+00  0.2682E+00
      2.656  0.1089E-01  0.1089E-01  0.2694E+00  0.2694E+00
      2.761  0.1169E-01  0.1169E-01  0.2706E+00  0.2706E+00
      2.865  0.1224E-01  0.1224E-01  0.2719E+00  0.2719E+00
      2.969  0.9029E-02  0.9032E-02  0.2728E+00  0.2728E+00
      3.073  0.8381E-02  0.8382E-02  0.2737E+00  0.2737E+00
      3.177  0.1253E-01  0.1253E-01  0.2750E+00  0.2750E+00
      3.282  0.1307E-01  0.1307E-01  0.2763E+00  0.2763E+00
      3.386  0.1239E-01  0.1238E-01  0.2776E+00  0.2776E+00
      3.490  0.1109E-01  0.1109E-01  0.2788E+00  0.2788E+00
      3.594  0.1137E-01  0.1138E-01  0.2800E+00  0.2800E+00
      3.699  0.1077E-01  0.1076E-01  0.2811E+00  0.2811E+00
      3.803  0.9897E-02  0.9896E-02  0.2821E+00  0.2821E+00
      3.907  0.1239E-01  0.1239E-01  0.2834E+00  0.2834E+00
      4.011  0.1593E-01  0.1593E-01  0.2851E+00  0.2851E+00
      4.115  0.1554E-01  0.1553E-01  0.2867E+00  0.2867E+00
      4.220  0.1233E-01  0.1233E-01  0.2880E+00  0.2880E+00
      4.324  0.1062E-01  0.1062E-01  0.2891E+00  0.2891E+00
      4.428  0.2020E-01  0.2020E-01  0.2912E+00  0.2912E+00
      4.532  0.2047E-01  0.2047E-01  0.2933E+00  0.2933E+00
      4.637  0.1137E-01  0.1137E-01  0.2945E+00  0.2945E+00
      4.741  0.8594E-02  0.8611E-02  0.2954E+00  0.2954E+00
      4.845  0.1611E-01  0.1614E-01  0.2971E+00  0.2971E+00
      4.949  0.2129E-01  0.2130E-01  0.2993E+00  0.2993E+00
      5.053  0.1819E-01  0.1818E-01  0.3012E+00  0.3012E+00
      5.158  0.1443E-01  0.1445E-01  0.3027E+00  0.3027E+00
      5.262  0.1830E-01  0.1829E-01  0.3046E+00  0.3046E+00
      5.366  0.1548E-01  0.1547E-01  0.3062E+00  0.3062E+00
      5.470  0.1543E-01  0.1546E-01  0.3078E+00  0.3079E+00
      5.575  0.2420E-01  0.2419E-01  0.3104E+00  0.3104E+00
      5.679  0.1658E-01  0.1657E-01  0.3121E+00  0.3121E+00
      5.783  0.1084E-01  0.1085E-01  0.3132E+00  0.3132E+00
      5.887  0.1274E-01  0.1276E-01  0.3146E+00  0.3146E+00
      5.992  0.1758E-01  0.1755E-01  0.3164E+00  0.3164E+00
      6.096  0.1618E-01  0.1617E-01  0.3181E+00  0.3181E+00
      6.200  0.2355E-01  0.2356E-01  0.3205E+00  0.3205E+00
      6.304  0.2636E-01  0.2638E-01  0.3233E+00  0.3233E+00
      6.408  0.2778E-01  0.2777E-01  0.3262E+00  0.3262E+00
      6.513  0.2386E-01  0.2383E-01  0.3287E+00  0.3287E+00
      6.617  0.1783E-01  0.1784E-01  0.3305E+00  0.3305E+00
      6.721  0.1674E-01  0.1677E-01  0.3323E+00  0.3323E+00
      6.825  0.2314E-01  0.2316E-01  0.3347E+00  0.3347E+00
      6.930  0.3298E-01  0.3294E-01  0.3381E+00  0.3381E+00
      7.034  0.3086E-01  0.3085E-01  0.3413E+00  0.3413E+00
      7.138  0.2915E-01  0.2917E-01  0.3444E+00  0.3444E+00
      7.242  0.3213E-01  0.3215E-01  0.3477E+00  0.3477E+00
      7.346  0.3733E-01  0.3736E-01  0.3516E+00  0.3516E+00
      7.451  0.3172E-01  0.3168E-01  0.3549E+00  0.3549E+00
      7.555  0.2880E-01  0.2879E-01  0.3579E+00  0.3579E+00
      7.659  0.3305E-01  0.3303E-01  0.3614E+00  0.3614E+00
      7.763  0.3632E-01  0.3634E-01  0.3651E+00  0.3651E+00
      7.868  0.3645E-01  0.3646E-01  0.3689E+00  0.3689E+00
      7.972  0.2622E-01  0.2620E-01  0.3717E+00  0.3717E+00
      8.076  0.1501E-01  0.1498E-01  0.3732E+00  0.3732E+00
      8.180  0.8726E-02  0.8716E-02  0.3741E+00  0.3741E+00
      8.284  0.3886E-02  0.3870E-02  0.3745E+00  0.3746E+00
      8.389  0.1907E-02  0.1912E-02  0.3747E+00  0.3747E+00
      8.493  0.1885E-02  0.1882E-02  0.3749E+00  0.3749E+00
      8.597  0.5069E-03  0.5004E-03  0.3750E+00  0.3750E+00
      8.701  0.2200E-04  0.2146E-04  0.3750E+00  0.3750E+00
      8.806  0.1324E-06  0.1275E-06  0.3750E+00  0.3750E+00
      8.910  0.1016E-09  0.9657E-10  0.3750E+00  0.3750E+00
      9.014  0.9504E-14  0.8918E-14  0.3750E+00  0.3750E+00
      9.118  0.0000E+00  0.0000E+00  0.3750E+00  0.3750E+00
      9.223  0.0000E+00  0.0000E+00  0.3750E+00  0.3750E+00
      9.327  0.0000E+00  0.0000E+00  0.3750E+00  0.3750E+00
      9.431  0.0000E+00  0.0000E+00  0.3750E+00  0.3750E+00
      9.535  0.0000E+00  0.0000E+00  0.3750E+00  0.3750E+00
      9.639  0.0000E+00  0.0000E+00  0.3750E+00  0.3750E+00
      9.744  0.0000E+00  0.0000E+00  0.3750E+00  0.3750E+00
      9.848  0.0000E+00  0.0000E+00  0.3750E+00  0.3750E+00
