Lattice                                 
           1
     4.330127    2.500000    0.000000
    -4.330127    2.500000    0.000000
     0.000000    0.000000   15.000000
   B    C 
     2    14
Direct configuration=     1
   0.33833034  0.66916432  0.10000000
   0.67165522  0.33584146  0.10000000
   0.16373946  0.31999962  0.10000000
   0.32250218  0.16126397  0.10000000
   0.16376430  0.84376384  0.10000000
   0.84623863  0.16123684  0.10000000
   0.68749850  0.84373000  0.10000000
   0.84626736  0.68499594  0.10000000
   0.24999933  0.24999967  0.32633333
   0.41666633  0.08333267  0.32633333
   0.24999933  0.74999967  0.32633333
   0.41666633  0.58333267  0.32633333
   0.74999933  0.24999967  0.32633333
   0.91666633  0.08333267  0.32633333
   0.74999933  0.74999967  0.32633333
   0.91666633  0.58333267  0.32633333
Direct configuration=     2
   0.33843816  0.66906039  0.10013792
   0.67179110  0.33570502  0.10008087
   0.16835014  0.32917406  0.09994877
   0.33137521  0.16572997  0.09997992
   0.16818625  0.83933520  0.09996126
   0.84162579  0.16582969  0.09996275
   0.67833948  0.83914343  0.09994932
   0.84177608  0.67613671  0.09998017
   0.24986898  0.24960728  0.32640127
   0.41630653  0.08328067  0.32639129
   0.24982137  0.75018905  0.32626885
   0.41677392  0.58322176  0.32622896
   0.75003500  0.24995520  0.32620904
   0.91686305  0.08312863  0.32637737
   0.75039265  0.75013716  0.32640270
   0.91671495  0.58369111  0.32638621
Direct configuration=     3
   0.33835763  0.66913802  0.10003491
   0.67168961  0.33580693  0.10002047
   0.16490646  0.32232175  0.09998703
   0.32474802  0.16239435  0.09999492
   0.16488353  0.84264292  0.09999019
   0.84507109  0.16239933  0.09999057
   0.68518028  0.84256911  0.09998717
   0.84513058  0.68275360  0.09999498
   0.24996634  0.24990035  0.32635053
   0.41657527  0.08331950  0.32634800
   0.24995429  0.75004760  0.32631701
   0.41669356  0.58330460  0.32630692
   0.75000836  0.24998841  0.32630187
   0.91671612  0.08328102  0.32634448
   0.75009888  0.75003447  0.32635089
   0.91667864  0.58342339  0.32634672
Direct configuration=     4
   0.33835760  0.66913804  0.10003487
   0.67168957  0.33580696  0.10002045
   0.16490522  0.32231926  0.09998705
   0.32474562  0.16239314  0.09999492
   0.16488233  0.84264411  0.09999021
   0.84507233  0.16239809  0.09999058
   0.68518276  0.84257035  0.09998718
   0.84513179  0.68275600  0.09999499
   0.24996637  0.24990046  0.32635051
   0.41657536  0.08331952  0.32634799
   0.24995434  0.75004755  0.32631703
   0.41669354  0.58330463  0.32630694
   0.75000835  0.24998842  0.32630191
   0.91671607  0.08328108  0.32634447
   0.75009878  0.75003443  0.32635087
   0.91667863  0.58342329  0.32634670
Direct configuration=     5
   0.33835733  0.66914349  0.10012388
   0.67168782  0.33580992  0.10007148
   0.16485748  0.32232582  0.09995500
   0.32475222  0.16243086  0.09997971
   0.16486470  0.84264751  0.09996933
   0.84509759  0.16238963  0.09996361
   0.68516933  0.84262363  0.09995543
   0.84508787  0.68275209  0.09998011
   0.24995990  0.24985292  0.32639700
   0.41655394  0.08329588  0.32638379
   0.24994139  0.75005993  0.32627600
   0.41671515  0.58328355  0.32623797
   0.75001372  0.24998116  0.32622302
   0.91675306  0.08324395  0.32637294
   0.75014475  0.75003985  0.32639823
   0.91670242  0.58344515  0.32637917
Direct configuration=     6
   0.33835722  0.66914551  0.10015690
   0.67168716  0.33581101  0.10009041
   0.16483977  0.32232826  0.09994312
   0.32475467  0.16244486  0.09997406
   0.16485816  0.84264877  0.09996159
   0.84510696  0.16238649  0.09995360
   0.68516435  0.84264340  0.09994364
   0.84507157  0.68275064  0.09997459
   0.24995750  0.24983528  0.32641425
   0.41654600  0.08328711  0.32639707
   0.24993658  0.75006453  0.32626078
   0.41672317  0.58327573  0.32621238
   0.75001571  0.24997846  0.32619375
   0.91676678  0.08323017  0.32638350
   0.75016181  0.75004186  0.32641580
   0.91671125  0.58345326  0.32639121
Direct configuration=     7
   0.33829582  0.66918722  0.10024025
   0.67169264  0.33581288  0.10014439
   0.16498900  0.32237352  0.09991834
   0.32466394  0.16239671  0.09995342
   0.16481909  0.84270030  0.09995480
   0.84499865  0.16247573  0.09991454
   0.68514739  0.84253080  0.09991934
   0.84508858  0.68283267  0.09995445
   0.25002076  0.24989264  0.32645336
   0.41663538  0.08329912  0.32640823
   0.25001250  0.74998897  0.32622921
   0.41671377  0.58328099  0.32616382
   0.75005283  0.24994474  0.32615108
   0.91672553  0.08326892  0.32640668
   0.75010665  0.74997978  0.32645495
   0.91669614  0.58336034  0.32639982
Direct configuration=     8
   0.33833349  0.66916163  0.10018912
   0.67168928  0.33581174  0.10011128
   0.16489746  0.32234575  0.09993354
   0.32471960  0.16242625  0.09996608
   0.16484306  0.84266869  0.09995896
   0.84506509  0.16242099  0.09993850
   0.68515779  0.84259987  0.09993425
   0.84507814  0.68278235  0.09996681
   0.24998195  0.24985745  0.32642936
   0.41658055  0.08329176  0.32640139
   0.24996593  0.75003532  0.32624858
   0.41671954  0.58327776  0.32619361
   0.75003006  0.24996543  0.32617725
   0.91675083  0.08324515  0.32639246
   0.75014049  0.75001786  0.32643093
   0.91670541  0.58341734  0.32639454
Direct configuration=     9
   0.33831179  0.66918718  0.10021606
   0.67165118  0.33584474  0.10013145
   0.16486649  0.32236224  0.09992781
   0.32473136  0.16241177  0.09995679
   0.16481161  0.84268459  0.09996646
   0.84507616  0.16242874  0.09991551
   0.68513340  0.84262561  0.09992890
   0.84509955  0.68277898  0.09995786
   0.25000640  0.24987384  0.32643718
   0.41662210  0.08328588  0.32638945
   0.24999454  0.75000565  0.32624184
   0.41672711  0.58326929  0.32619191
   0.75004537  0.24995018  0.32618586
   0.91674695  0.08324872  0.32639922
   0.75012377  0.74999277  0.32643815
   0.91671088  0.58337514  0.32638223
Direct configuration=    10
   0.33831987  0.66917767  0.10020603
   0.67166537  0.33583245  0.10012394
   0.16487802  0.32235610  0.09992994
   0.32472698  0.16241716  0.09996025
   0.16482332  0.84267867  0.09996367
   0.84507204  0.16242586  0.09992407
   0.68514248  0.84261603  0.09993089
   0.84509158  0.68278023  0.09996119
   0.24999730  0.24986773  0.32643427
   0.41660663  0.08328807  0.32639390
   0.24998388  0.75001670  0.32624435
   0.41672429  0.58327244  0.32619254
   0.75003967  0.24995586  0.32618266
   0.91674840  0.08324739  0.32639671
   0.75012999  0.75000211  0.32643546
   0.91670884  0.58339085  0.32638681
Direct configuration=    11
   0.33829917  0.66919790  0.10022622
   0.67165080  0.33584953  0.10013817
   0.16486636  0.32236243  0.09992480
   0.32471403  0.16244553  0.09995478
   0.16481982  0.84268379  0.09997275
   0.84506141  0.16243760  0.09990380
   0.68513795  0.84263497  0.09992620
   0.84505692  0.68279029  0.09995610
   0.25000809  0.24984929  0.32643656
   0.41661738  0.08327088  0.32638073
   0.24999379  0.75000599  0.32623935
   0.41674104  0.58325550  0.32619803
   0.75005192  0.24994258  0.32619596
   0.91676675  0.08322873  0.32640258
   0.75014749  0.74999043  0.32643710
   0.91672576  0.58337990  0.32637353
Direct configuration=    12
   0.33828836  0.66920847  0.10023676
   0.67164318  0.33585845  0.10014560
   0.16486028  0.32236574  0.09992212
   0.32470726  0.16246035  0.09995192
   0.16481799  0.84268646  0.09997749
   0.84505585  0.16244373  0.09989322
   0.68513558  0.84264486  0.09992375
   0.84503881  0.68279555  0.09995345
   0.25001373  0.24983965  0.32643776
   0.41662299  0.08326191  0.32637385
   0.24999896  0.75000040  0.32623674
   0.41674979  0.58324664  0.32620089
   0.75005833  0.24993564  0.32620291
   0.91677633  0.08321898  0.32640565
   0.75015663  0.74998433  0.32643796
   0.91673460  0.58337418  0.32636659
Direct configuration=    13
   0.33828700  0.66921157  0.10025198
   0.67163695  0.33586405  0.10015183
   0.16484775  0.32239816  0.09991388
   0.32468124  0.16246349  0.09995407
   0.16478344  0.84271491  0.09998753
   0.84503286  0.16247070  0.09987645
   0.68510388  0.84265839  0.09991607
   0.84503606  0.68282598  0.09995608
   0.25002804  0.24980750  0.32643531
   0.41662623  0.08324266  0.32636599
   0.25001184  0.74998749  0.32623034
   0.41676711  0.58322830  0.32620951
   0.75007656  0.24991697  0.32621141
   0.91679857  0.08319551  0.32641250
   0.75018847  0.74996984  0.32643499
   0.91675265  0.58336982  0.32635872
Direct configuration=    14
   0.33828673  0.66921219  0.10025501
   0.67163571  0.33586517  0.10015307
   0.16484526  0.32240460  0.09991224
   0.32467608  0.16246412  0.09995449
   0.16477657  0.84272056  0.09998953
   0.84502829  0.16247606  0.09987312
   0.68509759  0.84266108  0.09991455
   0.84503552  0.68283203  0.09995660
   0.25003088  0.24980111  0.32643483
   0.41662687  0.08323884  0.32636443
   0.25001440  0.74998493  0.32622906
   0.41677055  0.58322465  0.32621123
   0.75008019  0.24991326  0.32621310
   0.91680299  0.08319084  0.32641386
   0.75019479  0.74996696  0.32643440
   0.91675624  0.58336895  0.32635715
Direct configuration=    15
   0.33826714  0.66923256  0.10026266
   0.67161743  0.33588499  0.10015133
   0.16482114  0.32242283  0.09990208
   0.32465593  0.16248824  0.09996388
   0.16475804  0.84273922  0.10000142
   0.84500870  0.16249736  0.09986019
   0.68508032  0.84268742  0.09990505
   0.84501055  0.68285219  0.09996657
   0.25005296  0.24978409  0.32643028
   0.41665127  0.08321893  0.32636324
   0.25003715  0.74996129  0.32622295
   0.41679003  0.58320431  0.32621807
   0.75010082  0.24989190  0.32621417
   0.91682079  0.08317227  0.32641920
   0.75021106  0.74994407  0.32642962
   0.91677533  0.58334368  0.32635596
Direct configuration=    16
   0.33820838  0.66929367  0.10028563
   0.67156260  0.33594448  0.10014610
   0.16474878  0.32247751  0.09987161
   0.32459550  0.16256061  0.09999202
   0.16470244  0.84279522  0.10003710
   0.84494993  0.16256123  0.09982139
   0.68502851  0.84276645  0.09987658
   0.84493567  0.68291266  0.09999649
   0.25011919  0.24973303  0.32641662
   0.41672447  0.08315920  0.32635967
   0.25010540  0.74989037  0.32620463
   0.41684847  0.58314329  0.32623860
   0.75016272  0.24982782  0.32621738
   0.91687417  0.08311654  0.32643520
   0.75025986  0.74987538  0.32641527
   0.91683259  0.58326788  0.32635238
Direct configuration=    17
   0.33809084  0.66941589  0.10033156
   0.67145294  0.33606344  0.10013563
   0.16460407  0.32258687  0.09981065
   0.32447465  0.16270534  0.10004832
   0.16459123  0.84290722  0.10010847
   0.84483238  0.16268898  0.09974380
   0.68492488  0.84292452  0.09981963
   0.84478589  0.68303361  0.10005634
   0.25025166  0.24963091  0.32638932
   0.41687087  0.08303975  0.32635253
   0.25024190  0.74974853  0.32616797
   0.41696533  0.58302123  0.32627966
   0.75028653  0.24969966  0.32622381
   0.91698093  0.08300510  0.32646722
   0.75035745  0.74973802  0.32638656
   0.91694711  0.58311627  0.32634522
Direct configuration=    18
   0.33817418  0.66932923  0.10029899
   0.67153070  0.33597909  0.10014305
   0.16470668  0.32250932  0.09985387
   0.32456034  0.16260272  0.10000840
   0.16467008  0.84282781  0.10005787
   0.84491573  0.16259840  0.09979882
   0.68499836  0.84281244  0.09986001
   0.84489209  0.68294785  0.10001390
   0.25015773  0.24970332  0.32640868
   0.41676707  0.08312445  0.32635759
   0.25014511  0.74984910  0.32619396
   0.41688247  0.58310777  0.32625054
   0.75019874  0.24979053  0.32621925
   0.91690523  0.08308412  0.32644452
   0.75028825  0.74983542  0.32640692
   0.91686591  0.58322377  0.32635030
Direct configuration=    19
   0.33816301  0.66934090  0.10030024
   0.67151802  0.33599171  0.10014229
   0.16469799  0.32252073  0.09985008
   0.32455043  0.16261165  0.10001260
   0.16465917  0.84283863  0.10006553
   0.84490579  0.16260931  0.09979158
   0.68498716  0.84282158  0.09985656
   0.84488369  0.68295855  0.10001842
   0.25016756  0.24969209  0.32640816
   0.41677702  0.08311326  0.32635703
   0.25015476  0.74983900  0.32619285
   0.41689334  0.58309657  0.32625100
   0.75020877  0.24978000  0.32621929
   0.91691623  0.08307275  0.32644493
   0.75029900  0.74982512  0.32640637
   0.91687675  0.58321347  0.32634973
Direct configuration=    20
   0.33812948  0.66937591  0.10030397
   0.67147998  0.33602959  0.10014000
   0.16467191  0.32255497  0.09983871
   0.32452069  0.16263847  0.10002520
   0.16462642  0.84287110  0.10008854
   0.84487599  0.16264204  0.09976989
   0.68495359  0.84284900  0.09984620
   0.84485850  0.68299066  0.10003196
   0.25019704  0.24965842  0.32640662
   0.41680687  0.08307967  0.32635537
   0.25018368  0.74980869  0.32618953
   0.41692595  0.58306294  0.32625237
   0.75023883  0.24974843  0.32621939
   0.91694925  0.08303864  0.32644617
   0.75033125  0.74979424  0.32640472
   0.91690925  0.58318256  0.32634803
Direct configuration=    21
   0.33806242  0.66944594  0.10031145
   0.67140391  0.33610534  0.10013541
   0.16461975  0.32262343  0.09981596
   0.32446121  0.16269210  0.10005041
   0.16456092  0.84293605  0.10013454
   0.84481639  0.16270751  0.09972649
   0.68488643  0.84290384  0.09982549
   0.84480811  0.68305486  0.10005903
   0.25025600  0.24959107  0.32640353
   0.41686657  0.08301251  0.32635204
   0.25024153  0.74974808  0.32618289
   0.41699116  0.58299568  0.32625511
   0.75029897  0.24968529  0.32621961
   0.91701527  0.08297043  0.32644864
   0.75039575  0.74973248  0.32640143
   0.91697427  0.58312074  0.32634463
Direct configuration=    22
   0.33792830  0.66958599  0.10032640
   0.67125177  0.33625685  0.10012624
   0.16451543  0.32276035  0.09977046
   0.32434224  0.16279937  0.10010082
   0.16442993  0.84306593  0.10022655
   0.84469720  0.16283844  0.09963970
   0.68475211  0.84301351  0.09978405
   0.84470733  0.68318327  0.10011319
   0.25037393  0.24945637  0.32639735
   0.41698598  0.08287817  0.32634538
   0.25035723  0.74962685  0.32616961
   0.41712160  0.58286116  0.32626060
   0.75041924  0.24955900  0.32622003
   0.91714732  0.08283401  0.32645359
   0.75052476  0.74960895  0.32639486
   0.91710431  0.58299711  0.32633782
Direct configuration=    23
   0.33766007  0.66986608  0.10035630
   0.67094748  0.33655986  0.10010790
   0.16430680  0.32303420  0.09967947
   0.32410432  0.16301390  0.10020165
   0.16416795  0.84332571  0.10041058
   0.84445880  0.16310031  0.09946612
   0.68448348  0.84323286  0.09970119
   0.84450576  0.68344009  0.10022150
   0.25060978  0.24918698  0.32638500
   0.41722480  0.08260951  0.32633207
   0.25058863  0.74938440  0.32614305
   0.41738247  0.58259212  0.32627157
   0.75065977  0.24930642  0.32622088
   0.91741141  0.08256116  0.32646349
   0.75078277  0.74936190  0.32638170
   0.91736438  0.58274984  0.32632421
Direct configuration=    24
   0.33712360  0.67042628  0.10041610
   0.67033891  0.33716588  0.10007121
   0.16388954  0.32358189  0.09949749
   0.32362848  0.16344297  0.10040330
   0.16364399  0.84384525  0.10077862
   0.84398201  0.16362405  0.09911895
   0.68394621  0.84367156  0.09953546
   0.84410264  0.68395373  0.10043811
   0.25108148  0.24864820  0.32636029
   0.41770242  0.08207218  0.32630544
   0.25105143  0.74889949  0.32608992
   0.41790421  0.58205406  0.32629350
   0.75114085  0.24880126  0.32622259
   0.91793960  0.08201545  0.32648328
   0.75129879  0.74886779  0.32635539
   0.91788452  0.58225530  0.32629700
Direct configuration=    25
   0.33742240  0.67011426  0.10038279
   0.67067787  0.33682834  0.10009164
   0.16412195  0.32327684  0.09959885
   0.32389351  0.16320399  0.10029098
   0.16393582  0.84355588  0.10057363
   0.84424757  0.16333234  0.09931232
   0.68424546  0.84342721  0.09962777
   0.84432717  0.68366765  0.10031746
   0.25081875  0.24894829  0.32637405
   0.41743639  0.08237146  0.32632027
   0.25079366  0.74916957  0.32611951
   0.41761361  0.58235375  0.32628128
   0.75087290  0.24908262  0.32622164
   0.91764541  0.08231940  0.32647226
   0.75101137  0.74914300  0.32637005
   0.91759481  0.58253075  0.32631216
Direct configuration=    26
   0.33741009  0.67012692  0.10038378
   0.67066556  0.33684119  0.10009102
   0.16411080  0.32328906  0.09959474
   0.32388119  0.16321611  0.10029561
   0.16392423  0.84356803  0.10058277
   0.84423540  0.16334496  0.09930378
   0.68423389  0.84343928  0.09962405
   0.84431510  0.68368025  0.10032245
   0.25083073  0.24893562  0.32637377
   0.41744805  0.08235908  0.32631964
   0.25080558  0.74915719  0.32611864
   0.41762552  0.58234135  0.32628127
   0.75088488  0.24907017  0.32622160
   0.91765735  0.08230696  0.32647230
   0.75102359  0.74913056  0.32636974
   0.91760669  0.58251860  0.32631151
Direct configuration=    27
   0.33737316  0.67016492  0.10038674
   0.67062863  0.33687974  0.10008915
   0.16407737  0.32332571  0.09958241
   0.32384424  0.16325248  0.10030948
   0.16388946  0.84360449  0.10061021
   0.84419888  0.16338283  0.09927817
   0.68419920  0.84347547  0.09961288
   0.84427889  0.68371807  0.10033741
   0.25086666  0.24889760  0.32637291
   0.41748302  0.08232195  0.32631773
   0.25084134  0.74912006  0.32611602
   0.41766125  0.58230416  0.32628125
   0.75092083  0.24903281  0.32622148
   0.91769317  0.08226964  0.32647244
   0.75106023  0.74909326  0.32636881
   0.91764232  0.58248213  0.32630956
Direct configuration=    28
   0.33729931  0.67024091  0.10039266
   0.67055477  0.33695684  0.10008541
   0.16401049  0.32339902  0.09955775
   0.32377032  0.16332522  0.10033723
   0.16381990  0.84367742  0.10066509
   0.84412584  0.16345857  0.09922695
   0.68412981  0.84354786  0.09959055
   0.84420646  0.68379371  0.10036734
   0.25093852  0.24882157  0.32637120
   0.41755297  0.08224768  0.32631392
   0.25091287  0.74904579  0.32611078
   0.41773271  0.58222977  0.32628119
   0.75099274  0.24895809  0.32622124
   0.91776483  0.08219500  0.32647272
   0.75113353  0.74901866  0.32636696
   0.91771360  0.58240920  0.32630566
Direct configuration=    29
   0.33715160  0.67039290  0.10040451
   0.67040705  0.33711104  0.10007793
   0.16387675  0.32354565  0.09950843
   0.32362248  0.16347071  0.10039272
   0.16368079  0.84382327  0.10077484
   0.84397976  0.16361005  0.09912450
   0.68399102  0.84369263  0.09954588
   0.84406161  0.68394499  0.10042720
   0.25108224  0.24866951  0.32636777
   0.41769286  0.08209915  0.32630630
   0.25105593  0.74889725  0.32610030
   0.41787563  0.58208100  0.32628109
   0.75113655  0.24880866  0.32622077
   0.91790813  0.08204572  0.32647328
   0.75128011  0.74886945  0.32636326
   0.91785615  0.58226334  0.32629787
Direct configuration=    30
   0.33685618  0.67069686  0.10042821
   0.67011162  0.33741944  0.10006297
   0.16360926  0.32383889  0.09940979
   0.32332681  0.16376168  0.10050371
   0.16340258  0.84411498  0.10099436
   0.84368761  0.16391301  0.09891962
   0.68371346  0.84398218  0.09945655
   0.84377189  0.68424755  0.10054691
   0.25136967  0.24836538  0.32636092
   0.41797264  0.08180209  0.32629105
   0.25134205  0.74860018  0.32607935
   0.41816146  0.58178346  0.32628088
   0.75142416  0.24850979  0.32621982
   0.91819474  0.08174716  0.32647439
   0.75157328  0.74857105  0.32635586
   0.91814125  0.58197161  0.32628228
Direct configuration=    31
   0.33626534  0.67130480  0.10047560
   0.66952075  0.33803625  0.10003305
   0.16307427  0.32442539  0.09921250
   0.32273547  0.16434363  0.10072568
   0.16284615  0.84469839  0.10143338
   0.84310329  0.16451894  0.09850985
   0.68315833  0.84456128  0.09927789
   0.84319247  0.68485268  0.10078633
   0.25194455  0.24775713  0.32634721
   0.41853220  0.08120796  0.32626057
   0.25191428  0.74800602  0.32603744
   0.41873313  0.58118838  0.32628045
   0.75199940  0.24791205  0.32621792
   0.91876797  0.08115004  0.32647662
   0.75215963  0.74797423  0.32634106
   0.91871145  0.58138817  0.32625111
Direct configuration=    32
   0.33508365  0.67252067  0.10057038
   0.66833901  0.33926986  0.09997321
   0.16200430  0.32559837  0.09881792
   0.32155279  0.16550752  0.10116963
   0.16173329  0.84586522  0.10231142
   0.84193466  0.16573079  0.09769030
   0.68204806  0.84571948  0.09892057
   0.84203363  0.68606292  0.10126518
   0.25309430  0.24654063  0.32631980
   0.41965132  0.08001971  0.32619959
   0.25305875  0.74681772  0.32595362
   0.41987646  0.57999822  0.32627961
   0.75314987  0.24671657  0.32621413
   0.91991441  0.07995581  0.32648108
   0.75333231  0.74678059  0.32631145
   0.91985185  0.58022127  0.32618877
Direct configuration=    33
   0.33272029  0.67495241  0.10075995
   0.66597553  0.34173708  0.09985353
   0.15986436  0.32794434  0.09802877
   0.31918743  0.16783530  0.10205752
   0.15950757  0.84819887  0.10406751
   0.83959740  0.16815450  0.09605122
   0.67982754  0.84803587  0.09820593
   0.83971594  0.68848341  0.10222288
   0.25539379  0.24410762  0.32626498
   0.42188956  0.07764320  0.32607765
   0.25534767  0.74444111  0.32578598
   0.42216314  0.57761789  0.32627792
   0.75545080  0.24432561  0.32620653
   0.92220730  0.07756734  0.32648999
   0.75567768  0.74439331  0.32625224
   0.92213266  0.57788748  0.32606408
Direct configuration=    34
   0.33347479  0.67417608  0.10069943
   0.66673006  0.34094942  0.09989174
   0.16054753  0.32719540  0.09828070
   0.31994256  0.16709216  0.10177406
   0.16021813  0.84745386  0.10350689
   0.84034357  0.16738074  0.09657449
   0.68053643  0.84729637  0.09843408
   0.84045585  0.68771067  0.10191714
   0.25465968  0.24488435  0.32628248
   0.42117501  0.07840189  0.32611658
   0.25461694  0.74519983  0.32583950
   0.42143312  0.57837780  0.32627846
   0.75471623  0.24508892  0.32620896
   0.92147530  0.07832985  0.32648714
   0.75492893  0.74515544  0.32627114
   0.92140452  0.57863253  0.32610388
Direct configuration=    35
   0.33330478  0.67435477  0.10071070
   0.66655379  0.34113267  0.09988624
   0.16035555  0.32738133  0.09822022
   0.31976571  0.16727767  0.10184186
   0.16003473  0.84763884  0.10364569
   0.84016887  0.16756769  0.09644524
   0.68035585  0.84749546  0.09837936
   0.84027732  0.68789596  0.10199043
   0.25484108  0.24470139  0.32627946
   0.42135716  0.07821741  0.32610816
   0.25479873  0.74501088  0.32582950
   0.42161100  0.57819262  0.32627497
   0.75489575  0.24490243  0.32620682
   0.92165170  0.07814620  0.32648481
   0.75510492  0.74496701  0.32626792
   0.92158173  0.57844302  0.32609529
Direct configuration=    36
   0.33279476  0.67489082  0.10074449
   0.66602495  0.34168240  0.09986972
   0.15977960  0.32793912  0.09803877
   0.31923515  0.16783421  0.10204527
   0.15948454  0.84819379  0.10406211
   0.83964477  0.16812854  0.09605748
   0.67981408  0.84809273  0.09821520
   0.83974171  0.68845180  0.10221031
   0.25538526  0.24415250  0.32627039
   0.42190362  0.07766397  0.32608292
   0.25534410  0.74444400  0.32579953
   0.42214465  0.57763707  0.32626452
   0.75543430  0.24434296  0.32620041
   0.92218091  0.07759523  0.32647781
   0.75563291  0.74440173  0.32625824
   0.92211335  0.57787448  0.32606950
Direct configuration=    37
   0.33177473  0.67596293  0.10081209
   0.66496729  0.34278186  0.09983670
   0.15862769  0.32905471  0.09767588
   0.31817403  0.16894729  0.10245208
   0.15838416  0.84930368  0.10489496
   0.83859657  0.16925023  0.09528197
   0.67873056  0.84928726  0.09788688
   0.83867050  0.68956350  0.10265006
   0.25647362  0.24305471  0.32625225
   0.42299654  0.07655710  0.32603242
   0.25643484  0.74331026  0.32573957
   0.42321194  0.57652596  0.32624362
   0.75651139  0.24322402  0.32618758
   0.92323933  0.07649329  0.32646380
   0.75668887  0.74327115  0.32623889
   0.92317660  0.57673739  0.32601792
Direct configuration=    38
   0.32973466  0.67810715  0.10094727
   0.66285195  0.34498079  0.09977064
   0.15632387  0.33128589  0.09695009
   0.31605179  0.17117344  0.10326570
   0.15618341  0.85152346  0.10656064
   0.83650018  0.17149363  0.09373095
   0.67656351  0.85167633  0.09723024
   0.83652808  0.69178688  0.10352957
   0.25865036  0.24085913  0.32621598
   0.42518238  0.07434334  0.32593144
   0.25861631  0.74104277  0.32561965
   0.42534653  0.57430375  0.32620182
   0.75866557  0.24098615  0.32616192
   0.92535618  0.07428942  0.32643579
   0.75880081  0.74101001  0.32620019
   0.92530309  0.57446321  0.32591476
Direct configuration=    39
   0.33122932  0.67653618  0.10084823
   0.66440176  0.34336974  0.09981904
   0.15801177  0.32965121  0.09748184
   0.31760665  0.16954244  0.10266960
   0.15779580  0.84989713  0.10534027
   0.83803611  0.16985000  0.09486731
   0.67815120  0.84992597  0.09771133
   0.83809773  0.69015791  0.10288520
   0.25705557  0.24246772  0.32624256
   0.42358092  0.07596525  0.32600542
   0.25701805  0.74270405  0.32570751
   0.42378262  0.57593186  0.32623245
   0.75708730  0.24262573  0.32618072
   0.92380527  0.07590409  0.32645632
   0.75725349  0.74266664  0.32622854
   0.92374511  0.57612939  0.32599034
Direct configuration=    40
   0.33134287  0.67642414  0.10082889
   0.66450647  0.34325990  0.09983860
   0.15806514  0.32957240  0.09751525
   0.31770898  0.16946559  0.10263024
   0.15786682  0.84981651  0.10527514
   0.83813204  0.16975318  0.09492865
   0.67822052  0.84985628  0.09774161
   0.83818350  0.69005899  0.10284328
   0.25696828  0.24257457  0.32624708
   0.42351101  0.07605510  0.32601580
   0.25693258  0.74279168  0.32572449
   0.42369784  0.57602073  0.32622261
   0.75699695  0.24271897  0.32617424
   0.92371672  0.07599719  0.32644602
   0.75714908  0.74275634  0.32623376
   0.92365987  0.57620376  0.32600099
Direct configuration=    41
   0.33168350  0.67608801  0.10077089
   0.66482061  0.34293037  0.09989728
   0.15822526  0.32933599  0.09761548
   0.31801597  0.16923504  0.10251216
   0.15807988  0.84957464  0.10507975
   0.83841985  0.16946271  0.09511267
   0.67842846  0.84964719  0.09783246
   0.83844081  0.68976223  0.10271754
   0.25670642  0.24289512  0.32626066
   0.42330126  0.07632466  0.32604693
   0.25667619  0.74305458  0.32577545
   0.42344349  0.57628735  0.32619309
   0.75672590  0.24299868  0.32615482
   0.92345107  0.07627649  0.32641514
   0.75683585  0.74302542  0.32624939
   0.92340415  0.57642685  0.32603295
Direct configuration=    42
   0.33236477  0.67541574  0.10065489
   0.66544888  0.34227133  0.10001464
   0.15854550  0.32886315  0.09781595
   0.31862996  0.16877393  0.10227600
   0.15850601  0.84909091  0.10468896
   0.83899546  0.16888177  0.09548070
   0.67884434  0.84922903  0.09801415
   0.83895544  0.68916871  0.10246606
   0.25618269  0.24353620  0.32628782
   0.42288177  0.07686377  0.32610920
   0.25616340  0.74358038  0.32587736
   0.42293481  0.57682059  0.32613406
   0.75618379  0.24355809  0.32611597
   0.92291977  0.07683508  0.32635337
   0.75620939  0.74356360  0.32628067
   0.92289270  0.57687305  0.32609687
Direct configuration=    43
   0.33203102  0.67574507  0.10071172
   0.66514110  0.34259419  0.09995714
   0.15838862  0.32909479  0.09771775
   0.31832918  0.16899982  0.10239169
   0.15829726  0.84932788  0.10488040
   0.83871348  0.16916636  0.09530040
   0.67864060  0.84943388  0.09792514
   0.83870334  0.68945947  0.10258926
   0.25643926  0.24322214  0.32627452
   0.42308727  0.07659967  0.32607869
   0.25641461  0.74332280  0.32582743
   0.42318400  0.57655936  0.32616298
   0.75644936  0.24328404  0.32613500
   0.92318004  0.07656143  0.32638363
   0.75651628  0.74329996  0.32626535
   0.92314325  0.57665446  0.32606555
Direct configuration=    44
   0.33209391  0.67567117  0.10067597
   0.66525923  0.34248388  0.09999859
   0.15848950  0.32900002  0.09774916
   0.31838477  0.16895932  0.10235067
   0.15840613  0.84924660  0.10482174
   0.83876264  0.16908469  0.09535694
   0.67874377  0.84933455  0.09795326
   0.83873406  0.68938744  0.10254625
   0.25636754  0.24330083  0.32628023
   0.42300414  0.07668675  0.32609879
   0.25634234  0.74339951  0.32586049
   0.42309804  0.57664695  0.32614025
   0.75637761  0.24336028  0.32611795
   0.92309538  0.07664791  0.32635754
   0.75644163  0.74337578  0.32627259
   0.92305799  0.57673967  0.32608626
Direct configuration=    45
   0.33220771  0.67553745  0.10061128
   0.66547297  0.34228429  0.10007359
   0.15867205  0.32882855  0.09780599
   0.31848536  0.16888604  0.10227644
   0.15860312  0.84909953  0.10471561
   0.83885159  0.16893691  0.09545923
   0.67893045  0.84915481  0.09800415
   0.83878966  0.68925710  0.10246843
   0.25623776  0.24344319  0.32629056
   0.42285372  0.07684432  0.32613515
   0.25621158  0.74353830  0.32592030
   0.42294251  0.57680542  0.32609911
   0.75624777  0.24349823  0.32608709
   0.92294219  0.07680438  0.32631034
   0.75630654  0.74351297  0.32628569
   0.92290371  0.57689384  0.32612371
Direct configuration=    46
   0.33222104  0.67552450  0.10057823
   0.66549309  0.34225717  0.10011424
   0.15870567  0.32879016  0.09781593
   0.31853816  0.16881918  0.10225763
   0.15863314  0.84907117  0.10467789
   0.83890756  0.16887997  0.09549721
   0.67895963  0.84910011  0.09801185
   0.83887498  0.68921053  0.10244883
   0.25619562  0.24346652  0.32629023
   0.42279495  0.07688454  0.32615615
   0.25616601  0.74358652  0.32595136
   0.42290093  0.57684777  0.32608156
   0.75621074  0.24353726  0.32606947
   0.92290796  0.07683906  0.32628375
   0.75628506  0.74355726  0.32628691
   0.92286413  0.57695362  0.32614545
Direct configuration=    47
   0.33224330  0.67550285  0.10052300
   0.66552670  0.34221184  0.10018217
   0.15876186  0.32872600  0.09783253
   0.31862639  0.16870747  0.10222620
   0.15868331  0.84902377  0.10461486
   0.83900109  0.16878481  0.09556068
   0.67900840  0.84900871  0.09802473
   0.83901755  0.68913272  0.10241607
   0.25612519  0.24350549  0.32628967
   0.42269676  0.07695176  0.32619122
   0.25608986  0.74366708  0.32600326
   0.42283144  0.57691854  0.32605223
   0.75614886  0.24360248  0.32604002