  16  16   0  16
  0.2019206E+02  0.4987000E-09  0.4987000E-09  0.1500000E-08  0.5000000E-15
  1.000000000000000E-004
  CAR 
 Lattice                                 
      9.48456227    -21.04052950  301     -0.22725687      1.00000000
    -21.041  0.0000E+00  0.0000E+00  0.0000E+00  0.0000E+00
    -20.939  0.0000E+00  0.0000E+00  0.0000E+00  0.0000E+00
    -20.837  0.0000E+00  0.0000E+00  0.0000E+00  0.0000E+00
    -20.735  0.0000E+00  0.0000E+00  0.0000E+00  0.0000E+00
    -20.634  0.0000E+00  0.0000E+00  0.0000E+00  0.0000E+00
    -20.532  0.0000E+00  0.0000E+00  0.0000E+00  0.0000E+00
    -20.430  0.0000E+00  0.0000E+00  0.0000E+00  0.0000E+00
    -20.328  0.0000E+00  0.0000E+00  0.0000E+00  0.0000E+00
    -20.227  0.1480E-18  0.1480E-18  0.1506E-19  0.1506E-19
    -20.125  0.7461E-14  0.7461E-14  0.7591E-15  0.7591E-15
    -20.023  0.5505E-10  0.5505E-10  0.5602E-11  0.5602E-11
    -19.921  0.6013E-07  0.6013E-07  0.6123E-08  0.6123E-08
    -19.820  0.1050E-04  0.1050E-04  0.1074E-05  0.1074E-05
    -19.718  0.3216E-03  0.3216E-03  0.3380E-04  0.3380E-04
    -19.616  0.2089E-02  0.2089E-02  0.2464E-03  0.2464E-03
    -19.514  0.4305E-02  0.4305E-02  0.6844E-03  0.6844E-03
    -19.413  0.4774E-02  0.4774E-02  0.1170E-02  0.1170E-02
    -19.311  0.5126E-02  0.5126E-02  0.1692E-02  0.1692E-02
    -19.209  0.4459E-02  0.4459E-02  0.2146E-02  0.2146E-02
    -19.107  0.5564E-02  0.5564E-02  0.2712E-02  0.2712E-02
    -19.006  0.4459E-02  0.4459E-02  0.3165E-02  0.3165E-02
    -18.904  0.4566E-02  0.4566E-02  0.3630E-02  0.3630E-02
    -18.802  0.6175E-02  0.6175E-02  0.4258E-02  0.4258E-02
    -18.700  0.4043E-02  0.4043E-02  0.4670E-02  0.4670E-02
    -18.599  0.4205E-02  0.4205E-02  0.5097E-02  0.5097E-02
    -18.497  0.6344E-02  0.6344E-02  0.5743E-02  0.5743E-02
    -18.395  0.5388E-02  0.5388E-02  0.6291E-02  0.6291E-02
    -18.293  0.3174E-02  0.3174E-02  0.6614E-02  0.6614E-02
    -18.192  0.4788E-02  0.4788E-02  0.7101E-02  0.7101E-02
    -18.090  0.7085E-02  0.7085E-02  0.7822E-02  0.7822E-02
    -17.988  0.4804E-02  0.4804E-02  0.8311E-02  0.8311E-02
    -17.886  0.3902E-02  0.3902E-02  0.8708E-02  0.8708E-02
    -17.785  0.3388E-02  0.3388E-02  0.9053E-02  0.9053E-02
    -17.683  0.7021E-02  0.7021E-02  0.9767E-02  0.9767E-02
    -17.581  0.6723E-02  0.6723E-02  0.1045E-01  0.1045E-01
    -17.479  0.3661E-02  0.3661E-02  0.1082E-01  0.1082E-01
    -17.378  0.3573E-02  0.3573E-02  0.1119E-01  0.1119E-01
    -17.276  0.4441E-02  0.4441E-02  0.1164E-01  0.1164E-01
    -17.174  0.6710E-02  0.6710E-02  0.1232E-01  0.1232E-01
    -17.072  0.6883E-02  0.6883E-02  0.1302E-01  0.1302E-01
    -16.971  0.4808E-02  0.4808E-02  0.1351E-01  0.1351E-01
    -16.869  0.2515E-02  0.2515E-02  0.1377E-01  0.1377E-01
    -16.767  0.3896E-02  0.3896E-02  0.1416E-01  0.1416E-01
    -16.665  0.7052E-02  0.7052E-02  0.1488E-01  0.1488E-01
    -16.564  0.6721E-02  0.6721E-02  0.1557E-01  0.1557E-01
    -16.462  0.5590E-02  0.5590E-02  0.1613E-01  0.1613E-01
    -16.360  0.4636E-02  0.4636E-02  0.1661E-01  0.1661E-01
    -16.258  0.3221E-02  0.3221E-02  0.1693E-01  0.1693E-01
    -16.157  0.2882E-02  0.2882E-02  0.1723E-01  0.1723E-01
    -16.055  0.9632E-02  0.9632E-02  0.1821E-01  0.1821E-01
    -15.953  0.1203E-01  0.1203E-01  0.1943E-01  0.1943E-01
    -15.851  0.1085E-01  0.1085E-01  0.2054E-01  0.2054E-01
    -15.750  0.1063E-01  0.1063E-01  0.2162E-01  0.2162E-01
    -15.648  0.1085E-01  0.1085E-01  0.2272E-01  0.2272E-01
    -15.546  0.1020E-01  0.1020E-01  0.2376E-01  0.2376E-01
    -15.444  0.1229E-01  0.1229E-01  0.2501E-01  0.2501E-01
    -15.343  0.1714E-01  0.1714E-01  0.2675E-01  0.2675E-01
    -15.241  0.1593E-01  0.1593E-01  0.2837E-01  0.2837E-01
    -15.139  0.1398E-01  0.1398E-01  0.2980E-01  0.2980E-01
    -15.037  0.1013E-01  0.1013E-01  0.3083E-01  0.3083E-01
    -14.936  0.8258E-02  0.8258E-02  0.3167E-01  0.3167E-01
    -14.834  0.6272E-02  0.6272E-02  0.3231E-01  0.3231E-01
    -14.732  0.9093E-02  0.9093E-02  0.3323E-01  0.3323E-01
    -14.630  0.1154E-01  0.1154E-01  0.3440E-01  0.3440E-01
    -14.529  0.1197E-01  0.1197E-01  0.3562E-01  0.3562E-01
    -14.427  0.1308E-01  0.1308E-01  0.3695E-01  0.3695E-01
    -14.325  0.1081E-01  0.1081E-01  0.3805E-01  0.3805E-01
    -14.223  0.8854E-02  0.8854E-02  0.3895E-01  0.3895E-01
    -14.122  0.9554E-02  0.9554E-02  0.3993E-01  0.3993E-01
    -14.020  0.1412E-01  0.1412E-01  0.4136E-01  0.4136E-01
    -13.918  0.8970E-02  0.8970E-02  0.4228E-01  0.4228E-01
    -13.816  0.3920E-02  0.3920E-02  0.4267E-01  0.4267E-01
    -13.715  0.2601E-02  0.2601E-02  0.4294E-01  0.4294E-01
    -13.613  0.5643E-02  0.5643E-02  0.4351E-01  0.4351E-01
    -13.511  0.6093E-02  0.6093E-02  0.4413E-01  0.4413E-01
    -13.409  0.6353E-02  0.6353E-02  0.4478E-01  0.4478E-01
    -13.308  0.6756E-02  0.6756E-02  0.4547E-01  0.4547E-01
    -13.206  0.7429E-02  0.7429E-02  0.4622E-01  0.4622E-01
    -13.104  0.7139E-02  0.7139E-02  0.4695E-01  0.4695E-01
    -13.002  0.6458E-02  0.6458E-02  0.4761E-01  0.4761E-01
    -12.901  0.6120E-02  0.6120E-02  0.4823E-01  0.4823E-01
    -12.799  0.8717E-02  0.8717E-02  0.4912E-01  0.4912E-01
    -12.697  0.1255E-01  0.1255E-01  0.5039E-01  0.5039E-01
    -12.595  0.1214E-01  0.1214E-01  0.5163E-01  0.5163E-01
    -12.494  0.1427E-01  0.1427E-01  0.5308E-01  0.5308E-01
    -12.392  0.1506E-01  0.1506E-01  0.5461E-01  0.5461E-01
    -12.290  0.1354E-01  0.1354E-01  0.5599E-01  0.5599E-01
    -12.188  0.1727E-01  0.1727E-01  0.5775E-01  0.5775E-01
    -12.087  0.1505E-01  0.1505E-01  0.5928E-01  0.5928E-01
    -11.985  0.1617E-01  0.1617E-01  0.6092E-01  0.6092E-01
    -11.883  0.1734E-01  0.1734E-01  0.6269E-01  0.6269E-01
    -11.781  0.1039E-01  0.1039E-01  0.6374E-01  0.6374E-01
    -11.680  0.6247E-02  0.6247E-02  0.6438E-01  0.6438E-01
    -11.578  0.4834E-02  0.4834E-02  0.6487E-01  0.6487E-01
    -11.476  0.6549E-02  0.6549E-02  0.6554E-01  0.6554E-01
    -11.374  0.6302E-02  0.6302E-02  0.6618E-01  0.6618E-01
    -11.273  0.5504E-02  0.5504E-02  0.6674E-01  0.6674E-01
    -11.171  0.4418E-02  0.4418E-02  0.6719E-01  0.6719E-01
    -11.069  0.4231E-02  0.4231E-02  0.6762E-01  0.6762E-01
    -10.967  0.5404E-02  0.5404E-02  0.6817E-01  0.6817E-01
    -10.865  0.1053E-01  0.1053E-01  0.6924E-01  0.6924E-01
    -10.764  0.1228E-01  0.1228E-01  0.7049E-01  0.7049E-01
    -10.662  0.1240E-01  0.1240E-01  0.7175E-01  0.7175E-01
    -10.560  0.1482E-01  0.1482E-01  0.7326E-01  0.7326E-01
    -10.458  0.1397E-01  0.1397E-01  0.7468E-01  0.7468E-01
    -10.357  0.1071E-01  0.1071E-01  0.7577E-01  0.7577E-01
    -10.255  0.1030E-01  0.1030E-01  0.7682E-01  0.7682E-01
    -10.153  0.1061E-01  0.1061E-01  0.7790E-01  0.7790E-01
    -10.051  0.9544E-02  0.9544E-02  0.7887E-01  0.7887E-01
     -9.950  0.6532E-02  0.6532E-02  0.7954E-01  0.7954E-01
     -9.848  0.1139E-01  0.1139E-01  0.8069E-01  0.8069E-01
     -9.746  0.1079E-01  0.1079E-01  0.8179E-01  0.8179E-01
     -9.644  0.1505E-01  0.1505E-01  0.8332E-01  0.8332E-01
     -9.543  0.1765E-01  0.1765E-01  0.8512E-01  0.8512E-01
     -9.441  0.1090E-01  0.1090E-01  0.8623E-01  0.8623E-01
     -9.339  0.1690E-01  0.1690E-01  0.8795E-01  0.8795E-01
     -9.237  0.1803E-01  0.1803E-01  0.8978E-01  0.8978E-01
     -9.136  0.1274E-01  0.1274E-01  0.9108E-01  0.9108E-01
     -9.034  0.9385E-02  0.9385E-02  0.9203E-01  0.9203E-01
     -8.932  0.1808E-01  0.1808E-01  0.9387E-01  0.9387E-01
     -8.830  0.2326E-01  0.2326E-01  0.9624E-01  0.9624E-01
     -8.729  0.9877E-02  0.9877E-02  0.9725E-01  0.9725E-01
     -8.627  0.6130E-02  0.6130E-02  0.9787E-01  0.9787E-01
     -8.525  0.1473E-01  0.1473E-01  0.9937E-01  0.9937E-01
     -8.423  0.1735E-01  0.1735E-01  0.1011E+00  0.1011E+00
     -8.322  0.1434E-01  0.1434E-01  0.1026E+00  0.1026E+00
     -8.220  0.1581E-01  0.1581E-01  0.1042E+00  0.1042E+00
     -8.118  0.1254E-01  0.1254E-01  0.1055E+00  0.1055E+00
     -8.016  0.1092E-01  0.1092E-01  0.1066E+00  0.1066E+00
     -7.915  0.1401E-01  0.1401E-01  0.1080E+00  0.1080E+00
     -7.813  0.1855E-01  0.1855E-01  0.1099E+00  0.1099E+00
     -7.711  0.2364E-01  0.2364E-01  0.1123E+00  0.1123E+00
     -7.609  0.1691E-01  0.1691E-01  0.1140E+00  0.1140E+00
     -7.508  0.1288E-01  0.1288E-01  0.1153E+00  0.1153E+00
     -7.406  0.1264E-01  0.1264E-01  0.1166E+00  0.1166E+00
     -7.304  0.1714E-01  0.1714E-01  0.1184E+00  0.1184E+00
     -7.202  0.2006E-01  0.2006E-01  0.1204E+00  0.1204E+00
     -7.101  0.1687E-01  0.1687E-01  0.1221E+00  0.1221E+00
     -6.999  0.1910E-01  0.1910E-01  0.1241E+00  0.1241E+00
     -6.897  0.1827E-01  0.1827E-01  0.1259E+00  0.1259E+00
     -6.795  0.2187E-01  0.2187E-01  0.1282E+00  0.1282E+00
     -6.694  0.2814E-01  0.2814E-01  0.1310E+00  0.1310E+00
     -6.592  0.3639E-01  0.3639E-01  0.1347E+00  0.1347E+00
     -6.490  0.3456E-01  0.3456E-01  0.1382E+00  0.1382E+00
     -6.388  0.1879E-01  0.1879E-01  0.1401E+00  0.1401E+00
     -6.287  0.1596E-01  0.1596E-01  0.1418E+00  0.1418E+00
     -6.185  0.1830E-01  0.1830E-01  0.1436E+00  0.1436E+00
     -6.083  0.1806E-01  0.1806E-01  0.1455E+00  0.1455E+00
     -5.981  0.1708E-01  0.1708E-01  0.1472E+00  0.1472E+00
     -5.880  0.1403E-01  0.1403E-01  0.1486E+00  0.1486E+00
     -5.778  0.1728E-01  0.1728E-01  0.1504E+00  0.1504E+00
     -5.676  0.1985E-01  0.1985E-01  0.1524E+00  0.1524E+00
     -5.574  0.1257E-01  0.1257E-01  0.1537E+00  0.1537E+00
     -5.473  0.8499E-02  0.8499E-02  0.1546E+00  0.1546E+00
     -5.371  0.1407E-01  0.1407E-01  0.1560E+00  0.1560E+00
     -5.269  0.2127E-01  0.2127E-01  0.1582E+00  0.1582E+00
     -5.167  0.1625E-01  0.1625E-01  0.1598E+00  0.1598E+00
     -5.066  0.1154E-01  0.1154E-01  0.1610E+00  0.1610E+00
     -4.964  0.1540E-01  0.1540E-01  0.1625E+00  0.1625E+00
     -4.862  0.2061E-01  0.2061E-01  0.1646E+00  0.1646E+00
     -4.760  0.1195E-01  0.1195E-01  0.1659E+00  0.1659E+00
     -4.659  0.8205E-02  0.8205E-02  0.1667E+00  0.1667E+00
     -4.557  0.1657E-01  0.1657E-01  0.1684E+00  0.1684E+00
     -4.455  0.2005E-01  0.2005E-01  0.1704E+00  0.1704E+00
     -4.353  0.2205E-01  0.2205E-01  0.1727E+00  0.1727E+00
     -4.252  0.2296E-01  0.2296E-01  0.1750E+00  0.1750E+00
     -4.150  0.1845E-01  0.1845E-01  0.1769E+00  0.1769E+00
     -4.048  0.2109E-01  0.2109E-01  0.1790E+00  0.1790E+00
     -3.946  0.2490E-01  0.2490E-01  0.1816E+00  0.1816E+00
     -3.845  0.2910E-01  0.2910E-01  0.1845E+00  0.1845E+00
     -3.743  0.2578E-01  0.2578E-01  0.1871E+00  0.1871E+00
     -3.641  0.2041E-01  0.2041E-01  0.1892E+00  0.1892E+00
     -3.539  0.1969E-01  0.1969E-01  0.1912E+00  0.1912E+00
     -3.438  0.1684E-01  0.1684E-01  0.1929E+00  0.1929E+00
     -3.336  0.1226E-01  0.1226E-01  0.1942E+00  0.1942E+00
     -3.234  0.6826E-02  0.6826E-02  0.1949E+00  0.1949E+00
     -3.132  0.8558E-02  0.8558E-02  0.1957E+00  0.1957E+00
     -3.031  0.1545E-01  0.1545E-01  0.1973E+00  0.1973E+00
     -2.929  0.1582E-01  0.1582E-01  0.1989E+00  0.1989E+00
     -2.827  0.1202E-01  0.1202E-01  0.2002E+00  0.2002E+00
     -2.725  0.1192E-01  0.1192E-01  0.2014E+00  0.2014E+00
     -2.624  0.1136E-01  0.1136E-01  0.2025E+00  0.2025E+00
     -2.522  0.1109E-01  0.1109E-01  0.2037E+00  0.2037E+00
     -2.420  0.1587E-01  0.1587E-01  0.2053E+00  0.2053E+00
     -2.318  0.1299E-01  0.1299E-01  0.2066E+00  0.2066E+00
     -2.217  0.9993E-02  0.9993E-02  0.2076E+00  0.2076E+00
     -2.115  0.1030E-01  0.1030E-01  0.2087E+00  0.2087E+00
     -2.013  0.7534E-02  0.7534E-02  0.2094E+00  0.2094E+00
     -1.911  0.4732E-02  0.4732E-02  0.2099E+00  0.2099E+00
     -1.810  0.6106E-02  0.6106E-02  0.2105E+00  0.2105E+00
     -1.708  0.9684E-02  0.9684E-02  0.2115E+00  0.2115E+00
     -1.606  0.9776E-02  0.9776E-02  0.2125E+00  0.2125E+00
     -1.504  0.9130E-02  0.9130E-02  0.2134E+00  0.2134E+00
     -1.403  0.6342E-02  0.6342E-02  0.2141E+00  0.2141E+00
     -1.301  0.5200E-02  0.5200E-02  0.2146E+00  0.2146E+00
     -1.199  0.4755E-02  0.4755E-02  0.2151E+00  0.2151E+00
     -1.097  0.5909E-02  0.5909E-02  0.2157E+00  0.2157E+00
     -0.996  0.8115E-02  0.8115E-02  0.2165E+00  0.2165E+00
     -0.894  0.5791E-02  0.5791E-02  0.2171E+00  0.2171E+00
     -0.792  0.3035E-02  0.3035E-02  0.2174E+00  0.2174E+00
     -0.690  0.1336E-02  0.1336E-02  0.2175E+00  0.2175E+00
     -0.589  0.1220E-02  0.1220E-02  0.2177E+00  0.2177E+00
     -0.487  0.3471E-02  0.3471E-02  0.2180E+00  0.2180E+00
     -0.385  0.3288E-02  0.3288E-02  0.2184E+00  0.2184E+00
     -0.283  0.2071E-02  0.2071E-02  0.2186E+00  0.2186E+00
     -0.182  0.3619E-02  0.3619E-02  0.2189E+00  0.2189E+00
     -0.080  0.4661E-02  0.4661E-02  0.2194E+00  0.2194E+00
      0.022  0.3509E-02  0.3509E-02  0.2198E+00  0.2198E+00
      0.124  0.3741E-02  0.3741E-02  0.2202E+00  0.2202E+00
      0.225  0.8555E-02  0.8555E-02  0.2210E+00  0.2210E+00
      0.327  0.1210E-01  0.1210E-01  0.2223E+00  0.2223E+00
      0.429  0.1143E-01  0.1143E-01  0.2234E+00  0.2234E+00
      0.531  0.9370E-02  0.9370E-02  0.2244E+00  0.2244E+00
      0.632  0.3590E-02  0.3590E-02  0.2247E+00  0.2247E+00
      0.734  0.5836E-02  0.5836E-02  0.2253E+00  0.2253E+00
      0.836  0.1167E-01  0.1167E-01  0.2265E+00  0.2265E+00
      0.938  0.7417E-02  0.7417E-02  0.2273E+00  0.2273E+00
      1.039  0.1976E-02  0.1976E-02  0.2275E+00  0.2275E+00
      1.141  0.5037E-02  0.5037E-02  0.2280E+00  0.2280E+00
      1.243  0.1527E-01  0.1527E-01  0.2295E+00  0.2295E+00
      1.345  0.2009E-01  0.2009E-01  0.2316E+00  0.2316E+00
      1.446  0.1579E-01  0.1579E-01  0.2332E+00  0.2332E+00
      1.548  0.1139E-01  0.1139E-01  0.2343E+00  0.2343E+00
      1.650  0.7458E-02  0.7458E-02  0.2351E+00  0.2351E+00
      1.752  0.9906E-02  0.9906E-02  0.2361E+00  0.2361E+00
      1.853  0.1181E-01  0.1181E-01  0.2373E+00  0.2373E+00
      1.955  0.1029E-01  0.1029E-01  0.2384E+00  0.2384E+00
      2.057  0.1404E-01  0.1404E-01  0.2398E+00  0.2398E+00
      2.159  0.1343E-01  0.1343E-01  0.2412E+00  0.2412E+00
      2.260  0.1110E-01  0.1110E-01  0.2423E+00  0.2423E+00
      2.362  0.8020E-02  0.8020E-02  0.2431E+00  0.2431E+00
      2.464  0.4672E-02  0.4672E-02  0.2436E+00  0.2436E+00
      2.566  0.9210E-02  0.9210E-02  0.2445E+00  0.2445E+00
      2.667  0.1292E-01  0.1292E-01  0.2458E+00  0.2458E+00
      2.769  0.1559E-01  0.1559E-01  0.2474E+00  0.2474E+00
      2.871  0.1635E-01  0.1635E-01  0.2491E+00  0.2491E+00
      2.973  0.1193E-01  0.1193E-01  0.2503E+00  0.2503E+00
      3.074  0.1281E-01  0.1281E-01  0.2516E+00  0.2516E+00
      3.176  0.1602E-01  0.1602E-01  0.2532E+00  0.2532E+00
      3.278  0.1423E-01  0.1423E-01  0.2547E+00  0.2547E+00
      3.380  0.1351E-01  0.1351E-01  0.2561E+00  0.2561E+00
      3.481  0.2014E-01  0.2014E-01  0.2581E+00  0.2581E+00
      3.583  0.2379E-01  0.2379E-01  0.2605E+00  0.2605E+00
      3.685  0.2156E-01  0.2156E-01  0.2627E+00  0.2627E+00
      3.787  0.1946E-01  0.1946E-01  0.2647E+00  0.2647E+00
      3.888  0.2197E-01  0.2196E-01  0.2669E+00  0.2669E+00
      3.990  0.2419E-01  0.2419E-01  0.2694E+00  0.2694E+00
      4.092  0.1954E-01  0.1954E-01  0.2714E+00  0.2714E+00
      4.194  0.1723E-01  0.1723E-01  0.2731E+00  0.2731E+00
      4.295  0.2003E-01  0.2003E-01  0.2752E+00  0.2752E+00
      4.397  0.2286E-01  0.2286E-01  0.2775E+00  0.2775E+00
      4.499  0.2487E-01  0.2487E-01  0.2800E+00  0.2800E+00
      4.601  0.1731E-01  0.1731E-01  0.2818E+00  0.2818E+00
      4.702  0.1892E-01  0.1891E-01  0.2837E+00  0.2837E+00
      4.804  0.2849E-01  0.2848E-01  0.2866E+00  0.2866E+00
      4.906  0.3284E-01  0.3284E-01  0.2900E+00  0.2900E+00
      5.008  0.2346E-01  0.2346E-01  0.2923E+00  0.2923E+00
      5.109  0.2402E-01  0.2402E-01  0.2948E+00  0.2948E+00
      5.211  0.2155E-01  0.2156E-01  0.2970E+00  0.2970E+00
      5.313  0.1952E-01  0.1952E-01  0.2990E+00  0.2990E+00
      5.415  0.2643E-01  0.2642E-01  0.3017E+00  0.3017E+00
      5.516  0.2910E-01  0.2910E-01  0.3046E+00  0.3046E+00
      5.618  0.2674E-01  0.2674E-01  0.3073E+00  0.3073E+00
      5.720  0.2548E-01  0.2547E-01  0.3099E+00  0.3099E+00
      5.822  0.2723E-01  0.2724E-01  0.3127E+00  0.3127E+00
      5.923  0.2120E-01  0.2120E-01  0.3149E+00  0.3149E+00
      6.025  0.2311E-01  0.2311E-01  0.3172E+00  0.3172E+00
      6.127  0.2887E-01  0.2887E-01  0.3201E+00  0.3201E+00
      6.229  0.2091E-01  0.2092E-01  0.3223E+00  0.3223E+00
      6.330  0.1803E-01  0.1803E-01  0.3241E+00  0.3241E+00
      6.432  0.2786E-01  0.2785E-01  0.3269E+00  0.3269E+00
      6.534  0.2990E-01  0.2990E-01  0.3300E+00  0.3300E+00
      6.636  0.2639E-01  0.2638E-01  0.3327E+00  0.3327E+00
      6.737  0.2451E-01  0.2451E-01  0.3352E+00  0.3352E+00
      6.839  0.2424E-01  0.2425E-01  0.3376E+00  0.3376E+00
      6.941  0.2823E-01  0.2823E-01  0.3405E+00  0.3405E+00
      7.043  0.3298E-01  0.3298E-01  0.3439E+00  0.3439E+00
      7.144  0.4014E-01  0.4014E-01  0.3479E+00  0.3479E+00
      7.246  0.3760E-01  0.3760E-01  0.3518E+00  0.3518E+00
      7.348  0.3427E-01  0.3427E-01  0.3553E+00  0.3553E+00
      7.450  0.2922E-01  0.2923E-01  0.3582E+00  0.3582E+00
      7.551  0.2663E-01  0.2663E-01  0.3609E+00  0.3609E+00
      7.653  0.3505E-01  0.3505E-01  0.3645E+00  0.3645E+00
      7.755  0.3081E-01  0.3081E-01  0.3676E+00  0.3676E+00
      7.857  0.3079E-01  0.3079E-01  0.3708E+00  0.3708E+00
      7.958  0.2314E-01  0.2314E-01  0.3731E+00  0.3731E+00
      8.060  0.1131E-01  0.1131E-01  0.3743E+00  0.3743E+00
      8.162  0.5770E-02  0.5771E-02  0.3749E+00  0.3749E+00
      8.264  0.1282E-02  0.1283E-02  0.3750E+00  0.3750E+00
      8.365  0.6161E-04  0.6165E-04  0.3750E+00  0.3750E+00
      8.467  0.4804E-06  0.4809E-06  0.3750E+00  0.3750E+00
      8.569  0.5360E-09  0.5367E-09  0.3750E+00  0.3750E+00
      8.671  0.8091E-13  0.8106E-13  0.3750E+00  0.3750E+00
      8.772  0.1421E-17  0.1421E-17  0.3750E+00  0.3750E+00
      8.874  0.0000E+00  0.0000E+00  0.3750E+00  0.3750E+00
      8.976  0.0000E+00  0.0000E+00  0.3750E+00  0.3750E+00
      9.078  0.0000E+00  0.0000E+00  0.3750E+00  0.3750E+00
      9.179  0.0000E+00  0.0000E+00  0.3750E+00  0.3750E+00
      9.281  0.0000E+00  0.0000E+00  0.3750E+00  0.3750E+00
      9.383  0.0000E+00  0.0000E+00  0.3750E+00  0.3750E+00
      9.485  0.0000E+00  0.0000E+00  0.3750E+00  0.3750E+00
