   8   8   0   4
  0.4142730E+02  0.5051000E-09  0.5051000E-09  0.1500000E-08  0.5000000E-15
  1.000000000000000E-004
  CAR 
 SC                                      
     13.31086524    -19.37460968  301     -2.22164145      1.00000000
    -19.375  0.0000E+00  0.0000E+00
    -19.266  0.0000E+00  0.0000E+00
    -19.157  0.0000E+00  0.0000E+00
    -19.048  0.0000E+00  0.0000E+00
    -18.939  0.0000E+00  0.0000E+00
    -18.830  0.0000E+00  0.0000E+00
    -18.721  0.0000E+00  0.0000E+00
    -18.612  0.0000E+00  0.0000E+00
    -18.503  0.0000E+00  0.0000E+00
    -18.394  0.6343E-13  0.6911E-14
    -18.285  0.1836E-08  0.2001E-09
    -18.176  0.5599E-05  0.6102E-06
    -18.067  0.1936E-02  0.2115E-03
    -17.958  0.8768E-01  0.9765E-02
    -17.849  0.6802E+00  0.8387E-01
    -17.740  0.1436E+01  0.2403E+00
    -17.631  0.1640E+01  0.4190E+00
    -17.522  0.1688E+01  0.6029E+00
    -17.413  0.1749E+01  0.7934E+00
    -17.305  0.1843E+01  0.9943E+00
    -17.196  0.2013E+01  0.1214E+01
    -17.087  0.2406E+01  0.1476E+01
    -16.978  0.2356E+01  0.1732E+01
    -16.869  0.1419E+01  0.1887E+01
    -16.760  0.7204E+00  0.1965E+01
    -16.651  0.3039E+00  0.1999E+01
    -16.542  0.2756E+00  0.2029E+01
    -16.433  0.6735E+00  0.2102E+01
    -16.324  0.1448E+01  0.2260E+01
    -16.215  0.2218E+01  0.2501E+01
    -16.106  0.1810E+01  0.2699E+01
    -15.997  0.1514E+01  0.2864E+01
    -15.888  0.1160E+01  0.2990E+01
    -15.779  0.1174E+01  0.3118E+01
    -15.670  0.9032E+00  0.3216E+01
    -15.561  0.9246E+00  0.3317E+01
    -15.452  0.8064E+00  0.3405E+01
    -15.343  0.6605E+00  0.3477E+01
    -15.234  0.7620E+00  0.3560E+01
    -15.125  0.5058E+00  0.3615E+01
    -15.017  0.5621E+00  0.3676E+01
    -14.908  0.5539E+00  0.3736E+01
    -14.799  0.3330E+00  0.3773E+01
    -14.690  0.5754E+00  0.3835E+01
    -14.581  0.1112E+01  0.3957E+01
    -14.472  0.1540E+01  0.4124E+01
    -14.363  0.1933E+01  0.4335E+01
    -14.254  0.2000E+01  0.4553E+01
    -14.145  0.2229E+01  0.4796E+01
    -14.036  0.2970E+01  0.5120E+01
    -13.927  0.3087E+01  0.5456E+01
    -13.818  0.2273E+01  0.5704E+01
    -13.709  0.1707E+01  0.5890E+01
    -13.600  0.9118E+00  0.5989E+01
    -13.491  0.1633E+00  0.6007E+01
    -13.382  0.7829E-01  0.6015E+01
    -13.273  0.2134E+00  0.6038E+01
    -13.164  0.1256E+00  0.6052E+01
    -13.055  0.2637E+00  0.6081E+01
    -12.946  0.3682E+00  0.6121E+01
    -12.838  0.3942E+00  0.6164E+01
    -12.729  0.1224E+01  0.6297E+01
    -12.620  0.2477E+01  0.6567E+01
    -12.511  0.2776E+01  0.6870E+01
    -12.402  0.1519E+01  0.7035E+01
    -12.293  0.2061E+01  0.7260E+01
    -12.184  0.1111E+01  0.7381E+01
    -12.075  0.6776E+00  0.7454E+01
    -11.966  0.1507E+01  0.7619E+01
    -11.857  0.8066E+00  0.7707E+01
    -11.748  0.3616E+00  0.7746E+01
    -11.639  0.1449E+01  0.7904E+01
    -11.530  0.3050E+01  0.8236E+01
    -11.421  0.2477E+01  0.8506E+01
    -11.312  0.2623E+01  0.8792E+01
    -11.203  0.1923E+01  0.9001E+01
    -11.094  0.1795E+01  0.9197E+01
    -10.985  0.2853E+01  0.9508E+01
    -10.876  0.1920E+01  0.9717E+01
    -10.767  0.1795E+01  0.9912E+01
    -10.658  0.2593E+01  0.1019E+02
    -10.550  0.1483E+01  0.1036E+02
    -10.441  0.1924E+01  0.1057E+02
    -10.332  0.1977E+01  0.1078E+02
    -10.223  0.1355E+01  0.1093E+02
    -10.114  0.1734E+01  0.1112E+02
    -10.005  0.1414E+01  0.1127E+02
     -9.896  0.1981E+01  0.1149E+02
     -9.787  0.1665E+01  0.1167E+02
     -9.678  0.1724E+01  0.1186E+02
     -9.569  0.1402E+01  0.1201E+02
     -9.460  0.9026E+00  0.1211E+02
     -9.351  0.6908E+00  0.1218E+02
     -9.242  0.6706E+00  0.1226E+02
     -9.133  0.1221E+01  0.1239E+02
     -9.024  0.1113E+01  0.1251E+02
     -8.915  0.1150E+01  0.1264E+02
     -8.806  0.1571E+01  0.1281E+02
     -8.697  0.2460E+01  0.1308E+02
     -8.588  0.3290E+01  0.1343E+02
     -8.479  0.4336E+01  0.1391E+02
     -8.370  0.3671E+01  0.1431E+02
     -8.262  0.1721E+01  0.1449E+02
     -8.153  0.1096E+01  0.1461E+02
     -8.044  0.1144E+01  0.1474E+02
     -7.935  0.1064E+01  0.1485E+02
     -7.826  0.1212E+01  0.1499E+02
     -7.717  0.1141E+01  0.1511E+02
     -7.608  0.1254E+01  0.1525E+02
     -7.499  0.1450E+01  0.1540E+02
     -7.390  0.1496E+01  0.1557E+02
     -7.281  0.1712E+01  0.1575E+02
     -7.172  0.1031E+01  0.1587E+02
     -7.063  0.1289E+01  0.1601E+02
     -6.954  0.1158E+01  0.1613E+02
     -6.845  0.1041E+01  0.1625E+02
     -6.736  0.1054E+01  0.1636E+02
     -6.627  0.1363E+01  0.1651E+02
     -6.518  0.1610E+01  0.1669E+02
     -6.409  0.2833E+01  0.1699E+02
     -6.300  0.3691E+01  0.1740E+02
     -6.191  0.3531E+01  0.1778E+02
     -6.083  0.3532E+01  0.1817E+02
     -5.974  0.3464E+01  0.1854E+02
     -5.865  0.4847E+01  0.1907E+02
     -5.756  0.4988E+01  0.1961E+02
     -5.647  0.2748E+01  0.1991E+02
     -5.538  0.1806E+01  0.2011E+02
     -5.429  0.1673E+01  0.2029E+02
     -5.320  0.1923E+01  0.2050E+02
     -5.211  0.1078E+01  0.2062E+02
     -5.102  0.1188E+01  0.2075E+02
     -4.993  0.1360E+01  0.2090E+02
     -4.884  0.9700E+00  0.2100E+02
     -4.775  0.1392E+01  0.2115E+02
     -4.666  0.1442E+01  0.2131E+02
     -4.557  0.1661E+01  0.2149E+02
     -4.448  0.1277E+01  0.2163E+02
     -4.339  0.1359E+01  0.2178E+02
     -4.230  0.1908E+01  0.2199E+02
     -4.121  0.1244E+01  0.2212E+02
     -4.012  0.1092E+01  0.2224E+02
     -3.903  0.1663E+01  0.2242E+02
     -3.795  0.1246E+01  0.2256E+02
     -3.686  0.1162E+01  0.2269E+02
     -3.577  0.1165E+01  0.2281E+02
     -3.468  0.1258E+01  0.2295E+02
     -3.359  0.1305E+01  0.2309E+02
     -3.250  0.1584E+01  0.2326E+02
     -3.141  0.1205E+01  0.2340E+02
     -3.032  0.1015E+01  0.2351E+02
     -2.923  0.7778E+00  0.2359E+02
     -2.814  0.6604E+00  0.2366E+02
     -2.705  0.4938E+00  0.2372E+02
     -2.596  0.6887E+00  0.2379E+02
     -2.487  0.5442E+00  0.2385E+02
     -2.378  0.1897E+00  0.2387E+02
     -2.269  0.7120E+00  0.2395E+02
     -2.160  0.9494E+00  0.2405E+02
     -2.051  0.7716E+00  0.2414E+02
     -1.942  0.1543E+01  0.2431E+02
     -1.833  0.1571E+01  0.2448E+02
     -1.724  0.1280E+01  0.2462E+02
     -1.616  0.1330E+01  0.2476E+02
     -1.507  0.1405E+01  0.2491E+02
     -1.398  0.1681E+01  0.2510E+02
     -1.289  0.2042E+01  0.2532E+02
     -1.180  0.1337E+01  0.2546E+02
     -1.071  0.4393E+00  0.2551E+02
     -0.962  0.9347E+00  0.2561E+02
     -0.853  0.1917E+01  0.2582E+02
     -0.744  0.2105E+01  0.2605E+02
     -0.635  0.8348E+00  0.2614E+02
     -0.526  0.8194E+00  0.2623E+02
     -0.417  0.1324E+01  0.2638E+02
     -0.308  0.1808E+01  0.2657E+02
     -0.199  0.1700E+01  0.2676E+02
     -0.090  0.1457E+01  0.2692E+02
      0.019  0.1396E+01  0.2707E+02
      0.128  0.1351E+01  0.2722E+02
      0.237  0.1444E+01  0.2737E+02
      0.346  0.1909E+01  0.2758E+02
      0.455  0.2164E+01  0.2782E+02
      0.564  0.2374E+01  0.2808E+02
      0.672  0.1603E+01  0.2825E+02
      0.781  0.1118E+01  0.2837E+02
      0.890  0.2682E+01  0.2867E+02
      0.999  0.5300E+01  0.2924E+02
      1.108  0.4625E+01  0.2975E+02
      1.217  0.3846E+01  0.3017E+02
      1.326  0.3383E+01  0.3053E+02
      1.435  0.2659E+01  0.3082E+02
      1.544  0.3304E+01  0.3118E+02
      1.653  0.5265E+01  0.3176E+02
      1.762  0.5923E+01  0.3240E+02
      1.871  0.4505E+01  0.3289E+02
      1.980  0.3379E+01  0.3326E+02
      2.089  0.3519E+01  0.3365E+02
      2.198  0.4056E+01  0.3409E+02
      2.307  0.5142E+01  0.3465E+02
      2.416  0.5629E+01  0.3526E+02
      2.525  0.5549E+01  0.3587E+02
      2.634  0.5164E+01  0.3643E+02
      2.743  0.5763E+01  0.3706E+02
      2.852  0.5423E+01  0.3765E+02
      2.960  0.4968E+01  0.3819E+02
      3.069  0.5511E+01  0.3879E+02
      3.178  0.6941E+01  0.3954E+02
      3.287  0.6706E+01  0.4028E+02
      3.396  0.4950E+01  0.4081E+02
      3.505  0.5394E+01  0.4140E+02
      3.614  0.5725E+01  0.4203E+02
      3.723  0.5433E+01  0.4262E+02
      3.832  0.4958E+01  0.4316E+02
      3.941  0.6275E+01  0.4384E+02
      4.050  0.6975E+01  0.4460E+02
      4.159  0.5951E+01  0.4525E+02
      4.268  0.5567E+01  0.4586E+02
      4.377  0.6586E+01  0.4657E+02
      4.486  0.5464E+01  0.4717E+02
      4.595  0.5388E+01  0.4776E+02
      4.704  0.6103E+01  0.4842E+02
      4.813  0.6564E+01  0.4914E+02
      4.922  0.6865E+01  0.4988E+02
      5.031  0.6847E+01  0.5063E+02
      5.139  0.7382E+01  0.5143E+02
      5.248  0.7428E+01  0.5224E+02
      5.357  0.7795E+01  0.5309E+02
      5.466  0.6863E+01  0.5384E+02
      5.575  0.4845E+01  0.5437E+02
      5.684  0.5057E+01  0.5492E+02
      5.793  0.7073E+01  0.5569E+02
      5.902  0.6807E+01  0.5643E+02
      6.011  0.7013E+01  0.5720E+02
      6.120  0.5679E+01  0.5782E+02
      6.229  0.5315E+01  0.5839E+02
      6.338  0.6424E+01  0.5909E+02
      6.447  0.7098E+01  0.5987E+02
      6.556  0.6944E+01  0.6062E+02
      6.665  0.6220E+01  0.6130E+02
      6.774  0.5995E+01  0.6195E+02
      6.883  0.5445E+01  0.6255E+02
      6.992  0.6593E+01  0.6327E+02
      7.101  0.7138E+01  0.6404E+02
      7.210  0.6542E+01  0.6476E+02
      7.319  0.5982E+01  0.6541E+02
      7.427  0.6078E+01  0.6607E+02
      7.536  0.5697E+01  0.6669E+02
      7.645  0.6520E+01  0.6740E+02
      7.754  0.6456E+01  0.6811E+02
      7.863  0.5655E+01  0.6872E+02
      7.972  0.3939E+01  0.6915E+02
      8.081  0.2811E+01  0.6946E+02
      8.190  0.4307E+01  0.6993E+02
      8.299  0.6742E+01  0.7066E+02
      8.408  0.6329E+01  0.7135E+02
      8.517  0.4794E+01  0.7187E+02
      8.626  0.4390E+01  0.7235E+02
      8.735  0.5506E+01  0.7295E+02
      8.844  0.6768E+01  0.7369E+02
      8.953  0.8044E+01  0.7456E+02
      9.062  0.8242E+01  0.7546E+02
      9.171  0.8653E+01  0.7641E+02
      9.280  0.9393E+01  0.7743E+02
      9.389  0.8661E+01  0.7837E+02
      9.498  0.7757E+01  0.7922E+02
      9.607  0.9105E+01  0.8021E+02
      9.715  0.9027E+01  0.8119E+02
      9.824  0.1038E+02  0.8232E+02
      9.933  0.1052E+02  0.8347E+02
     10.042  0.8264E+01  0.8437E+02
     10.151  0.8871E+01  0.8534E+02
     10.260  0.9646E+01  0.8639E+02
     10.369  0.1012E+02  0.8749E+02
     10.478  0.1018E+02  0.8860E+02
     10.587  0.8865E+01  0.8956E+02
     10.696  0.7056E+01  0.9033E+02
     10.805  0.6038E+01  0.9099E+02
     10.914  0.5978E+01  0.9164E+02
     11.023  0.6034E+01  0.9230E+02
     11.132  0.6227E+01  0.9298E+02
     11.241  0.7033E+01  0.9374E+02
     11.350  0.6835E+01  0.9449E+02
     11.459  0.5682E+01  0.9511E+02
     11.568  0.3768E+01  0.9552E+02
     11.677  0.2433E+01  0.9578E+02
     11.786  0.1458E+01  0.9594E+02
     11.894  0.4503E+00  0.9599E+02
     12.003  0.6911E-01  0.9600E+02
     12.112  0.2261E-02  0.9600E+02
     12.221  0.9200E-05  0.9600E+02
     12.330  0.3956E-08  0.9600E+02
     12.439  0.1696E-12  0.9600E+02
     12.548  0.0000E+00  0.9600E+02
     12.657  0.0000E+00  0.9600E+02
     12.766  0.0000E+00  0.9600E+02
     12.875  0.0000E+00  0.9600E+02
     12.984  0.0000E+00  0.9600E+02
     13.093  0.0000E+00  0.9600E+02
     13.202  0.0000E+00  0.9600E+02
     13.311  0.0000E+00  0.9600E+02
