 vasp.6.3.2 27Jun22 (build Dec 22 2022 13:13:19) complex                        
  
 executed on             LinuxIFC date 2023.11.03  13:48:32
 running   48 mpi-ranks, with    1 threads/rank
 distrk:  each k-point on   48 cores,    1 groups
 distr:  one band on NCORE=   1 cores,   48 groups


--------------------------------------------------------------------------------------------------------


 INCAR:
   SYSTEM = SC
   ISTART = 0
   ICHARG = 2
   PREC = Accurate
   ENCUT = 450
   LCHARG = .TRUE.
   LWAVE = .TRUE.
   ALGO = Normal
   NELM = 64
   EDIFF = 1E-6
   EDIFFG = -1E-3
   SIGMA = 0.1
   ISMEAR = 0
   SYMPREC = 1E-6
   IBRION = -1
   GGA = PE
   IVDW = 12

 POTCAR:    PAW_PBE B 06Sep2000                   
 POTCAR:    PAW_PBE B 06Sep2000                   
   SHA256 =  a32ced30f5ae56fd4d10b4325ff17eb3e4e38ee0f4288bc219fb012fddfa6e97 B/POTCAR              
   COPYR  = (c) Copyright 06Sep2000 Georg Kresse                                                    
   COPYR  = This file is part of the software VASP. Any use, copying, and all other rights are regul
   COPYR  = If you do not have a valid VASP license, you may not use, copy or distribute this file. 
   VRHFIN =B: s2p1                                                                                  
   LEXCH  = PE                                                                                      
   EATOM  =    71.1703 eV,    5.2309 Ry                                                             
                                                                                                    
   TITEL  = PAW_PBE B 06Sep2000                                                                     
   LULTRA =        F    use ultrasoft PP ?                                                          
   IUNSCR =        1    unscreen: 0-lin 1-nonlin 2-no                                               
   RPACOR =    1.200    partial core radius                                                         
   POMASS =   10.811; ZVAL   =    3.000    mass and valenz                                          
   RCORE  =    1.700    outmost cutoff radius                                                       
   RWIGS  =    1.710; RWIGS  =    0.905    wigner-seitz radius (au A)                               
   ENMAX  =  318.614; ENMIN  =  238.960 eV                                                          
   ICORE  =        2    local potential                                                             
   LCOR   =        T    correct aug charges                                                         
   LPAW   =        T    paw PP                                                                      
   EAUG   =  535.514                                                                                
   DEXC   =    0.000                                                                                
   RMAX   =    1.732    core radius for proj-oper                                                   
   RAUG   =    1.300    factor for augmentation sphere                                              
   RDEP   =    1.757    radius for radial grids                                                     
   RDEPT  =    1.436    core radius for aug-charge                                                  
                                                                                                    
   Atomic configuration                                                                             
    4 entries                                                                                       
     n  l   j            E        occ.                                                              
     1  0  0.50      -180.5896   2.0000                                                             
     2  0  0.50        -9.4431   2.0000                                                             
     2  1  0.50        -3.6068   1.0000                                                             
     3  2  1.50        -4.0817   0.0000                                                             
   Description                                                                                      
     l       E           TYP  RCUT    TYP  RCUT                                                     
     0     -9.4430752     23  1.500                                                                 
     0      0.8675899     23  1.500                                                                 
     1     -3.6067955     23  1.700                                                                 
     1      6.1086146     23  1.700                                                                 
     2     -4.0817478      7  1.700                                                                 
  local pseudopotential read in
  partial core-charges read in
  partial kinetic energy density read in
  atomic valenz-charges read in
  non local Contribution for L=           0  read in
    real space projection operators read in
  non local Contribution for L=           0  read in
    real space projection operators read in
  non local Contribution for L=           1  read in
    real space projection operators read in
  non local Contribution for L=           1  read in
    real space projection operators read in
    PAW grid and wavefunctions read in
 
   number of l-projection  operators is LMAX  =           4
   number of lm-projection operators is LMMAX =           8
 
  PAW_PBE B 06Sep2000                   :
 energy of atom  1       EATOM=  -71.1703
 kinetic energy error for atom=    0.0015 (will be added to EATOM!!)
 
 
 POSCAR: Borophene with lattice parameter 5.051
  positions in direct lattice
  velocities in cartesian coordinates
 exchange correlation table for  LEXCH =        8
   RHO(1)=    0.500       N(1)  =     2000
   RHO(2)=  100.500       N(2)  =     4000

 VTST: version 4.2, (08/11/21)

 CHAIN: initializing optimizer
 
 OPT: Using VASP Dynamics algorithm
 CHAIN: Read ICHAIN            0
 
 POSCAR: Borophene with lattice parameter 5.051
  positions in direct lattice
  velocities in cartesian coordinates
 


--------------------------------------------------------------------------------------------------------


 ion  position               nearest neighbor table
   1  0.669  0.000  0.100-   3 1.67   6 1.67   7 1.69   8 1.69   2 1.71
   2  0.331  0.000  0.100-   5 1.67   4 1.67   7 1.69   8 1.69   1 1.71
   3  0.000  0.331  0.100-   5 1.67   1 1.67   8 1.69   7 1.69   4 1.71
   4  0.000  0.669  0.100-   2 1.67   6 1.67   8 1.69   7 1.69   3 1.71
   5  0.331  0.331  0.100-   2 1.67   3 1.67   7 1.69   8 1.69   6 1.71
   6  0.669  0.669  0.100-   1 1.67   4 1.67   7 1.69   8 1.69   5 1.71
   7  0.667  0.333  0.100-   1 1.69   5 1.69   6 1.69   2 1.69   4 1.69   3 1.69
   8  0.333  0.667  0.100-   4 1.69   5 1.69   6 1.69   3 1.69   1 1.69   2 1.69
 
  LATTYP: Found a hexagonal cell.
 ALAT       =     5.0509997276
 C/A-ratio  =     2.9697091287
  
  Lattice vectors:
  
 A1 = (   4.3742940000,   2.5255000000,   0.0000000000)
 A2 = (  -4.3742940000,   2.5255000000,   0.0000000000)
 A3 = (   0.0000000000,   0.0000000000,  15.0000000000)


Analysis of symmetry for initial positions (statically):
=====================================================================
 Subroutine PRICEL returns:
 Original cell was already a primitive cell.
 

 Routine SETGRP: Setting up the symmetry group for a 
 hexagonal supercell.


 Subroutine GETGRP returns: Found  4 space group operations
 (whereof  1 operations were pure point group operations)
 out of a pool of 24 trial point group operations.


The static configuration has the point symmetry C_1 .
 The point group associated with its full space group is C_2h.


Analysis of symmetry for dynamics (positions and initial velocities):
=====================================================================
 Subroutine PRICEL returns:
 Original cell was already a primitive cell.
 

 Routine SETGRP: Setting up the symmetry group for a 
 hexagonal supercell.


 Subroutine GETGRP returns: Found  4 space group operations
 (whereof  1 operations were pure point group operations)
 out of a pool of 24 trial point group operations.


The dynamic configuration has the point symmetry C_1 .
 The point group associated with its full space group is C_2h.


 Subroutine INISYM returns: Found  4 space group operations
 (whereof  1 operations are pure point group operations),
 and found     1 'primitive' translations


----------------------------------------------------------------------------------------

                                     Primitive cell                                     

  volume of cell :     331.4184

  direct lattice vectors                    reciprocal lattice vectors
     4.374294000  2.525500000  0.000000000     0.114304160  0.197980598  0.000000000
    -4.374294000  2.525500000  0.000000000    -0.114304160  0.197980598  0.000000000
     0.000000000  0.000000000 15.000000000     0.000000000  0.000000000  0.066666667

  length of vectors
     5.050999728  5.050999728 15.000000000     0.228608307  0.228608307  0.066666667

  position of ions in fractional coordinates (direct lattice)
     0.668931733  1.000000000  0.100000000
     0.331067267  1.000000000  0.100000000
     1.000000000  0.331067267  0.100000000
     1.000000000  0.668931733  0.100000000
     0.331067267  0.331067267  0.100000000
     0.668931733  0.668931733  0.100000000
     0.666666000  0.333333000  0.099956110
     0.333333000  0.666666000  0.100043890

  ion indices of the primitive-cell ions
   primitive index   ion index
                 1           1
                 2           2
                 3           3
                 4           4
                 5           5
                 6           6
                 7           7
                 8           8

----------------------------------------------------------------------------------------

 
 
 KPOINTS: k-points                                

Automatic generation of k-mesh.
 Grid dimensions read from file:
 generate k-points for:   17   17    1

 Generating k-lattice:

  Cartesian coordinates                     Fractional coordinates (reciprocal lattice)
     0.006723774  0.011645918  0.000000000     0.058823529 -0.000000000  0.000000000
    -0.006723774  0.011645918  0.000000000    -0.000000000  0.058823529  0.000000000
     0.000000000  0.000000000  0.066666667     0.000000000  0.000000000  1.000000000

  Length of vectors
     0.013447547  0.013447547  0.066666667

  Shift w.r.t. Gamma in fractional coordinates (k-lattice)
     0.000000000  0.000000000  0.000000000

 
 Subroutine IBZKPT returns following result:
 ===========================================
 
 Found     81 irreducible k-points:
 
 Following reciprocal coordinates:
            Coordinates               Weight
  0.000000  0.000000  0.000000      1.000000
  0.058824  0.000000  0.000000      4.000000
 -0.058824  0.058824  0.000000      2.000000
  0.117647  0.000000  0.000000      4.000000
 -0.117647  0.117647  0.000000      2.000000
  0.176471  0.000000  0.000000      4.000000
 -0.176471  0.176471  0.000000      2.000000
  0.235294  0.000000  0.000000      4.000000
 -0.235294  0.235294  0.000000      2.000000
  0.294118  0.000000  0.000000      4.000000
 -0.294118  0.294118  0.000000      2.000000
  0.352941  0.000000  0.000000      4.000000
 -0.352941  0.352941  0.000000      2.000000
  0.411765  0.000000  0.000000      4.000000
 -0.411765  0.411765  0.000000      2.000000
  0.470588  0.000000  0.000000      4.000000
 -0.470588  0.470588  0.000000      2.000000
  0.058824  0.058824  0.000000      2.000000
 -0.058824  0.117647  0.000000      4.000000
  0.117647  0.058824  0.000000      4.000000
 -0.058824  0.176471  0.000000      4.000000
 -0.176471  0.117647  0.000000      4.000000
  0.176471  0.058824  0.000000      4.000000
 -0.058824  0.235294  0.000000      4.000000
 -0.235294  0.176471  0.000000      4.000000
  0.235294  0.058824  0.000000      4.000000
 -0.058824  0.294118  0.000000      4.000000
 -0.294118  0.235294  0.000000      4.000000
  0.294118  0.058824  0.000000      4.000000
 -0.058824  0.352941  0.000000      4.000000
 -0.352941  0.294118  0.000000      4.000000
  0.352941  0.058824  0.000000      4.000000
 -0.058824  0.411765  0.000000      4.000000
 -0.411765  0.352941  0.000000      4.000000
  0.411765  0.058824  0.000000      4.000000
 -0.058824  0.470588  0.000000      4.000000
 -0.470588  0.411765  0.000000      4.000000
  0.470588  0.058824  0.000000      4.000000
  0.470588  0.470588  0.000000      2.000000
  0.117647  0.117647  0.000000      2.000000
 -0.117647  0.235294  0.000000      4.000000
  0.176471  0.117647  0.000000      4.000000
 -0.117647  0.294118  0.000000      4.000000
 -0.294118  0.176471  0.000000      4.000000
  0.235294  0.117647  0.000000      4.000000
 -0.117647  0.352941  0.000000      4.000000
 -0.352941  0.235294  0.000000      4.000000
  0.294118  0.117647  0.000000      4.000000
 -0.117647  0.411765  0.000000      4.000000
 -0.411765  0.294118  0.000000      4.000000
  0.352941  0.117647  0.000000      4.000000
 -0.117647  0.470588  0.000000      4.000000
 -0.470588  0.352941  0.000000      4.000000
  0.411765  0.117647  0.000000      4.000000
 -0.117647 -0.470588  0.000000      4.000000
  0.470588  0.411765  0.000000      4.000000
  0.176471  0.176471  0.000000      2.000000
 -0.176471  0.352941  0.000000      4.000000
  0.235294  0.176471  0.000000      4.000000
 -0.176471  0.411765  0.000000      4.000000
 -0.411765  0.235294  0.000000      4.000000
  0.294118  0.176471  0.000000      4.000000
 -0.176471  0.470588  0.000000      4.000000
 -0.470588  0.294118  0.000000      4.000000
  0.352941  0.176471  0.000000      4.000000
 -0.176471 -0.470588  0.000000      4.000000
  0.470588  0.352941  0.000000      4.000000
  0.411765  0.176471  0.000000      4.000000
  0.411765  0.411765  0.000000      2.000000
  0.235294  0.235294  0.000000      2.000000
 -0.235294  0.470588  0.000000      4.000000
  0.294118  0.235294  0.000000      4.000000
 -0.235294 -0.470588  0.000000      4.000000
  0.470588  0.294118  0.000000      4.000000
  0.352941  0.235294  0.000000      4.000000
 -0.235294 -0.411765  0.000000      4.000000
  0.411765  0.352941  0.000000      4.000000
  0.294118  0.294118  0.000000      2.000000
 -0.294118 -0.411765  0.000000      4.000000
  0.352941  0.294118  0.000000      4.000000
  0.352941  0.352941  0.000000      2.000000
 
 Following cartesian coordinates:
            Coordinates               Weight
  0.000000  0.000000  0.000000      1.000000
  0.006724  0.011646  0.000000      4.000000
 -0.013448  0.000000  0.000000      2.000000
  0.013448  0.023292  0.000000      4.000000
 -0.026895  0.000000  0.000000      2.000000
  0.020171  0.034938  0.000000      4.000000
 -0.040343  0.000000  0.000000      2.000000
  0.026895  0.046584  0.000000      4.000000
 -0.053790  0.000000  0.000000      2.000000
  0.033619  0.058230  0.000000      4.000000
 -0.067238  0.000000  0.000000      2.000000
  0.040343  0.069876  0.000000      4.000000
 -0.080685 -0.000000  0.000000      2.000000
  0.047066  0.081521  0.000000      4.000000
 -0.094133  0.000000  0.000000      2.000000
  0.053790  0.093167  0.000000      4.000000
 -0.107580  0.000000  0.000000      2.000000
 -0.000000  0.023292  0.000000      2.000000
 -0.020171  0.011646  0.000000      4.000000
  0.006724  0.034938  0.000000      4.000000
 -0.026895  0.023292  0.000000      4.000000
 -0.033619 -0.011646  0.000000      4.000000
  0.013448  0.046584  0.000000      4.000000
 -0.033619  0.034938  0.000000      4.000000
 -0.047066 -0.011646  0.000000      4.000000
  0.020171  0.058230  0.000000      4.000000
 -0.040343  0.046584  0.000000      4.000000
 -0.060514 -0.011646  0.000000      4.000000
  0.026895  0.069876  0.000000      4.000000
 -0.047066  0.058230  0.000000      4.000000
 -0.073962 -0.011646  0.000000      4.000000
  0.033619  0.081521  0.000000      4.000000
 -0.053790  0.069876  0.000000      4.000000
 -0.087409 -0.011646  0.000000      4.000000
  0.040343  0.093167  0.000000      4.000000
 -0.060514  0.081521  0.000000      4.000000
 -0.100857 -0.011646  0.000000      4.000000
  0.047066  0.104813  0.000000      4.000000
 -0.000000  0.186335  0.000000      2.000000
 -0.000000  0.046584  0.000000      2.000000
 -0.040343  0.023292  0.000000      4.000000
  0.006724  0.058230  0.000000      4.000000
 -0.047066  0.034938  0.000000      4.000000
 -0.053790 -0.023292  0.000000      4.000000
  0.013448  0.069876  0.000000      4.000000
 -0.053790  0.046584  0.000000      4.000000
 -0.067238 -0.023292  0.000000      4.000000
  0.020171  0.081521  0.000000      4.000000
 -0.060514  0.058230  0.000000      4.000000
 -0.080685 -0.023292  0.000000      4.000000
  0.026895  0.093167  0.000000      4.000000
 -0.067238  0.069876  0.000000      4.000000
 -0.094133 -0.023292  0.000000      4.000000
  0.033619  0.104813  0.000000      4.000000
  0.040343 -0.116459  0.000000      4.000000
  0.006724  0.174689  0.000000      4.000000
 -0.000000  0.069876  0.000000      2.000000
 -0.060514  0.034938  0.000000      4.000000
  0.006724  0.081521  0.000000      4.000000
 -0.067238  0.046584  0.000000      4.000000
 -0.073962 -0.034938  0.000000      4.000000
  0.013448  0.093167  0.000000      4.000000
 -0.073962  0.058230  0.000000      4.000000
 -0.087409 -0.034938  0.000000      4.000000
  0.020171  0.104813  0.000000      4.000000
  0.033619 -0.128105  0.000000      4.000000
  0.013448  0.163043  0.000000      4.000000
  0.026895  0.116459  0.000000      4.000000
 -0.000000  0.163043  0.000000      2.000000
 -0.000000  0.093167  0.000000      2.000000
 -0.080685  0.046584  0.000000      4.000000
  0.006724  0.104813  0.000000      4.000000
  0.026895 -0.139751  0.000000      4.000000
  0.020171  0.151397  0.000000      4.000000
  0.013448  0.116459  0.000000      4.000000
  0.020171 -0.128105  0.000000      4.000000
  0.006724  0.151397  0.000000      4.000000
  0.000000  0.116459  0.000000      2.000000
  0.013448 -0.139751  0.000000      4.000000
  0.006724  0.128105  0.000000      4.000000
 -0.000000  0.139751  0.000000      2.000000
 


--------------------------------------------------------------------------------------------------------




 Dimension of arrays:
   k-points           NKPTS =     81   k-points in BZ     NKDIM =     81   number of bands    NBANDS=     48
   number of dos      NEDOS =    301   number of ions     NIONS =      8
   non local maximal  LDIM  =      4   non local SUM 2l+1 LMDIM =      8
   total plane-waves  NPLWV = 139968
   max r-space proj   IRMAX =      1   max aug-charges    IRDMAX=   6785
   dimension x,y,z NGX =    36 NGY =   36 NGZ =  108
   dimension x,y,z NGXF=    72 NGYF=   72 NGZF=  216
   support grid    NGXF=    72 NGYF=   72 NGZF=  216
   ions per type =               8
   NGX,Y,Z   is equivalent  to a cutoff of  11.85, 11.85, 11.97 a.u.
   NGXF,Y,Z  is equivalent  to a cutoff of  23.70, 23.70, 23.94 a.u.

 SYSTEM =  SC                                      
 POSCAR =  Borophene with lattice parameter 5.051  

 Startparameter for this run:
   NWRITE =      2    write-flag & timer
   PREC   = accura    normal or accurate (medium, high low for compatibility)
   ISTART =      0    job   : 0-new  1-cont  2-samecut
   ICHARG =      2    charge: 1-file 2-atom 10-const
   ISPIN  =      1    spin polarized calculation?
   LNONCOLLINEAR =      F non collinear calculations
   LSORBIT =      F    spin-orbit coupling
   INIWAV =      1    electr: 0-lowe 1-rand  2-diag
   LASPH  =      F    aspherical Exc in radial PAW
 Electronic Relaxation 1
   ENCUT  =  450.0 eV  33.07 Ry    5.75 a.u.   8.74  8.74 25.95*2*pi/ulx,y,z
   ENINI  =  450.0     initial cutoff
   ENAUG  =  535.5 eV  augmentation charge cutoff
   NELM   =     64;   NELMIN=  2; NELMDL= -5     # of ELM steps 
   EDIFF  = 0.1E-05   stopping-criterion for ELM
   LREAL  =      F    real-space projection
   NLSPLINE    = F    spline interpolate recip. space projectors
   LCOMPAT=      F    compatible to vasp.4.4
   GGA_COMPAT  = T    GGA compatible to vasp.4.4-vasp.4.6
   LMAXPAW     = -100 max onsite density
   LMAXMIX     =    2 max onsite mixed and CHGCAR
   VOSKOWN=      0    Vosko Wilk Nusair interpolation
   ROPT   =    0.00000
 Ionic relaxation
   EDIFFG = -.1E-02   stopping-criterion for IOM
   NSW    =      0    number of steps for IOM
   NBLOCK =      1;   KBLOCK =      1    inner block; outer block 
   IBRION =     -1    ionic relax: 0-MD 1-quasi-New 2-CG
   NFREE  =      0    steps in history (QN), initial steepest desc. (CG)
   ISIF   =      2    stress and relaxation
   IWAVPR =     10    prediction:  0-non 1-charg 2-wave 3-comb
   ISYM   =      2    0-nonsym 1-usesym 2-fastsym
   LCORR  =      T    Harris-Foulkes like correction to forces

   POTIM  = 0.5000    time-step for ionic-motion
   TEIN   =    0.0    initial temperature
   TEBEG  =    0.0;   TEEND  =   0.0 temperature during run
   SMASS  =  -3.00    Nose mass-parameter (am)
   estimated Nose-frequenzy (Omega)   =  0.10E-29 period in steps = 0.13E+47 mass=  -0.583E-27a.u.
   SCALEE = 1.0000    scale energy and forces
   NPACO  =    256;   APACO  = 10.0  distance and # of slots for P.C.
   PSTRESS=    0.0 pullay stress

  Mass of Ions in am
   POMASS =  10.81
  Ionic Valenz
   ZVAL   =   3.00
  Atomic Wigner-Seitz radii
   RWIGS  =  -1.00
  virtual crystal weights 
   VCA    =   1.00
   NELECT =      24.0000    total number of electrons
   NUPDOWN=      -1.0000    fix difference up-down

 DOS related values:
   EMIN   =  10.00;   EMAX   =-10.00  energy-range for DOS
   EFERMI =   0.00
   ISMEAR =     0;   SIGMA  =   0.10  broadening in eV -4-tet -1-fermi 0-gaus

 Electronic relaxation 2 (details)
   IALGO  =     38    algorithm
   LDIAG  =      T    sub-space diagonalisation (order eigenvalues)
   LSUBROT=      F    optimize rotation matrix (better conditioning)
   TURBO    =      0    0=normal 1=particle mesh
   IRESTART =      0    0=no restart 2=restart with 2 vectors
   NREBOOT  =      0    no. of reboots
   NMIN     =      0    reboot dimension
   EREF     =   0.00    reference energy to select bands
   IMIX   =      4    mixing-type and parameters
     AMIX     =   0.40;   BMIX     =  1.00
     AMIX_MAG =   1.60;   BMIX_MAG =  1.00
     AMIN     =   0.10
     WC   =   100.;   INIMIX=   1;  MIXPRE=   1;  MAXMIX= -45

 Intra band minimization:
   WEIMIN = 0.0000     energy-eigenvalue tresh-hold
   EBREAK =  0.52E-08  absolut break condition
   DEPER  =   0.30     relativ break condition  

   TIME   =   0.40     timestep for ELM

  volume/ion in A,a.u.               =      41.43       279.57
  Fermi-wavevector in a.u.,A,eV,Ry     =   0.682370  1.289492  6.335258  0.465628
  Thomas-Fermi vector in A             =   1.761423
 
 Write flags
   LWAVE        =      T    write WAVECAR
   LDOWNSAMPLE  =      F    k-point downsampling of WAVECAR
   LCHARG       =      T    write CHGCAR
   LVTOT        =      F    write LOCPOT, total local potential
   LVHAR        =      F    write LOCPOT, Hartree potential only
   LELF         =      F    write electronic localiz. function (ELF)
   LORBIT       =      0    0 simple, 1 ext, 2 COOP (PROOUT), +10 PAW based schemes


 Dipole corrections
   LMONO  =      F    monopole corrections only (constant potential shift)
   LDIPOL =      F    correct potential (dipole corrections)
   IDIPOL =      0    1-x, 2-y, 3-z, 4-all directions 
   EPSILON=  1.0000000 bulk dielectric constant

 Exchange correlation treatment:
   GGA     =    PE    GGA type
   LEXCH   =     8    internal setting for exchange type
   LIBXC   =     F    Libxc                    
   VOSKOWN =     0    Vosko Wilk Nusair interpolation
   LHFCALC =     F    Hartree Fock is set to
   LHFONE  =     F    Hartree Fock one center treatment
   AEXX    =    0.0000 exact exchange contribution

 Linear response parameters
   LEPSILON=     F    determine dielectric tensor
   LRPA    =     F    only Hartree local field effects (RPA)
   LNABLA  =     F    use nabla operator in PAW spheres
   LVEL    =     F    velocity operator in full k-point grid
   CSHIFT  =0.1000    complex shift for real part using Kramers Kronig
   OMEGAMAX=  -1.0    maximum frequency
   DEG_THRESHOLD= 0.2000000E-02 threshold for treating states as degnerate
   RTIME   =   -0.100 relaxation time in fs
  (WPLASMAI=    0.000 imaginary part of plasma frequency in eV, 0.658/RTIME)
   DFIELD  = 0.0000000 0.0000000 0.0000000 field for delta impulse in time
 
  Optional k-point grid parameters
   LKPOINTS_OPT  =     F    use optional k-point grid
   KPOINTS_OPT_MODE=     1    mode for optional k-point grid
 
 Orbital magnetization related:
   ORBITALMAG=     F  switch on orbital magnetization
   LCHIMAG   =     F  perturbation theory with respect to B field
   DQ        =  0.001000  dq finite difference perturbation B field
   LLRAUG    =     F  two centre corrections for induced B field



--------------------------------------------------------------------------------------------------------


 Static calculation
 charge density and potential will be updated during run
 non-spin polarized calculation
 Variant of blocked Davidson
 Davidson routine will perform the subspace rotation
 perform sub-space diagonalisation
    after iterative eigenvector-optimisation
 modified Broyden-mixing scheme, WC =      100.0
 initial mixing is a Kerker type mixing with AMIX =  0.4000 and BMIX =      1.0000
 Hartree-type preconditioning will be used
 using additional bands           36
 reciprocal scheme for non local part
 use partial core corrections
 calculate Harris-corrections to forces 
   (improved forces if not selfconsistent)
 use gradient corrections 
 use of overlap-Matrix (Vanderbilt PP)
 Gauss-broadening in eV      SIGMA  =   0.10


--------------------------------------------------------------------------------------------------------


  energy-cutoff  :      450.00
  volume of cell :      331.42
      direct lattice vectors                 reciprocal lattice vectors
     4.374294000  2.525500000  0.000000000     0.114304160  0.197980598  0.000000000
    -4.374294000  2.525500000  0.000000000    -0.114304160  0.197980598  0.000000000
     0.000000000  0.000000000 15.000000000     0.000000000  0.000000000  0.066666667

  length of vectors
     5.050999728  5.050999728 15.000000000     0.228608307  0.228608307  0.066666667


 
 k-points in units of 2pi/SCALE and weight: k-points                                
   0.00000000  0.00000000  0.00000000       0.003
   0.00672377  0.01164592  0.00000000       0.014
  -0.01344755  0.00000000  0.00000000       0.007
   0.01344755  0.02329184  0.00000000       0.014
  -0.02689510  0.00000000  0.00000000       0.007
   0.02017132  0.03493775  0.00000000       0.014
  -0.04034264  0.00000000  0.00000000       0.007
   0.02689510  0.04658367  0.00000000       0.014
  -0.05379019  0.00000000  0.00000000       0.007
   0.03361887  0.05822959  0.00000000       0.014
  -0.06723774  0.00000000  0.00000000       0.007
   0.04034264  0.06987551  0.00000000       0.014
  -0.08068529 -0.00000000  0.00000000       0.007
   0.04706642  0.08152142  0.00000000       0.014
  -0.09413284  0.00000000  0.00000000       0.007
   0.05379019  0.09316734  0.00000000       0.014
  -0.10758039  0.00000000  0.00000000       0.007
  -0.00000000  0.02329184  0.00000000       0.007
  -0.02017132  0.01164592  0.00000000       0.014
   0.00672377  0.03493775  0.00000000       0.014
  -0.02689510  0.02329184  0.00000000       0.014
  -0.03361887 -0.01164592  0.00000000       0.014
   0.01344755  0.04658367  0.00000000       0.014
  -0.03361887  0.03493775  0.00000000       0.014
  -0.04706642 -0.01164592  0.00000000       0.014
   0.02017132  0.05822959  0.00000000       0.014
  -0.04034264  0.04658367  0.00000000       0.014
  -0.06051397 -0.01164592  0.00000000       0.014
   0.02689510  0.06987551  0.00000000       0.014
  -0.04706642  0.05822959  0.00000000       0.014
  -0.07396152 -0.01164592  0.00000000       0.014
   0.03361887  0.08152142  0.00000000       0.014
  -0.05379019  0.06987551  0.00000000       0.014
  -0.08740906 -0.01164592  0.00000000       0.014
   0.04034264  0.09316734  0.00000000       0.014
  -0.06051397  0.08152142  0.00000000       0.014
  -0.10085661 -0.01164592  0.00000000       0.014
   0.04706642  0.10481326  0.00000000       0.014
  -0.00000000  0.18633468  0.00000000       0.007
  -0.00000000  0.04658367  0.00000000       0.007
  -0.04034264  0.02329184  0.00000000       0.014
   0.00672377  0.05822959  0.00000000       0.014
  -0.04706642  0.03493775  0.00000000       0.014
  -0.05379019 -0.02329184  0.00000000       0.014
   0.01344755  0.06987551  0.00000000       0.014
  -0.05379019  0.04658367  0.00000000       0.014
  -0.06723774 -0.02329184  0.00000000       0.014
   0.02017132  0.08152142  0.00000000       0.014
  -0.06051397  0.05822959  0.00000000       0.014
  -0.08068529 -0.02329184  0.00000000       0.014
   0.02689510  0.09316734  0.00000000       0.014
  -0.06723774  0.06987551  0.00000000       0.014
  -0.09413284 -0.02329184  0.00000000       0.014
   0.03361887  0.10481326  0.00000000       0.014
   0.04034264 -0.11645918  0.00000000       0.014
   0.00672377  0.17468876  0.00000000       0.014
  -0.00000000  0.06987551  0.00000000       0.007
  -0.06051397  0.03493775  0.00000000       0.014
   0.00672377  0.08152142  0.00000000       0.014
  -0.06723774  0.04658367  0.00000000       0.014
  -0.07396152 -0.03493775  0.00000000       0.014
   0.01344755  0.09316734  0.00000000       0.014
  -0.07396152  0.05822959  0.00000000       0.014
  -0.08740906 -0.03493775  0.00000000       0.014
   0.02017132  0.10481326  0.00000000       0.014
   0.03361887 -0.12810509  0.00000000       0.014
   0.01344755  0.16304285  0.00000000       0.014
   0.02689510  0.11645918  0.00000000       0.014
  -0.00000000  0.16304285  0.00000000       0.007
  -0.00000000  0.09316734  0.00000000       0.007
  -0.08068529  0.04658367  0.00000000       0.014
   0.00672377  0.10481326  0.00000000       0.014
   0.02689510 -0.13975101  0.00000000       0.014
   0.02017132  0.15139693  0.00000000       0.014
   0.01344755  0.11645918  0.00000000       0.014
   0.02017132 -0.12810509  0.00000000       0.014
   0.00672377  0.15139693  0.00000000       0.014
   0.00000000  0.11645918  0.00000000       0.007
   0.01344755 -0.13975101  0.00000000       0.014
   0.00672377  0.12810509  0.00000000       0.014
  -0.00000000  0.13975101  0.00000000       0.007
 
 k-points in reciprocal lattice and weights: k-points                                
   0.00000000  0.00000000  0.00000000       0.003
   0.05882353  0.00000000  0.00000000       0.014
  -0.05882353  0.05882353  0.00000000       0.007
   0.11764706  0.00000000  0.00000000       0.014
  -0.11764706  0.11764706  0.00000000       0.007
   0.17647059  0.00000000  0.00000000       0.014
  -0.17647059  0.17647059  0.00000000       0.007
   0.23529412  0.00000000  0.00000000       0.014
  -0.23529412  0.23529412  0.00000000       0.007
   0.29411765  0.00000000  0.00000000       0.014
  -0.29411765  0.29411765  0.00000000       0.007
   0.35294118  0.00000000  0.00000000       0.014
  -0.35294118  0.35294118  0.00000000       0.007
   0.41176471  0.00000000  0.00000000       0.014
  -0.41176471  0.41176471  0.00000000       0.007
   0.47058824  0.00000000  0.00000000       0.014
  -0.47058824  0.47058824  0.00000000       0.007
   0.05882353  0.05882353  0.00000000       0.007
  -0.05882353  0.11764706  0.00000000       0.014
   0.11764706  0.05882353  0.00000000       0.014
  -0.05882353  0.17647059  0.00000000       0.014
  -0.17647059  0.11764706  0.00000000       0.014
   0.17647059  0.05882353  0.00000000       0.014
  -0.05882353  0.23529412  0.00000000       0.014
  -0.23529412  0.17647059  0.00000000       0.014
   0.23529412  0.05882353  0.00000000       0.014
  -0.05882353  0.29411765  0.00000000       0.014
  -0.29411765  0.23529412  0.00000000       0.014
   0.29411765  0.05882353  0.00000000       0.014
  -0.05882353  0.35294118  0.00000000       0.014
  -0.35294118  0.29411765  0.00000000       0.014
   0.35294118  0.05882353  0.00000000       0.014
  -0.05882353  0.41176471  0.00000000       0.014
  -0.41176471  0.35294118  0.00000000       0.014
   0.41176471  0.05882353  0.00000000       0.014
  -0.05882353  0.47058824  0.00000000       0.014
  -0.47058824  0.41176471  0.00000000       0.014
   0.47058824  0.05882353  0.00000000       0.014
   0.47058824  0.47058824  0.00000000       0.007
   0.11764706  0.11764706  0.00000000       0.007
  -0.11764706  0.23529412  0.00000000       0.014
   0.17647059  0.11764706  0.00000000       0.014
  -0.11764706  0.29411765  0.00000000       0.014
  -0.29411765  0.17647059  0.00000000       0.014
   0.23529412  0.11764706  0.00000000       0.014
  -0.11764706  0.35294118  0.00000000       0.014
  -0.35294118  0.23529412  0.00000000       0.014
   0.29411765  0.11764706  0.00000000       0.014
  -0.11764706  0.41176471  0.00000000       0.014
  -0.41176471  0.29411765  0.00000000       0.014
   0.35294118  0.11764706  0.00000000       0.014
  -0.11764706  0.47058824  0.00000000       0.014
  -0.47058824  0.35294118  0.00000000       0.014
   0.41176471  0.11764706  0.00000000       0.014
  -0.11764706 -0.47058824  0.00000000       0.014
   0.47058824  0.41176471  0.00000000       0.014
   0.17647059  0.17647059  0.00000000       0.007
  -0.17647059  0.35294118  0.00000000       0.014
   0.23529412  0.17647059  0.00000000       0.014
  -0.17647059  0.41176471  0.00000000       0.014
  -0.41176471  0.23529412  0.00000000       0.014
   0.29411765  0.17647059  0.00000000       0.014
  -0.17647059  0.47058824  0.00000000       0.014
  -0.47058824  0.29411765  0.00000000       0.014
   0.35294118  0.17647059  0.00000000       0.014
  -0.17647059 -0.47058824  0.00000000       0.014
   0.47058824  0.35294118  0.00000000       0.014
   0.41176471  0.17647059  0.00000000       0.014
   0.41176471  0.41176471  0.00000000       0.007
   0.23529412  0.23529412  0.00000000       0.007
  -0.23529412  0.47058824  0.00000000       0.014
   0.29411765  0.23529412  0.00000000       0.014
  -0.23529412 -0.47058824  0.00000000       0.014
   0.47058824  0.29411765  0.00000000       0.014
   0.35294118  0.23529412  0.00000000       0.014
  -0.23529412 -0.41176471  0.00000000       0.014
   0.41176471  0.35294118  0.00000000       0.014
   0.29411765  0.29411765  0.00000000       0.007
  -0.29411765 -0.41176471  0.00000000       0.014
   0.35294118  0.29411765  0.00000000       0.014
   0.35294118  0.35294118  0.00000000       0.007
 
 position of ions in fractional coordinates (direct lattice) 
   0.66893173  0.00000000  0.10000000
   0.33106727  0.00000000  0.10000000
   0.00000000  0.33106727  0.10000000
   0.00000000  0.66893173  0.10000000
   0.33106727  0.33106727  0.10000000
   0.66893173  0.66893173  0.10000000
   0.66666600  0.33333300  0.09995611
   0.33333300  0.66666600  0.10004389
 
 position of ions in cartesian coordinates  (Angst):
   2.92610407  1.68938709  1.50000000
   1.44818556  0.83611038  1.50000000
  -1.44818556  0.83611038  1.50000000
  -2.92610407  1.68938709  1.50000000
   0.00000000  1.67222076  1.50000000
  -0.00000000  3.37877418  1.50000000
   1.45809654  2.52549747  1.49934166
  -1.45809654  2.52549747  1.50065834
 


--------------------------------------------------------------------------------------------------------


 k-point   1 :   0.0000 0.0000 0.0000  plane waves:    7149
 k-point   2 :   0.0588 0.0000 0.0000  plane waves:    7179
 k-point   3 :  -0.0588 0.0588 0.0000  plane waves:    7179
 k-point   4 :   0.1176 0.0000 0.0000  plane waves:    7173
 k-point   5 :  -0.1176 0.1176 0.0000  plane waves:    7173
 k-point   6 :   0.1765 0.0000 0.0000  plane waves:    7193
 k-point   7 :  -0.1765 0.1765 0.0000  plane waves:    7193
 k-point   8 :   0.2353 0.0000 0.0000  plane waves:    7197
 k-point   9 :  -0.2353 0.2353 0.0000  plane waves:    7197
 k-point  10 :   0.2941 0.0000 0.0000  plane waves:    7185
 k-point  11 :  -0.2941 0.2941 0.0000  plane waves:    7185
 k-point  12 :   0.3529 0.0000 0.0000  plane waves:    7187
 k-point  13 :  -0.3529 0.3529 0.0000  plane waves:    7187
 k-point  14 :   0.4118 0.0000 0.0000  plane waves:    7195
 k-point  15 :  -0.4118 0.4118 0.0000  plane waves:    7195
 k-point  16 :   0.4706 0.0000 0.0000  plane waves:    7208
 k-point  17 :  -0.4706 0.4706 0.0000  plane waves:    7208
 k-point  18 :   0.0588 0.0588 0.0000  plane waves:    7185
 k-point  19 :  -0.0588 0.1176 0.0000  plane waves:    7185
 k-point  20 :   0.1176 0.0588 0.0000  plane waves:    7192
 k-point  21 :  -0.0588 0.1765 0.0000  plane waves:    7192
 k-point  22 :  -0.1765 0.1176 0.0000  plane waves:    7192
 k-point  23 :   0.1765 0.0588 0.0000  plane waves:    7193
 k-point  24 :  -0.0588 0.2353 0.0000  plane waves:    7193
 k-point  25 :  -0.2353 0.1765 0.0000  plane waves:    7193
 k-point  26 :   0.2353 0.0588 0.0000  plane waves:    7191
 k-point  27 :  -0.0588 0.2941 0.0000  plane waves:    7191
 k-point  28 :  -0.2941 0.2353 0.0000  plane waves:    7191
 k-point  29 :   0.2941 0.0588 0.0000  plane waves:    7184
 k-point  30 :  -0.0588 0.3529 0.0000  plane waves:    7184
 k-point  31 :  -0.3529 0.2941 0.0000  plane waves:    7184
 k-point  32 :   0.3529 0.0588 0.0000  plane waves:    7170
 k-point  33 :  -0.0588 0.4118 0.0000  plane waves:    7170
 k-point  34 :  -0.4118 0.3529 0.0000  plane waves:    7170
 k-point  35 :   0.4118 0.0588 0.0000  plane waves:    7190
 k-point  36 :  -0.0588 0.4706 0.0000  plane waves:    7190
 k-point  37 :  -0.4706 0.4118 0.0000  plane waves:    7190
 k-point  38 :   0.4706 0.0588 0.0000  plane waves:    7194
 k-point  39 :   0.4706 0.4706 0.0000  plane waves:    7194
 k-point  40 :   0.1176 0.1176 0.0000  plane waves:    7181
 k-point  41 :  -0.1176 0.2353 0.0000  plane waves:    7181
 k-point  42 :   0.1765 0.1176 0.0000  plane waves:    7190
 k-point  43 :  -0.1176 0.2941 0.0000  plane waves:    7190
 k-point  44 :  -0.2941 0.1765 0.0000  plane waves:    7190
 k-point  45 :   0.2353 0.1176 0.0000  plane waves:    7187
 k-point  46 :  -0.1176 0.3529 0.0000  plane waves:    7187
 k-point  47 :  -0.3529 0.2353 0.0000  plane waves:    7187
 k-point  48 :   0.2941 0.1176 0.0000  plane waves:    7183
 k-point  49 :  -0.1176 0.4118 0.0000  plane waves:    7183
 k-point  50 :  -0.4118 0.2941 0.0000  plane waves:    7183
 k-point  51 :   0.3529 0.1176 0.0000  plane waves:    7186
 k-point  52 :  -0.1176 0.4706 0.0000  plane waves:    7186
 k-point  53 :  -0.4706 0.3529 0.0000  plane waves:    7186
 k-point  54 :   0.4118 0.1176 0.0000  plane waves:    7200
 k-point  55 :  -0.1176-0.4706 0.0000  plane waves:    7200
 k-point  56 :   0.4706 0.4118 0.0000  plane waves:    7200
 k-point  57 :   0.1765 0.1765 0.0000  plane waves:    7183
 k-point  58 :  -0.1765 0.3529 0.0000  plane waves:    7183
 k-point  59 :   0.2353 0.1765 0.0000  plane waves:    7169
 k-point  60 :  -0.1765 0.4118 0.0000  plane waves:    7169
 k-point  61 :  -0.4118 0.2353 0.0000  plane waves:    7169
 k-point  62 :   0.2941 0.1765 0.0000  plane waves:    7184
 k-point  63 :  -0.1765 0.4706 0.0000  plane waves:    7184
 k-point  64 :  -0.4706 0.2941 0.0000  plane waves:    7184
 k-point  65 :   0.3529 0.1765 0.0000  plane waves:    7183
 k-point  66 :  -0.1765-0.4706 0.0000  plane waves:    7183
 k-point  67 :   0.4706 0.3529 0.0000  plane waves:    7183
 k-point  68 :   0.4118 0.1765 0.0000  plane waves:    7176
 k-point  69 :   0.4118 0.4118 0.0000  plane waves:    7176
 k-point  70 :   0.2353 0.2353 0.0000  plane waves:    7181
 k-point  71 :  -0.2353 0.4706 0.0000  plane waves:    7181
 k-point  72 :   0.2941 0.2353 0.0000  plane waves:    7169
 k-point  73 :  -0.2353-0.4706 0.0000  plane waves:    7169
 k-point  74 :   0.4706 0.2941 0.0000  plane waves:    7169
 k-point  75 :   0.3529 0.2353 0.0000  plane waves:    7158
 k-point  76 :  -0.2353-0.4118 0.0000  plane waves:    7158
 k-point  77 :   0.4118 0.3529 0.0000  plane waves:    7158
 k-point  78 :   0.2941 0.2941 0.0000  plane waves:    7151
 k-point  79 :  -0.2941-0.4118 0.0000  plane waves:    7151
 k-point  80 :   0.3529 0.2941 0.0000  plane waves:    7161
 k-point  81 :   0.3529 0.3529 0.0000  plane waves:    7161

 maximum and minimum number of plane-waves per node :      7208     7149

 maximum number of plane-waves:      7208
 maximum index in each direction: 
   IXMAX=    9   IYMAX=    9   IZMAX=   25
   IXMIN=   -9   IYMIN=   -9   IZMIN=  -25


 serial   3D FFT for wavefunctions
 parallel 3D FFT for charge:
    minimum data exchange during FFTs selected (reduces bandwidth)


 total amount of memory used by VASP MPI-rank0    86723. kBytes
=======================================================================

   base      :      30000. kBytes
   nonl-proj :      38501. kBytes
   fftplans  :       1560. kBytes
   grid      :       7121. kBytes
   one-center:         24. kBytes
   wavefun   :       9517. kBytes
 
     INWAV:  cpu time      0.0000: real time      0.0001
 Broyden mixing: mesh for mixing (old mesh)
   NGX = 17   NGY = 17   NGZ = 51
  (NGX  = 72   NGY  = 72   NGZ  =216)
  gives a total of  14739 points

 initial charge density was supplied:
 charge density of overlapping atoms calculated
 number of electron      24.0000000 magnetization 
 keeping initial charge density in first step


--------------------------------------------------------------------------------------------------------


 Maximum index for augmentation-charges          379 (set IRDMAX)


--------------------------------------------------------------------------------------------------------


 First call to EWALD:  gamma=   0.256
 Maximum number of real-space cells 4x 4x 2
 Maximum number of reciprocal cells 2x 2x 5

    FEWALD:  cpu time      0.0016: real time      0.0023


--------------------------------------- Iteration      1(   1)  ---------------------------------------


    POTLOK:  cpu time      0.0198: real time      0.0219
    SETDIJ:  cpu time      0.0018: real time      0.0018
     EDDAV:  cpu time      2.8716: real time      2.8952
       DOS:  cpu time      0.0021: real time      0.0021
    --------------------------------------------
      LOOP:  cpu time      2.8953: real time      2.9210

 eigenvalue-minimisations  :  7776
 total energy-change (2. order) : 0.3519233E+02  (-0.9633194E+03)
 number of electron      24.0000000 magnetization 
 augmentation part       24.0000000 magnetization 

 Free energy of the ion-electron system (eV)
  ---------------------------------------------------
  alpha Z        PSCENC =        13.28497877
  Ewald energy   TEWEN  =      1756.86243280
  -Hartree energ DENC   =     -2116.54577085
  -exchange      EXHF   =         0.00000000
  -V(xc)+E(xc)   XCENC  =        55.32216351
  PAW double counting   =       347.99892404     -341.15636447
  entropy T*S    EENTRO =        -0.00582221
  eigenvalues    EBANDS =      -249.91873009
  atomic energy  EATOM  =       569.35051449
  Solvation  Ediel_sol  =         0.00000000
  ---------------------------------------------------
  free energy    TOTEN  =        35.19232599 eV

  energy without entropy =       35.19814820  energy(sigma->0) =       35.19523709


--------------------------------------------------------------------------------------------------------




--------------------------------------- Iteration      1(   2)  ---------------------------------------


     EDDAV:  cpu time      4.5856: real time      4.6191
       DOS:  cpu time      0.0009: real time      0.0009
    --------------------------------------------
      LOOP:  cpu time      4.5865: real time      4.6200

 eigenvalue-minimisations  : 12048
 total energy-change (2. order) :-0.8962779E+02  (-0.8927594E+02)
 number of electron      24.0000000 magnetization 
 augmentation part       24.0000000 magnetization 

 Free energy of the ion-electron system (eV)
  ---------------------------------------------------
  alpha Z        PSCENC =        13.28497877
  Ewald energy   TEWEN  =      1756.86243280
  -Hartree energ DENC   =     -2116.54577085
  -exchange      EXHF   =         0.00000000
  -V(xc)+E(xc)   XCENC  =        55.32216351
  PAW double counting   =       347.99892404     -341.15636447
  entropy T*S    EENTRO =        -0.00338850
  eigenvalues    EBANDS =      -339.54895341
  atomic energy  EATOM  =       569.35051449
  Solvation  Ediel_sol  =         0.00000000
  ---------------------------------------------------
  free energy    TOTEN  =       -54.43546362 eV

  energy without entropy =      -54.43207512  energy(sigma->0) =      -54.43376937


--------------------------------------------------------------------------------------------------------




--------------------------------------- Iteration      1(   3)  ---------------------------------------


     EDDAV:  cpu time      4.3970: real time      4.4397
       DOS:  cpu time      0.0008: real time      0.0008
    --------------------------------------------
      LOOP:  cpu time      4.3979: real time      4.4406

 eigenvalue-minimisations  : 11184
 total energy-change (2. order) :-0.8260048E+00  (-0.8258400E+00)
 number of electron      24.0000000 magnetization 
 augmentation part       24.0000000 magnetization 

 Free energy of the ion-electron system (eV)
  ---------------------------------------------------
  alpha Z        PSCENC =        13.28497877
  Ewald energy   TEWEN  =      1756.86243280
  -Hartree energ DENC   =     -2116.54577085
  -exchange      EXHF   =         0.00000000
  -V(xc)+E(xc)   XCENC  =        55.32216351
  PAW double counting   =       347.99892404     -341.15636447
  entropy T*S    EENTRO =        -0.00359357
  eigenvalues    EBANDS =      -340.37475314
  atomic energy  EATOM  =       569.35051449
  Solvation  Ediel_sol  =         0.00000000
  ---------------------------------------------------
  free energy    TOTEN  =       -55.26146841 eV

  energy without entropy =      -55.25787484  energy(sigma->0) =      -55.25967163


--------------------------------------------------------------------------------------------------------




--------------------------------------- Iteration      1(   4)  ---------------------------------------


     EDDAV:  cpu time      5.0440: real time      5.0982
       DOS:  cpu time      0.0008: real time      0.0008
    --------------------------------------------
      LOOP:  cpu time      5.0448: real time      5.0991

 eigenvalue-minimisations  : 12432
 total energy-change (2. order) :-0.2261545E-02  (-0.2261542E-02)
 number of electron      24.0000000 magnetization 
 augmentation part       24.0000000 magnetization 

 Free energy of the ion-electron system (eV)
  ---------------------------------------------------
  alpha Z        PSCENC =        13.28497877
  Ewald energy   TEWEN  =      1756.86243280
  -Hartree energ DENC   =     -2116.54577085
  -exchange      EXHF   =         0.00000000
  -V(xc)+E(xc)   XCENC  =        55.32216351
  PAW double counting   =       347.99892404     -341.15636447
  entropy T*S    EENTRO =        -0.00359391
  eigenvalues    EBANDS =      -340.37701434
  atomic energy  EATOM  =       569.35051449
  Solvation  Ediel_sol  =         0.00000000
  ---------------------------------------------------
  free energy    TOTEN  =       -55.26372996 eV

  energy without entropy =      -55.26013605  energy(sigma->0) =      -55.26193300


--------------------------------------------------------------------------------------------------------




--------------------------------------- Iteration      1(   5)  ---------------------------------------


     EDDAV:  cpu time      4.3085: real time      4.3426
       DOS:  cpu time      0.0008: real time      0.0008
    CHARGE:  cpu time      0.2037: real time      0.2436
    MIXING:  cpu time      0.0020: real time      0.0029
    --------------------------------------------
      LOOP:  cpu time      4.5151: real time      4.5900

 eigenvalue-minimisations  : 10944
 total energy-change (2. order) :-0.6884873E-06  (-0.6892258E-06)
 number of electron      24.0000000 magnetization 
 augmentation part        0.0194973 magnetization 

 Broyden mixing:
  rms(total) = 0.93835E+00    rms(broyden)= 0.93825E+00
  rms(prec ) = 0.11109E+01
  weight for this iteration     100.00

 Free energy of the ion-electron system (eV)
  ---------------------------------------------------
  alpha Z        PSCENC =        13.28497877
  Ewald energy   TEWEN  =      1756.86243280
  -Hartree energ DENC   =     -2116.54577085
  -exchange      EXHF   =         0.00000000
  -V(xc)+E(xc)   XCENC  =        55.32216351
  PAW double counting   =       347.99892404     -341.15636447
  entropy T*S    EENTRO =        -0.00359391
  eigenvalues    EBANDS =      -340.37701503
  atomic energy  EATOM  =       569.35051449
  Solvation  Ediel_sol  =         0.00000000
  ---------------------------------------------------
  free energy    TOTEN  =       -55.26373065 eV

  energy without entropy =      -55.26013673  energy(sigma->0) =      -55.26193369


--------------------------------------------------------------------------------------------------------




--------------------------------------- Iteration      1(   6)  ---------------------------------------


    POTLOK:  cpu time      0.0232: real time      0.0305
    SETDIJ:  cpu time      0.0011: real time      0.0012
     EDDAV:  cpu time      4.8183: real time      4.8548
       DOS:  cpu time      0.0013: real time      0.0013
    CHARGE:  cpu time      0.2305: real time      0.2971
    MIXING:  cpu time      0.0013: real time      0.0015
    --------------------------------------------
      LOOP:  cpu time      5.0756: real time      5.1864

 eigenvalue-minimisations  : 12432
 total energy-change (2. order) : 0.3197531E+01  (-0.2814884E+00)
 number of electron      24.0000000 magnetization 
 augmentation part       -0.0040978 magnetization 

 Broyden mixing:
  rms(total) = 0.53562E+00    rms(broyden)= 0.53562E+00
  rms(prec ) = 0.63451E+00
  weight for this iteration     100.00

 eigenvalues of (default mixing * dielectric matrix)
  average eigenvalue GAMMA=   2.2402
  2.2402

 Free energy of the ion-electron system (eV)
  ---------------------------------------------------
  alpha Z        PSCENC =        13.28497877
  Ewald energy   TEWEN  =      1756.86243280
  -Hartree energ DENC   =     -2145.46706182
  -exchange      EXHF   =         0.00000000
  -V(xc)+E(xc)   XCENC  =        56.21418864
  PAW double counting   =       920.34371165     -913.89546495
  entropy T*S    EENTRO =        -0.00509373
  eigenvalues    EBANDS =      -308.75440556
  atomic energy  EATOM  =       569.35051449
  Solvation  Ediel_sol  =         0.00000000
  ---------------------------------------------------
  free energy    TOTEN  =       -52.06619970 eV

  energy without entropy =      -52.06110597  energy(sigma->0) =      -52.06365284


--------------------------------------------------------------------------------------------------------




--------------------------------------- Iteration      1(   7)  ---------------------------------------


    POTLOK:  cpu time      0.0171: real time      0.0224
    SETDIJ:  cpu time      0.0011: real time      0.0011
     EDDAV:  cpu time      5.4734: real time      5.5090
       DOS:  cpu time      0.0010: real time      0.0010
    CHARGE:  cpu time      0.1487: real time      0.1607
    MIXING:  cpu time      0.0007: real time      0.0011
    --------------------------------------------
      LOOP:  cpu time      5.6421: real time      5.6953

 eigenvalue-minimisations  : 13680
 total energy-change (2. order) : 0.1516886E+01  (-0.3971955E+00)
 number of electron      24.0000000 magnetization 
 augmentation part       -0.0311884 magnetization 

 Broyden mixing:
  rms(total) = 0.95973E-01    rms(broyden)= 0.95963E-01
  rms(prec ) = 0.13293E+00
  weight for this iteration     100.00

 eigenvalues of (default mixing * dielectric matrix)
  average eigenvalue GAMMA=   2.0621
  1.7392  2.3851

 Free energy of the ion-electron system (eV)
  ---------------------------------------------------
  alpha Z        PSCENC =        13.28497877
  Ewald energy   TEWEN  =      1756.86243280
  -Hartree energ DENC   =     -2187.64630571
  -exchange      EXHF   =         0.00000000
  -V(xc)+E(xc)   XCENC  =        57.61406302
  PAW double counting   =      2167.46362725    -2161.43107754
  entropy T*S    EENTRO =        -0.00516786
  eigenvalues    EBANDS =      -266.04237935
  atomic energy  EATOM  =       569.35051449
  Solvation  Ediel_sol  =         0.00000000
  ---------------------------------------------------
  free energy    TOTEN  =       -50.54931413 eV

  energy without entropy =      -50.54414627  energy(sigma->0) =      -50.54673020


--------------------------------------------------------------------------------------------------------




--------------------------------------- Iteration      1(   8)  ---------------------------------------


    POTLOK:  cpu time      0.0211: real time      0.0298
    SETDIJ:  cpu time      0.0010: real time      0.0011
     EDDAV:  cpu time      5.0691: real time      5.1084
       DOS:  cpu time      0.0008: real time      0.0008
    CHARGE:  cpu time      0.1868: real time      0.2035
    MIXING:  cpu time      0.0008: real time      0.0008
    --------------------------------------------
      LOOP:  cpu time      5.2796: real time      5.3444

 eigenvalue-minimisations  : 12864
 total energy-change (2. order) : 0.5865131E-01  (-0.7855549E-02)
 number of electron      24.0000000 magnetization 
 augmentation part       -0.0331482 magnetization 

 Broyden mixing:
  rms(total) = 0.31830E-01    rms(broyden)= 0.31826E-01
  rms(prec ) = 0.64989E-01
  weight for this iteration     100.00

 eigenvalues of (default mixing * dielectric matrix)
  average eigenvalue GAMMA=   1.8432
  0.9845  2.4087  2.1363

 Free energy of the ion-electron system (eV)
  ---------------------------------------------------
  alpha Z        PSCENC =        13.28497877
  Ewald energy   TEWEN  =      1756.86243280
  -Hartree energ DENC   =     -2197.21827240
  -exchange      EXHF   =         0.00000000
  -V(xc)+E(xc)   XCENC  =        57.83464018
  PAW double counting   =      2376.04770761    -2369.97888723
  entropy T*S    EENTRO =        -0.00497003
  eigenvalues    EBANDS =      -256.66880700
  atomic energy  EATOM  =       569.35051449
  Solvation  Ediel_sol  =         0.00000000
  ---------------------------------------------------
  free energy    TOTEN  =       -50.49066282 eV

  energy without entropy =      -50.48569278  energy(sigma->0) =      -50.48817780


--------------------------------------------------------------------------------------------------------




--------------------------------------- Iteration      1(   9)  ---------------------------------------


    POTLOK:  cpu time      0.0150: real time      0.0183
    SETDIJ:  cpu time      0.0010: real time      0.0010
     EDDAV:  cpu time      5.0623: real time      5.0978
       DOS:  cpu time      0.0008: real time      0.0008
    CHARGE:  cpu time      0.1534: real time      0.1621
    MIXING:  cpu time      0.0008: real time      0.0008
    --------------------------------------------
      LOOP:  cpu time      5.2333: real time      5.2808

 eigenvalue-minimisations  : 12912
 total energy-change (2. order) : 0.1575824E-01  (-0.6491587E-03)
 number of electron      24.0000000 magnetization 
 augmentation part       -0.0331691 magnetization 

 Broyden mixing:
  rms(total) = 0.18615E-01    rms(broyden)= 0.18614E-01
  rms(prec ) = 0.45079E-01
  weight for this iteration     100.00

 eigenvalues of (default mixing * dielectric matrix)
  average eigenvalue GAMMA=   1.9673
  1.0116  1.7058  2.5758  2.5758

 Free energy of the ion-electron system (eV)
  ---------------------------------------------------
  alpha Z        PSCENC =        13.28497877
  Ewald energy   TEWEN  =      1756.86243280
  -Hartree energ DENC   =     -2202.27839286
  -exchange      EXHF   =         0.00000000
  -V(xc)+E(xc)   XCENC  =        57.92620378
  PAW double counting   =      2401.01939261    -2394.92497217
  entropy T*S    EENTRO =        -0.00494837
  eigenvalues    EBANDS =      -251.71011362
  atomic energy  EATOM  =       569.35051449
  Solvation  Ediel_sol  =         0.00000000
  ---------------------------------------------------
  free energy    TOTEN  =       -50.47490458 eV

  energy without entropy =      -50.46995621  energy(sigma->0) =      -50.47243039


--------------------------------------------------------------------------------------------------------




--------------------------------------- Iteration      1(  10)  ---------------------------------------


    POTLOK:  cpu time      0.0164: real time      0.0201
    SETDIJ:  cpu time      0.0010: real time      0.0011
     EDDAV:  cpu time      4.8860: real time      4.9181
       DOS:  cpu time      0.0008: real time      0.0008
    CHARGE:  cpu time      0.1479: real time      0.1486
    MIXING:  cpu time      0.0007: real time      0.0007
    --------------------------------------------
      LOOP:  cpu time      5.0529: real time      5.0894

 eigenvalue-minimisations  : 12720
 total energy-change (2. order) : 0.1031929E-01  (-0.1344685E-02)
 number of electron      24.0000000 magnetization 
 augmentation part       -0.0335206 magnetization 

 Broyden mixing:
  rms(total) = 0.89872E-02    rms(broyden)= 0.89862E-02
  rms(prec ) = 0.22933E-01
  weight for this iteration     100.00

 eigenvalues of (default mixing * dielectric matrix)
  average eigenvalue GAMMA=   2.0868
  3.6407  2.4817  1.0362  1.9004  1.3751

 Free energy of the ion-electron system (eV)
  ---------------------------------------------------
  alpha Z        PSCENC =        13.28497877
  Ewald energy   TEWEN  =      1756.86243280
  -Hartree energ DENC   =     -2209.85541149
  -exchange      EXHF   =         0.00000000
  -V(xc)+E(xc)   XCENC  =        58.04312285
  PAW double counting   =      2375.13950638    -2369.02832467
  entropy T*S    EENTRO =        -0.00504395
  eigenvalues    EBANDS =      -244.25636045
  atomic energy  EATOM  =       569.35051449
  Solvation  Ediel_sol  =         0.00000000
  ---------------------------------------------------
  free energy    TOTEN  =       -50.46458528 eV

  energy without entropy =      -50.45954133  energy(sigma->0) =      -50.46206331


--------------------------------------------------------------------------------------------------------




--------------------------------------- Iteration      1(  11)  ---------------------------------------


    POTLOK:  cpu time      0.0269: real time      0.0294
    SETDIJ:  cpu time      0.0013: real time      0.0013
     EDDAV:  cpu time      4.1981: real time      4.2249
       DOS:  cpu time      0.0010: real time      0.0010
    CHARGE:  cpu time      0.1489: real time      0.1522
    MIXING:  cpu time      0.0008: real time      0.0008
    --------------------------------------------
      LOOP:  cpu time      4.3769: real time      4.4094

 eigenvalue-minimisations  : 10944
 total energy-change (2. order) : 0.1611114E-02  (-0.3967056E-03)
 number of electron      24.0000000 magnetization 
 augmentation part       -0.0340157 magnetization 

 Broyden mixing:
  rms(total) = 0.51427E-02    rms(broyden)= 0.51421E-02
  rms(prec ) = 0.12602E-01
  weight for this iteration     100.00

 eigenvalues of (default mixing * dielectric matrix)
  average eigenvalue GAMMA=   2.3209
  5.1180  2.6192  2.3504  1.7231  0.9915  1.1232

 Free energy of the ion-electron system (eV)
  ---------------------------------------------------
  alpha Z        PSCENC =        13.28497877
  Ewald energy   TEWEN  =      1756.86243280
  -Hartree energ DENC   =     -2214.48740246
  -exchange      EXHF   =         0.00000000
  -V(xc)+E(xc)   XCENC  =        58.09754610
  PAW double counting   =      2366.75554787    -2360.64653170
  entropy T*S    EENTRO =        -0.00505427
  eigenvalues    EBANDS =      -239.67500577
  atomic energy  EATOM  =       569.35051449
  Solvation  Ediel_sol  =         0.00000000
  ---------------------------------------------------
  free energy    TOTEN  =       -50.46297417 eV

  energy without entropy =      -50.45791990  energy(sigma->0) =      -50.46044704


--------------------------------------------------------------------------------------------------------




--------------------------------------- Iteration      1(  12)  ---------------------------------------


    POTLOK:  cpu time      0.0188: real time      0.0257
    SETDIJ:  cpu time      0.0012: real time      0.0012
     EDDAV:  cpu time      4.3970: real time      4.4218
       DOS:  cpu time      0.0008: real time      0.0008
    CHARGE:  cpu time      0.1488: real time      0.1505
    MIXING:  cpu time      0.0009: real time      0.0009
    --------------------------------------------
      LOOP:  cpu time      4.5674: real time      4.6009

 eigenvalue-minimisations  : 11328
 total energy-change (2. order) :-0.7510703E-04  (-0.9935340E-04)
 number of electron      24.0000000 magnetization 
 augmentation part       -0.0341897 magnetization 

 Broyden mixing:
  rms(total) = 0.34052E-02    rms(broyden)= 0.34050E-02
  rms(prec ) = 0.72246E-02
  weight for this iteration     100.00

 eigenvalues of (default mixing * dielectric matrix)
  average eigenvalue GAMMA=   2.4819
  5.8422  3.0775  2.6411  2.0950  1.6671  0.9726  1.0778

 Free energy of the ion-electron system (eV)
  ---------------------------------------------------
  alpha Z        PSCENC =        13.28497877
  Ewald energy   TEWEN  =      1756.86243280
  -Hartree energ DENC   =     -2216.54721729
  -exchange      EXHF   =         0.00000000
  -V(xc)+E(xc)   XCENC  =        58.10243498
  PAW double counting   =      2359.68103515    -2353.57616324
  entropy T*S    EENTRO =        -0.00504444
  eigenvalues    EBANDS =      -237.61602050
  atomic energy  EATOM  =       569.35051449
  Solvation  Ediel_sol  =         0.00000000
  ---------------------------------------------------
  free energy    TOTEN  =       -50.46304928 eV

  energy without entropy =      -50.45800483  energy(sigma->0) =      -50.46052705


--------------------------------------------------------------------------------------------------------




--------------------------------------- Iteration      1(  13)  ---------------------------------------


    POTLOK:  cpu time      0.0151: real time      0.0283
    SETDIJ:  cpu time      0.0010: real time      0.0010
     EDDAV:  cpu time      4.3313: real time      4.3601
       DOS:  cpu time      0.0008: real time      0.0008
    CHARGE:  cpu time      0.1477: real time      0.1489
    MIXING:  cpu time      0.0008: real time      0.0008
    --------------------------------------------
      LOOP:  cpu time      4.4967: real time      4.5398

 eigenvalue-minimisations  : 11328
 total energy-change (2. order) :-0.3825638E-02  (-0.9054610E-04)
 number of electron      24.0000000 magnetization 
 augmentation part       -0.0341570 magnetization 

 Broyden mixing:
  rms(total) = 0.17548E-02    rms(broyden)= 0.17548E-02
  rms(prec ) = 0.31811E-02
  weight for this iteration     100.00

 eigenvalues of (default mixing * dielectric matrix)
  average eigenvalue GAMMA=   2.4953
  6.2067  3.9764  2.3872  2.3872  1.7017  0.9743  1.0402  1.2888

 Free energy of the ion-electron system (eV)
  ---------------------------------------------------
  alpha Z        PSCENC =        13.28497877
  Ewald energy   TEWEN  =      1756.86243280
  -Hartree energ DENC   =     -2217.37730917
  -exchange      EXHF   =         0.00000000
  -V(xc)+E(xc)   XCENC  =        58.09509162
  PAW double counting   =      2370.51504902    -2364.40856584
  entropy T*S    EENTRO =        -0.00504939
  eigenvalues    EBANDS =      -236.78401720
  atomic energy  EATOM  =       569.35051449
  Solvation  Ediel_sol  =         0.00000000
  ---------------------------------------------------
  free energy    TOTEN  =       -50.46687491 eV

  energy without entropy =      -50.46182552  energy(sigma->0) =      -50.46435022


--------------------------------------------------------------------------------------------------------




--------------------------------------- Iteration      1(  14)  ---------------------------------------


    POTLOK:  cpu time      0.0170: real time      0.0226
    SETDIJ:  cpu time      0.0011: real time      0.0011
     EDDAV:  cpu time      5.2760: real time      5.3087
       DOS:  cpu time      0.0008: real time      0.0008
    CHARGE:  cpu time      0.1478: real time      0.1497
    MIXING:  cpu time      0.0008: real time      0.0008
    --------------------------------------------
      LOOP:  cpu time      5.4435: real time      5.4836

 eigenvalue-minimisations  : 13296
 total energy-change (2. order) :-0.1029871E-02  (-0.1062770E-04)
 number of electron      24.0000000 magnetization 
 augmentation part       -0.0341258 magnetization 

 Broyden mixing:
  rms(total) = 0.99673E-03    rms(broyden)= 0.99672E-03
  rms(prec ) = 0.19030E-02
  weight for this iteration     100.00

 eigenvalues of (default mixing * dielectric matrix)
  average eigenvalue GAMMA=   2.8416
  7.9199  5.0035  3.1451  2.4464  2.1784  1.6809  0.9996  0.9996  1.2012

 Free energy of the ion-electron system (eV)
  ---------------------------------------------------
  alpha Z        PSCENC =        13.28497877
  Ewald energy   TEWEN  =      1756.86243280
  -Hartree energ DENC   =     -2217.53118103
  -exchange      EXHF   =         0.00000000
  -V(xc)+E(xc)   XCENC  =        58.09238399
  PAW double counting   =      2367.21169771    -2361.10449716
  entropy T*S    EENTRO =        -0.00505424
  eigenvalues    EBANDS =      -236.62918011
  atomic energy  EATOM  =       569.35051449
  Solvation  Ediel_sol  =         0.00000000
  ---------------------------------------------------
  free energy    TOTEN  =       -50.46790479 eV

  energy without entropy =      -50.46285054  energy(sigma->0) =      -50.46537766


--------------------------------------------------------------------------------------------------------




--------------------------------------- Iteration      1(  15)  ---------------------------------------


    POTLOK:  cpu time      0.0140: real time      0.0214
    SETDIJ:  cpu time      0.0011: real time      0.0011
     EDDAV:  cpu time      4.4863: real time      4.5161
       DOS:  cpu time      0.0008: real time      0.0008
    CHARGE:  cpu time      0.1473: real time      0.1498
    MIXING:  cpu time      0.0009: real time      0.0009
    --------------------------------------------
      LOOP:  cpu time      4.6503: real time      4.6900

 eigenvalue-minimisations  : 11520
 total energy-change (2. order) :-0.1068931E-02  (-0.1981745E-04)
 number of electron      24.0000000 magnetization 
 augmentation part       -0.0341591 magnetization 

 Broyden mixing:
  rms(total) = 0.34886E-03    rms(broyden)= 0.34884E-03
  rms(prec ) = 0.49425E-03
  weight for this iteration     100.00

 eigenvalues of (default mixing * dielectric matrix)
  average eigenvalue GAMMA=   2.8146
  8.5054  5.2954  2.9899  2.6799  2.2408  1.7374  0.9875  1.0168  1.4690  1.2235

 Free energy of the ion-electron system (eV)
  ---------------------------------------------------
  alpha Z        PSCENC =        13.28497877
  Ewald energy   TEWEN  =      1756.86243280
  -Hartree energ DENC   =     -2217.84292732
  -exchange      EXHF   =         0.00000000
  -V(xc)+E(xc)   XCENC  =        58.09537872
  PAW double counting   =      2366.05217784    -2359.94513259
  entropy T*S    EENTRO =        -0.00505410
  eigenvalues    EBANDS =      -236.32134233
  atomic energy  EATOM  =       569.35051449
  Solvation  Ediel_sol  =         0.00000000
  ---------------------------------------------------
  free energy    TOTEN  =       -50.46897372 eV

  energy without entropy =      -50.46391962  energy(sigma->0) =      -50.46644667


--------------------------------------------------------------------------------------------------------




--------------------------------------- Iteration      1(  16)  ---------------------------------------


    POTLOK:  cpu time      0.0214: real time      0.0227
    SETDIJ:  cpu time      0.0011: real time      0.0011
     EDDAV:  cpu time      4.4995: real time      4.5242
       DOS:  cpu time      0.0008: real time      0.0008
    CHARGE:  cpu time      0.1472: real time      0.1491
    MIXING:  cpu time      0.0010: real time      0.0010
    --------------------------------------------
      LOOP:  cpu time      4.6708: real time      4.6988

 eigenvalue-minimisations  : 11616
 total energy-change (2. order) :-0.1001822E-03  (-0.6302887E-06)
 number of electron      24.0000000 magnetization 
 augmentation part       -0.0341584 magnetization 

 Broyden mixing:
  rms(total) = 0.19660E-03    rms(broyden)= 0.19660E-03
  rms(prec ) = 0.26771E-03
  weight for this iteration     100.00

 eigenvalues of (default mixing * dielectric matrix)
  average eigenvalue GAMMA=   2.9187
  9.5117  5.7175  3.5934  2.7234  2.5113  2.1916  1.6936  1.1987  1.0007  1.0007
  0.9634

 Free energy of the ion-electron system (eV)
  ---------------------------------------------------
  alpha Z        PSCENC =        13.28497877
  Ewald energy   TEWEN  =      1756.86243280
  -Hartree energ DENC   =     -2217.75987710
  -exchange      EXHF   =         0.00000000
  -V(xc)+E(xc)   XCENC  =        58.09349840
  PAW double counting   =      2365.63778625    -2359.53100766
  entropy T*S    EENTRO =        -0.00505336
  eigenvalues    EBANDS =      -236.40234649
  atomic energy  EATOM  =       569.35051449
  Solvation  Ediel_sol  =         0.00000000
  ---------------------------------------------------
  free energy    TOTEN  =       -50.46907390 eV

  energy without entropy =      -50.46402054  energy(sigma->0) =      -50.46654722


--------------------------------------------------------------------------------------------------------




--------------------------------------- Iteration      1(  17)  ---------------------------------------


    POTLOK:  cpu time      0.0142: real time      0.0166
    SETDIJ:  cpu time      0.0011: real time      0.0011
     EDDAV:  cpu time      3.6128: real time      3.6367
       DOS:  cpu time      0.0008: real time      0.0008
    CHARGE:  cpu time      0.1470: real time      0.1487
    MIXING:  cpu time      0.0009: real time      0.0009
    --------------------------------------------
      LOOP:  cpu time      3.7767: real time      3.8047

 eigenvalue-minimisations  :  9552
 total energy-change (2. order) :-0.5255799E-04  (-0.2723441E-06)
 number of electron      24.0000000 magnetization 
 augmentation part       -0.0341578 magnetization 

 Broyden mixing:
  rms(total) = 0.32981E-04    rms(broyden)= 0.32979E-04
  rms(prec ) = 0.45296E-04
  weight for this iteration     100.00

 eigenvalues of (default mixing * dielectric matrix)
  average eigenvalue GAMMA=   2.8446
  9.4068  5.8487  3.7376  2.9833  2.4661  2.1476  1.6639  1.6639  1.2045  0.9916
  0.9916  1.0293

 Free energy of the ion-electron system (eV)
  ---------------------------------------------------
  alpha Z        PSCENC =        13.28497877
  Ewald energy   TEWEN  =      1756.86243280
  -Hartree energ DENC   =     -2217.79188831
  -exchange      EXHF   =         0.00000000
  -V(xc)+E(xc)   XCENC  =        58.09393456
  PAW double counting   =      2366.08547263    -2359.97860542
  entropy T*S    EENTRO =        -0.00505382
  eigenvalues    EBANDS =      -236.37091215
  atomic energy  EATOM  =       569.35051449
  Solvation  Ediel_sol  =         0.00000000
  ---------------------------------------------------
  free energy    TOTEN  =       -50.46912646 eV

  energy without entropy =      -50.46407263  energy(sigma->0) =      -50.46659954


--------------------------------------------------------------------------------------------------------




--------------------------------------- Iteration      1(  18)  ---------------------------------------


    POTLOK:  cpu time      0.0149: real time      0.0312
    SETDIJ:  cpu time      0.0010: real time      0.0010
     EDDAV:  cpu time      4.3384: real time      4.3686
       DOS:  cpu time      0.0008: real time      0.0008
    CHARGE:  cpu time      0.1493: real time      0.1504
    MIXING:  cpu time      0.0010: real time      0.0010
    --------------------------------------------
      LOOP:  cpu time      4.5054: real time      4.5530

 eigenvalue-minimisations  : 11232
 total energy-change (2. order) :-0.5080038E-05  (-0.1597849E-07)
 number of electron      24.0000000 magnetization 
 augmentation part       -0.0341592 magnetization 

 Broyden mixing:
  rms(total) = 0.19194E-04    rms(broyden)= 0.19193E-04
  rms(prec ) = 0.22499E-04
  weight for this iteration     100.00

 eigenvalues of (default mixing * dielectric matrix)
  average eigenvalue GAMMA=   2.7978
  9.4514  5.8756  3.7808  3.0655  2.5436  2.5436  2.1949  1.6948  1.1916  0.9754
  0.9907  1.0317  1.0317

 Free energy of the ion-electron system (eV)
  ---------------------------------------------------
  alpha Z        PSCENC =        13.28497877
  Ewald energy   TEWEN  =      1756.86243280
  -Hartree energ DENC   =     -2217.79993013
  -exchange      EXHF   =         0.00000000
  -V(xc)+E(xc)   XCENC  =        58.09404937
  PAW double counting   =      2366.06520343    -2359.95834944
  entropy T*S    EENTRO =        -0.00505385
  eigenvalues    EBANDS =      -236.36297698
  atomic energy  EATOM  =       569.35051449
  Solvation  Ediel_sol  =         0.00000000
  ---------------------------------------------------
  free energy    TOTEN  =       -50.46913154 eV

  energy without entropy =      -50.46407769  energy(sigma->0) =      -50.46660461


--------------------------------------------------------------------------------------------------------




--------------------------------------- Iteration      1(  19)  ---------------------------------------


    POTLOK:  cpu time      0.0222: real time      0.0309
    SETDIJ:  cpu time      0.0011: real time      0.0011
     EDDAV:  cpu time      3.8721: real time      3.9048
       DOS:  cpu time      0.0008: real time      0.0008
    CHARGE:  cpu time      0.1481: real time      0.1490
    MIXING:  cpu time      0.0010: real time      0.0010
    --------------------------------------------
      LOOP:  cpu time      4.0453: real time      4.0875

 eigenvalue-minimisations  : 10224
 total energy-change (2. order) :-0.1164491E-05  (-0.3700905E-08)
 number of electron      24.0000000 magnetization 
 augmentation part       -0.0341584 magnetization 

 Broyden mixing:
  rms(total) = 0.31504E-05    rms(broyden)= 0.31485E-05
  rms(prec ) = 0.39338E-05
  weight for this iteration     100.00

 eigenvalues of (default mixing * dielectric matrix)
  average eigenvalue GAMMA=   2.7413
  9.4574  5.8799  3.7940  3.1447  2.6731  2.5003  2.0972  1.9613  1.6965  1.1972
  0.9936  0.9936  1.0151  0.9741

 Free energy of the ion-electron system (eV)
  ---------------------------------------------------
  alpha Z        PSCENC =        13.28497877
  Ewald energy   TEWEN  =      1756.86243280
  -Hartree energ DENC   =     -2217.79729810
  -exchange      EXHF   =         0.00000000
  -V(xc)+E(xc)   XCENC  =        58.09399809
  PAW double counting   =      2366.07298788    -2359.96611417
  entropy T*S    EENTRO =        -0.00505387
  eigenvalues    EBANDS =      -236.36557859
  atomic energy  EATOM  =       569.35051449
  Solvation  Ediel_sol  =         0.00000000
  ---------------------------------------------------
  free energy    TOTEN  =       -50.46913270 eV

  energy without entropy =      -50.46407883  energy(sigma->0) =      -50.46660577


--------------------------------------------------------------------------------------------------------




--------------------------------------- Iteration      1(  20)  ---------------------------------------


    POTLOK:  cpu time      0.0227: real time      0.0240
    SETDIJ:  cpu time      0.0011: real time      0.0011
     EDDAV:  cpu time      3.4055: real time      3.4277
       DOS:  cpu time      0.0008: real time      0.0008
    --------------------------------------------
      LOOP:  cpu time      3.4300: real time      3.4535

 eigenvalue-minimisations  :  9120
 total energy-change (2. order) :-0.1415435E-06  (-0.2869536E-09)
 number of electron      24.0000000 magnetization 
 augmentation part       -0.0341584 magnetization 

 Free energy of the ion-electron system (eV)
  ---------------------------------------------------
  alpha Z        PSCENC =        13.28497877
  Ewald energy   TEWEN  =      1756.86243280
  -Hartree energ DENC   =     -2217.79743216
  -exchange      EXHF   =         0.00000000
  -V(xc)+E(xc)   XCENC  =        58.09400119
  PAW double counting   =      2366.07779435    -2359.97092086
  entropy T*S    EENTRO =        -0.00505387
  eigenvalues    EBANDS =      -236.36544755
  atomic energy  EATOM  =       569.35051449
  Solvation  Ediel_sol  =         0.00000000
  ---------------------------------------------------
  free energy    TOTEN  =       -50.46913284 eV

  energy without entropy =      -50.46407897  energy(sigma->0) =      -50.46660591


--------------------------------------------------------------------------------------------------------




 average (electrostatic) potential at core
  the test charge radii are     0.7672
  (the norm of the test charge is              1.0000)
       1 -35.5004       2 -35.5005       3 -35.5005       4 -35.5004       5 -35.5006
       6 -35.5004       7 -36.7168       8 -36.7168
 
 
 
 E-fermi :  -2.2216     XC(G=0):  -2.9206     alpha+bet : -2.6791

 Fermi energy:        -2.2216414518

 k-point     1 :       0.0000    0.0000    0.0000
  band No.  band energies     occupation 
      1     -17.8889      2.00000
      2     -13.7322      2.00000
      3     -13.6484      2.00000
      4     -13.6484      2.00000
      5     -11.4839      2.00000
      6     -11.4839      2.00000
      7      -9.4134      2.00000
      8      -8.7302      2.00000
      9      -3.8273      2.00000
     10      -3.8273      2.00000
     11      -2.2976      1.71719
     12      -1.7301      0.00000
     13      -1.7301      0.00000
     14      -1.5132      0.00000
     15      -1.5132      0.00000
     16      -1.2557      0.00000
     17      -1.2557      0.00000
     18       0.7817      0.00000
     19       1.6282      0.00000
     20       2.3777      0.00000
     21       2.5174      0.00000
     22       4.3971      0.00000
     23       4.9485      0.00000
     24       5.6969      0.00000
     25       6.3539      0.00000
     26       6.3539      0.00000
     27       6.5930      0.00000
     28       7.5209      0.00000
     29       7.5209      0.00000
     30       8.0519      0.00000
     31       8.3529      0.00000
     32       8.6080      0.00000
     33       9.0124      0.00000
     34       9.1042      0.00000
     35       9.3170      0.00000
     36       9.3629      0.00000
     37       9.3629      0.00000
     38       9.3861      0.00000
     39       9.4354      0.00000
     40       9.4356      0.00000
     41       9.5009      0.00000
     42       9.5349      0.00000
     43       9.5350      0.00000
     44       9.5711      0.00000
     45       9.5711      0.00000
     46      10.3397      0.00000
     47      10.3460      0.00000
     48      10.4150      0.00000

 k-point     2 :       0.0588    0.0000    0.0000
  band No.  band energies     occupation 
      1     -17.8731      2.00000
[...]
     33       6.8194      0.00000
     34       6.9135      0.00000
     35       7.3497      0.00000
     36       7.7196      0.00000
     37       8.2266      0.00000
     38       8.2937      0.00000
     39       8.9369      0.00000
     40      10.0128      0.00000
     41      10.0544      0.00000
     42      10.2268      0.00000
     43      10.4910      0.00000
     44      10.7366      0.00000
     45      11.0411      0.00000
     46      11.1842      0.00000
     47      11.3958      0.00000
     48      11.5322      0.00000

 k-point    76 :      -0.2353   -0.4118    0.0000
  band No.  band energies     occupation 
      1     -16.8771      2.00000
      2     -16.4118      2.00000
      3     -14.5496      2.00000
      4     -11.6277      2.00000
      5     -10.8346      2.00000
      6      -9.6439      2.00000
      7      -9.4419      2.00000
      8      -7.1189      2.00000
      9      -6.4413      2.00000
     10      -6.3794      2.00000
     11      -6.0107      2.00000
     12      -4.6117      2.00000
     13      -0.1901      0.00000
     14       1.1505      0.00000
     15       1.3779      0.00000
     16       1.5136      0.00000
     17       2.2483      0.00000
     18       2.6660      0.00000
     19       2.7151      0.00000
     20       3.1849      0.00000
     21       3.8403      0.00000
     22       4.0555      0.00000
     23       4.3023      0.00000
     24       4.4256      0.00000
     25       4.6184      0.00000
     26       4.8608      0.00000
     27       4.8797      0.00000
     28       5.2011      0.00000
     29       5.2189      0.00000
     30       5.7600      0.00000
     31       6.3698      0.00000
     32       6.7497      0.00000
     33       6.8194      0.00000
     34       6.9135      0.00000
     35       7.3497      0.00000
     36       7.7196      0.00000
     37       8.2266      0.00000
     38       8.2937      0.00000
     39       8.9369      0.00000
     40      10.0128      0.00000
     41      10.0544      0.00000
     42      10.2268      0.00000
     43      10.4910      0.00000
     44      10.7365      0.00000
     45      11.0410      0.00000
     46      11.1843      0.00000
     47      11.3958      0.00000
     48      11.5321      0.00000

 k-point    77 :       0.4118    0.3529    0.0000
  band No.  band energies     occupation 
      1     -16.8771      2.00000
      2     -16.4118      2.00000
      3     -14.5496      2.00000
      4     -11.6277      2.00000
      5     -10.8346      2.00000
      6      -9.6439      2.00000
      7      -9.4419      2.00000
      8      -7.1189      2.00000
      9      -6.4413      2.00000
     10      -6.3794      2.00000
     11      -6.0107      2.00000
     12      -4.6117      2.00000
     13      -0.1901      0.00000
     14       1.1505      0.00000
     15       1.3779      0.00000
     16       1.5136      0.00000
     17       2.2483      0.00000
     18       2.6660      0.00000
     19       2.7151      0.00000
     20       3.1849      0.00000
     21       3.8403      0.00000
     22       4.0555      0.00000
     23       4.3023      0.00000
     24       4.4256      0.00000
     25       4.6184      0.00000
     26       4.8608      0.00000
     27       4.8797      0.00000
     28       5.2011      0.00000
     29       5.2189      0.00000
     30       5.7600      0.00000
     31       6.3698      0.00000
     32       6.7497      0.00000
     33       6.8194      0.00000
     34       6.9135      0.00000
     35       7.3497      0.00000
     36       7.7197      0.00000
     37       8.2266      0.00000
     38       8.2937      0.00000
     39       8.9369      0.00000
     40      10.0128      0.00000
     41      10.0545      0.00000
     42      10.2268      0.00000
     43      10.4910      0.00000
     44      10.7365      0.00000
     45      11.0410      0.00000
     46      11.1843      0.00000
     47      11.3958      0.00000
     48      11.5322      0.00000

 k-point    78 :       0.2941    0.2941    0.0000
  band No.  band energies     occupation 
      1     -16.8525      2.00000
      2     -16.4294      2.00000
      3     -14.5940      2.00000
      4     -11.3731      2.00000
      5     -11.0360      2.00000
      6      -9.6211      2.00000
      7      -9.5173      2.00000
      8      -7.0904      2.00000
      9      -6.4337      2.00000
     10      -6.2135      2.00000
     11      -6.1206      2.00000
     12      -4.7154      2.00000
     13       0.2431      0.00000
     14       0.9570      0.00000
     15       1.0871      0.00000
     16       1.5080      0.00000
     17       2.1534      0.00000
     18       2.6137      0.00000
     19       2.6986      0.00000
     20       3.4355      0.00000
     21       3.7609      0.00000
     22       3.8150      0.00000
     23       4.3974      0.00000
     24       4.6821      0.00000
     25       4.7699      0.00000
     26       4.7997      0.00000
     27       4.8971      0.00000
     28       5.2674      0.00000
     29       5.3287      0.00000
     30       5.3413      0.00000
     31       6.3463      0.00000
     32       6.8736      0.00000
     33       7.2377      0.00000
     34       7.2527      0.00000
     35       7.2850      0.00000
     36       7.5130      0.00000
     37       7.8260      0.00000
     38       7.8883      0.00000
     39       9.2811      0.00000
     40       9.7903      0.00000
     41      10.1109      0.00000
     42      10.1185      0.00000
     43      10.6943      0.00000
     44      11.0903      0.00000
     45      11.2187      0.00000
     46      11.4103      0.00000
     47      11.5520      0.00000
     48      11.7471      0.00000

 k-point    79 :      -0.2941   -0.4118    0.0000
  band No.  band energies     occupation 
      1     -16.8525      2.00000
      2     -16.4294      2.00000
      3     -14.5940      2.00000
      4     -11.3731      2.00000
      5     -11.0360      2.00000
      6      -9.6211      2.00000
      7      -9.5174      2.00000
      8      -7.0904      2.00000
      9      -6.4337      2.00000
     10      -6.2135      2.00000
     11      -6.1206      2.00000
     12      -4.7154      2.00000
     13       0.2431      0.00000
     14       0.9570      0.00000
     15       1.0871      0.00000
     16       1.5080      0.00000
     17       2.1534      0.00000
     18       2.6137      0.00000
     19       2.6986      0.00000
     20       3.4355      0.00000
     21       3.7609      0.00000
     22       3.8150      0.00000
     23       4.3974      0.00000
     24       4.6821      0.00000
     25       4.7699      0.00000
     26       4.7997      0.00000
     27       4.8972      0.00000
     28       5.2670      0.00000
     29       5.3290      0.00000
     30       5.3413      0.00000
     31       6.3463      0.00000
     32       6.8736      0.00000
     33       7.2373      0.00000
     34       7.2532      0.00000
     35       7.2850      0.00000
     36       7.5130      0.00000
     37       7.8259      0.00000
     38       7.8884      0.00000
     39       9.2811      0.00000
     40       9.7903      0.00000
     41      10.1109      0.00000
     42      10.1185      0.00000
     43      10.6943      0.00000
     44      11.0903      0.00000
     45      11.2188      0.00000
     46      11.4102      0.00000
     47      11.5520      0.00000
     48      11.7470      0.00000

 k-point    80 :       0.3529    0.2941    0.0000
  band No.  band energies     occupation 
      1     -16.7352      2.00000
      2     -16.5532      2.00000
      3     -14.6274      2.00000
      4     -11.2822      2.00000
      5     -10.9857      2.00000
      6      -9.6752      2.00000
      7      -9.5783      2.00000
      8      -6.8972      2.00000
      9      -6.6282      2.00000
     10      -6.2193      2.00000
     11      -6.0923      2.00000
     12      -4.7835      2.00000
     13       0.4254      0.00000
     14       1.0306      0.00000
     15       1.1796      0.00000
     16       1.3321      0.00000
     17       2.0844      0.00000
     18       2.3292      0.00000
     19       3.0015      0.00000
     20       3.1709      0.00000
     21       3.6580      0.00000
     22       4.2065      0.00000
     23       4.2818      0.00000
     24       4.7095      0.00000
     25       4.7846      0.00000
     26       4.8471      0.00000
     27       5.1512      0.00000
     28       5.1517      0.00000
     29       5.2607      0.00000
     30       5.2709      0.00000
     31       6.7538      0.00000
     32       6.7845      0.00000
     33       7.0582      0.00000
     34       7.1702      0.00000
     35       7.2212      0.00000
     36       7.4108      0.00000
     37       7.7022      0.00000
     38       7.8074      0.00000
     39       9.3530      0.00000
     40       9.7361      0.00000
     41      10.1399      0.00000
     42      10.3254      0.00000
     43      10.7421      0.00000
     44      11.0308      0.00000
     45      11.3801      0.00000
     46      11.4112      0.00000
     47      11.5111      0.00000
     48      11.8249      0.00000

 k-point    81 :       0.3529    0.3529    0.0000
  band No.  band energies     occupation 
      1     -16.7351      2.00000
      2     -16.5532      2.00000
      3     -14.6274      2.00000
      4     -11.2822      2.00000
      5     -10.9857      2.00000
      6      -9.6752      2.00000
      7      -9.5783      2.00000
      8      -6.8972      2.00000
      9      -6.6282      2.00000
     10      -6.2193      2.00000
     11      -6.0922      2.00000
     12      -4.7835      2.00000
     13       0.4254      0.00000
     14       1.0306      0.00000
     15       1.1796      0.00000
     16       1.3321      0.00000
     17       2.0844      0.00000
     18       2.3292      0.00000
     19       3.0015      0.00000
     20       3.1709      0.00000
     21       3.6580      0.00000
     22       4.2064      0.00000
     23       4.2818      0.00000
     24       4.7095      0.00000
     25       4.7849      0.00000
     26       4.8467      0.00000
     27       5.1512      0.00000
     28       5.1517      0.00000
     29       5.2607      0.00000
     30       5.2710      0.00000
     31       6.7540      0.00000
     32       6.7844      0.00000
     33       7.0582      0.00000
     34       7.1702      0.00000
     35       7.2212      0.00000
     36       7.4108      0.00000
     37       7.7022      0.00000
     38       7.8074      0.00000
     39       9.3529      0.00000
     40       9.7361      0.00000
     41      10.1399      0.00000
     42      10.3255      0.00000
     43      10.7420      0.00000
     44      11.0310      0.00000
     45      11.3801      0.00000
     46      11.4111      0.00000
     47      11.5110      0.00000
     48      11.8252      0.00000


--------------------------------------------------------------------------------------------------------


 soft charge-density along one line, spin component           1
         0         1         2         3         4         5         6         7         8         9
 total charge-density along one line
 
 pseudopotential strength for first ion, spin component:           1
  6.792  10.368  -0.004  -0.000  -0.007  -0.007  -0.000  -0.012
 10.368  15.822  -0.006  -0.000  -0.011  -0.010  -0.000  -0.017
 -0.004  -0.006  -2.347   0.000   0.002  -4.036   0.000   0.005
 -0.000  -0.000   0.000  -2.341  -0.000   0.000  -4.023  -0.000
 -0.007  -0.011   0.002  -0.000  -2.344   0.005  -0.000  -4.030
 -0.007  -0.010  -4.036   0.000   0.005  -6.744   0.000   0.010
 -0.000  -0.000   0.000  -4.023  -0.000   0.000  -6.716  -0.000
 -0.012  -0.017   0.005  -0.000  -4.030   0.010  -0.000  -6.732
 total augmentation occupancy for first ion, spin component:           1
  3.651  -0.995  -0.189   0.000  -0.327   0.088  -0.000   0.153
 -0.995   0.289   0.105   0.000   0.183  -0.039  -0.000  -0.067
 -0.189   0.105   4.129  -0.000  -0.255  -1.165   0.000   0.116
  0.000   0.000  -0.000   1.767   0.000   0.000  -0.369  -0.000
 -0.327   0.183  -0.255   0.000   3.835   0.116  -0.000  -1.031
  0.088  -0.039  -1.165   0.000   0.116   0.338  -0.000  -0.044
 -0.000  -0.000   0.000  -0.369  -0.000  -0.000   0.081   0.000
  0.153  -0.067   0.116  -0.000  -1.031  -0.044   0.000   0.287


------------------------ aborting loop because EDIFF is reached ----------------------------------------


    CHARGE:  cpu time      0.1524: real time      0.1540
    FORLOC:  cpu time      0.0010: real time      0.0010
    FORNL :  cpu time      0.2938: real time      0.2946
    STRESS:  cpu time      2.0205: real time      2.0254
    FORCOR:  cpu time      0.0113: real time      0.0116
    FORHAR:  cpu time      0.0033: real time      0.0033
    MIXING:  cpu time      0.0008: real time      0.0008
    OFIELD:  cpu time      0.0000: real time      0.0000

 ---------------------------------------------------------------------------------------------

         DFTD3 V3.0 Rev 1        
 IVDW         = 12
 DF pbe       
 parameters
 VDW_S6       =    1.0000
 VDW_S8       =    0.7875
 VDW_A1       =    0.4289
 VDW_A2       =    4.4407
 k1-k3        =   16.0000    1.3333   -4.0000
 VDW_RADIUS   =   50.2022 A
 VDW_CNRADIUS =   21.1671 A
 Edisp (eV)   -0.66728

 E6    (eV) :    -0.4279
 E8    (eV) :    -0.2394
 % E8        : 35.88
    FORVDW:  cpu time      0.0175: real time      0.0176

  FORCE on cell =-STRESS in cart. coord.  units (eV):
  Direction    XX          YY          ZZ          XY          YZ          ZX
  --------------------------------------------------------------------------------------
  Alpha Z    13.28498    13.28498    13.28498
  Ewald    2352.61982  2352.61965 -2948.37789    -0.00000     0.00000    -0.00000
  Hartree  2203.92013  2203.92004 -2190.04226     0.00000    -0.00000    -0.00000
  E(xc)     -76.71365   -76.71365   -79.23341    -0.00000    -0.00000    -0.00000
  Local   -4727.91306 -4727.91282  4910.63467     0.00000    -0.00000     0.00000
  n-local    -9.98647    -9.98646   -13.91543    -0.24229     0.00007     0.00000
  augment     0.24378     0.24378     0.30026    -0.00000    -0.00000    -0.00000
  Kinetic   245.26868   245.26864   307.33677     0.19787    -0.00026    -0.00000
  Fock        0.00000     0.00000     0.00000     0.00000     0.00000     0.00000
  vdW        -0.69871    -0.69871    -0.00665     0.00000     0.00000    -0.00000
  -------------------------------------------------------------------------------------
  Total       0.02551     0.02545    -0.01898     0.00000     0.00000    -0.00000
  in kB       0.12332     0.12302    -0.09174     0.00000     0.00000    -0.00000
  external pressure =        0.05 kB  Pullay stress =        0.00 kB


 VOLUME and BASIS-vectors are now :
 -----------------------------------------------------------------------------
  energy-cutoff  :      450.00
  volume of cell :      331.42
      direct lattice vectors                 reciprocal lattice vectors
     4.374294000  2.525500000  0.000000000     0.114304160  0.197980598  0.000000000
    -4.374294000  2.525500000  0.000000000    -0.114304160  0.197980598  0.000000000
     0.000000000  0.000000000 15.000000000     0.000000000  0.000000000  0.066666667

  length of vectors
     5.050999728  5.050999728 15.000000000     0.228608307  0.228608307  0.066666667


 FORCES acting on ions
    electron-ion (+dipol)            ewald-force                    non-local-force                 convergence-correction
 -----------------------------------------------------------------------------------------------
   -.256E+02 -.148E+02 0.205E-06   0.283E+02 0.163E+02 0.764E-07   -.278E+01 -.161E+01 -.111E-08   0.623E-06 0.360E-06 0.624E-09
   0.256E+02 0.148E+02 0.176E-06   -.283E+02 -.163E+02 0.145E-06   0.278E+01 0.161E+01 0.111E-08   -.622E-06 -.361E-06 -.103E-08
   -.256E+02 0.148E+02 0.277E-05   0.283E+02 -.163E+02 -.145E-06   -.278E+01 0.161E+01 -.111E-08   0.622E-06 -.361E-06 0.622E-09
   0.256E+02 -.148E+02 0.267E-05   -.283E+02 0.163E+02 -.765E-07   0.278E+01 -.161E+01 0.111E-08   -.623E-06 0.361E-06 -.104E-08
   -.156E-04 0.295E+02 0.142E-05   0.142E-13 -.327E+02 -.627E-11   0.119E-15 0.321E+01 -.593E-20   0.124E-09 -.721E-06 -.206E-09
   -.157E-04 -.295E+02 0.137E-05   0.142E-13 0.327E+02 -.627E-11   0.657E-16 -.321E+01 -.339E-20   0.125E-09 0.722E-06 -.207E-09
   -.266E-03 0.863E-04 0.158E+00   0.211E-03 0.309E-03 -.163E+00   0.331E-04 0.107E-17 0.500E-02   0.183E-08 0.436E-09 -.160E-07
   0.131E-03 0.863E-04 -.158E+00   -.211E-03 0.309E-03 0.163E+00   -.331E-04 -.348E-18 -.500E-02   -.207E-08 0.436E-09 0.155E-07
 -----------------------------------------------------------------------------------------------
   -.672E-03 0.674E-03 0.113E-04   -.373E-14 0.320E-15 0.666E-15   0.630E-15 0.727E-18 0.000E+00   -.228E-09 0.725E-09 -.166E-08
 
 
 POSITION                                       TOTAL-FORCE (eV/Angst)
 -----------------------------------------------------------------------------------
      2.92610      1.68939      1.50000        -0.023315     -0.013455     -0.000000
      1.44819      0.83611      1.50000         0.023315      0.013455      0.000000
     -1.44819      0.83611      1.50000        -0.023315      0.013455     -0.000000
     -2.92610      1.68939      1.50000         0.023315     -0.013455      0.000000
      0.00000      1.67222      1.50000         0.000000      0.026901     -0.000000
     -0.00000      3.37877      1.50000        -0.000000     -0.026901      0.000000
      1.45810      2.52550      1.49934         0.000046     -0.000000      0.000028
     -1.45810      2.52550      1.50066        -0.000046     -0.000000     -0.000028
 -----------------------------------------------------------------------------------
    total drift:                               -0.000672      0.000674      0.000011


--------------------------------------------------------------------------------------------------------



  FREE ENERGIE OF THE ION-ELECTRON SYSTEM (eV)
  ---------------------------------------------------
  free  energy   TOTEN  =       -51.13641419 eV

  energy  without entropy=      -51.13136032  energy(sigma->0) =      -51.13388725
 


--------------------------------------------------------------------------------------------------------


    POTLOK:  cpu time      0.0156: real time      0.0165


--------------------------------------------------------------------------------------------------------


 stress matrix after NEB project (eV)
      0.02551      0.00000     -0.00000
      0.00000      0.02545      0.00000
     -0.00000      0.00000     -0.01898
  FORCES: max atom, RMS     0.026919    0.023308
  FORCE total and by dimension    0.065924    0.026901
  Stress total and by dimension    0.040722    0.025508
 writing wavefunctions
     LOOP+:  cpu time     95.7024: real time     96.6380
    4ORBIT:  cpu time      0.0000: real time      0.0000

 total amount of memory used by VASP MPI-rank0    86723. kBytes
=======================================================================

   base      :      30000. kBytes
   nonl-proj :      38501. kBytes
   fftplans  :       1560. kBytes
   grid      :       7121. kBytes
   one-center:         24. kBytes
   wavefun   :       9517. kBytes
 
  
  
 General timing and accounting informations for this job:
 ========================================================
  
                  Total CPU time used (sec):      101.627
                            User time (sec):       97.979
                          System time (sec):        3.649
                         Elapsed time (sec):      104.829
  
                   Maximum memory used (kb):      612456.
                   Average memory used (kb):          N/A
  
                          Minor page faults:       177941
                          Major page faults:         1490
                 Voluntary context switches:         7279
