BC3                                     
           1
     4.476485    2.584500    0.000000
    -4.476485    2.584500    0.000000
     0.000000    0.000000   15.000000
   B    C 
   2   6
Direct configuration=     1
   0.33833034  0.66916432  0.25000000
   0.67165522  0.33584146  0.25000000
   0.16373946  0.31999962  0.25000000
   0.32250218  0.16126397  0.25000000
   0.16376430  0.84376384  0.25000000
   0.84623863  0.16123684  0.25000000
   0.68749850  0.84373000  0.25000000
   0.84626736  0.68499594  0.25000000
Direct configuration=     2
   0.33833608  0.66916672  0.25000000
   0.67168030  0.33582103  0.25000000
   0.16300524  0.31853241  0.25000000
   0.32102538  0.16052191  0.25000000
   0.16303254  0.84448855  0.25000000
   0.84696119  0.16051002  0.25000000
   0.68897300  0.84448538  0.25000000
   0.84698228  0.68646998  0.25000000
Direct configuration=     3
   0.33833218  0.66916509  0.25000000
   0.67166324  0.33583493  0.25000000
   0.16350468  0.31953044  0.25000000
   0.32202994  0.16102667  0.25000000
   0.16353030  0.84399559  0.25000000
   0.84646969  0.16100442  0.25000000
   0.68797001  0.84397156  0.25000000
   0.84649597  0.68546731  0.25000000
