 vasp.5.4.4.18Apr17-6-g9f103f2a35 (build Mar 30 2023 15:39:25) complex          
  
 executed on             LinuxIFC date 2023.07.19  12:40:55
 running on   16 total cores
 distrk:  each k-point on   16 cores,    1 groups
 distr:  one band on NCORES_PER_BAND=   1 cores,   16 groups


--------------------------------------------------------------------------------------------------------


 INCAR:
 POTCAR:    PAW_PBE B 06Sep2000                   
 POTCAR:    PAW_PBE C 08Apr2002                   

 ----------------------------------------------------------------------------- 
|                                                                             |
|           W    W    AA    RRRRR   N    N  II  N    N   GGGG   !!!           |
|           W    W   A  A   R    R  NN   N  II  NN   N  G    G  !!!           |
|           W    W  A    A  R    R  N N  N  II  N N  N  G       !!!           |
|           W WW W  AAAAAA  RRRRR   N  N N  II  N  N N  G  GGG   !            |
|           WW  WW  A    A  R   R   N   NN  II  N   NN  G    G                |
|           W    W  A    A  R    R  N    N  II  N    N   GGGG   !!!           |
|                                                                             |
|      For optimal performance we recommend to set                            |
|        NCORE= 4 - approx SQRT( number of cores)                             |
|      NCORE specifies how many cores store one orbital (NPAR=cpu/NCORE).     |
|      This setting can  greatly improve the performance of VASP for DFT.     |
|      The default,   NCORE=1            might be grossly inefficient         |
|      on modern multi-core architectures or massively parallel machines.     |
|      Do your own testing !!!!                                               |
|      Unfortunately you need to use the default for GW and RPA calculations. |
|      (for HF NCORE is supported but not extensively tested yet)             |
|                                                                             |
 ----------------------------------------------------------------------------- 

 POTCAR:    PAW_PBE B 06Sep2000                   
   SHA256 =  a32ced30f5ae56fd4d10b4325ff17eb3e4e38ee0f4288bc219fb012fddfa6e97 B/
   COPYR  = (c) Copyright 06Sep2000 Georg Kresse                                
   COPYR  = This file is part of the software VASP. Any use, copying, and all ot
   COPYR  = If you do not have a valid VASP license, you may not use, copy or di
   VRHFIN =B: s2p1                                                              
   LEXCH  = PE                                                                  
   EATOM  =    71.1703 eV,    5.2309 Ry                                         
                                                                                
   TITEL  = PAW_PBE B 06Sep2000                                                 
   LULTRA =        F    use ultrasoft PP ?                                      
   IUNSCR =        1    unscreen: 0-lin 1-nonlin 2-no                           
   RPACOR =    1.200    partial core radius                                     
   POMASS =   10.811; ZVAL   =    3.000    mass and valenz                      
   RCORE  =    1.700    outmost cutoff radius                                   
   RWIGS  =    1.710; RWIGS  =    0.905    wigner-seitz radius (au A)           
   ENMAX  =  318.614; ENMIN  =  238.960 eV                                      
   ICORE  =        2    local potential                                         
   LCOR   =        T    correct aug charges                                     
   LPAW   =        T    paw PP                                                  
   EAUG   =  535.514                                                            
   DEXC   =    0.000                                                            
   RMAX   =    1.732    core radius for proj-oper                               
   RAUG   =    1.300    factor for augmentation sphere                          
   RDEP   =    1.757    radius for radial grids                                 
   RDEPT  =    1.436    core radius for aug-charge                              
                                                                                
   Atomic configuration                                                         
    4 entries                                                                   
     n  l   j            E        occ.                                          
     1  0  0.50      -180.5896   2.0000                                         
     2  0  0.50        -9.4431   2.0000                                         
     2  1  0.50        -3.6068   1.0000                                         
     3  2  1.50        -4.0817   0.0000                                         
   Description                                                                  
     l       E           TYP  RCUT    TYP  RCUT                                 
     0     -9.4430752     23  1.500                                             
     0      0.8675899     23  1.500                                             
     1     -3.6067955     23  1.700                                             
     1      6.1086146     23  1.700                                             
     2     -4.0817478      7  1.700                                             
  local pseudopotential read in
  partial core-charges read in
  partial kinetic energy density read in
  atomic valenz-charges read in
  non local Contribution for L=           0  read in
    real space projection operators read in
  non local Contribution for L=           0  read in
    real space projection operators read in
  non local Contribution for L=           1  read in
    real space projection operators read in
  non local Contribution for L=           1  read in
    real space projection operators read in
    PAW grid and wavefunctions read in
 
   number of l-projection  operators is LMAX  =           4
   number of lm-projection operators is LMMAX =           8
 
 POTCAR:    PAW_PBE C 08Apr2002                   
   SHA256 =  253f7b50bb8d59471dbedb8285d89021f4a42ed1a2c5d38a03a736e69125dd95 C/
   COPYR  = (c) Copyright 08Apr2002 Georg Kresse                                
   COPYR  = This file is part of the software VASP. Any use, copying, and all ot
   COPYR  = If you do not have a valid VASP license, you may not use, copy or di
   VRHFIN =C: s2p2                                                              
   LEXCH  = PE                                                                  
   EATOM  =   147.1560 eV,   10.8157 Ry                                         
                                                                                
   TITEL  = PAW_PBE C 08Apr2002                                                 
   LULTRA =        F    use ultrasoft PP ?                                      
   IUNSCR =        1    unscreen: 0-lin 1-nonlin 2-no                           
   RPACOR =    1.200    partial core radius                                     
   POMASS =   12.011; ZVAL   =    4.000    mass and valenz                      
   RCORE  =    1.500    outmost cutoff radius                                   
   RWIGS  =    1.630; RWIGS  =    0.863    wigner-seitz radius (au A)           
   ENMAX  =  400.000; ENMIN  =  300.000 eV                                      
   ICORE  =        2    local potential                                         
   LCOR   =        T    correct aug charges                                     
   LPAW   =        T    paw PP                                                  
   EAUG   =  644.873                                                            
   DEXC   =    0.000                                                            
   RMAX   =    1.529    core radius for proj-oper                               
   RAUG   =    1.300    factor for augmentation sphere                          
   RDEP   =    1.501    radius for radial grids                                 
   RDEPT  =    1.300    core radius for aug-charge                              
                                                                                
   Atomic configuration                                                         
    4 entries                                                                   
     n  l   j            E        occ.                                          
     1  0  0.50      -273.3789   2.0000                                         
     2  0  0.50       -13.7508   2.0000                                         
     2  1  0.50        -5.2854   2.0000                                         
     3  2  1.50        -5.4423   0.0000                                         
   Description                                                                  
     l       E           TYP  RCUT    TYP  RCUT                                 
     0    -13.7508458     23  1.200                                             
     0     -8.2022199     23  1.200                                             
     1     -5.2854383     23  1.500                                             
     1     34.0145650     23  1.500                                             
     2     -5.4423304      7  1.500                                             
  local pseudopotential read in
  partial core-charges read in
  partial kinetic energy density read in
  atomic valenz-charges read in
  non local Contribution for L=           0  read in
    real space projection operators read in
  non local Contribution for L=           0  read in
    real space projection operators read in
  non local Contribution for L=           1  read in
    real space projection operators read in
  non local Contribution for L=           1  read in
    real space projection operators read in
    PAW grid and wavefunctions read in
 
   number of l-projection  operators is LMAX  =           4
   number of lm-projection operators is LMMAX =           8
 
  PAW_PBE B 06Sep2000                   :
 energy of atom  1       EATOM=  -71.1703
 kinetic energy error for atom=    0.0015 (will be added to EATOM!!)
  PAW_PBE C 08Apr2002                   :
 energy of atom  2       EATOM= -147.1560
 kinetic energy error for atom=    0.0116 (will be added to EATOM!!)
 
 
 POSCAR: BC3 with lattice parameter 5.169        
  positions in direct lattice
  velocities in cartesian coordinates
 exchange correlation table for  LEXCH =        8
   RHO(1)=    0.500       N(1)  =     2000
   RHO(2)=  100.500       N(2)  =     4000
 


--------------------------------------------------------------------------------------------------------


 ion  position               nearest neighbor table
   1  0.338  0.669  0.250-   3 1.56   5 1.56   7 1.56
   2  0.672  0.336  0.250-   4 1.56   8 1.56   6 1.56
   3  0.164  0.320  0.250-   4 1.42   6 1.42   1 1.56
   4  0.323  0.161  0.250-   3 1.42   5 1.42   2 1.56
   5  0.164  0.844  0.250-   8 1.42   4 1.42   1 1.56
   6  0.846  0.161  0.250-   3 1.42   7 1.42   2 1.56
   7  0.687  0.844  0.250-   8 1.42   6 1.42   1 1.56
   8  0.846  0.685  0.250-   5 1.42   7 1.42   2 1.56
 
  LATTYP: Found a hexagonal cell.
 ALAT       =     5.1690000000
 C/A-ratio  =     2.9019152641
  
  Lattice vectors:
  
 A1 = (   4.4764850000,   2.5845000000,   0.0000000000)
 A2 = (  -4.4764850000,   2.5845000000,   0.0000000000)
 A3 = (   0.0000000000,   0.0000000000,  15.0000000000)


Analysis of symmetry for initial positions (statically):
=====================================================================
 Subroutine PRICEL returns:
 Original cell was already a primitive cell.
 

 Routine SETGRP: Setting up the symmetry group for a 
 hexagonal supercell.


 Subroutine GETGRP returns: Found  2 space group operations
 (whereof  1 operations were pure point group operations)
 out of a pool of 24 trial point group operations.


The static configuration has the point symmetry C_1 .
 The point group associated with its full space group is C_1h.


Analysis of symmetry for dynamics (positions and initial velocities):
=====================================================================
 Subroutine PRICEL returns:
 Original cell was already a primitive cell.
 

 Routine SETGRP: Setting up the symmetry group for a 
 hexagonal supercell.


 Subroutine GETGRP returns: Found  2 space group operations
 (whereof  1 operations were pure point group operations)
 out of a pool of 24 trial point group operations.


The dynamic configuration has the point symmetry C_1 .
 The point group associated with its full space group is C_1h.


 Subroutine INISYM returns: Found  2 space group operations
 (whereof  1 operations are pure point group operations),
 and found     1 'primitive' translations

 
 
 KPOINTS: k-points                                

Automatic generation of k-mesh.
Space group operators:
 irot       det(A)        alpha          n_x          n_y          n_z        tau_x        tau_y        tau_z
    1     1.000000     0.000000     1.000000     0.000000     0.000000     0.000000     0.000000     0.000000
    2    -1.000000   180.000000     0.000000     0.000000     1.000000     0.000000     0.000000     0.500000
 
 Subroutine IBZKPT returns following result:
 ===========================================
 
 Found    164 irreducible k-points:
 
 Following reciprocal coordinates:
            Coordinates               Weight
  0.000000  0.000000  0.000000      1.000000
  0.055556  0.000000  0.000000      2.000000
  0.111111  0.000000  0.000000      2.000000
  0.166667  0.000000  0.000000      2.000000
  0.222222  0.000000  0.000000      2.000000
  0.277778  0.000000  0.000000      2.000000
  0.333333  0.000000  0.000000      2.000000
  0.388889  0.000000  0.000000      2.000000
  0.444444  0.000000  0.000000      2.000000
  0.500000  0.000000  0.000000      1.000000
  0.000000  0.055556  0.000000      2.000000
  0.055556  0.055556  0.000000      2.000000
  0.111111  0.055556  0.000000      2.000000
  0.166667  0.055556  0.000000      2.000000
  0.222222  0.055556  0.000000      2.000000
  0.277778  0.055556  0.000000      2.000000
  0.333333  0.055556  0.000000      2.000000
  0.388889  0.055556  0.000000      2.000000
  0.444444  0.055556  0.000000      2.000000
  0.500000  0.055556  0.000000      2.000000
 -0.444444  0.055556  0.000000      2.000000
 -0.388889  0.055556  0.000000      2.000000
 -0.333333  0.055556  0.000000      2.000000
 -0.277778  0.055556  0.000000      2.000000
 -0.222222  0.055556  0.000000      2.000000
 -0.166667  0.055556  0.000000      2.000000
 -0.111111  0.055556  0.000000      2.000000
 -0.055556  0.055556  0.000000      2.000000
  0.000000  0.111111  0.000000      2.000000
  0.055556  0.111111  0.000000      2.000000
  0.111111  0.111111  0.000000      2.000000
  0.166667  0.111111  0.000000      2.000000
  0.222222  0.111111  0.000000      2.000000
  0.277778  0.111111  0.000000      2.000000
  0.333333  0.111111  0.000000      2.000000
  0.388889  0.111111  0.000000      2.000000
  0.444444  0.111111  0.000000      2.000000
  0.500000  0.111111  0.000000      2.000000
 -0.444444  0.111111  0.000000      2.000000
 -0.388889  0.111111  0.000000      2.000000
 -0.333333  0.111111  0.000000      2.000000
 -0.277778  0.111111  0.000000      2.000000
 -0.222222  0.111111  0.000000      2.000000
 -0.166667  0.111111  0.000000      2.000000
 -0.111111  0.111111  0.000000      2.000000
 -0.055556  0.111111  0.000000      2.000000
  0.000000  0.166667  0.000000      2.000000
  0.055556  0.166667  0.000000      2.000000
  0.111111  0.166667  0.000000      2.000000
  0.166667  0.166667  0.000000      2.000000
  0.222222  0.166667  0.000000      2.000000
  0.277778  0.166667  0.000000      2.000000
  0.333333  0.166667  0.000000      2.000000
  0.388889  0.166667  0.000000      2.000000
  0.444444  0.166667  0.000000      2.000000
  0.500000  0.166667  0.000000      2.000000
 -0.444444  0.166667  0.000000      2.000000
 -0.388889  0.166667  0.000000      2.000000
 -0.333333  0.166667  0.000000      2.000000
 -0.277778  0.166667  0.000000      2.000000
 -0.222222  0.166667  0.000000      2.000000
 -0.166667  0.166667  0.000000      2.000000
 -0.111111  0.166667  0.000000      2.000000
 -0.055556  0.166667  0.000000      2.000000
  0.000000  0.222222  0.000000      2.000000
  0.055556  0.222222  0.000000      2.000000
  0.111111  0.222222  0.000000      2.000000
  0.166667  0.222222  0.000000      2.000000
  0.222222  0.222222  0.000000      2.000000
  0.277778  0.222222  0.000000      2.000000
  0.333333  0.222222  0.000000      2.000000
  0.388889  0.222222  0.000000      2.000000
  0.444444  0.222222  0.000000      2.000000
  0.500000  0.222222  0.000000      2.000000
 -0.444444  0.222222  0.000000      2.000000
 -0.388889  0.222222  0.000000      2.000000
 -0.333333  0.222222  0.000000      2.000000
 -0.277778  0.222222  0.000000      2.000000
 -0.222222  0.222222  0.000000      2.000000
 -0.166667  0.222222  0.000000      2.000000
 -0.111111  0.222222  0.000000      2.000000
 -0.055556  0.222222  0.000000      2.000000
  0.000000  0.277778  0.000000      2.000000
  0.055556  0.277778  0.000000      2.000000
  0.111111  0.277778  0.000000      2.000000
  0.166667  0.277778  0.000000      2.000000
  0.222222  0.277778  0.000000      2.000000
  0.277778  0.277778  0.000000      2.000000
  0.333333  0.277778  0.000000      2.000000
  0.388889  0.277778  0.000000      2.000000
  0.444444  0.277778  0.000000      2.000000
  0.500000  0.277778  0.000000      2.000000
 -0.444444  0.277778  0.000000      2.000000
 -0.388889  0.277778  0.000000      2.000000
 -0.333333  0.277778  0.000000      2.000000
 -0.277778  0.277778  0.000000      2.000000
 -0.222222  0.277778  0.000000      2.000000
 -0.166667  0.277778  0.000000      2.000000
 -0.111111  0.277778  0.000000      2.000000
 -0.055556  0.277778  0.000000      2.000000
  0.000000  0.333333  0.000000      2.000000
  0.055556  0.333333  0.000000      2.000000
  0.111111  0.333333  0.000000      2.000000
  0.166667  0.333333  0.000000      2.000000
  0.222222  0.333333  0.000000      2.000000
  0.277778  0.333333  0.000000      2.000000
  0.333333  0.333333  0.000000      2.000000
  0.388889  0.333333  0.000000      2.000000
  0.444444  0.333333  0.000000      2.000000
  0.500000  0.333333  0.000000      2.000000
 -0.444444  0.333333  0.000000      2.000000
 -0.388889  0.333333  0.000000      2.000000
 -0.333333  0.333333  0.000000      2.000000
 -0.277778  0.333333  0.000000      2.000000
 -0.222222  0.333333  0.000000      2.000000
 -0.166667  0.333333  0.000000      2.000000
 -0.111111  0.333333  0.000000      2.000000
 -0.055556  0.333333  0.000000      2.000000
  0.000000  0.388889  0.000000      2.000000
  0.055556  0.388889  0.000000      2.000000
  0.111111  0.388889  0.000000      2.000000
  0.166667  0.388889  0.000000      2.000000
  0.222222  0.388889  0.000000      2.000000
  0.277778  0.388889  0.000000      2.000000
  0.333333  0.388889  0.000000      2.000000
  0.388889  0.388889  0.000000      2.000000
  0.444444  0.388889  0.000000      2.000000
  0.500000  0.388889  0.000000      2.000000
 -0.444444  0.388889  0.000000      2.000000
 -0.388889  0.388889  0.000000      2.000000
 -0.333333  0.388889  0.000000      2.000000
 -0.277778  0.388889  0.000000      2.000000
 -0.222222  0.388889  0.000000      2.000000
 -0.166667  0.388889  0.000000      2.000000
 -0.111111  0.388889  0.000000      2.000000
 -0.055556  0.388889  0.000000      2.000000
  0.000000  0.444444  0.000000      2.000000
  0.055556  0.444444  0.000000      2.000000
  0.111111  0.444444  0.000000      2.000000
  0.166667  0.444444  0.000000      2.000000
  0.222222  0.444444  0.000000      2.000000
  0.277778  0.444444  0.000000      2.000000
  0.333333  0.444444  0.000000      2.000000
  0.388889  0.444444  0.000000      2.000000
  0.444444  0.444444  0.000000      2.000000
  0.500000  0.444444  0.000000      2.000000
 -0.444444  0.444444  0.000000      2.000000
 -0.388889  0.444444  0.000000      2.000000
 -0.333333  0.444444  0.000000      2.000000
 -0.277778  0.444444  0.000000      2.000000
 -0.222222  0.444444  0.000000      2.000000
 -0.166667  0.444444  0.000000      2.000000
 -0.111111  0.444444  0.000000      2.000000
 -0.055556  0.444444  0.000000      2.000000
  0.000000  0.500000  0.000000      1.000000
  0.055556  0.500000  0.000000      2.000000
  0.111111  0.500000  0.000000      2.000000
  0.166667  0.500000  0.000000      2.000000
  0.222222  0.500000  0.000000      2.000000
  0.277778  0.500000  0.000000      2.000000
  0.333333  0.500000  0.000000      2.000000
  0.388889  0.500000  0.000000      2.000000
  0.444444  0.500000  0.000000      2.000000
  0.500000  0.500000  0.000000      1.000000
 
 Following cartesian coordinates:
            Coordinates               Weight
  0.000000  0.000000  0.000000      1.000000
  0.006205  0.010748  0.000000      2.000000
  0.012411  0.021496  0.000000      2.000000
  0.018616  0.032244  0.000000      2.000000
  0.024821  0.042991  0.000000      2.000000
  0.031026  0.053739  0.000000      2.000000
  0.037232  0.064487  0.000000      2.000000
  0.043437  0.075235  0.000000      2.000000
  0.049642  0.085983  0.000000      2.000000
  0.055847  0.096731  0.000000      1.000000
 -0.006205  0.010748  0.000000      2.000000
  0.000000  0.021496  0.000000      2.000000
  0.006205  0.032244  0.000000      2.000000
  0.012411  0.042991  0.000000      2.000000
  0.018616  0.053739  0.000000      2.000000
  0.024821  0.064487  0.000000      2.000000
  0.031026  0.075235  0.000000      2.000000
  0.037232  0.085983  0.000000      2.000000
  0.043437  0.096731  0.000000      2.000000
  0.049642  0.107478  0.000000      2.000000
 -0.055847 -0.075235  0.000000      2.000000
 -0.049642 -0.064487  0.000000      2.000000
 -0.043437 -0.053739  0.000000      2.000000
 -0.037232 -0.042991  0.000000      2.000000
 -0.031026 -0.032244  0.000000      2.000000
 -0.024821 -0.021496  0.000000      2.000000
 -0.018616 -0.010748  0.000000      2.000000
 -0.012411  0.000000  0.000000      2.000000
 -0.012411  0.021496  0.000000      2.000000
 -0.006205  0.032244  0.000000      2.000000
  0.000000  0.042991  0.000000      2.000000
  0.006205  0.053739  0.000000      2.000000
  0.012411  0.064487  0.000000      2.000000
  0.018616  0.075235  0.000000      2.000000
  0.024821  0.085983  0.000000      2.000000
  0.031026  0.096731  0.000000      2.000000
  0.037232  0.107478  0.000000      2.000000
  0.043437  0.118226  0.000000      2.000000
 -0.062053 -0.064487  0.000000      2.000000
 -0.055847 -0.053739  0.000000      2.000000
 -0.049642 -0.042991  0.000000      2.000000
 -0.043437 -0.032244  0.000000      2.000000
 -0.037232 -0.021496  0.000000      2.000000
 -0.031026 -0.010748  0.000000      2.000000
 -0.024821  0.000000  0.000000      2.000000
 -0.018616  0.010748  0.000000      2.000000
 -0.018616  0.032244  0.000000      2.000000
 -0.012411  0.042991  0.000000      2.000000
 -0.006205  0.053739  0.000000      2.000000
  0.000000  0.064487  0.000000      2.000000
  0.006205  0.075235  0.000000      2.000000
  0.012411  0.085983  0.000000      2.000000
  0.018616  0.096731  0.000000      2.000000
  0.024821  0.107478  0.000000      2.000000
  0.031026  0.118226  0.000000      2.000000
  0.037232  0.128974  0.000000      2.000000
 -0.068258 -0.053739  0.000000      2.000000
 -0.062053 -0.042991  0.000000      2.000000
 -0.055847 -0.032244  0.000000      2.000000
 -0.049642 -0.021496  0.000000      2.000000
 -0.043437 -0.010748  0.000000      2.000000
 -0.037232  0.000000  0.000000      2.000000
 -0.031026  0.010748  0.000000      2.000000
 -0.024821  0.021496  0.000000      2.000000
 -0.024821  0.042991  0.000000      2.000000
 -0.018616  0.053739  0.000000      2.000000
 -0.012411  0.064487  0.000000      2.000000
 -0.006205  0.075235  0.000000      2.000000
  0.000000  0.085983  0.000000      2.000000
  0.006205  0.096731  0.000000      2.000000
  0.012411  0.107478  0.000000      2.000000
  0.018616  0.118226  0.000000      2.000000
  0.024821  0.128974  0.000000      2.000000
  0.031026  0.139722  0.000000      2.000000
 -0.074463 -0.042991  0.000000      2.000000
 -0.068258 -0.032244  0.000000      2.000000
 -0.062053 -0.021496  0.000000      2.000000
 -0.055847 -0.010748  0.000000      2.000000
 -0.049642  0.000000  0.000000      2.000000
 -0.043437  0.010748  0.000000      2.000000
 -0.037232  0.021496  0.000000      2.000000
 -0.031026  0.032244  0.000000      2.000000
 -0.031026  0.053739  0.000000      2.000000
 -0.024821  0.064487  0.000000      2.000000
 -0.018616  0.075235  0.000000      2.000000
 -0.012411  0.085983  0.000000      2.000000
 -0.006205  0.096731  0.000000      2.000000
  0.000000  0.107478  0.000000      2.000000
  0.006205  0.118226  0.000000      2.000000
  0.012411  0.128974  0.000000      2.000000
  0.018616  0.139722  0.000000      2.000000
  0.024821  0.150470  0.000000      2.000000
 -0.080668 -0.032244  0.000000      2.000000
 -0.074463 -0.021496  0.000000      2.000000
 -0.068258 -0.010748  0.000000      2.000000
 -0.062053  0.000000  0.000000      2.000000
 -0.055847  0.010748  0.000000      2.000000
 -0.049642  0.021496  0.000000      2.000000
 -0.043437  0.032244  0.000000      2.000000
 -0.037232  0.042991  0.000000      2.000000
 -0.037232  0.064487  0.000000      2.000000
 -0.031026  0.075235  0.000000      2.000000
 -0.024821  0.085983  0.000000      2.000000
 -0.018616  0.096731  0.000000      2.000000
 -0.012411  0.107478  0.000000      2.000000
 -0.006205  0.118226  0.000000      2.000000
  0.000000  0.128974  0.000000      2.000000
  0.006205  0.139722  0.000000      2.000000
  0.012411  0.150470  0.000000      2.000000
  0.018616  0.161218  0.000000      2.000000
 -0.086874 -0.021496  0.000000      2.000000
 -0.080668 -0.010748  0.000000      2.000000
 -0.074463  0.000000  0.000000      2.000000
 -0.068258  0.010748  0.000000      2.000000
 -0.062053  0.021496  0.000000      2.000000
 -0.055847  0.032244  0.000000      2.000000
 -0.049642  0.042991  0.000000      2.000000
 -0.043437  0.053739  0.000000      2.000000
 -0.043437  0.075235  0.000000      2.000000
 -0.037232  0.085983  0.000000      2.000000
 -0.031026  0.096731  0.000000      2.000000
 -0.024821  0.107478  0.000000      2.000000
 -0.018616  0.118226  0.000000      2.000000
 -0.012411  0.128974  0.000000      2.000000
 -0.006205  0.139722  0.000000      2.000000
  0.000000  0.150470  0.000000      2.000000
  0.006205  0.161218  0.000000      2.000000
  0.012411  0.171965  0.000000      2.000000
 -0.093079 -0.010748  0.000000      2.000000
 -0.086874  0.000000  0.000000      2.000000
 -0.080668  0.010748  0.000000      2.000000
 -0.074463  0.021496  0.000000      2.000000
 -0.068258  0.032244  0.000000      2.000000
 -0.062053  0.042991  0.000000      2.000000
 -0.055847  0.053739  0.000000      2.000000
 -0.049642  0.064487  0.000000      2.000000
 -0.049642  0.085983  0.000000      2.000000
 -0.043437  0.096731  0.000000      2.000000
 -0.037232  0.107478  0.000000      2.000000
 -0.031026  0.118226  0.000000      2.000000
 -0.024821  0.128974  0.000000      2.000000
 -0.018616  0.139722  0.000000      2.000000
 -0.012411  0.150470  0.000000      2.000000
 -0.006205  0.161218  0.000000      2.000000
  0.000000  0.171965  0.000000      2.000000
  0.006205  0.182713  0.000000      2.000000
 -0.099284  0.000000  0.000000      2.000000
 -0.093079  0.010748  0.000000      2.000000
 -0.086874  0.021496  0.000000      2.000000
 -0.080668  0.032244  0.000000      2.000000
 -0.074463  0.042991  0.000000      2.000000
 -0.068258  0.053739  0.000000      2.000000
 -0.062053  0.064487  0.000000      2.000000
 -0.055847  0.075235  0.000000      2.000000
 -0.055847  0.096731  0.000000      1.000000
 -0.049642  0.107478  0.000000      2.000000
 -0.043437  0.118226  0.000000      2.000000
 -0.037232  0.128974  0.000000      2.000000
 -0.031026  0.139722  0.000000      2.000000
 -0.024821  0.150470  0.000000      2.000000
 -0.018616  0.161218  0.000000      2.000000
 -0.012411  0.171965  0.000000      2.000000
 -0.006205  0.182713  0.000000      2.000000
  0.000000  0.193461  0.000000      1.000000
 


--------------------------------------------------------------------------------------------------------




 Dimension of arrays:
   k-points           NKPTS =    164   k-points in BZ     NKDIM =    164   number of bands    NBANDS=     32
   number of dos      NEDOS =    301   number of ions     NIONS =      8
   non local maximal  LDIM  =      4   non local SUM 2l+1 LMDIM =      8
   total plane-waves  NPLWV = 139968
   max r-space proj   IRMAX =      1   max aug-charges    IRDMAX=   6487
   dimension x,y,z NGX =    36 NGY =   36 NGZ =  108
   dimension x,y,z NGXF=    72 NGYF=   72 NGZF=  216
   support grid    NGXF=    72 NGYF=   72 NGZF=  216
   ions per type =               2   6
   NGX,Y,Z   is equivalent  to a cutoff of  11.58, 11.58, 11.97 a.u.
   NGXF,Y,Z  is equivalent  to a cutoff of  23.16, 23.16, 23.94 a.u.

 SYSTEM =  BC3                                     
 POSCAR =  BC3 with lattice parameter 5.169        

 Startparameter for this run:
   NWRITE =      2    write-flag & timer
   PREC   = accura    normal or accurate (medium, high low for compatibility)
   ISTART =      0    job   : 0-new  1-cont  2-samecut
   ICHARG =      2    charge: 1-file 2-atom 10-const
   ISPIN  =      1    spin polarized calculation?
   LNONCOLLINEAR =      F non collinear calculations
   LSORBIT =      F    spin-orbit coupling
   INIWAV =      1    electr: 0-lowe 1-rand  2-diag
   LASPH  =      F    aspherical Exc in radial PAW
   METAGGA=      F    non-selfconsistent MetaGGA calc.

 Electronic Relaxation 1
   ENCUT  =  450.0 eV  33.07 Ry    5.75 a.u.   8.94  8.94 25.95*2*pi/ulx,y,z
   ENINI  =  450.0     initial cutoff
   ENAUG  =  644.9 eV  augmentation charge cutoff
   NELM   =     60;   NELMIN=  2; NELMDL= -5     # of ELM steps 
   EDIFF  = 0.1E-05   stopping-criterion for ELM
   LREAL  =      F    real-space projection
   NLSPLINE    = F    spline interpolate recip. space projectors
   LCOMPAT=      F    compatible to vasp.4.4
   GGA_COMPAT  = T    GGA compatible to vasp.4.4-vasp.4.6
   LMAXPAW     = -100 max onsite density
   LMAXMIX     =    2 max onsite mixed and CHGCAR
   VOSKOWN=      0    Vosko Wilk Nusair interpolation
   ROPT   =    0.00000   0.00000
 Ionic relaxation
   EDIFFG = -.1E-01   stopping-criterion for IOM
   NSW    =    100    number of steps for IOM
   NBLOCK =      1;   KBLOCK =    100    inner block; outer block 
   IBRION =      2    ionic relax: 0-MD 1-quasi-New 2-CG
   NFREE  =      1    steps in history (QN), initial steepest desc. (CG)
   ISIF   =      2    stress and relaxation
   IWAVPR =     11    prediction:  0-non 1-charg 2-wave 3-comb
   ISYM   =      2    0-nonsym 1-usesym 2-fastsym
   LCORR  =      T    Harris-Foulkes like correction to forces

   POTIM  = 0.5000    time-step for ionic-motion
   TEIN   =    0.0    initial temperature
   TEBEG  =    0.0;   TEEND  =   0.0 temperature during run
   SMASS  =  -3.00    Nose mass-parameter (am)
   estimated Nose-frequenzy (Omega)   =  0.10E-29 period in steps =****** mass=  -0.611E-27a.u.
   SCALEE = 1.0000    scale energy and forces
   NPACO  =    256;   APACO  = 16.0  distance and # of slots for P.C.
   PSTRESS=    0.0 pullay stress

  Mass of Ions in am
   POMASS =  10.81 12.01
  Ionic Valenz
   ZVAL   =   3.00  4.00
  Atomic Wigner-Seitz radii
   RWIGS  =  -1.00 -1.00
  virtual crystal weights 
   VCA    =   1.00  1.00
   NELECT =      30.0000    total number of electrons
   NUPDOWN=      -1.0000    fix difference up-down

 DOS related values:
   EMIN   =  10.00;   EMAX   =-10.00  energy-range for DOS
   EFERMI =   0.00
   ISMEAR =     0;   SIGMA  =   0.10  broadening in eV -4-tet -1-fermi 0-gaus

 Electronic relaxation 2 (details)
   IALGO  =     38    algorithm
   LDIAG  =      T    sub-space diagonalisation (order eigenvalues)
   LSUBROT=      F    optimize rotation matrix (better conditioning)
   TURBO    =      0    0=normal 1=particle mesh
   IRESTART =      0    0=no restart 2=restart with 2 vectors
   NREBOOT  =      0    no. of reboots
   NMIN     =      0    reboot dimension
   EREF     =   0.00    reference energy to select bands
   IMIX   =      4    mixing-type and parameters
     AMIX     =   0.40;   BMIX     =  1.00
     AMIX_MAG =   1.60;   BMIX_MAG =  1.00
     AMIN     =   0.10
     WC   =   100.;   INIMIX=   1;  MIXPRE=   1;  MAXMIX= -45

 Intra band minimization:
   WEIMIN = 0.0010     energy-eigenvalue tresh-hold
   EBREAK =  0.78E-08  absolut break condition
   DEPER  =   0.30     relativ break condition  

   TIME   =   0.40     timestep for ELM

  volume/ion in A,a.u.               =      43.39       292.78
  Fermi-wavevector in a.u.,A,eV,Ry     =   0.723831  1.367842  7.128511  0.523931
  Thomas-Fermi vector in A             =   1.814147
 
 Write flags
   LWAVE        =      F    write WAVECAR
   LDOWNSAMPLE  =      F    k-point downsampling of WAVECAR
   LCHARG       =      F    write CHGCAR
   LVTOT        =      F    write LOCPOT, total local potential
   LVHAR        =      F    write LOCPOT, Hartree potential only
   LELF         =      F    write electronic localiz. function (ELF)
   LORBIT       =      0    0 simple, 1 ext, 2 COOP (PROOUT), +10 PAW based schemes


 Dipole corrections
   LMONO  =      F    monopole corrections only (constant potential shift)
   LDIPOL =      F    correct potential (dipole corrections)
   IDIPOL =      0    1-x, 2-y, 3-z, 4-all directions 
   EPSILON=  1.0000000 bulk dielectric constant

 Exchange correlation treatment:
   GGA     =    PE    GGA type
   LEXCH   =     8    internal setting for exchange type
   VOSKOWN=      0    Vosko Wilk Nusair interpolation
   LHFCALC =     F    Hartree Fock is set to
   LHFONE  =     F    Hartree Fock one center treatment
   AEXX    =    0.0000 exact exchange contribution

 Linear response parameters
   LEPSILON=     F    determine dielectric tensor
   LRPA    =     F    only Hartree local field effects (RPA)
   LNABLA  =     F    use nabla operator in PAW spheres
   LVEL    =     F    velocity operator in full k-point grid
   LINTERFAST=   F  fast interpolation
   KINTER  =     0    interpolate to denser k-point grid
   CSHIFT  =0.1000    complex shift for real part using Kramers Kronig
   OMEGAMAX=  -1.0    maximum frequency
   DEG_THRESHOLD= 0.2000000E-02 threshold for treating states as degnerate
   RTIME   =   -0.100 relaxation time in fs
  (WPLASMAI=    0.000 imaginary part of plasma frequency in eV, 0.658/RTIME)
   DFIELD  = 0.0000000 0.0000000 0.0000000 field for delta impulse in time
 
 Orbital magnetization related:
   ORBITALMAG=     F  switch on orbital magnetization
   LCHIMAG   =     F  perturbation theory with respect to B field
   DQ        =  0.001000  dq finite difference perturbation B field
   LLRAUG    =     F  two centre corrections for induced B field



--------------------------------------------------------------------------------------------------------


 conjugate gradient relaxation of ions
 charge density and potential will be updated during run
 non-spin polarized calculation
 Variant of blocked Davidson
 Davidson routine will perform the subspace rotation
 perform sub-space diagonalisation
    after iterative eigenvector-optimisation
 modified Broyden-mixing scheme, WC =      100.0
 initial mixing is a Kerker type mixing with AMIX =  0.4000 and BMIX =      1.0000
 Hartree-type preconditioning will be used
 using additional bands           17
 reciprocal scheme for non local part
 use partial core corrections
 calculate Harris-corrections to forces 
   (improved forces if not selfconsistent)
 use gradient corrections 
 use of overlap-Matrix (Vanderbilt PP)
 Gauss-broadening in eV      SIGMA  =   0.10


--------------------------------------------------------------------------------------------------------


  energy-cutoff  :      450.00
  volume of cell :      347.08
      direct lattice vectors                 reciprocal lattice vectors
     4.476485000  2.584500000  0.000000000     0.111694778  0.193461018  0.000000000
    -4.476485000  2.584500000  0.000000000    -0.111694778  0.193461018  0.000000000
     0.000000000  0.000000000 15.000000000     0.000000000  0.000000000  0.066666667

  length of vectors
     5.168999730  5.168999730 15.000000000     0.223389545  0.223389545  0.066666667


 
 k-points in units of 2pi/SCALE and weight: k-points                                
   0.00000000  0.00000000  0.00000000       0.003
   0.00620527  0.01074783  0.00000000       0.006
   0.01241053  0.02149567  0.00000000       0.006
   0.01861580  0.03224350  0.00000000       0.006
   0.02482106  0.04299134  0.00000000       0.006
   0.03102633  0.05373917  0.00000000       0.006
   0.03723159  0.06448701  0.00000000       0.006
   0.04343686  0.07523484  0.00000000       0.006
   0.04964212  0.08598267  0.00000000       0.006
   0.05584739  0.09673051  0.00000000       0.003
  -0.00620527  0.01074783  0.00000000       0.006
   0.00000000  0.02149567  0.00000000       0.006
   0.00620527  0.03224350  0.00000000       0.006
   0.01241053  0.04299134  0.00000000       0.006
   0.01861580  0.05373917  0.00000000       0.006
   0.02482106  0.06448701  0.00000000       0.006
   0.03102633  0.07523484  0.00000000       0.006
   0.03723159  0.08598267  0.00000000       0.006
   0.04343686  0.09673051  0.00000000       0.006
   0.04964212  0.10747834  0.00000000       0.006
  -0.05584739 -0.07523484  0.00000000       0.006
  -0.04964212 -0.06448701  0.00000000       0.006
  -0.04343686 -0.05373917  0.00000000       0.006
  -0.03723159 -0.04299134  0.00000000       0.006
  -0.03102633 -0.03224350  0.00000000       0.006
  -0.02482106 -0.02149567  0.00000000       0.006
  -0.01861580 -0.01074783  0.00000000       0.006
  -0.01241053  0.00000000  0.00000000       0.006
  -0.01241053  0.02149567  0.00000000       0.006
  -0.00620527  0.03224350  0.00000000       0.006
   0.00000000  0.04299134  0.00000000       0.006
   0.00620527  0.05373917  0.00000000       0.006
   0.01241053  0.06448701  0.00000000       0.006
   0.01861580  0.07523484  0.00000000       0.006
   0.02482106  0.08598267  0.00000000       0.006
   0.03102633  0.09673051  0.00000000       0.006
   0.03723159  0.10747834  0.00000000       0.006
   0.04343686  0.11822618  0.00000000       0.006
  -0.06205265 -0.06448701  0.00000000       0.006
  -0.05584739 -0.05373917  0.00000000       0.006
  -0.04964212 -0.04299134  0.00000000       0.006
  -0.04343686 -0.03224350  0.00000000       0.006
  -0.03723159 -0.02149567  0.00000000       0.006
  -0.03102633 -0.01074783  0.00000000       0.006
  -0.02482106  0.00000000  0.00000000       0.006
  -0.01861580  0.01074783  0.00000000       0.006
  -0.01861580  0.03224350  0.00000000       0.006
  -0.01241053  0.04299134  0.00000000       0.006
  -0.00620527  0.05373917  0.00000000       0.006
   0.00000000  0.06448701  0.00000000       0.006
   0.00620527  0.07523484  0.00000000       0.006
   0.01241053  0.08598267  0.00000000       0.006
   0.01861580  0.09673051  0.00000000       0.006
   0.02482106  0.10747834  0.00000000       0.006
   0.03102633  0.11822618  0.00000000       0.006
   0.03723159  0.12897401  0.00000000       0.006
  -0.06825792 -0.05373917  0.00000000       0.006
  -0.06205265 -0.04299134  0.00000000       0.006
  -0.05584739 -0.03224350  0.00000000       0.006
  -0.04964212 -0.02149567  0.00000000       0.006
  -0.04343686 -0.01074783  0.00000000       0.006
  -0.03723159  0.00000000  0.00000000       0.006
  -0.03102633  0.01074783  0.00000000       0.006
  -0.02482106  0.02149567  0.00000000       0.006
  -0.02482106  0.04299134  0.00000000       0.006
  -0.01861580  0.05373917  0.00000000       0.006
  -0.01241053  0.06448701  0.00000000       0.006
  -0.00620527  0.07523484  0.00000000       0.006
   0.00000000  0.08598267  0.00000000       0.006
   0.00620527  0.09673051  0.00000000       0.006
   0.01241053  0.10747834  0.00000000       0.006
   0.01861580  0.11822618  0.00000000       0.006
   0.02482106  0.12897401  0.00000000       0.006
   0.03102633  0.13972185  0.00000000       0.006
  -0.07446319 -0.04299134  0.00000000       0.006
  -0.06825792 -0.03224350  0.00000000       0.006
  -0.06205265 -0.02149567  0.00000000       0.006
  -0.05584739 -0.01074783  0.00000000       0.006
  -0.04964212  0.00000000  0.00000000       0.006
  -0.04343686  0.01074783  0.00000000       0.006
  -0.03723159  0.02149567  0.00000000       0.006
  -0.03102633  0.03224350  0.00000000       0.006
  -0.03102633  0.05373917  0.00000000       0.006
  -0.02482106  0.06448701  0.00000000       0.006
  -0.01861580  0.07523484  0.00000000       0.006
  -0.01241053  0.08598267  0.00000000       0.006
  -0.00620527  0.09673051  0.00000000       0.006
   0.00000000  0.10747834  0.00000000       0.006
   0.00620527  0.11822618  0.00000000       0.006
   0.01241053  0.12897401  0.00000000       0.006
   0.01861580  0.13972185  0.00000000       0.006
   0.02482106  0.15046968  0.00000000       0.006
  -0.08066845 -0.03224350  0.00000000       0.006
  -0.07446319 -0.02149567  0.00000000       0.006
  -0.06825792 -0.01074783  0.00000000       0.006
  -0.06205265  0.00000000  0.00000000       0.006
  -0.05584739  0.01074783  0.00000000       0.006
  -0.04964212  0.02149567  0.00000000       0.006
  -0.04343686  0.03224350  0.00000000       0.006
  -0.03723159  0.04299134  0.00000000       0.006
  -0.03723159  0.06448701  0.00000000       0.006
  -0.03102633  0.07523484  0.00000000       0.006
  -0.02482106  0.08598267  0.00000000       0.006
  -0.01861580  0.09673051  0.00000000       0.006
  -0.01241053  0.10747834  0.00000000       0.006
  -0.00620527  0.11822618  0.00000000       0.006
   0.00000000  0.12897401  0.00000000       0.006
   0.00620527  0.13972185  0.00000000       0.006
   0.01241053  0.15046968  0.00000000       0.006
   0.01861580  0.16121751  0.00000000       0.006
  -0.08687372 -0.02149567  0.00000000       0.006
  -0.08066845 -0.01074783  0.00000000       0.006
  -0.07446319  0.00000000  0.00000000       0.006
  -0.06825792  0.01074783  0.00000000       0.006
  -0.06205265  0.02149567  0.00000000       0.006
  -0.05584739  0.03224350  0.00000000       0.006
  -0.04964212  0.04299134  0.00000000       0.006
  -0.04343686  0.05373917  0.00000000       0.006
  -0.04343686  0.07523484  0.00000000       0.006
  -0.03723159  0.08598267  0.00000000       0.006
  -0.03102633  0.09673051  0.00000000       0.006
  -0.02482106  0.10747834  0.00000000       0.006
  -0.01861580  0.11822618  0.00000000       0.006
  -0.01241053  0.12897401  0.00000000       0.006
  -0.00620527  0.13972185  0.00000000       0.006
   0.00000000  0.15046968  0.00000000       0.006
   0.00620527  0.16121751  0.00000000       0.006
   0.01241053  0.17196535  0.00000000       0.006
  -0.09307898 -0.01074783  0.00000000       0.006
  -0.08687372  0.00000000  0.00000000       0.006
  -0.08066845  0.01074783  0.00000000       0.006
  -0.07446319  0.02149567  0.00000000       0.006
  -0.06825792  0.03224350  0.00000000       0.006
  -0.06205265  0.04299134  0.00000000       0.006
  -0.05584739  0.05373917  0.00000000       0.006
  -0.04964212  0.06448701  0.00000000       0.006
  -0.04964212  0.08598267  0.00000000       0.006
  -0.04343686  0.09673051  0.00000000       0.006
  -0.03723159  0.10747834  0.00000000       0.006
  -0.03102633  0.11822618  0.00000000       0.006
  -0.02482106  0.12897401  0.00000000       0.006
  -0.01861580  0.13972185  0.00000000       0.006
  -0.01241053  0.15046968  0.00000000       0.006
  -0.00620527  0.16121751  0.00000000       0.006
   0.00000000  0.17196535  0.00000000       0.006
   0.00620527  0.18271318  0.00000000       0.006
  -0.09928425  0.00000000  0.00000000       0.006
  -0.09307898  0.01074783  0.00000000       0.006
  -0.08687372  0.02149567  0.00000000       0.006
  -0.08066845  0.03224350  0.00000000       0.006
  -0.07446319  0.04299134  0.00000000       0.006
  -0.06825792  0.05373917  0.00000000       0.006
  -0.06205265  0.06448701  0.00000000       0.006
  -0.05584739  0.07523484  0.00000000       0.006
  -0.05584739  0.09673051  0.00000000       0.003
  -0.04964212  0.10747834  0.00000000       0.006
  -0.04343686  0.11822618  0.00000000       0.006
  -0.03723159  0.12897401  0.00000000       0.006
  -0.03102633  0.13972185  0.00000000       0.006
  -0.02482106  0.15046968  0.00000000       0.006
  -0.01861580  0.16121751  0.00000000       0.006
  -0.01241053  0.17196535  0.00000000       0.006
  -0.00620527  0.18271318  0.00000000       0.006
   0.00000000  0.19346102  0.00000000       0.003
 
 k-points in reciprocal lattice and weights: k-points                                
   0.00000000  0.00000000  0.00000000       0.003
   0.05555556  0.00000000  0.00000000       0.006
   0.11111111  0.00000000  0.00000000       0.006
   0.16666667  0.00000000  0.00000000       0.006
   0.22222222  0.00000000  0.00000000       0.006
   0.27777778  0.00000000  0.00000000       0.006
   0.33333333  0.00000000  0.00000000       0.006
   0.38888889  0.00000000  0.00000000       0.006
   0.44444444  0.00000000  0.00000000       0.006
   0.50000000  0.00000000  0.00000000       0.003
   0.00000000  0.05555556  0.00000000       0.006
   0.05555556  0.05555556  0.00000000       0.006
   0.11111111  0.05555556  0.00000000       0.006
   0.16666667  0.05555556  0.00000000       0.006
   0.22222222  0.05555556  0.00000000       0.006
   0.27777778  0.05555556  0.00000000       0.006
   0.33333333  0.05555556  0.00000000       0.006
   0.38888889  0.05555556  0.00000000       0.006
   0.44444444  0.05555556  0.00000000       0.006
   0.50000000  0.05555556  0.00000000       0.006
  -0.44444444  0.05555556  0.00000000       0.006
  -0.38888889  0.05555556  0.00000000       0.006
  -0.33333333  0.05555556  0.00000000       0.006
  -0.27777778  0.05555556  0.00000000       0.006
  -0.22222222  0.05555556  0.00000000       0.006
  -0.16666667  0.05555556  0.00000000       0.006
  -0.11111111  0.05555556  0.00000000       0.006
  -0.05555556  0.05555556  0.00000000       0.006
   0.00000000  0.11111111  0.00000000       0.006
   0.05555556  0.11111111  0.00000000       0.006
   0.11111111  0.11111111  0.00000000       0.006
   0.16666667  0.11111111  0.00000000       0.006
   0.22222222  0.11111111  0.00000000       0.006
   0.27777778  0.11111111  0.00000000       0.006
   0.33333333  0.11111111  0.00000000       0.006
   0.38888889  0.11111111  0.00000000       0.006
   0.44444444  0.11111111  0.00000000       0.006
   0.50000000  0.11111111  0.00000000       0.006
  -0.44444444  0.11111111  0.00000000       0.006
  -0.38888889  0.11111111  0.00000000       0.006
  -0.33333333  0.11111111  0.00000000       0.006
  -0.27777778  0.11111111  0.00000000       0.006
  -0.22222222  0.11111111  0.00000000       0.006
  -0.16666667  0.11111111  0.00000000       0.006
  -0.11111111  0.11111111  0.00000000       0.006
  -0.05555556  0.11111111  0.00000000       0.006
   0.00000000  0.16666667  0.00000000       0.006
   0.05555556  0.16666667  0.00000000       0.006
   0.11111111  0.16666667  0.00000000       0.006
   0.16666667  0.16666667  0.00000000       0.006
   0.22222222  0.16666667  0.00000000       0.006
   0.27777778  0.16666667  0.00000000       0.006
   0.33333333  0.16666667  0.00000000       0.006
   0.38888889  0.16666667  0.00000000       0.006
   0.44444444  0.16666667  0.00000000       0.006
   0.50000000  0.16666667  0.00000000       0.006
  -0.44444444  0.16666667  0.00000000       0.006
  -0.38888889  0.16666667  0.00000000       0.006
  -0.33333333  0.16666667  0.00000000       0.006
  -0.27777778  0.16666667  0.00000000       0.006
  -0.22222222  0.16666667  0.00000000       0.006
  -0.16666667  0.16666667  0.00000000       0.006
  -0.11111111  0.16666667  0.00000000       0.006
  -0.05555556  0.16666667  0.00000000       0.006
   0.00000000  0.22222222  0.00000000       0.006
   0.05555556  0.22222222  0.00000000       0.006
   0.11111111  0.22222222  0.00000000       0.006
   0.16666667  0.22222222  0.00000000       0.006
   0.22222222  0.22222222  0.00000000       0.006
   0.27777778  0.22222222  0.00000000       0.006
   0.33333333  0.22222222  0.00000000       0.006
   0.38888889  0.22222222  0.00000000       0.006
   0.44444444  0.22222222  0.00000000       0.006
   0.50000000  0.22222222  0.00000000       0.006
  -0.44444444  0.22222222  0.00000000       0.006
  -0.38888889  0.22222222  0.00000000       0.006
  -0.33333333  0.22222222  0.00000000       0.006
  -0.27777778  0.22222222  0.00000000       0.006
  -0.22222222  0.22222222  0.00000000       0.006
  -0.16666667  0.22222222  0.00000000       0.006
  -0.11111111  0.22222222  0.00000000       0.006
  -0.05555556  0.22222222  0.00000000       0.006
   0.00000000  0.27777778  0.00000000       0.006
   0.05555556  0.27777778  0.00000000       0.006
   0.11111111  0.27777778  0.00000000       0.006
   0.16666667  0.27777778  0.00000000       0.006
   0.22222222  0.27777778  0.00000000       0.006
   0.27777778  0.27777778  0.00000000       0.006
   0.33333333  0.27777778  0.00000000       0.006
   0.38888889  0.27777778  0.00000000       0.006
   0.44444444  0.27777778  0.00000000       0.006
   0.50000000  0.27777778  0.00000000       0.006
  -0.44444444  0.27777778  0.00000000       0.006
  -0.38888889  0.27777778  0.00000000       0.006
  -0.33333333  0.27777778  0.00000000       0.006
  -0.27777778  0.27777778  0.00000000       0.006
  -0.22222222  0.27777778  0.00000000       0.006
  -0.16666667  0.27777778  0.00000000       0.006
  -0.11111111  0.27777778  0.00000000       0.006
  -0.05555556  0.27777778  0.00000000       0.006
   0.00000000  0.33333333  0.00000000       0.006
   0.05555556  0.33333333  0.00000000       0.006
   0.11111111  0.33333333  0.00000000       0.006
   0.16666667  0.33333333  0.00000000       0.006
   0.22222222  0.33333333  0.00000000       0.006
   0.27777778  0.33333333  0.00000000       0.006
   0.33333333  0.33333333  0.00000000       0.006
   0.38888889  0.33333333  0.00000000       0.006
   0.44444444  0.33333333  0.00000000       0.006
   0.50000000  0.33333333  0.00000000       0.006
  -0.44444444  0.33333333  0.00000000       0.006
  -0.38888889  0.33333333  0.00000000       0.006
  -0.33333333  0.33333333  0.00000000       0.006
  -0.27777778  0.33333333  0.00000000       0.006
  -0.22222222  0.33333333  0.00000000       0.006
  -0.16666667  0.33333333  0.00000000       0.006
  -0.11111111  0.33333333  0.00000000       0.006
  -0.05555556  0.33333333  0.00000000       0.006
   0.00000000  0.38888889  0.00000000       0.006
   0.05555556  0.38888889  0.00000000       0.006
   0.11111111  0.38888889  0.00000000       0.006
   0.16666667  0.38888889  0.00000000       0.006
   0.22222222  0.38888889  0.00000000       0.006
   0.27777778  0.38888889  0.00000000       0.006
   0.33333333  0.38888889  0.00000000       0.006
   0.38888889  0.38888889  0.00000000       0.006
   0.44444444  0.38888889  0.00000000       0.006
   0.50000000  0.38888889  0.00000000       0.006
  -0.44444444  0.38888889  0.00000000       0.006
  -0.38888889  0.38888889  0.00000000       0.006
  -0.33333333  0.38888889  0.00000000       0.006
  -0.27777778  0.38888889  0.00000000       0.006
  -0.22222222  0.38888889  0.00000000       0.006
  -0.16666667  0.38888889  0.00000000       0.006
  -0.11111111  0.38888889  0.00000000       0.006
  -0.05555556  0.38888889  0.00000000       0.006
   0.00000000  0.44444444  0.00000000       0.006
   0.05555556  0.44444444  0.00000000       0.006
   0.11111111  0.44444444  0.00000000       0.006
   0.16666667  0.44444444  0.00000000       0.006
   0.22222222  0.44444444  0.00000000       0.006
   0.27777778  0.44444444  0.00000000       0.006
   0.33333333  0.44444444  0.00000000       0.006
   0.38888889  0.44444444  0.00000000       0.006
   0.44444444  0.44444444  0.00000000       0.006
   0.50000000  0.44444444  0.00000000       0.006
  -0.44444444  0.44444444  0.00000000       0.006
  -0.38888889  0.44444444  0.00000000       0.006
  -0.33333333  0.44444444  0.00000000       0.006
  -0.27777778  0.44444444  0.00000000       0.006
  -0.22222222  0.44444444  0.00000000       0.006
  -0.16666667  0.44444444  0.00000000       0.006
  -0.11111111  0.44444444  0.00000000       0.006
  -0.05555556  0.44444444  0.00000000       0.006
   0.00000000  0.50000000  0.00000000       0.003
   0.05555556  0.50000000  0.00000000       0.006
   0.11111111  0.50000000  0.00000000       0.006
   0.16666667  0.50000000  0.00000000       0.006
   0.22222222  0.50000000  0.00000000       0.006
   0.27777778  0.50000000  0.00000000       0.006
   0.33333333  0.50000000  0.00000000       0.006
   0.38888889  0.50000000  0.00000000       0.006
   0.44444444  0.50000000  0.00000000       0.006
   0.50000000  0.50000000  0.00000000       0.003
 
 position of ions in fractional coordinates (direct lattice) 
   0.33833034  0.66916432  0.25000000
   0.67165522  0.33584146  0.25000000
   0.16373946  0.31999962  0.25000000
   0.32250218  0.16126397  0.25000000
   0.16376430  0.84376384  0.25000000
   0.84623863  0.16123684  0.25000000
   0.68749850  0.84373000  0.25000000
   0.84626736  0.68499594  0.25000000
 
 position of ions in cartesian coordinates  (Angst):
  -1.48097334  2.60386996  3.75000000
   1.50326524  2.60387516  3.75000000
  -0.69949626  1.25022367  3.75000000
   0.72178046  1.25029362  3.75000000
  -3.04400774  2.60395648  3.75000000
   3.06640025  2.60382037  3.75000000
  -0.69936797  3.95746008  3.75000000
   0.72192906  3.95755000  3.75000000
 


--------------------------------------------------------------------------------------------------------


 k-point  1 :   0.0000 0.0000 0.0000  plane waves:    7497
 k-point  2 :   0.0556 0.0000 0.0000  plane waves:    7495
 k-point  3 :   0.1111 0.0000 0.0000  plane waves:    7513
 k-point  4 :   0.1667 0.0000 0.0000  plane waves:    7511
 k-point  5 :   0.2222 0.0000 0.0000  plane waves:    7507
 k-point  6 :   0.2778 0.0000 0.0000  plane waves:    7520
 k-point  7 :   0.3333 0.0000 0.0000  plane waves:    7530
 k-point  8 :   0.3889 0.0000 0.0000  plane waves:    7518
 k-point  9 :   0.4444 0.0000 0.0000  plane waves:    7524
 k-point 10 :   0.5000 0.0000 0.0000  plane waves:    7528
 k-point 11 :   0.0000 0.0556 0.0000  plane waves:    7495
 k-point 12 :   0.0556 0.0556 0.0000  plane waves:    7501
 k-point 13 :   0.1111 0.0556 0.0000  plane waves:    7505
 k-point 14 :   0.1667 0.0556 0.0000  plane waves:    7495
 k-point 15 :   0.2222 0.0556 0.0000  plane waves:    7518
 k-point 16 :   0.2778 0.0556 0.0000  plane waves:    7519
 k-point 17 :   0.3333 0.0556 0.0000  plane waves:    7512
 k-point 18 :   0.3889 0.0556 0.0000  plane waves:    7515
 k-point 19 :   0.4444 0.0556 0.0000  plane waves:    7528
 k-point 20 :   0.5000 0.0556 0.0000  plane waves:    7528
 k-point 21 :  -0.4444 0.0556 0.0000  plane waves:    7515
 k-point 22 :  -0.3889 0.0556 0.0000  plane waves:    7512
 k-point 23 :  -0.3333 0.0556 0.0000  plane waves:    7519
 k-point 24 :  -0.2778 0.0556 0.0000  plane waves:    7518
 k-point 25 :  -0.2222 0.0556 0.0000  plane waves:    7495
 k-point 26 :  -0.1667 0.0556 0.0000  plane waves:    7505
 k-point 27 :  -0.1111 0.0556 0.0000  plane waves:    7501
 k-point 28 :  -0.0556 0.0556 0.0000  plane waves:    7495
 k-point 29 :   0.0000 0.1111 0.0000  plane waves:    7513
 k-point 30 :   0.0556 0.1111 0.0000  plane waves:    7505
 k-point 31 :   0.1111 0.1111 0.0000  plane waves:    7495
 k-point 32 :   0.1667 0.1111 0.0000  plane waves:    7504
 k-point 33 :   0.2222 0.1111 0.0000  plane waves:    7513
 k-point 34 :   0.2778 0.1111 0.0000  plane waves:    7518
 k-point 35 :   0.3333 0.1111 0.0000  plane waves:    7516
 k-point 36 :   0.3889 0.1111 0.0000  plane waves:    7526
 k-point 37 :   0.4444 0.1111 0.0000  plane waves:    7537
 k-point 38 :   0.5000 0.1111 0.0000  plane waves:    7526
 k-point 39 :  -0.4444 0.1111 0.0000  plane waves:    7516
 k-point 40 :  -0.3889 0.1111 0.0000  plane waves:    7518
 k-point 41 :  -0.3333 0.1111 0.0000  plane waves:    7513
 k-point 42 :  -0.2778 0.1111 0.0000  plane waves:    7504
 k-point 43 :  -0.2222 0.1111 0.0000  plane waves:    7495
 k-point 44 :  -0.1667 0.1111 0.0000  plane waves:    7505
 k-point 45 :  -0.1111 0.1111 0.0000  plane waves:    7513
 k-point 46 :  -0.0556 0.1111 0.0000  plane waves:    7501
 k-point 47 :   0.0000 0.1667 0.0000  plane waves:    7511
 k-point 48 :   0.0556 0.1667 0.0000  plane waves:    7495
 k-point 49 :   0.1111 0.1667 0.0000  plane waves:    7504
 k-point 50 :   0.1667 0.1667 0.0000  plane waves:    7519
 k-point 51 :   0.2222 0.1667 0.0000  plane waves:    7521
 k-point 52 :   0.2778 0.1667 0.0000  plane waves:    7525
 k-point 53 :   0.3333 0.1667 0.0000  plane waves:    7534
 k-point 54 :   0.3889 0.1667 0.0000  plane waves:    7551
 k-point 55 :   0.4444 0.1667 0.0000  plane waves:    7551
 k-point 56 :   0.5000 0.1667 0.0000  plane waves:    7534
 k-point 57 :  -0.4444 0.1667 0.0000  plane waves:    7525
 k-point 58 :  -0.3889 0.1667 0.0000  plane waves:    7521
 k-point 59 :  -0.3333 0.1667 0.0000  plane waves:    7519
 k-point 60 :  -0.2778 0.1667 0.0000  plane waves:    7504
 k-point 61 :  -0.2222 0.1667 0.0000  plane waves:    7495
 k-point 62 :  -0.1667 0.1667 0.0000  plane waves:    7511
 k-point 63 :  -0.1111 0.1667 0.0000  plane waves:    7505
 k-point 64 :  -0.0556 0.1667 0.0000  plane waves:    7505
 k-point 65 :   0.0000 0.2222 0.0000  plane waves:    7507
 k-point 66 :   0.0556 0.2222 0.0000  plane waves:    7518
 k-point 67 :   0.1111 0.2222 0.0000  plane waves:    7513
 k-point 68 :   0.1667 0.2222 0.0000  plane waves:    7521
 k-point 69 :   0.2222 0.2222 0.0000  plane waves:    7537
 k-point 70 :   0.2778 0.2222 0.0000  plane waves:    7531
 k-point 71 :   0.3333 0.2222 0.0000  plane waves:    7539
 k-point 72 :   0.3889 0.2222 0.0000  plane waves:    7535
 k-point 73 :   0.4444 0.2222 0.0000  plane waves:    7539
 k-point 74 :   0.5000 0.2222 0.0000  plane waves:    7531
 k-point 75 :  -0.4444 0.2222 0.0000  plane waves:    7537
 k-point 76 :  -0.3889 0.2222 0.0000  plane waves:    7521
 k-point 77 :  -0.3333 0.2222 0.0000  plane waves:    7513
 k-point 78 :  -0.2778 0.2222 0.0000  plane waves:    7518
 k-point 79 :  -0.2222 0.2222 0.0000  plane waves:    7507
 k-point 80 :  -0.1667 0.2222 0.0000  plane waves:    7495
 k-point 81 :  -0.1111 0.2222 0.0000  plane waves:    7495
 k-point 82 :  -0.0556 0.2222 0.0000  plane waves:    7495
 k-point 83 :   0.0000 0.2778 0.0000  plane waves:    7520
 k-point 84 :   0.0556 0.2778 0.0000  plane waves:    7519
 k-point 85 :   0.1111 0.2778 0.0000  plane waves:    7518
 k-point 86 :   0.1667 0.2778 0.0000  plane waves:    7525
 k-point 87 :   0.2222 0.2778 0.0000  plane waves:    7531
 k-point 88 :   0.2778 0.2778 0.0000  plane waves:    7531
 k-point 89 :   0.3333 0.2778 0.0000  plane waves:    7559
 k-point 90 :   0.3889 0.2778 0.0000  plane waves:    7559
 k-point 91 :   0.4444 0.2778 0.0000  plane waves:    7531
 k-point 92 :   0.5000 0.2778 0.0000  plane waves:    7531
 k-point 93 :  -0.4444 0.2778 0.0000  plane waves:    7525
 k-point 94 :  -0.3889 0.2778 0.0000  plane waves:    7518
 k-point 95 :  -0.3333 0.2778 0.0000  plane waves:    7519
 k-point 96 :  -0.2778 0.2778 0.0000  plane waves:    7520
 k-point 97 :  -0.2222 0.2778 0.0000  plane waves:    7518
 k-point 98 :  -0.1667 0.2778 0.0000  plane waves:    7504
 k-point 99 :  -0.1111 0.2778 0.0000  plane waves:    7504
 k-point ** :  -0.0556 0.2778 0.0000  plane waves:    7518
 k-point ** :   0.0000 0.3333 0.0000  plane waves:    7530
 k-point ** :   0.0556 0.3333 0.0000  plane waves:    7512
 k-point ** :   0.1111 0.3333 0.0000  plane waves:    7516
 k-point ** :   0.1667 0.3333 0.0000  plane waves:    7534
 k-point ** :   0.2222 0.3333 0.0000  plane waves:    7539
 k-point ** :   0.2778 0.3333 0.0000  plane waves:    7559
 k-point ** :   0.3333 0.3333 0.0000  plane waves:    7545
 k-point ** :   0.3889 0.3333 0.0000  plane waves:    7559
 k-point ** :   0.4444 0.3333 0.0000  plane waves:    7539
 k-point ** :   0.5000 0.3333 0.0000  plane waves:    7534
 k-point ** :  -0.4444 0.3333 0.0000  plane waves:    7516
 k-point ** :  -0.3889 0.3333 0.0000  plane waves:    7512
 k-point ** :  -0.3333 0.3333 0.0000  plane waves:    7530
 k-point ** :  -0.2778 0.3333 0.0000  plane waves:    7519
 k-point ** :  -0.2222 0.3333 0.0000  plane waves:    7513
 k-point ** :  -0.1667 0.3333 0.0000  plane waves:    7519
 k-point ** :  -0.1111 0.3333 0.0000  plane waves:    7513
 k-point ** :  -0.0556 0.3333 0.0000  plane waves:    7519
 k-point ** :   0.0000 0.3889 0.0000  plane waves:    7518
 k-point ** :   0.0556 0.3889 0.0000  plane waves:    7515
 k-point ** :   0.1111 0.3889 0.0000  plane waves:    7526
 k-point ** :   0.1667 0.3889 0.0000  plane waves:    7551
 k-point ** :   0.2222 0.3889 0.0000  plane waves:    7535
 k-point ** :   0.2778 0.3889 0.0000  plane waves:    7559
 k-point ** :   0.3333 0.3889 0.0000  plane waves:    7559
 k-point ** :   0.3889 0.3889 0.0000  plane waves:    7535
 k-point ** :   0.4444 0.3889 0.0000  plane waves:    7551
 k-point ** :   0.5000 0.3889 0.0000  plane waves:    7526
 k-point ** :  -0.4444 0.3889 0.0000  plane waves:    7515
 k-point ** :  -0.3889 0.3889 0.0000  plane waves:    7518
 k-point ** :  -0.3333 0.3889 0.0000  plane waves:    7512
 k-point ** :  -0.2778 0.3889 0.0000  plane waves:    7518
 k-point ** :  -0.2222 0.3889 0.0000  plane waves:    7521
 k-point ** :  -0.1667 0.3889 0.0000  plane waves:    7521
 k-point ** :  -0.1111 0.3889 0.0000  plane waves:    7518
 k-point ** :  -0.0556 0.3889 0.0000  plane waves:    7512
 k-point ** :   0.0000 0.4444 0.0000  plane waves:    7524
 k-point ** :   0.0556 0.4444 0.0000  plane waves:    7528
 k-point ** :   0.1111 0.4444 0.0000  plane waves:    7537
 k-point ** :   0.1667 0.4444 0.0000  plane waves:    7551
 k-point ** :   0.2222 0.4444 0.0000  plane waves:    7539
 k-point ** :   0.2778 0.4444 0.0000  plane waves:    7531
 k-point ** :   0.3333 0.4444 0.0000  plane waves:    7539
 k-point ** :   0.3889 0.4444 0.0000  plane waves:    7551
 k-point ** :   0.4444 0.4444 0.0000  plane waves:    7537
 k-point ** :   0.5000 0.4444 0.0000  plane waves:    7528
 k-point ** :  -0.4444 0.4444 0.0000  plane waves:    7524
 k-point ** :  -0.3889 0.4444 0.0000  plane waves:    7515
 k-point ** :  -0.3333 0.4444 0.0000  plane waves:    7516
 k-point ** :  -0.2778 0.4444 0.0000  plane waves:    7525
 k-point ** :  -0.2222 0.4444 0.0000  plane waves:    7537
 k-point ** :  -0.1667 0.4444 0.0000  plane waves:    7525
 k-point ** :  -0.1111 0.4444 0.0000  plane waves:    7516
 k-point ** :  -0.0556 0.4444 0.0000  plane waves:    7515
 k-point ** :   0.0000 0.5000 0.0000  plane waves:    7528
 k-point ** :   0.0556 0.5000 0.0000  plane waves:    7528
 k-point ** :   0.1111 0.5000 0.0000  plane waves:    7526
 k-point ** :   0.1667 0.5000 0.0000  plane waves:    7534
 k-point ** :   0.2222 0.5000 0.0000  plane waves:    7531
 k-point ** :   0.2778 0.5000 0.0000  plane waves:    7531
 k-point ** :   0.3333 0.5000 0.0000  plane waves:    7534
 k-point ** :   0.3889 0.5000 0.0000  plane waves:    7526
 k-point ** :   0.4444 0.5000 0.0000  plane waves:    7528
 k-point ** :   0.5000 0.5000 0.0000  plane waves:    7528

 maximum and minimum number of plane-waves per node :      7559     7495

 maximum number of plane-waves:      7559
 maximum index in each direction: 
   IXMAX=    9   IYMAX=    8   IZMAX=   25
   IXMIN=   -9   IYMIN=   -9   IZMIN=  -25


 serial   3D FFT for wavefunctions
 parallel 3D FFT for charge:
    minimum data exchange during FFTs selected (reduces bandwidth)


 total amount of memory used by VASP MPI-rank0   243068. kBytes
=======================================================================

   base      :      30000. kBytes
   nonl-proj :     159836. kBytes
   fftplans  :       3154. kBytes
   grid      :      10002. kBytes
   one-center:         24. kBytes
   wavefun   :      40052. kBytes
 
     INWAV:  cpu time    0.0000: real time    0.0000
 Broyden mixing: mesh for mixing (old mesh)
   NGX = 17   NGY = 17   NGZ = 51
  (NGX  = 72   NGY  = 72   NGZ  =216)
  gives a total of  14739 points

 initial charge density was supplied:
 charge density of overlapping atoms calculated
 number of electron      30.0000000 magnetization 
 keeping initial charge density in first step


--------------------------------------------------------------------------------------------------------


 Maximum index for augmentation-charges          428 (set IRDMAX)


--------------------------------------------------------------------------------------------------------


 First call to EWALD:  gamma=   0.252
 Maximum number of real-space cells 4x 4x 2
 Maximum number of reciprocal cells 2x 2x 5

    FEWALD:  cpu time    0.0018: real time    0.0023


--------------------------------------- Iteration      1(   1)  ---------------------------------------


    POTLOK:  cpu time    0.0607: real time    0.0621
    SETDIJ:  cpu time    0.0030: real time    0.0030
     EDDAV:  cpu time   11.5607: real time   11.5780
       DOS:  cpu time    0.0016: real time    0.0016
    --------------------------------------------
      LOOP:  cpu time   11.6260: real time   11.6447

 eigenvalue-minimisations  : 10496
 total energy-change (2. order) : 0.1810536E+03  (-0.1007370E+04)
 number of electron      30.0000000 magnetization 
 augmentation part       30.0000000 magnetization 

 Free energy of the ion-electron system (eV)
  ---------------------------------------------------
  alpha Z        PSCENC =        14.61461864
  Ewald energy   TEWEN  =      2603.47533640
  -Hartree energ DENC   =     -3361.43975615
  -exchange      EXHF   =         0.00000000
  -V(xc)+E(xc)   XCENC  =        91.18491800
  PAW double counting   =       738.13200929     -739.83780425
  entropy T*S    EENTRO =        -0.01456678
  eigenvalues    EBANDS =      -190.26501761
  atomic energy  EATOM  =      1025.20389953
  Solvation  Ediel_sol  =         0.00000000
  ---------------------------------------------------
  free energy    TOTEN  =       181.05363707 eV

  energy without entropy =      181.06820385  energy(sigma->0) =      181.06092046


--------------------------------------------------------------------------------------------------------




--------------------------------------- Iteration      1(   2)  ---------------------------------------


     EDDAV:  cpu time   17.0095: real time   17.0303
       DOS:  cpu time    0.0012: real time    0.0012
    --------------------------------------------
      LOOP:  cpu time   17.0107: real time   17.0315

 eigenvalue-minimisations  : 17232
 total energy-change (2. order) :-0.2312922E+03  (-0.2030920E+03)
 number of electron      30.0000000 magnetization 
 augmentation part       30.0000000 magnetization 

 Free energy of the ion-electron system (eV)
  ---------------------------------------------------
  alpha Z        PSCENC =        14.61461864
  Ewald energy   TEWEN  =      2603.47533640
  -Hartree energ DENC   =     -3361.43975615
  -exchange      EXHF   =         0.00000000
  -V(xc)+E(xc)   XCENC  =        91.18491800
  PAW double counting   =       738.13200929     -739.83780425
  entropy T*S    EENTRO =        -0.00000047
  eigenvalues    EBANDS =      -421.57178049
  atomic energy  EATOM  =      1025.20389953
  Solvation  Ediel_sol  =         0.00000000
  ---------------------------------------------------
  free energy    TOTEN  =       -50.23855951 eV

  energy without entropy =      -50.23855904  energy(sigma->0) =      -50.23855927


--------------------------------------------------------------------------------------------------------




--------------------------------------- Iteration      1(   3)  ---------------------------------------


     EDDAV:  cpu time   15.1377: real time   15.1562
       DOS:  cpu time    0.0010: real time    0.0010
    --------------------------------------------
      LOOP:  cpu time   15.1387: real time   15.1572

 eigenvalue-minimisations  : 14864
 total energy-change (2. order) :-0.2268462E+02  (-0.2244450E+02)
 number of electron      30.0000000 magnetization 
 augmentation part       30.0000000 magnetization 

 Free energy of the ion-electron system (eV)
  ---------------------------------------------------
  alpha Z        PSCENC =        14.61461864
  Ewald energy   TEWEN  =      2603.47533640
  -Hartree energ DENC   =     -3361.43975615
  -exchange      EXHF   =         0.00000000
  -V(xc)+E(xc)   XCENC  =        91.18491800
  PAW double counting   =       738.13200929     -739.83780425
  entropy T*S    EENTRO =        -0.00000000
  eigenvalues    EBANDS =      -444.25640536
  atomic energy  EATOM  =      1025.20389953
  Solvation  Ediel_sol  =         0.00000000
  ---------------------------------------------------
  free energy    TOTEN  =       -72.92318390 eV

  energy without entropy =      -72.92318390  energy(sigma->0) =      -72.92318390


--------------------------------------------------------------------------------------------------------




--------------------------------------- Iteration      1(   4)  ---------------------------------------


     EDDAV:  cpu time   14.9253: real time   14.9328
       DOS:  cpu time    0.0009: real time    0.0009
    --------------------------------------------
      LOOP:  cpu time   14.9263: real time   14.9337

 eigenvalue-minimisations  : 14640
 total energy-change (2. order) :-0.5459526E+00  (-0.5449999E+00)
 number of electron      30.0000000 magnetization 
 augmentation part       30.0000000 magnetization 

 Free energy of the ion-electron system (eV)
  ---------------------------------------------------
  alpha Z        PSCENC =        14.61461864
  Ewald energy   TEWEN  =      2603.47533640
  -Hartree energ DENC   =     -3361.43975615
  -exchange      EXHF   =         0.00000000
  -V(xc)+E(xc)   XCENC  =        91.18491800
  PAW double counting   =       738.13200929     -739.83780425
  entropy T*S    EENTRO =        -0.00000000
  eigenvalues    EBANDS =      -444.80235799
  atomic energy  EATOM  =      1025.20389953
  Solvation  Ediel_sol  =         0.00000000
  ---------------------------------------------------
  free energy    TOTEN  =       -73.46913654 eV

  energy without entropy =      -73.46913654  energy(sigma->0) =      -73.46913654


--------------------------------------------------------------------------------------------------------




--------------------------------------- Iteration      1(   5)  ---------------------------------------


     EDDAV:  cpu time   14.0720: real time   14.0912
       DOS:  cpu time    0.0009: real time    0.0009
    CHARGE:  cpu time    0.5008: real time    0.5009
    MIXING:  cpu time    0.0014: real time    0.0014
    --------------------------------------------
      LOOP:  cpu time   14.5751: real time   14.5944

 eigenvalue-minimisations  : 13632
 total energy-change (2. order) :-0.1235394E-01  (-0.1234426E-01)
 number of electron      30.0000000 magnetization 
 augmentation part        0.5840832 magnetization 

 Broyden mixing:
  rms(total) = 0.13164E+01    rms(broyden)= 0.13160E+01
  rms(prec ) = 0.15025E+01
  weight for this iteration     100.00

 Free energy of the ion-electron system (eV)
  ---------------------------------------------------
  alpha Z        PSCENC =        14.61461864
  Ewald energy   TEWEN  =      2603.47533640
  -Hartree energ DENC   =     -3361.43975615
  -exchange      EXHF   =         0.00000000
  -V(xc)+E(xc)   XCENC  =        91.18491800
  PAW double counting   =       738.13200929     -739.83780425
  entropy T*S    EENTRO =        -0.00000000
  eigenvalues    EBANDS =      -444.81471193
  atomic energy  EATOM  =      1025.20389953
  Solvation  Ediel_sol  =         0.00000000
  ---------------------------------------------------
  free energy    TOTEN  =       -73.48149048 eV

  energy without entropy =      -73.48149048  energy(sigma->0) =      -73.48149048


--------------------------------------------------------------------------------------------------------




--------------------------------------- Iteration      1(   6)  ---------------------------------------


    POTLOK:  cpu time    0.0509: real time    0.0524
    SETDIJ:  cpu time    0.0019: real time    0.0019
     EDDAV:  cpu time   15.2356: real time   15.2471
       DOS:  cpu time    0.0009: real time    0.0009
    CHARGE:  cpu time    0.4969: real time    0.4971
    MIXING:  cpu time    0.0014: real time    0.0014
    --------------------------------------------
      LOOP:  cpu time   15.7876: real time   15.8008

 eigenvalue-minimisations  : 15056
 total energy-change (2. order) : 0.4506250E+01  (-0.4061050E+00)
 number of electron      30.0000000 magnetization 
 augmentation part        0.5429232 magnetization 

 Broyden mixing:
  rms(total) = 0.74241E+00    rms(broyden)= 0.74235E+00
  rms(prec ) = 0.83511E+00
  weight for this iteration     100.00

 eigenvalues of (default mixing * dielectric matrix)
  average eigenvalue GAMMA=   1.9991
  1.9991

 Free energy of the ion-electron system (eV)
  ---------------------------------------------------
  alpha Z        PSCENC =        14.61461864
  Ewald energy   TEWEN  =      2603.47533640
  -Hartree energ DENC   =     -3407.88173241
  -exchange      EXHF   =         0.00000000
  -V(xc)+E(xc)   XCENC  =        93.20907628
  PAW double counting   =      1382.37701667    -1384.64516956
  entropy T*S    EENTRO =        -0.00000000
  eigenvalues    EBANDS =      -395.32828557
  atomic energy  EATOM  =      1025.20389953
  Solvation  Ediel_sol  =         0.00000000
  ---------------------------------------------------
  free energy    TOTEN  =       -68.97524002 eV

  energy without entropy =      -68.97524002  energy(sigma->0) =      -68.97524002


--------------------------------------------------------------------------------------------------------




--------------------------------------- Iteration      1(   7)  ---------------------------------------


    POTLOK:  cpu time    0.0499: real time    0.0501
    SETDIJ:  cpu time    0.0018: real time    0.0018
     EDDAV:  cpu time   15.2401: real time   15.2589
       DOS:  cpu time    0.0011: real time    0.0011
    CHARGE:  cpu time    0.4989: real time    0.4991
    MIXING:  cpu time    0.0013: real time    0.0013
    --------------------------------------------
      LOOP:  cpu time   15.7932: real time   15.8124

 eigenvalue-minimisations  : 15072
 total energy-change (2. order) : 0.1643873E+01  (-0.3709898E+00)
 number of electron      30.0000000 magnetization 
 augmentation part        0.5053612 magnetization 

 Broyden mixing:
  rms(total) = 0.22037E+00    rms(broyden)= 0.22026E+00
  rms(prec ) = 0.24301E+00
  weight for this iteration     100.00

 eigenvalues of (default mixing * dielectric matrix)
  average eigenvalue GAMMA=   1.9832
  1.5606  2.4057

 Free energy of the ion-electron system (eV)
  ---------------------------------------------------
  alpha Z        PSCENC =        14.61461864
  Ewald energy   TEWEN  =      2603.47533640
  -Hartree energ DENC   =     -3460.58619263
  -exchange      EXHF   =         0.00000000
  -V(xc)+E(xc)   XCENC  =        95.47520349
  PAW double counting   =      2479.67487452    -2482.37125842
  entropy T*S    EENTRO =        -0.00000000
  eigenvalues    EBANDS =      -342.81784888
  atomic energy  EATOM  =      1025.20389953
  Solvation  Ediel_sol  =         0.00000000
  ---------------------------------------------------
  free energy    TOTEN  =       -67.33136735 eV

  energy without entropy =      -67.33136735  energy(sigma->0) =      -67.33136735


--------------------------------------------------------------------------------------------------------




--------------------------------------- Iteration      1(   8)  ---------------------------------------


    POTLOK:  cpu time    0.0507: real time    0.0508
    SETDIJ:  cpu time    0.0018: real time    0.0018
     EDDAV:  cpu time   14.5493: real time   14.5566
       DOS:  cpu time    0.0012: real time    0.0012
    CHARGE:  cpu time    0.4970: real time    0.4973
    MIXING:  cpu time    0.0015: real time    0.0015
    --------------------------------------------
      LOOP:  cpu time   15.1016: real time   15.1093

 eigenvalue-minimisations  : 14160
 total energy-change (2. order) : 0.7951996E-01  (-0.2250972E-01)
 number of electron      30.0000000 magnetization 
 augmentation part        0.4984978 magnetization 

 Broyden mixing:
  rms(total) = 0.52567E-01    rms(broyden)= 0.52544E-01
  rms(prec ) = 0.77424E-01
  weight for this iteration     100.00

 eigenvalues of (default mixing * dielectric matrix)
  average eigenvalue GAMMA=   1.8085
  1.2153  2.1051  2.1051

 Free energy of the ion-electron system (eV)
  ---------------------------------------------------
  alpha Z        PSCENC =        14.61461864
  Ewald energy   TEWEN  =      2603.47533640
  -Hartree energ DENC   =     -3474.25694458
  -exchange      EXHF   =         0.00000000
  -V(xc)+E(xc)   XCENC  =        95.84070944
  PAW double counting   =      2880.57417731    -2883.19122415
  entropy T*S    EENTRO =        -0.00000001
  eigenvalues    EBANDS =      -329.51241996
  atomic energy  EATOM  =      1025.20389953
  Solvation  Ediel_sol  =         0.00000000
  ---------------------------------------------------
  free energy    TOTEN  =       -67.25184739 eV

  energy without entropy =      -67.25184738  energy(sigma->0) =      -67.25184739


--------------------------------------------------------------------------------------------------------




--------------------------------------- Iteration      1(   9)  ---------------------------------------


    POTLOK:  cpu time    0.0521: real time    0.0537
    SETDIJ:  cpu time    0.0019: real time    0.0019
     EDDAV:  cpu time   13.9979: real time   14.0041
       DOS:  cpu time    0.0011: real time    0.0011
    CHARGE:  cpu time    0.4974: real time    0.4976
    MIXING:  cpu time    0.0014: real time    0.0014
    --------------------------------------------
      LOOP:  cpu time   14.5518: real time   14.5598

 eigenvalue-minimisations  : 13584
 total energy-change (2. order) : 0.1488839E-01  (-0.2291803E-02)
 number of electron      30.0000000 magnetization 
 augmentation part        0.4986481 magnetization 

 Broyden mixing:
  rms(total) = 0.18056E-01    rms(broyden)= 0.18051E-01
  rms(prec ) = 0.43800E-01
  weight for this iteration     100.00

 eigenvalues of (default mixing * dielectric matrix)
  average eigenvalue GAMMA=   1.8466
  2.4787  2.3506  1.1992  1.3580

 Free energy of the ion-electron system (eV)
  ---------------------------------------------------
  alpha Z        PSCENC =        14.61461864
  Ewald energy   TEWEN  =      2603.47533640
  -Hartree energ DENC   =     -3479.70610355
  -exchange      EXHF   =         0.00000000
  -V(xc)+E(xc)   XCENC  =        95.89405699
  PAW double counting   =      2917.41723653    -2919.97177536
  entropy T*S    EENTRO =        -0.00000001
  eigenvalues    EBANDS =      -324.16422815
  atomic energy  EATOM  =      1025.20389953
  Solvation  Ediel_sol  =         0.00000000
  ---------------------------------------------------
  free energy    TOTEN  =       -67.23695900 eV

  energy without entropy =      -67.23695899  energy(sigma->0) =      -67.23695899


--------------------------------------------------------------------------------------------------------




[...]
     20       2.6811      0.00000
     21       3.5186      0.00000
     22       3.5767      0.00000
     23       4.1020      0.00000
     24       4.1059      0.00000
     25       5.0835      0.00000
     26       5.3152      0.00000
     27       5.5634      0.00000
     28       5.9682      0.00000
     29       6.2482      0.00000
     30       6.3009      0.00000
     31       6.4220      0.00000
     32       6.4451      0.00000

 k-point   156 :       0.0556    0.5000    0.0000
  band No.  band energies     occupation 
      1     -19.3121      2.00000
      2     -17.5939      2.00000
      3     -16.5024      2.00000
      4     -14.1159      2.00000
      5     -11.9291      2.00000
      6     -10.0768      2.00000
      7      -9.7919      2.00000
      8      -9.0419      2.00000
      9      -7.7237      2.00000
     10      -7.6091      2.00000
     11      -7.1234      2.00000
     12      -6.5985      2.00000
     13      -6.1400      2.00000
     14      -5.0474      2.00000
     15      -4.8537      2.00000
     16      -3.0445      0.00000
     17       0.4993      0.00000
     18       1.7862      0.00000
     19       2.4992      0.00000
     20       2.9048      0.00000
     21       3.3746      0.00000
     22       3.7625      0.00000
     23       3.9209      0.00000
     24       4.3332      0.00000
     25       4.8462      0.00000
     26       5.5010      0.00000
     27       5.5335      0.00000
     28       5.8852      0.00000
     29       5.9004      0.00000
     30       6.3647      0.00000
     31       6.4281      0.00000
     32       6.5460      0.00000

 k-point   157 :       0.1111    0.5000    0.0000
  band No.  band energies     occupation 
      1     -19.3167      2.00000
      2     -17.5312      2.00000
      3     -16.6216      2.00000
      4     -13.9240      2.00000
      5     -12.1320      2.00000
      6     -10.2099      2.00000
      7      -9.7423      2.00000
      8      -8.7659      2.00000
      9      -7.9007      2.00000
     10      -7.6381      2.00000
     11      -6.8800      2.00000
     12      -6.4802      2.00000
     13      -6.2556      2.00000
     14      -5.1470      2.00000
     15      -5.0827      2.00000
     16      -2.7742      0.00000
     17       0.1070      0.00000
     18       2.1791      0.00000
     19       2.3644      0.00000
     20       3.1755      0.00000
     21       3.2541      0.00000
     22       3.7839      0.00000
     23       3.9967      0.00000
     24       4.5100      0.00000
     25       4.6086      0.00000
     26       5.1629      0.00000
     27       5.6213      0.00000
     28       5.8124      0.00000
     29       5.9360      0.00000
     30       6.1407      0.00000
     31       6.3767      0.00000
     32       6.6397      0.00000

 k-point   158 :       0.1667    0.5000    0.0000
  band No.  band energies     occupation 
      1     -19.3218      2.00000
      2     -17.4404      2.00000
      3     -16.7698      2.00000
      4     -13.6599      2.00000
      5     -12.4123      2.00000
      6     -10.3122      2.00000
      7      -9.6668      2.00000
      8      -8.5927      2.00000
      9      -7.9037      2.00000
     10      -7.6675      2.00000
     11      -6.7834      2.00000
     12      -6.3136      2.00000
     13      -6.3092      2.00000
     14      -5.3464      2.00000
     15      -5.2868      2.00000
     16      -2.4621      0.00000
     17      -0.2771      0.00000
     18       2.2748      0.00000
     19       2.5734      0.00000
     20       3.2018      0.00000
     21       3.4909      0.00000
     22       3.6928      0.00000
     23       4.0015      0.00000
     24       4.4177      0.00000
     25       4.6940      0.00000
     26       4.9303      0.00000
     27       5.4440      0.00000
     28       5.6990      0.00000
     29       6.0899      0.00000
     30       6.1174      0.00000
     31       6.2380      0.00000
     32       6.3702      0.00000

 k-point   159 :       0.2222    0.5000    0.0000
  band No.  band energies     occupation 
      1     -19.3251      2.00000
      2     -17.3568      2.00000
      3     -16.8877      2.00000
      4     -13.4104      2.00000
      5     -12.6738      2.00000
      6     -10.3630      2.00000
      7      -9.6098      2.00000
      8      -8.5840      2.00000
      9      -7.7464      2.00000
     10      -7.6851      2.00000
     11      -6.8949      2.00000
     12      -6.2200      2.00000
     13      -6.1548      2.00000
     14      -5.5585      2.00000
     15      -5.4080      2.00000
     16      -2.2315      0.00000
     17      -0.5403      0.00000
     18       2.2301      0.00000
     19       2.8316      0.00000
     20       3.3053      0.00000
     21       3.6471      0.00000
     22       3.6577      0.00000
     23       3.8503      0.00000
     24       4.2530      0.00000
     25       4.7125      0.00000
     26       5.0888      0.00000
     27       5.2967      0.00000
     28       5.6306      0.00000
     29       5.7070      0.00000
     30       6.1649      0.00000
     31       6.2528      0.00000
     32       6.6615      0.00000

 k-point   160 :       0.2778    0.5000    0.0000
  band No.  band energies     occupation 
      1     -19.3251      2.00000
      2     -17.3568      2.00000
      3     -16.8878      2.00000
      4     -13.4104      2.00000
      5     -12.6737      2.00000
      6     -10.3630      2.00000
      7      -9.6098      2.00000
      8      -8.5841      2.00000
      9      -7.7460      2.00000
     10      -7.6851      2.00000
     11      -6.8951      2.00000
     12      -6.2198      2.00000
     13      -6.1547      2.00000
     14      -5.5586      2.00000
     15      -5.4081      2.00000
     16      -2.2315      0.00000
     17      -0.5403      0.00000
     18       2.2301      0.00000
     19       2.8316      0.00000
     20       3.3051      0.00000
     21       3.6471      0.00000
     22       3.6579      0.00000
     23       3.8503      0.00000
     24       4.2530      0.00000
     25       4.7125      0.00000
     26       5.0888      0.00000
     27       5.2967      0.00000
     28       5.6306      0.00000
     29       5.7070      0.00000
     30       6.1649      0.00000
     31       6.2528      0.00000
     32       6.6609      0.00000

 k-point   161 :       0.3333    0.5000    0.0000
  band No.  band energies     occupation 
      1     -19.3218      2.00000
      2     -17.4403      2.00000
      3     -16.7699      2.00000
      4     -13.6600      2.00000
      5     -12.4123      2.00000
      6     -10.3122      2.00000
      7      -9.6667      2.00000
      8      -8.5930      2.00000
      9      -7.9030      2.00000
     10      -7.6676      2.00000
     11      -6.7838      2.00000
     12      -6.3135      2.00000
     13      -6.3090      2.00000
     14      -5.3465      2.00000
     15      -5.2870      2.00000
     16      -2.4621      0.00000
     17      -0.2771      0.00000
     18       2.2748      0.00000
     19       2.5733      0.00000
     20       3.2017      0.00000
     21       3.4909      0.00000
     22       3.6928      0.00000
     23       4.0017      0.00000
     24       4.4177      0.00000
     25       4.6940      0.00000
     26       4.9303      0.00000
     27       5.4439      0.00000
     28       5.6990      0.00000
     29       6.0899      0.00000
     30       6.1173      0.00000
     31       6.2379      0.00000
     32       6.3699      0.00000

 k-point   162 :       0.3889    0.5000    0.0000
  band No.  band energies     occupation 
      1     -19.3167      2.00000
      2     -17.5310      2.00000
      3     -16.6217      2.00000
      4     -13.9241      2.00000
      5     -12.1320      2.00000
      6     -10.2099      2.00000
      7      -9.7422      2.00000
      8      -8.7660      2.00000
      9      -7.9002      2.00000
     10      -7.6382      2.00000
     11      -6.8801      2.00000
     12      -6.4801      2.00000
     13      -6.2558      2.00000
     14      -5.1472      2.00000
     15      -5.0827      2.00000
     16      -2.7742      0.00000
     17       0.1070      0.00000
     18       2.1789      0.00000
     19       2.3645      0.00000
     20       3.1755      0.00000
     21       3.2540      0.00000
     22       3.7839      0.00000
     23       3.9967      0.00000
     24       4.5101      0.00000
     25       4.6086      0.00000
     26       5.1629      0.00000
     27       5.6212      0.00000
     28       5.8124      0.00000
     29       5.9356      0.00000
     30       6.1407      0.00000
     31       6.3766      0.00000
     32       6.6397      0.00000

 k-point   163 :       0.4444    0.5000    0.0000
  band No.  band energies     occupation 
      1     -19.3122      2.00000
      2     -17.5937      2.00000
      3     -16.5026      2.00000
      4     -14.1161      2.00000
      5     -11.9291      2.00000
      6     -10.0768      2.00000
      7      -9.7919      2.00000
      8      -9.0418      2.00000
      9      -7.7234      2.00000
     10      -7.6092      2.00000
     11      -7.1232      2.00000
     12      -6.5984      2.00000
     13      -6.1403      2.00000
     14      -5.0476      2.00000
     15      -4.8538      2.00000
     16      -3.0444      0.00000
     17       0.4993      0.00000
     18       1.7860      0.00000
     19       2.4992      0.00000
     20       2.9048      0.00000
     21       3.3746      0.00000
     22       3.7625      0.00000
     23       3.9209      0.00000
     24       4.3332      0.00000
     25       4.8463      0.00000
     26       5.5010      0.00000
     27       5.5333      0.00000
     28       5.8852      0.00000
     29       5.9002      0.00000
     30       6.3648      0.00000
     31       6.4281      0.00000
     32       6.5460      0.00000

 k-point   164 :       0.5000    0.5000    0.0000
  band No.  band energies     occupation 
      1     -19.3104      2.00000
      2     -17.6157      2.00000
      3     -16.4563      2.00000
      4     -14.1870      2.00000
      5     -11.8553      2.00000
      6     -10.0073      2.00000
      7      -9.7934      2.00000
      8      -9.1894      2.00000
      9      -7.5967      2.00000
     10      -7.5606      2.00000
     11      -7.3067      2.00000
     12      -6.6415      2.00000
     13      -6.0932      2.00000
     14      -5.0121      2.00000
     15      -4.7561      2.00000
     16      -3.1576      0.00001
     17       0.7139      0.00000
     18       1.5724      0.00000
     19       2.6774      0.00000
     20       2.6811      0.00000
     21       3.5186      0.00000
     22       3.5767      0.00000
     23       4.1021      0.00000
     24       4.1059      0.00000
     25       5.0838      0.00000
     26       5.3151      0.00000
     27       5.5630      0.00000
     28       5.9682      0.00000
     29       6.2483      0.00000
     30       6.3009      0.00000
     31       6.4220      0.00000
     32       6.4451      0.00000


--------------------------------------------------------------------------------------------------------


 soft charge-density along one line, spin component           1
         0         1         2         3         4         5         6         7         8         9
 total charge-density along one line
 
 pseudopotential strength for first ion, spin component:           1
  6.732  10.272  -0.000   0.000  -0.000  -0.000   0.000  -0.000
 10.272  15.670  -0.000   0.000  -0.000  -0.000   0.000  -0.000
 -0.000  -0.000  -2.315  -0.000   0.000  -3.974  -0.000   0.000
  0.000   0.000  -0.000  -2.321  -0.000  -0.000  -3.981  -0.000
 -0.000  -0.000   0.000  -0.000  -2.315   0.000  -0.000  -3.974
 -0.000  -0.000  -3.974  -0.000   0.000  -6.623  -0.000   0.000
  0.000   0.000  -0.000  -3.981  -0.000  -0.000  -6.632  -0.000
 -0.000  -0.000   0.000  -0.000  -3.974   0.000  -0.000  -6.623
 total augmentation occupancy for first ion, spin component:           1
  3.719  -0.953  -0.000   0.000   0.000   0.000   0.000  -0.000
 -0.953   0.264   0.000   0.000  -0.000  -0.000   0.000   0.000
 -0.000   0.000   4.142   0.000  -0.000  -1.105   0.000   0.000
  0.000   0.000   0.000   0.892   0.000   0.000  -0.223   0.000
  0.000  -0.000  -0.000   0.000   4.142   0.000   0.000  -1.105
  0.000  -0.000  -1.105   0.000   0.000   0.306   0.000  -0.000
  0.000   0.000   0.000  -0.223   0.000   0.000   0.056   0.000
 -0.000   0.000   0.000   0.000  -1.105  -0.000   0.000   0.306


------------------------ aborting loop because EDIFF is reached ----------------------------------------


    CHARGE:  cpu time    0.4986: real time    0.4987
    FORLOC:  cpu time    0.0049: real time    0.0049
    FORNL :  cpu time    1.6410: real time    1.6445
    STRESS:  cpu time    9.4410: real time    9.4549
    FORCOR:  cpu time    0.0549: real time    0.0549
    FORHAR:  cpu time    0.0134: real time    0.0134
    MIXING:  cpu time    0.0023: real time    0.0023
    OFIELD:  cpu time    0.0001: real time    0.0001

 ---------------------------------------------------------------------------------------------

         DFTD3 V3.0 Rev 1        
 IVDW         = 12
 DF pbe       
 parameters
 VDW_S6       =    1.0000
 VDW_S8       =    0.7875
 VDW_A1       =    0.4289
 VDW_A2       =    4.4407
 k1-k3        =   16.0000    1.3333   -4.0000
 VDW_RADIUS   =   50.2022 A
 VDW_CNRADIUS =   21.1671 A
 Edisp (eV)   -0.67804

 E6    (eV) :    -0.4579
 E8    (eV) :    -0.2201
 % E8        : 32.46
    FORVDW:  cpu time    0.0283: real time    0.0291

  FORCE on cell =-STRESS in cart. coord.  units (eV):
  Direction    XX          YY          ZZ          XY          YZ          ZX
  --------------------------------------------------------------------------------------
  Alpha Z    14.61462    14.61462    14.61462
  Ewald    3501.17518  3501.20683 -4398.90803     0.00327     0.00000     0.00000
  Hartree  3440.13108  3440.13719 -3381.40956    -0.00006    -0.00000     0.00000
  E(xc)    -107.49127  -107.49122  -111.32333     0.00001    -0.00000     0.00000
  Local   -7258.17084 -7258.20340  7443.59044    -0.00237     0.00000     0.00000
  n-local   -21.69676   -21.69615   -10.37217     0.00001     0.00000    -0.00000
  augment    -1.80629    -1.80624    -1.79655    -0.00002    -0.00000    -0.00000
  Kinetic   433.61675   433.61184   445.42252    -0.00034    -0.00000     0.00000
  Fock        0.00000     0.00000     0.00000     0.00000     0.00000     0.00000
  vdW        -0.54283    -0.54284    -0.00593     0.00000     0.00000    -0.00000
  -------------------------------------------------------------------------------------
  Total      -0.17037    -0.16937    -0.18798     0.00049     0.00000     0.00000
  in kB      -0.78645    -0.78181    -0.86775     0.00227     0.00000     0.00000
  external pressure =       -0.81 kB  Pullay stress =        0.00 kB


 VOLUME and BASIS-vectors are now :
 -----------------------------------------------------------------------------
  energy-cutoff  :      450.00
  volume of cell :      347.08
      direct lattice vectors                 reciprocal lattice vectors
     4.476485000  2.584500000  0.000000000     0.111694778  0.193461018  0.000000000
    -4.476485000  2.584500000  0.000000000    -0.111694778  0.193461018  0.000000000
     0.000000000  0.000000000 15.000000000     0.000000000  0.000000000  0.066666667

  length of vectors
     5.168999730  5.168999730 15.000000000     0.223389545  0.223389545  0.066666667


 FORCES acting on ions
    electron-ion (+dipol)            ewald-force                    non-local-force                 convergence-correction
 -----------------------------------------------------------------------------------------------
   0.117E-02 -.209E-02 0.177E-06   -.102E-02 0.230E-02 0.856E-18   0.209E-03 0.294E-03 0.000E+00   -.612E-06 -.233E-06 -.386E-13
   -.140E-01 0.566E-03 0.224E-07   0.159E-01 -.396E-03 -.373E-18   0.241E-02 0.147E-03 0.000E+00   -.267E-05 0.914E-06 -.371E-13
   0.256E+02 -.443E+02 -.228E-06   -.276E+02 0.478E+02 0.467E-18   0.201E+01 -.348E+01 0.000E+00   0.140E-04 -.174E-04 -.572E-13
   -.256E+02 -.443E+02 -.398E-06   0.276E+02 0.478E+02 -.660E-19   -.201E+01 -.348E+01 0.000E+00   -.107E-04 -.204E-04 -.530E-13
   -.511E+02 -.744E-02 0.421E-07   0.551E+02 0.834E-02 -.138E-18   -.402E+01 -.121E-02 0.000E+00   -.244E-04 -.146E-05 -.524E-13
   0.511E+02 0.868E-02 -.163E-06   -.552E+02 -.999E-02 0.725E-18   0.402E+01 0.115E-02 0.000E+00   0.227E-04 0.212E-06 -.578E-13
   0.256E+02 0.443E+02 0.259E-06   -.276E+02 -.478E+02 -.545E-18   0.201E+01 0.348E+01 0.000E+00   0.157E-04 0.175E-04 -.578E-13
   -.256E+02 0.443E+02 0.103E-09   0.276E+02 -.478E+02 -.925E-18   -.201E+01 0.348E+01 0.000E+00   -.103E-04 0.202E-04 -.542E-13
 -----------------------------------------------------------------------------------------------
   -.487E-03 -.720E-04 -.288E-06   -.711E-14 0.213E-13 0.000E+00   0.804E-03 0.602E-03 0.000E+00   0.384E-05 -.728E-06 -.408E-12
 
 
 POSITION                                       TOTAL-FORCE (eV/Angst)
 -----------------------------------------------------------------------------------
     -1.48097      2.60387      3.75000         0.000316      0.000436      0.000000
      1.50327      2.60388      3.75000         0.004251      0.000252      0.000000
     -0.69950      1.25022      3.75000        -0.000143      0.000128      0.000000
      0.72178      1.25029      3.75000        -0.000026     -0.000821      0.000000
     -3.04401      2.60396      3.75000         0.001161     -0.000374      0.000000
      3.06640      2.60382      3.75000        -0.001855     -0.000224      0.000000
     -0.69937      3.95746      3.75000        -0.001424      0.001387      0.000000
      0.72193      3.95755      3.75000        -0.002281     -0.000784      0.000000
 -----------------------------------------------------------------------------------
    total drift:                                0.000320      0.000529     -0.000000


--------------------------------------------------------------------------------------------------------



  FREE ENERGIE OF THE ION-ELECTRON SYSTEM (eV)
  ---------------------------------------------------
  free  energy   TOTEN  =       -67.90774022 eV

  energy  without entropy=      -67.90774017  energy(sigma->0) =      -67.90774019
 


--------------------------------------------------------------------------------------------------------


    POTLOK:  cpu time    0.0549: real time    0.0549


--------------------------------------------------------------------------------------------------------




--------------------------------------------------------------------------------------------------------


  
 reached required accuracy - stopping structural energy minimisation
     LOOP+:  cpu time  307.5701: real time  307.8790
    4ORBIT:  cpu time    0.0000: real time    0.0000

 total amount of memory used by VASP MPI-rank0   243068. kBytes
=======================================================================

   base      :      30000. kBytes
   nonl-proj :     159836. kBytes
   fftplans  :       3154. kBytes
   grid      :      10002. kBytes
   one-center:         24. kBytes
   wavefun   :      40052. kBytes
 
  
  
 General timing and accounting informations for this job:
 ========================================================
  
                  Total CPU time used (sec):      312.862
                            User time (sec):      312.082
                          System time (sec):        0.781
                         Elapsed time (sec):      313.567
  
                   Maximum memory used (kb):      374000.
                   Average memory used (kb):           0.
  
                          Minor page faults:        54290
                          Major page faults:            0
                 Voluntary context switches:         1073
