   8   8   0   0
  0.4338553E+02  0.5169000E-09  0.5169000E-09  0.1500000E-08  0.5000000E-15
  1.000000000000000E-004
  CAR 
 BC3                                     
      9.52937831    -21.28553833  301     -3.47865841      1.00000000
    -21.286  0.0000E+00  0.0000E+00
    -21.183  0.0000E+00  0.0000E+00
    -21.080  0.0000E+00  0.0000E+00
    -20.977  0.0000E+00  0.0000E+00
    -20.875  0.0000E+00  0.0000E+00
    -20.772  0.0000E+00  0.0000E+00
    -20.669  0.0000E+00  0.0000E+00
    -20.567  0.0000E+00  0.0000E+00
    -20.464  0.1279E-18  0.1314E-19
    -20.361  0.1512E-13  0.1554E-14
    -20.258  0.1448E-09  0.1487E-10
    -20.156  0.1913E-06  0.1966E-07
    -20.053  0.3712E-04  0.3833E-05
    -19.950  0.1199E-02  0.1270E-03
    -19.848  0.8107E-02  0.9597E-03
    -19.745  0.1714E-01  0.2720E-02
    -19.642  0.2079E-01  0.4856E-02
    -19.539  0.2342E-01  0.7261E-02
    -19.437  0.2882E-01  0.1022E-01
    -19.334  0.3993E-01  0.1432E-01
    -19.231  0.3924E-01  0.1835E-01
    -19.128  0.1456E-01  0.1985E-01
    -19.026  0.1436E-02  0.2000E-01
    -18.923  0.2908E-04  0.2000E-01
    -18.820  0.9772E-07  0.2000E-01
    -18.718  0.4725E-10  0.2000E-01
    -18.615  0.3050E-14  0.2000E-01
    -18.512  0.0000E+00  0.2000E-01
    -18.409  0.0000E+00  0.2000E-01
    -18.307  0.0000E+00  0.2000E-01
    -18.204  0.0000E+00  0.2000E-01
    -18.101  0.5570E-14  0.2000E-01
    -17.999  0.7876E-10  0.2000E-01
    -17.896  0.1440E-06  0.2000E-01
    -17.793  0.3575E-04  0.2000E-01
    -17.690  0.1365E-02  0.2014E-01
    -17.588  0.1056E-01  0.2123E-01
    -17.485  0.2538E-01  0.2383E-01
    -17.382  0.3208E-01  0.2713E-01
    -17.280  0.2752E-01  0.2996E-01
    -17.177  0.1958E-01  0.3197E-01
    -17.074  0.1834E-01  0.3385E-01
    -16.971  0.1929E-01  0.3583E-01
    -16.869  0.2033E-01  0.3792E-01
    -16.766  0.2085E-01  0.4006E-01
    -16.663  0.2395E-01  0.4252E-01
    -16.561  0.2810E-01  0.4541E-01
    -16.458  0.3400E-01  0.4890E-01
    -16.355  0.3376E-01  0.5237E-01
    -16.252  0.2668E-01  0.5511E-01
    -16.150  0.1995E-01  0.5716E-01
    -16.047  0.1666E-01  0.5887E-01
    -15.944  0.9078E-02  0.5980E-01
    -15.842  0.1830E-02  0.5999E-01
    -15.739  0.9398E-04  0.6000E-01
    -15.636  0.8785E-06  0.6000E-01
    -15.533  0.1258E-08  0.6000E-01
    -15.431  0.2523E-12  0.6000E-01
    -15.328  0.6524E-17  0.6000E-01
    -15.225  0.0000E+00  0.6000E-01
    -15.123  0.0000E+00  0.6000E-01
    -15.020  0.0000E+00  0.6000E-01
    -14.917  0.0000E+00  0.6000E-01
    -14.814  0.0000E+00  0.6000E-01
    -14.712  0.2049E-15  0.6000E-01
    -14.609  0.4828E-11  0.6000E-01
    -14.506  0.1466E-07  0.6000E-01
    -14.404  0.6003E-05  0.6000E-01
    -14.301  0.3640E-03  0.6004E-01
    -14.198  0.4030E-02  0.6045E-01
    -14.095  0.1352E-01  0.6184E-01
    -13.993  0.2352E-01  0.6426E-01
    -13.890  0.2293E-01  0.6661E-01
    -13.787  0.2583E-01  0.6927E-01
    -13.685  0.4127E-01  0.7350E-01
    -13.582  0.2875E-01  0.7646E-01
    -13.479  0.1221E-01  0.7771E-01
    -13.376  0.1588E-01  0.7934E-01
    -13.274  0.1930E-01  0.8133E-01
    -13.171  0.1374E-01  0.8274E-01
    -13.068  0.9666E-02  0.8373E-01
    -12.966  0.1121E-01  0.8488E-01
    -12.863  0.1734E-01  0.8666E-01
    -12.760  0.1683E-01  0.8839E-01
    -12.657  0.1130E-01  0.8955E-01
    -12.555  0.1944E-01  0.9155E-01
    -12.452  0.2724E-01  0.9435E-01
    -12.349  0.1415E-01  0.9580E-01
    -12.246  0.1044E-01  0.9687E-01
    -12.144  0.2072E-01  0.9900E-01
    -12.041  0.1553E-01  0.1006E+00
    -11.938  0.8296E-02  0.1014E+00
    -11.836  0.1009E-01  0.1025E+00
    -11.733  0.9604E-02  0.1035E+00
    -11.630  0.5842E-02  0.1041E+00
    -11.527  0.2659E-02  0.1043E+00
    -11.425  0.5772E-03  0.1044E+00
    -11.322  0.4188E-02  0.1048E+00
    -11.219  0.1206E-01  0.1061E+00
    -11.117  0.1043E-01  0.1071E+00
    -11.014  0.7234E-02  0.1079E+00
    -10.911  0.4203E-02  0.1083E+00
    -10.808  0.1006E-01  0.1094E+00
    -10.706  0.1966E-01  0.1114E+00
    -10.603  0.2140E-01  0.1136E+00
    -10.500  0.1668E-01  0.1153E+00
    -10.398  0.2039E-01  0.1174E+00
    -10.295  0.1682E-01  0.1191E+00
    -10.192  0.2047E-01  0.1212E+00
    -10.089  0.1910E-01  0.1232E+00
     -9.987  0.1212E-01  0.1244E+00
     -9.884  0.2530E-01  0.1270E+00
     -9.781  0.2839E-01  0.1299E+00
     -9.679  0.1586E-01  0.1316E+00
     -9.576  0.2010E-01  0.1336E+00
     -9.473  0.2387E-01  0.1361E+00
     -9.370  0.1988E-01  0.1381E+00
     -9.268  0.2156E-01  0.1403E+00
     -9.165  0.2235E-01  0.1426E+00
     -9.062  0.2085E-01  0.1448E+00
     -8.960  0.1714E-01  0.1465E+00
     -8.857  0.2361E-01  0.1490E+00
     -8.754  0.3127E-01  0.1522E+00
     -8.651  0.3031E-01  0.1553E+00
     -8.549  0.2745E-01  0.1581E+00
     -8.446  0.2575E-01  0.1607E+00
     -8.343  0.2448E-01  0.1633E+00
     -8.241  0.1963E-01  0.1653E+00
     -8.138  0.2069E-01  0.1674E+00
     -8.035  0.2528E-01  0.1700E+00
     -7.932  0.2924E-01  0.1730E+00
     -7.830  0.4155E-01  0.1773E+00
     -7.727  0.4842E-01  0.1822E+00
     -7.624  0.3845E-01  0.1862E+00
     -7.522  0.3745E-01  0.1900E+00
     -7.419  0.2799E-01  0.1929E+00
     -7.316  0.2007E-01  0.1950E+00
     -7.213  0.1729E-01  0.1968E+00
     -7.111  0.1788E-01  0.1986E+00
     -7.008  0.2209E-01  0.2009E+00
     -6.905  0.1889E-01  0.2028E+00
     -6.803  0.1078E-01  0.2039E+00
     -6.700  0.1491E-01  0.2054E+00
     -6.597  0.3539E-01  0.2091E+00
     -6.494  0.4083E-01  0.2133E+00
     -6.392  0.6493E-01  0.2199E+00
     -6.289  0.7848E-01  0.2280E+00
     -6.186  0.5988E-01  0.2341E+00
     -6.084  0.4025E-01  0.2383E+00
     -5.981  0.2905E-01  0.2413E+00
     -5.878  0.1945E-01  0.2433E+00
     -5.775  0.2195E-01  0.2455E+00
     -5.673  0.2639E-01  0.2482E+00
     -5.570  0.2851E-01  0.2512E+00
     -5.467  0.2667E-01  0.2539E+00
     -5.364  0.2255E-01  0.2562E+00
     -5.262  0.2993E-01  0.2593E+00
     -5.159  0.3498E-01  0.2629E+00
     -5.056  0.4118E-01  0.2671E+00
     -4.954  0.3594E-01  0.2708E+00
     -4.851  0.4301E-01  0.2752E+00
     -4.748  0.5237E-01  0.2806E+00
     -4.645  0.4180E-01  0.2849E+00
     -4.543  0.3970E-01  0.2890E+00
     -4.440  0.3249E-01  0.2923E+00
     -4.337  0.1198E-01  0.2935E+00
     -4.235  0.1191E-01  0.2948E+00
     -4.132  0.1529E-01  0.2963E+00
     -4.029  0.1000E-01  0.2974E+00
     -3.926  0.1103E-01  0.2985E+00
     -3.824  0.9818E-02  0.2995E+00
     -3.721  0.4207E-02  0.2999E+00
     -3.618  0.5966E-03  0.3000E+00
     -3.516  0.1968E-04  0.3000E+00
     -3.413  0.8034E-06  0.3000E+00
     -3.310  0.8410E-04  0.3000E+00
     -3.207  0.1628E-02  0.3002E+00
     -3.105  0.6417E-02  0.3008E+00
     -3.002  0.1119E-01  0.3020E+00
     -2.899  0.2059E-01  0.3041E+00
     -2.797  0.1947E-01  0.3061E+00
     -2.694  0.1690E-01  0.3078E+00
     -2.591  0.2541E-01  0.3104E+00
     -2.488  0.3054E-01  0.3136E+00
     -2.386  0.1598E-01  0.3152E+00
     -2.283  0.8683E-02  0.3161E+00
     -2.180  0.6401E-02  0.3168E+00
     -2.078  0.1224E-01  0.3180E+00
     -1.975  0.9279E-02  0.3190E+00
     -1.872  0.2739E-02  0.3193E+00
     -1.769  0.6535E-03  0.3193E+00
     -1.667  0.2754E-02  0.3196E+00
     -1.564  0.3136E-02  0.3199E+00
     -1.461  0.6003E-03  0.3200E+00
     -1.359  0.1816E-04  0.3200E+00
     -1.256  0.5669E-04  0.3200E+00
     -1.153  0.1134E-02  0.3201E+00
     -1.050  0.3607E-02  0.3205E+00
     -0.948  0.1947E-02  0.3207E+00
     -0.845  0.4824E-03  0.3207E+00
     -0.742  0.3538E-02  0.3211E+00
     -0.640  0.9600E-02  0.3221E+00
     -0.537  0.7256E-02  0.3228E+00
     -0.434  0.4324E-02  0.3233E+00
     -0.331  0.4097E-02  0.3237E+00
     -0.229  0.1801E-01  0.3256E+00
     -0.126  0.3645E-01  0.3293E+00
     -0.023  0.2556E-01  0.3319E+00
      0.079  0.1846E-01  0.3338E+00
      0.182  0.1538E-01  0.3354E+00
      0.285  0.1509E-01  0.3369E+00
      0.388  0.1662E-01  0.3387E+00
      0.490  0.1646E-01  0.3403E+00
      0.593  0.1453E-01  0.3418E+00
      0.696  0.9876E-02  0.3429E+00
      0.798  0.1087E-01  0.3440E+00
      0.901  0.1464E-01  0.3455E+00
      1.004  0.2134E-01  0.3477E+00
      1.107  0.1718E-01  0.3494E+00
      1.209  0.1625E-01  0.3511E+00
      1.312  0.2171E-01  0.3533E+00
      1.415  0.2689E-01  0.3561E+00
      1.517  0.1752E-01  0.3579E+00
      1.620  0.2060E-01  0.3600E+00
      1.723  0.2766E-01  0.3628E+00
      1.826  0.2441E-01  0.3654E+00
      1.928  0.2521E-01  0.3679E+00
      2.031  0.3378E-01  0.3714E+00
      2.134  0.3555E-01  0.3751E+00
      2.237  0.2629E-01  0.3778E+00
      2.339  0.2698E-01  0.3805E+00
      2.442  0.3878E-01  0.3845E+00
      2.545  0.4982E-01  0.3896E+00
      2.647  0.4777E-01  0.3945E+00
      2.750  0.2910E-01  0.3975E+00
      2.853  0.2775E-01  0.4004E+00
      2.956  0.3866E-01  0.4044E+00
      3.058  0.4816E-01  0.4093E+00
      3.161  0.4257E-01  0.4137E+00
      3.264  0.3087E-01  0.4168E+00
      3.366  0.3398E-01  0.4203E+00
      3.469  0.3693E-01  0.4241E+00
      3.572  0.4632E-01  0.4289E+00
      3.675  0.4161E-01  0.4332E+00
      3.777  0.3179E-01  0.4364E+00
      3.880  0.3049E-01  0.4396E+00
      3.983  0.4288E-01  0.4440E+00
      4.085  0.4753E-01  0.4488E+00
      4.188  0.3363E-01  0.4523E+00
      4.291  0.2747E-01  0.4551E+00
      4.394  0.4405E-01  0.4596E+00
      4.496  0.5110E-01  0.4649E+00
      4.599  0.4656E-01  0.4697E+00
      4.702  0.4368E-01  0.4742E+00
      4.804  0.5190E-01  0.4795E+00
      4.907  0.5473E-01  0.4851E+00
      5.010  0.6031E-01  0.4913E+00
      5.113  0.6765E-01  0.4983E+00
      5.215  0.6627E-01  0.5051E+00
      5.318  0.6086E-01  0.5113E+00
      5.421  0.7735E-01  0.5193E+00
      5.523  0.7850E-01  0.5273E+00
      5.626  0.7131E-01  0.5346E+00
      5.729  0.6746E-01  0.5416E+00
      5.832  0.7569E-01  0.5494E+00
      5.934  0.8311E-01  0.5579E+00
      6.037  0.7168E-01  0.5653E+00
      6.140  0.5914E-01  0.5713E+00
      6.242  0.6317E-01  0.5778E+00
      6.345  0.6868E-01  0.5849E+00
      6.448  0.8500E-01  0.5936E+00
      6.551  0.9132E-01  0.6030E+00
      6.653  0.5835E-01  0.6090E+00
      6.756  0.4908E-01  0.6140E+00
      6.859  0.6029E-01  0.6202E+00
      6.961  0.6995E-01  0.6274E+00
      7.064  0.5558E-01  0.6331E+00
      7.167  0.2610E-01  0.6358E+00
      7.270  0.1027E-01  0.6368E+00
      7.372  0.7460E-02  0.6376E+00
      7.475  0.5381E-02  0.6382E+00
      7.578  0.3328E-02  0.6385E+00
      7.680  0.7217E-02  0.6392E+00
      7.783  0.3758E-02  0.6396E+00
      7.886  0.8675E-03  0.6397E+00
      7.989  0.6819E-03  0.6398E+00
      8.091  0.9844E-03  0.6399E+00
      8.194  0.8986E-03  0.6400E+00
      8.297  0.2176E-03  0.6400E+00
      8.399  0.1025E-04  0.6400E+00
      8.502  0.7427E-07  0.6400E+00
      8.605  0.7357E-10  0.6400E+00
      8.708  0.9451E-14  0.6400E+00
      8.810  0.1279E-18  0.6400E+00
      8.913  0.0000E+00  0.6400E+00
      9.016  0.0000E+00  0.6400E+00
      9.119  0.0000E+00  0.6400E+00
      9.221  0.0000E+00  0.6400E+00
      9.324  0.0000E+00  0.6400E+00
      9.427  0.0000E+00  0.6400E+00
      9.529  0.0000E+00  0.6400E+00
