    8    8  100    1
  0.4338553E+02  0.5169000E-09  0.5169000E-09  0.1500000E-08  0.5000000E-15
  1.000000000000000E-004
  CAR 
 BC3                                     
     30     85     32
 
  0.0000000E+00  0.0000000E+00  0.0000000E+00  0.5917160E-02
    1      -19.884860   1.000000
    2      -15.983281   1.000000
    3      -15.983070   1.000000
    4      -13.641896   1.000000
    5      -13.641783   1.000000
    6      -12.573376   1.000000
    7      -11.250056   1.000000
    8       -8.688748   1.000000
    9       -8.456739   1.000000
   10       -6.304517   1.000000
   11       -6.304097   1.000000
   12       -4.480833   1.000000
   13       -4.480705   1.000000
   14       -3.792189   0.999995
   15       -3.791648   0.999995
   16       -1.963921   0.000000
   17       -0.227844   0.000000
   18       -0.227722   0.000000
   19        0.431624   0.000000
   20        0.839425   0.000000
   21        1.842276   0.000000
   22        2.241297   0.000000
   23        4.225386   0.000000
   24        4.843042   0.000000
   25        5.008709   0.000000
   26        5.009242   0.000000
   27        6.295820   0.000000
   28        6.769984   0.000000
   29        6.770722   0.000000
   30        7.873648   0.000000
   31        8.049165   0.000000
   32        8.128700   0.000000
 
  0.7692308E-01  0.0000000E+00  0.0000000E+00  0.1183432E-01
    1      -19.861655   1.000000
    2      -16.097561   1.000000
    3      -16.019951   1.000000
    4      -13.674753   1.000000
    5      -13.557090   1.000000
    6      -12.458057   1.000000
    7      -11.112592   1.000000
    8       -8.653537   1.000000
    9       -8.505697   1.000000
   10       -6.409902   1.000000
   11       -6.323786   1.000000
   12       -4.587682   1.000000
   13       -4.498569   1.000000
   14       -3.914174   1.000000
   15       -3.850772   1.000000
   16       -2.143726   0.000000
   17       -0.176867   0.000000
   18        0.043793   0.000000
   19        0.534405   0.000000
   20        0.883592   0.000000
   21        1.890295   0.000000
   22        2.285702   0.000000
   23        4.269014   0.000000
   24        4.889362   0.000000
   25        5.071180   0.000000
   26        5.148465   0.000000
   27        6.331937   0.000000
   28        6.770296   0.000000
   29        6.905345   0.000000
   30        7.136708   0.000000
   31        7.627421   0.000000
   32        7.652670   0.000000
 
  0.1538462E+00 -0.1387779E-16  0.0000000E+00  0.1183432E-01
    1      -19.793626   1.000000
    2      -16.385652   1.000000
    3      -16.112746   1.000000
    4      -13.775279   1.000000
    5      -13.322764   1.000000
    6      -12.127180   1.000000
    7      -10.739633   1.000000
    8       -8.660318   1.000000
    9       -8.548668   1.000000
   10       -6.708359   1.000000
   11       -6.358734   1.000000
   12       -4.885339   1.000000
   13       -4.546239   1.000000
   14       -4.264782   1.000000
   15       -4.017229   1.000000
   16       -2.466300   0.000000
   17       -0.034642   0.000000
   18        0.490767   0.000000
   19        0.960673   0.000000
   20        1.015709   0.000000
   21        2.037891   0.000000
   22        2.418694   0.000000
   23        4.399708   0.000000
   24        5.015985   0.000000
   25        5.227174   0.000000
   26        5.550876   0.000000
   27        5.988171   0.000000
   28        6.635122   0.000000
   29        6.881246   0.000000
   30        6.927670   0.000000
   31        7.139145   0.000000
   32        7.339759   0.000000
 
  0.2307692E+00  0.1387779E-16  0.0000000E+00  0.1183432E-01
    1      -19.686392   1.000000
    2      -16.749018   1.000000
    3      -16.226501   1.000000
    4      -13.910487   1.000000
    5      -12.981897   1.000000
    6      -11.645945   1.000000
    7      -10.201749   1.000000
    8       -8.928881   1.000000
    9       -8.377221   1.000000
   10       -7.153884   1.000000
   11       -6.361589   1.000000
   12       -5.311098   1.000000
   13       -4.803245   1.000000
   14       -4.610124   1.000000
   15       -4.261569   1.000000
   16       -2.746743   0.000000
   17        0.169796   0.000000
   18        0.821734   0.000000
   19        1.234972   0.000000
   20        1.704519   0.000000
   21        2.312768   0.000000
   22        2.639833   0.000000
   23        4.616304   0.000000
   24        5.137795   0.000000
   25        5.203705   0.000000
   26        5.425790   0.000000
   27        6.044423   0.000000
   28        6.164035   0.000000
   29        6.598253   0.000000
   30        6.699527   0.000000
   31        6.860301   0.000000
   32        6.912689   0.000000
 
  0.3076923E+00 -0.2775558E-16  0.0000000E+00  0.1183432E-01
    1      -19.552272   1.000000
    2      -17.111124   1.000000
    3      -16.331651   1.000000
    4      -14.037494   1.000000
    5      -12.582150   1.000000
    6      -11.083212   1.000000
    7       -9.563575   1.000000
    8       -9.290166   1.000000
    9       -8.146480   1.000000
   10       -7.682420   1.000000
   11       -6.304499   1.000000
   12       -5.789217   1.000000
   13       -5.477929   1.000000
   14       -4.674221   1.000000
   15       -4.542872   1.000000
   16       -2.951660   0.000000
   17        0.393552   0.000000
   18        1.131107   0.000000
   19        1.540611   0.000000
   20        2.355683   0.000000
   21        2.882271   0.000000
   22        2.948743   0.000000
   23        4.341871   0.000000
   24        4.905946   0.000000
   25        5.256244   0.000000
   26        5.393905   0.000000
   27        5.645229   0.000000
   28        5.800033   0.000000
   29        6.532697   0.000000
   30        6.586627   0.000000
   31        6.862038   0.000000
   32        7.032528   0.000000
 
  0.3846154E+00  0.0000000E+00  0.0000000E+00  0.1183432E-01
    1      -19.416341   1.000000
    2      -17.412601   1.000000
    3      -16.409788   1.000000
    4      -14.131411   1.000000
    5      -12.183652   1.000000
    6      -10.485823   1.000000
    7       -9.678111   1.000000
    8       -8.969822   1.000000
    9       -8.137557   1.000000
   10       -7.876419   1.000000
   11       -6.248016   1.000000
   12       -6.236344   1.000000
   13       -6.200801   1.000000
   14       -4.808954   1.000000
   15       -4.724829   1.000000
   16       -3.084317   0.000000
   17        0.586595   0.000000
   18        1.395053   0.000000
   19        1.932078   0.000000
   20        2.812561   0.000000
   21        3.345184   0.000000
   22        3.615620   0.000000
   23        3.736424   0.000000
   24        4.532085   0.000000
   25        5.056739   0.000000
   26        5.323878   0.000000
   27        5.509948   0.000000
   28        5.972235   0.000000
   29        6.392299   0.000000
   30        6.472118   0.000000
   31        6.488847   0.000000
   32        6.811980   0.000000
 
  0.4615385E+00  0.2775558E-16  0.0000000E+00  0.1183432E-01
    1      -19.323638   1.000000
    2      -17.591559   1.000000
    3      -16.450987   1.000000
    4      -14.180628   1.000000
    5      -11.898418   1.000000
    6       -9.963767   1.000000
    7       -9.927107   1.000000
    8       -9.077447   1.000000
    9       -7.823368   1.000000
   10       -7.639129   1.000000
   11       -7.020093   1.000000
   12       -6.586114   1.000000
   13       -6.107735   1.000000
   14       -4.986158   1.000000
   15       -4.752460   1.000000
   16       -3.149600   0.000002
   17        0.699127   0.000000
   18        1.551712   0.000000
   19        2.408893   0.000000
   20        2.970453   0.000000
   21        3.286012   0.000000
   22        3.818716   0.000000
   23        3.828968   0.000000
   24        4.399772   0.000000
   25        4.744156   0.000000
   26        5.557878   0.000000
   27        5.625590   0.000000
   28        5.823362   0.000000
   29        6.311149   0.000000
   30        6.336489   0.000000
   31        6.437285   0.000000
   32        6.448585   0.000000
 
  0.0000000E+00  0.7692308E-01  0.0000000E+00  0.1183432E-01
    1      -19.861654   1.000000
    2      -16.097665   1.000000
    3      -16.019847   1.000000
    4      -13.674667   1.000000
    5      -13.557180   1.000000
    6      -12.458060   1.000000
    7      -11.112586   1.000000
    8       -8.653537   1.000000
    9       -8.505694   1.000000
   10       -6.409955   1.000000
   11       -6.323737   1.000000
   12       -4.587767   1.000000
   13       -4.498482   1.000000
   14       -3.914059   1.000000
   15       -3.850889   1.000000
   16       -2.143716   0.000000
   17       -0.176972   0.000000
   18        0.043879   0.000000
   19        0.534411   0.000000
   20        0.883592   0.000000
   21        1.890294   0.000000
   22        2.285701   0.000000
   23        4.269014   0.000000
   24        4.889358   0.000000
   25        5.071261   0.000000
   26        5.148384   0.000000
   27        6.331941   0.000000
   28        6.770159   0.000000
   29        6.905491   0.000000
   30        7.136716   0.000000
   31        7.627412   0.000000
   32        7.652660   0.000000
 
  0.7692308E-01  0.7692308E-01  0.0000000E+00  0.1183432E-01
    1      -19.816010   1.000000
    2      -16.287263   1.000000
    3      -16.097087   1.000000
    4      -13.702725   1.000000
    5      -13.442250   1.000000
    6      -12.225889   1.000000
    7      -10.859662   1.000000
    8       -8.608954   1.000000
    9       -8.583471   1.000000
   10       -6.593752   1.000000
   11       -6.367745   1.000000
   12       -4.774346   1.000000
   13       -4.551088   1.000000
   14       -4.143744   1.000000
   15       -3.970306   1.000000
   16       -2.368802   0.000000
   17       -0.141760   0.000000
   18        0.494991   0.000000
   19        0.747416   0.000000
   20        0.971739   0.000000
   21        1.987530   0.000000
   22        2.374404   0.000000
   23        4.356188   0.000000
   24        4.980517   0.000000
   25        5.201740   0.000000
   26        5.388223   0.000000
   27        6.283240   0.000000
   28        6.576680   0.000000
   29        6.767789   0.000000
   30        7.037478   0.000000
   31        7.182136   0.000000
   32        7.381237   0.000000
 
  0.1538462E+00  0.7692308E-01  0.0000000E+00  0.1183432E-01
    1      -19.728194   1.000000
    2      -16.592301   1.000000
    3      -16.224519   1.000000
    4      -13.769063   1.000000
    5      -13.217789   1.000000
    6      -11.795716   1.000000
    7      -10.412916   1.000000
    8       -8.830249   1.000000
    9       -8.445215   1.000000
   10       -6.922620   1.000000
   11       -6.421258   1.000000
   12       -5.109418   1.000000
   13       -4.653439   1.000000
   14       -4.571789   1.000000
   15       -4.191943   1.000000
   16       -2.600764   0.000000
   17       -0.074732   0.000000
   18        0.964130   0.000000
   19        1.147457   0.000000
   20        1.318589   0.000000
   21        2.190032   0.000000
   22        2.551493   0.000000
   23        4.529937   0.000000
   24        5.151883   0.000000
   25        5.398422   0.000000
   26        5.610764   0.000000
   27        5.823942   0.000000
   28        6.167275   0.000000
   29        6.500856   0.000000
   30        6.890297   0.000000
   31        7.026313   0.000000
   32        7.028265   0.000000
 
  0.2307692E+00  0.7692308E-01  0.0000000E+00  0.1183432E-01
    1      -19.606728   1.000000
    2      -16.940499   1.000000
    3      -16.353770   1.000000
    4      -13.874076   1.000000
    5      -12.875574   1.000000
    6      -11.254068   1.000000
    7       -9.834684   1.000000
    8       -9.166519   1.000000
    9       -8.243547   1.000000
   10       -7.367623   1.000000
   11       -6.420273   1.000000
   12       -5.545968   1.000000
   13       -5.158837   1.000000
   14       -4.764097   1.000000
   15       -4.473091   1.000000
   16       -2.766663   0.000000
   17        0.050080   0.000000
   18        1.312258   0.000000
   19        1.409965   0.000000
   20        2.085378   0.000000
   21        2.560761   0.000000
   22        2.816564   0.000000
   23        4.765820   0.000000
   24        4.787336   0.000000
   25        5.377009   0.000000
   26        5.584551   0.000000
   27        5.661486   0.000000
   28        5.934855   0.000000
   29        6.232197   0.000000
   30        6.441945   0.000000
   31        6.699737   0.000000
   32        6.997841   0.000000
 
  0.3076923E+00  0.7692308E-01  0.0000000E+00  0.1183432E-01
    1      -19.469339   1.000000
    2      -17.265727   1.000000
    3      -16.458179   1.000000
    4      -13.971754   1.000000
    5      -12.478042   1.000000
    6      -10.667708   1.000000
    7       -9.573776   1.000000
    8       -9.189086   1.000000
    9       -7.990403   1.000000
   10       -7.860766   1.000000
   11       -6.359853   1.000000
   12       -6.010201   1.000000
   13       -5.847715   1.000000
   14       -4.856494   1.000000
   15       -4.764638   1.000000
   16       -2.874808   0.000000
   17        0.199220   0.000000
   18        1.630039   0.000000
   19        1.758593   0.000000
   20        2.628401   0.000000
   21        3.169306   0.000000
   22        3.291099   0.000000
   23        4.001785   0.000000
   24        4.873371   0.000000
   25        5.165410   0.000000
   26        5.449296   0.000000
   27        5.500035   0.000000
   28        5.748695   0.000000
   29        5.908883   0.000000
   30        6.428724   0.000000
   31        6.944583   0.000000
   32        6.946425   0.000000
 
  0.3846154E+00  0.7692308E-01  0.0000000E+00  0.1183432E-01
    1      -19.350313   1.000000
    2      -17.506177   1.000000
    3      -16.524766   1.000000
    4      -14.037185   1.000000
    5      -12.114673   1.000000
    6      -10.136218   1.000000
    7       -9.896037   1.000000
    8       -8.816608   1.000000
    9       -8.051902   1.000000
   10       -7.722929   1.000000
   11       -6.656220   1.000000
   12       -6.419779   1.000000
   13       -6.208069   1.000000
   14       -5.004955   1.000000
   15       -4.916661   1.000000
   16       -2.937214   0.000000
   17        0.320288   0.000000
   18        1.864747   0.000000
   19        2.192829   0.000000
   20        3.080392   0.000000
   21        3.315672   0.000000
   22        3.609523   0.000000
   23        4.034830   0.000000
   24        4.382610   0.000000
   25        4.751097   0.000000
   26        5.450804   0.000000
   27        5.565588   0.000000
   28        5.839038   0.000000
   29        6.001007   0.000000
   30        6.219015   0.000000
   31        6.428708   0.000000
   32        6.784307   0.000000
 
  0.4615385E+00  0.7692308E-01  0.0000000E+00  0.1183432E-01
    1      -19.300659   1.000000
    2      -17.597598   1.000000
    3      -16.547552   1.000000
    4      -14.059947   1.000000
    5      -11.949231   1.000000
    6      -10.162447   1.000000
    7       -9.668862   1.000000
    8       -9.031893   1.000000
    9       -7.577351   1.000000
   10       -7.553661   1.000000
   11       -7.299203   1.000000
   12       -6.615009   1.000000
   13       -6.167026   1.000000
   14       -5.105289   1.000000
   15       -4.937442   1.000000
   16       -2.957768   0.000000
   17        0.366847   0.000000
   18        1.952898   0.000000
   19        2.709625   0.000000
   20        2.714641   0.000000
   21        3.549340   0.000000
   22        3.614613   0.000000
   23        4.135357   0.000000
   24        4.138514   0.000000
   25        5.064712   0.000000
   26        5.254108   0.000000
   27        5.422458   0.000000
   28        5.863921   0.000000
   29        5.988955   0.000000
   30        6.264031   0.000000
   31        6.362762   0.000000
   32        6.525213   0.000000
 
 -0.4615385E+00  0.7692308E-01  0.0000000E+00  0.1183432E-01
    1      -19.350318   1.000000
    2      -17.506150   1.000000
    3      -16.524788   1.000000
    4      -14.037181   1.000000
    5      -12.114733   1.000000
    6      -10.136416   1.000000
    7       -9.895594   1.000000
    8       -8.816910   1.000000
    9       -8.051751   1.000000
   10       -7.722938   1.000000
   11       -6.656260   1.000000
   12       -6.419756   1.000000
   13       -6.208035   1.000000
   14       -5.004991   1.000000
   15       -4.916688   1.000000
   16       -2.937179   0.000000
   17        0.320229   0.000000
   18        1.864788   0.000000
   19        2.192829   0.000000
   20        3.080385   0.000000
   21        3.315672   0.000000
   22        3.609523   0.000000
   23        4.034822   0.000000
   24        4.382605   0.000000
   25        4.751096   0.000000
   26        5.450840   0.000000
   27        5.565591   0.000000
   28        5.838976   0.000000
   29        6.000944   0.000000
   30        6.219012   0.000000
   31        6.428788   0.000000
   32        6.784337   0.000000
 
 -0.3846154E+00  0.7692308E-01  0.0000000E+00  0.1183432E-01
    1      -19.469346   1.000000
    2      -17.265672   1.000000
    3      -16.458226   1.000000
    4      -13.971747   1.000000
    5      -12.478137   1.000000
    6      -10.667627   1.000000
    7       -9.573515   1.000000
    8       -9.189349   1.000000
    9       -7.990412   1.000000
   10       -7.860710   1.000000
   11       -6.359924   1.000000
   12       -6.010161   1.000000
   13       -5.847629   1.000000
   14       -4.856550   1.000000
   15       -4.764710   1.000000
   16       -2.874743   0.000000
   17        0.199109   0.000000
   18        1.630115   0.000000
   19        1.758593   0.000000
   20        2.628387   0.000000
   21        3.169306   0.000000
   22        3.291083   0.000000
   23        4.001784   0.000000
   24        4.873375   0.000000
   25        5.165413   0.000000
   26        5.449305   0.000000
   27        5.500103   0.000000
   28        5.748629   0.000000
   29        5.908816   0.000000
   30        6.428634   0.000000
   31        6.943345   0.000000
   32        6.944737   0.000000
 
 -0.3076923E+00  0.7692308E-01  0.0000000E+00  0.1183432E-01
    1      -19.606734   1.000000
    2      -16.940411   1.000000
    3      -16.353850   1.000000
    4      -13.874066   1.000000
    5      -12.875685   1.000000
    6      -11.253950   1.000000
    7       -9.834696   1.000000
    8       -9.166500   1.000000
    9       -8.243554   1.000000
   10       -7.367562   1.000000
   11       -6.420366   1.000000
   12       -5.545906   1.000000
   13       -5.158721   1.000000
   14       -4.764183   1.000000
   15       -4.473213   1.000000
   16       -2.766577   0.000000
   17        0.049932   0.000000
   18        1.312361   0.000000
   19        1.409965   0.000000
   20        2.085336   0.000000
   21        2.560769   0.000000
   22        2.816564   0.000000
   23        4.765817   0.000000
   24        4.787336   0.000000
   25        5.377051   0.000000
   26        5.584504   0.000000
   27        5.661493   0.000000
   28        5.934778   0.000000
   29        6.232188   0.000000
   30        6.441934   0.000000
   31        6.699694   0.000000
   32        6.997727   0.000000
 
 -0.2307692E+00  0.7692308E-01  0.0000000E+00  0.1183432E-01
    1      -19.728199   1.000000
    2      -16.592164   1.000000
    3      -16.224647   1.000000
    4      -13.769059   1.000000
    5      -13.217894   1.000000
    6      -11.795598   1.000000
    7      -10.412942   1.000000
    8       -8.830223   1.000000
    9       -8.445219   1.000000
   10       -6.922463   1.000000
   11       -6.421438   1.000000
   12       -5.109324   1.000000
   13       -4.653556   1.000000
   14       -4.571595   1.000000
   15       -4.192145   1.000000
   16       -2.600676   0.000000
   17       -0.074885   0.000000
   18        0.964234   0.000000
   19        1.147457   0.000000
   20        1.318549   0.000000
   21        2.190045   0.000000
   22        2.551493   0.000000
   23        4.529937   0.000000
   24        5.151907   0.000000
   25        5.398207   0.000000
   26        5.610798   0.000000
   27        5.824113   0.000000
   28        6.167228   0.000000
   29        6.500863   0.000000
   30        6.890058   0.000000
   31        7.026294   0.000000
   32        7.028242   0.000000
 
 -0.1538462E+00  0.7692308E-01  0.0000000E+00  0.1183432E-01
    1      -19.816013   1.000000
    2      -16.287064   1.000000
    3      -16.097276   1.000000
    4      -13.702771   1.000000
    5      -13.442283   1.000000
    6      -12.225801   1.000000
    7      -10.859680   1.000000
    8       -8.608942   1.000000
    9       -8.583474   1.000000
   10       -6.593437   1.000000
   11       -6.368072   1.000000
   12       -4.774223   1.000000
   13       -4.551225   1.000000
   14       -4.143428   1.000000
   15       -3.970627   1.000000
   16       -2.368738   0.000000
   17       -0.141856   0.000000
   18        0.494906   0.000000
   19        0.747531   0.000000
   20        0.971739   0.000000
   21        1.987538   0.000000
   22        2.374404   0.000000
   23        4.356188   0.000000
   24        4.980532   0.000000
   25        5.201306   0.000000
   26        5.388660   0.000000
   27        6.283271   0.000000
   28        6.576654   0.000000
   29        6.767435   0.000000
   30        7.037330   0.000000
   31        7.182613   0.000000
   32        7.381226   0.000000
 
 -0.7692308E-01  0.7692308E-01  0.0000000E+00  0.1183432E-01
    1      -19.861655   1.000000
    2      -16.097485   1.000000
    3      -16.020022   1.000000
    4      -13.674758   1.000000
    5      -13.557119   1.000000
    6      -12.458029   1.000000
    7      -11.112593   1.000000
    8       -8.653538   1.000000
    9       -8.505691   1.000000
   10       -6.409622   1.000000
   11       -6.324073   1.000000
   12       -4.587670   1.000000
   13       -4.498583   1.000000
   14       -3.913732   1.000000
   15       -3.851217   1.000000
   16       -2.143693   0.000000
   17       -0.176928   0.000000
   18        0.043743   0.000000
   19        0.534479   0.000000
   20        0.883592   0.000000
   21        1.890297   0.000000
   22        2.285701   0.000000
   23        4.269014   0.000000
   24        4.889363   0.000000
   25        5.070833   0.000000
   26        5.148817   0.000000
   27        6.331938   0.000000
   28        6.769770   0.000000
   29        6.905937   0.000000
   30        7.136613   0.000000
   31        7.627436   0.000000
   32        7.652707   0.000000
 
 -0.1387779E-16  0.1538462E+00  0.0000000E+00  0.1183432E-01
    1      -19.793624   1.000000
    2      -16.385746   1.000000
    3      -16.112652   1.000000
    4      -13.775207   1.000000
    5      -13.322845   1.000000
    6      -12.127191   1.000000
    7      -10.739615   1.000000
    8       -8.660308   1.000000
    9       -8.548668   1.000000
   10       -6.708407   1.000000
   11       -6.358697   1.000000
   12       -4.885415   1.000000
   13       -4.546155   1.000000
   14       -4.264675   1.000000
   15       -4.017340   1.000000
   16       -2.466283   0.000000
   17       -0.034746   0.000000
   18        0.490799   0.000000
   19        0.960716   0.000000
   20        1.015709   0.000000
   21        2.037889   0.000000
   22        2.418693   0.000000
   23        4.399708   0.000000
   24        5.015978   0.000000
   25        5.227235   0.000000
   26        5.550806   0.000000
   27        5.988166   0.000000
   28        6.635139   0.000000
   29        6.881146   0.000000
   30        6.927672   0.000000
   31        7.139190   0.000000
   32        7.339755   0.000000
 
  0.7692308E-01  0.1538462E+00  0.0000000E+00  0.1183432E-01
    1      -19.728193   1.000000
    2      -16.592346   1.000000
    3      -16.224475   1.000000
    4      -13.769021   1.000000
    5      -13.217835   1.000000
    6      -11.795724   1.000000
    7      -10.412903   1.000000
    8       -8.830244   1.000000
    9       -8.445214   1.000000
   10       -6.922632   1.000000
   11       -6.421254   1.000000
   12       -5.109457   1.000000
   13       -4.653394   1.000000
   14       -4.571733   1.000000
   15       -4.192000   1.000000
   16       -2.600757   0.000000
   17       -0.074761   0.000000
   18        0.964092   0.000000
   19        1.147457   0.000000
   20        1.318640   0.000000
   21        2.190031   0.000000
   22        2.551493   0.000000
   23        4.529937   0.000000
   24        5.151884   0.000000
   25        5.398415   0.000000
   26        5.610758   0.000000
   27        5.823978   0.000000
   28        6.167251   0.000000
   29        6.500864   0.000000
   30        6.890244   0.000000
   31        7.026313   0.000000
   32        7.028247   0.000000
 
  0.1538462E+00  0.1538462E+00  0.0000000E+00  0.1183432E-01
    1      -19.625601   1.000000
    2      -16.846569   1.000000
    3      -16.407755   1.000000
    4      -13.688835   1.000000
    5      -13.114509   1.000000
    6      -11.280758   1.000000
    7       -9.937847   1.000000
    8       -9.136980   1.000000
    9       -8.276386   1.000000
   10       -7.165832   1.000000
   11       -6.541630   1.000000
   12       -5.401504   1.000000
   13       -5.017621   1.000000
   14       -4.881923   1.000000
   15       -4.480565   1.000000
   16       -2.630597   0.000000
   17       -0.169642   0.000000
   18        1.366474   0.000000
   19        1.629988   0.000000
   20        1.792701   0.000000
   21        2.450524   0.000000
   22        2.772556   0.000000
   23        4.745364   0.000000
   24        5.242837   0.000000
   25        5.275145   0.000000
   26        5.392196   0.000000
   27        5.828845   0.000000
   28        6.074060   0.000000
   29        6.109236   0.000000
   30        6.195200   0.000000
   31        6.741312   0.000000
   32        6.774475   0.000000
 
  0.2307692E+00  0.1538462E+00  0.0000000E+00  0.1183432E-01
    1      -19.498500   1.000000
    2      -17.122213   1.000000
    3      -16.579302   1.000000
    4      -13.673883   1.000000
    5      -12.860077   1.000000
    6      -10.693765   1.000000
    7       -9.546294   1.000000
    8       -9.361743   1.000000
    9       -8.050154   1.000000
   10       -7.490897   1.000000
   11       -6.605772   1.000000
   12       -5.773884   1.000000
   13       -5.575983   1.000000
   14       -5.100738   1.000000
   15       -4.817675   1.000000
   16       -2.592147   0.000000
   17       -0.210382   0.000000
   18        1.672070   0.000000
   19        2.036177   0.000000
   20        2.503798   0.000000
   21        2.898803   0.000000
   22        3.081541   0.000000
   23        4.471970   0.000000
   24        5.018605   0.000000
   25        5.032519   0.000000
   26        5.362297   0.000000
   27        5.685625   0.000000
   28        5.882837   0.000000
   29        5.931736   0.000000
   30        6.062172   0.000000
   31        6.514199   0.000000
   32        6.576442   0.000000
 
  0.3076923E+00  0.1538462E+00  0.0000000E+00  0.1183432E-01
    1      -19.371594   1.000000
    2      -17.370171   1.000000
    3      -16.698475   1.000000
    4      -13.707758   1.000000
    5      -12.508122   1.000000
    6      -10.229959   1.000000
    7       -9.844090   1.000000
    8       -8.777529   1.000000
    9       -7.864021   1.000000
   10       -7.787915   1.000000
   11       -6.633616   1.000000
   12       -6.176747   1.000000
   13       -6.157250   1.000000
   14       -5.243499   1.000000
   15       -5.130386   1.000000
   16       -2.547464   0.000000
   17       -0.204050   0.000000
   18        2.063600   0.000000
   19        2.364641   0.000000
   20        2.987420   0.000000
   21        3.478130   0.000000
   22        3.681940   0.000000
   23        3.746913   0.000000
   24        4.634038   0.000000
   25        4.852703   0.000000
   26        5.190987   0.000000
   27        5.423633   0.000000
   28        5.694757   0.000000
   29        6.021990   0.000000
   30        6.192496   0.000000
   31        6.362223   0.000000
   32        6.431804   0.000000
 
  0.3846154E+00  0.1538462E+00  0.0000000E+00  0.1183432E-01
    1      -19.286588   1.000000
    2      -17.522515   1.000000
    3      -16.758067   1.000000
    4      -13.734845   1.000000
    5      -12.224225   1.000000
    6      -10.404842   1.000000
    7       -9.462799   1.000000
    8       -8.664873   1.000000
    9       -7.755236   1.000000
   10       -7.562469   1.000000
   11       -7.060126   1.000000
   12       -6.485396   1.000000
   13       -6.340323   1.000000
   14       -5.336210   1.000000
   15       -5.312000   1.000000
   16       -2.522868   0.000000
   17       -0.186363   0.000000
   18        2.540462   0.000000
   19        2.567539   0.000000
   20        3.102030   0.000000
   21        3.433925   0.000000
   22        3.952727   0.000000
   23        3.962162   0.000000
   24        4.533075   0.000000
   25        4.623542   0.000000
   26        4.769747   0.000000
   27        5.356833   0.000000
   28        5.806766   0.000000
   29        5.939400   0.000000
   30        6.131773   0.000000
   31        6.297487   0.000000
   32        6.526813   0.000000
 
  0.4615385E+00  0.1538462E+00  0.0000000E+00  0.1183432E-01
    1      -19.286594   1.000000
    2      -17.522482   1.000000
    3      -16.758094   1.000000
    4      -13.734841   1.000000
    5      -12.224282   1.000000
    6      -10.404830   1.000000
    7       -9.462556   1.000000
    8       -8.665190   1.000000
    9       -7.755046   1.000000
   10       -7.562481   1.000000
   11       -7.060182   1.000000
   12       -6.485366   1.000000
   13       -6.340307   1.000000
   14       -5.336250   1.000000
   15       -5.312025   1.000000
   16       -2.522835   0.000000
   17       -0.186407   0.000000
   18        2.540463   0.000000
   19        2.567563   0.000000