  16  16   0   4
  0.2012733E+02  0.4979000E-09  0.4979000E-09  0.1500000E-08  0.5000000E-15
  1.000000000000000E-004
  CAR 
 SC                                      
      9.55516974    -21.09734829  301     -0.16685403      1.00000000
    -21.097  0.0000E+00  0.0000E+00
    -20.995  0.0000E+00  0.0000E+00
    -20.893  0.0000E+00  0.0000E+00
    -20.791  0.0000E+00  0.0000E+00
    -20.689  0.0000E+00  0.0000E+00
    -20.586  0.0000E+00  0.0000E+00
    -20.484  0.0000E+00  0.0000E+00
    -20.382  0.0000E+00  0.0000E+00
    -20.280  0.1341E-16  0.1371E-17
    -20.178  0.1296E-11  0.1324E-12
    -20.076  0.1145E-07  0.1170E-08
    -19.973  0.1412E-04  0.1444E-05
    -19.871  0.2601E-02  0.2672E-03
    -19.769  0.8109E-01  0.8553E-02
    -19.667  0.5345E+00  0.6316E-01
    -19.565  0.1093E+01  0.1748E+00
    -19.463  0.1242E+01  0.3017E+00
    -19.360  0.1252E+01  0.4296E+00
    -19.258  0.1253E+01  0.5576E+00
    -19.156  0.1255E+01  0.6858E+00
    -19.054  0.1256E+01  0.8142E+00
    -18.952  0.1259E+01  0.9428E+00
    -18.849  0.1258E+01  0.1071E+01
    -18.747  0.1260E+01  0.1200E+01
    -18.645  0.1268E+01  0.1330E+01
    -18.543  0.1259E+01  0.1458E+01
    -18.441  0.1269E+01  0.1588E+01
    -18.339  0.1272E+01  0.1718E+01
    -18.236  0.1259E+01  0.1847E+01
    -18.134  0.1290E+01  0.1978E+01
    -18.032  0.1250E+01  0.2106E+01
    -17.930  0.1306E+01  0.2240E+01
    -17.828  0.1245E+01  0.2367E+01
    -17.726  0.1320E+01  0.2502E+01
    -17.623  0.1243E+01  0.2629E+01
    -17.521  0.1326E+01  0.2764E+01
    -17.419  0.1256E+01  0.2893E+01
    -17.317  0.1308E+01  0.3026E+01
    -17.215  0.1301E+01  0.3159E+01
    -17.113  0.1262E+01  0.3288E+01
    -17.010  0.1363E+01  0.3427E+01
    -16.908  0.1223E+01  0.3552E+01
    -16.806  0.1380E+01  0.3693E+01
    -16.704  0.1275E+01  0.3824E+01
    -16.602  0.1290E+01  0.3956E+01
    -16.499  0.1397E+01  0.4098E+01
    -16.397  0.1223E+01  0.4223E+01
    -16.295  0.1396E+01  0.4366E+01
    -16.193  0.1341E+01  0.4503E+01
    -16.091  0.1339E+01  0.4640E+01
    -15.989  0.2077E+01  0.4852E+01
    -15.886  0.2640E+01  0.5122E+01
    -15.784  0.2902E+01  0.5418E+01
    -15.682  0.3117E+01  0.5737E+01
    -15.580  0.2955E+01  0.6039E+01
    -15.478  0.3141E+01  0.6360E+01
    -15.376  0.3363E+01  0.6703E+01
    -15.273  0.3371E+01  0.7048E+01
    -15.171  0.3914E+01  0.7447E+01
    -15.069  0.3721E+01  0.7828E+01
    -14.967  0.2640E+01  0.8097E+01
    -14.865  0.2268E+01  0.8329E+01
    -14.762  0.2020E+01  0.8535E+01
    -14.660  0.1885E+01  0.8728E+01
    -14.558  0.2581E+01  0.8992E+01
    -14.456  0.3050E+01  0.9303E+01
    -14.354  0.3263E+01  0.9637E+01
    -14.252  0.3253E+01  0.9969E+01
    -14.149  0.2744E+01  0.1025E+02
    -14.047  0.1958E+01  0.1045E+02
    -13.945  0.2122E+01  0.1067E+02
    -13.843  0.1731E+01  0.1084E+02
    -13.741  0.1416E+01  0.1099E+02
    -13.639  0.1536E+01  0.1114E+02
    -13.536  0.1233E+01  0.1127E+02
    -13.434  0.1457E+01  0.1142E+02
    -13.332  0.1913E+01  0.1162E+02
    -13.230  0.1860E+01  0.1181E+02
    -13.128  0.1910E+01  0.1200E+02
    -13.026  0.1819E+01  0.1219E+02
    -12.923  0.1814E+01  0.1237E+02
    -12.821  0.1919E+01  0.1257E+02
    -12.719  0.2466E+01  0.1282E+02
    -12.617  0.3327E+01  0.1316E+02
    -12.515  0.3556E+01  0.1352E+02
    -12.412  0.3466E+01  0.1388E+02
    -12.310  0.3539E+01  0.1424E+02
    -12.208  0.3686E+01  0.1462E+02
    -12.106  0.4214E+01  0.1505E+02
    -12.004  0.4457E+01  0.1550E+02
    -11.902  0.3891E+01  0.1590E+02
    -11.799  0.3178E+01  0.1622E+02
    -11.697  0.2553E+01  0.1648E+02
    -11.595  0.1653E+01  0.1665E+02
    -11.493  0.1361E+01  0.1679E+02
    -11.391  0.1295E+01  0.1692E+02
    -11.289  0.1364E+01  0.1706E+02
    -11.186  0.1323E+01  0.1720E+02
    -11.084  0.1433E+01  0.1735E+02
    -10.982  0.1402E+01  0.1749E+02
    -10.880  0.1617E+01  0.1765E+02
    -10.778  0.2437E+01  0.1790E+02
    -10.675  0.3710E+01  0.1828E+02
    -10.573  0.4161E+01  0.1871E+02
    -10.471  0.3283E+01  0.1904E+02
    -10.369  0.3153E+01  0.1936E+02
    -10.267  0.2707E+01  0.1964E+02
    -10.165  0.2655E+01  0.1991E+02
    -10.062  0.2501E+01  0.2017E+02
     -9.960  0.2405E+01  0.2041E+02
     -9.858  0.2217E+01  0.2064E+02
     -9.756  0.2330E+01  0.2088E+02
     -9.654  0.3170E+01  0.2120E+02
     -9.552  0.4231E+01  0.2163E+02
     -9.449  0.4563E+01  0.2210E+02
     -9.347  0.3797E+01  0.2249E+02
     -9.245  0.3423E+01  0.2284E+02
     -9.143  0.3796E+01  0.2323E+02
     -9.041  0.3812E+01  0.2362E+02
     -8.939  0.3734E+01  0.2400E+02
     -8.836  0.3791E+01  0.2438E+02
     -8.734  0.3818E+01  0.2477E+02
     -8.632  0.3480E+01  0.2513E+02
     -8.530  0.3517E+01  0.2549E+02
     -8.428  0.3788E+01  0.2588E+02
     -8.325  0.3351E+01  0.2622E+02
     -8.223  0.3289E+01  0.2656E+02
     -8.121  0.3373E+01  0.2690E+02
     -8.019  0.3761E+01  0.2728E+02
     -7.917  0.4349E+01  0.2773E+02
     -7.815  0.4903E+01  0.2823E+02
     -7.712  0.4680E+01  0.2871E+02
     -7.610  0.4406E+01  0.2916E+02
     -7.508  0.4213E+01  0.2959E+02
     -7.406  0.3744E+01  0.2997E+02
     -7.304  0.4149E+01  0.3040E+02
     -7.202  0.4231E+01  0.3083E+02
     -7.099  0.4625E+01  0.3130E+02
     -6.997  0.4813E+01  0.3179E+02
     -6.895  0.5267E+01  0.3233E+02
     -6.793  0.5941E+01  0.3294E+02
     -6.691  0.6873E+01  0.3364E+02
     -6.588  0.7683E+01  0.3442E+02
     -6.486  0.8129E+01  0.3525E+02
     -6.384  0.6953E+01  0.3596E+02
     -6.282  0.4701E+01  0.3645E+02
     -6.180  0.4201E+01  0.3687E+02
     -6.078  0.4305E+01  0.3731E+02
     -5.975  0.4046E+01  0.3773E+02
     -5.873  0.4144E+01  0.3815E+02
     -5.771  0.4258E+01  0.3859E+02
     -5.669  0.4182E+01  0.3901E+02
     -5.567  0.3476E+01  0.3937E+02
     -5.465  0.3237E+01  0.3970E+02
     -5.362  0.3653E+01  0.4007E+02
     -5.260  0.4212E+01  0.4050E+02
     -5.158  0.4185E+01  0.4093E+02
     -5.056  0.3725E+01  0.4131E+02
     -4.954  0.3690E+01  0.4169E+02
     -4.852  0.3859E+01  0.4208E+02
     -4.749  0.3620E+01  0.4245E+02
     -4.647  0.3542E+01  0.4281E+02
     -4.545  0.3735E+01  0.4320E+02
     -4.443  0.4147E+01  0.4362E+02
     -4.341  0.5007E+01  0.4413E+02
     -4.238  0.5605E+01  0.4470E+02
     -4.136  0.5684E+01  0.4528E+02
     -4.034  0.5518E+01  0.4585E+02
     -3.932  0.5848E+01  0.4645E+02
     -3.830  0.6490E+01  0.4711E+02
     -3.728  0.7356E+01  0.4786E+02
     -3.625  0.6213E+01  0.4850E+02
     -3.523  0.4421E+01  0.4895E+02
     -3.421  0.3788E+01  0.4933E+02
     -3.319  0.3376E+01  0.4968E+02
     -3.217  0.2760E+01  0.4996E+02
     -3.115  0.3001E+01  0.5027E+02
     -3.012  0.3108E+01  0.5059E+02
     -2.910  0.2657E+01  0.5086E+02
     -2.808  0.3503E+01  0.5121E+02
     -2.706  0.3889E+01  0.5161E+02
     -2.604  0.3140E+01  0.5193E+02
     -2.501  0.3386E+01  0.5228E+02
     -2.399  0.2953E+01  0.5258E+02
     -2.297  0.2497E+01  0.5284E+02
     -2.195  0.2907E+01  0.5313E+02
     -2.093  0.2537E+01  0.5339E+02
     -1.991  0.2002E+01  0.5360E+02
     -1.888  0.1724E+01  0.5377E+02
     -1.786  0.2105E+01  0.5399E+02
     -1.684  0.2075E+01  0.5420E+02
     -1.582  0.1888E+01  0.5439E+02
     -1.480  0.1818E+01  0.5458E+02
     -1.378  0.1612E+01  0.5474E+02
     -1.275  0.1924E+01  0.5494E+02
     -1.173  0.1832E+01  0.5513E+02
     -1.071  0.1570E+01  0.5529E+02
     -0.969  0.1390E+01  0.5543E+02
     -0.867  0.1013E+01  0.5553E+02
     -0.765  0.9124E+00  0.5563E+02
     -0.662  0.8142E+00  0.5571E+02
     -0.560  0.6069E+00  0.5577E+02
     -0.458  0.5271E+00  0.5583E+02
     -0.356  0.5030E+00  0.5588E+02
     -0.254  0.4768E+00  0.5593E+02
     -0.151  0.8998E+00  0.5602E+02
     -0.049  0.1336E+01  0.5615E+02
      0.053  0.1481E+01  0.5631E+02
      0.155  0.1513E+01  0.5646E+02
      0.257  0.2026E+01  0.5667E+02
      0.359  0.2363E+01  0.5691E+02
      0.462  0.2076E+01  0.5712E+02
      0.564  0.1945E+01  0.5732E+02
      0.666  0.2737E+01  0.5760E+02
      0.768  0.2528E+01  0.5786E+02
      0.870  0.1695E+01  0.5803E+02
      0.972  0.1107E+01  0.5814E+02
      1.075  0.1272E+01  0.5827E+02
      1.177  0.2094E+01  0.5849E+02
      1.279  0.3856E+01  0.5888E+02
      1.381  0.4274E+01  0.5932E+02
      1.483  0.3582E+01  0.5968E+02
      1.586  0.2898E+01  0.5998E+02
      1.688  0.2838E+01  0.6027E+02
      1.790  0.2910E+01  0.6057E+02
      1.892  0.2908E+01  0.6086E+02
      1.994  0.2507E+01  0.6112E+02
      2.096  0.2605E+01  0.6139E+02
      2.199  0.2857E+01  0.6168E+02
      2.301  0.2614E+01  0.6195E+02
      2.403  0.2568E+01  0.6221E+02
      2.505  0.2709E+01  0.6248E+02
      2.607  0.2739E+01  0.6276E+02
      2.709  0.2687E+01  0.6304E+02
      2.812  0.2741E+01  0.6332E+02
      2.914  0.3020E+01  0.6363E+02
      3.016  0.3527E+01  0.6399E+02
      3.118  0.4257E+01  0.6442E+02
      3.220  0.3936E+01  0.6483E+02
      3.322  0.4263E+01  0.6526E+02
      3.425  0.4465E+01  0.6572E+02
      3.527  0.4546E+01  0.6618E+02
      3.629  0.5178E+01  0.6671E+02
      3.731  0.5233E+01  0.6725E+02
      3.833  0.4820E+01  0.6774E+02
      3.936  0.5089E+01  0.6826E+02
      4.038  0.6183E+01  0.6889E+02
      4.140  0.5606E+01  0.6946E+02
      4.242  0.5027E+01  0.6998E+02
      4.344  0.5654E+01  0.7055E+02
      4.446  0.5671E+01  0.7113E+02
      4.549  0.6046E+01  0.7175E+02
      4.651  0.5171E+01  0.7228E+02
      4.753  0.5163E+01  0.7281E+02
      4.855  0.6389E+01  0.7346E+02
      4.957  0.6420E+01  0.7412E+02
      5.059  0.6492E+01  0.7478E+02
      5.162  0.6551E+01  0.7545E+02
      5.264  0.6729E+01  0.7614E+02
      5.366  0.6872E+01  0.7684E+02
      5.468  0.6585E+01  0.7751E+02
      5.570  0.6127E+01  0.7814E+02
      5.673  0.6507E+01  0.7880E+02
      5.775  0.6269E+01  0.7944E+02
      5.877  0.5914E+01  0.8005E+02
      5.979  0.5834E+01  0.8064E+02
      6.081  0.6898E+01  0.8135E+02
      6.183  0.6996E+01  0.8206E+02
      6.286  0.5556E+01  0.8263E+02
      6.388  0.5574E+01  0.8320E+02
      6.490  0.5855E+01  0.8380E+02
      6.592  0.6177E+01  0.8443E+02
      6.694  0.6684E+01  0.8511E+02
      6.796  0.7414E+01  0.8587E+02
      6.899  0.7566E+01  0.8664E+02
      7.001  0.7804E+01  0.8744E+02
      7.103  0.8406E+01  0.8830E+02
      7.205  0.8758E+01  0.8919E+02
      7.307  0.9140E+01  0.9013E+02
      7.409  0.8233E+01  0.9097E+02
      7.512  0.7924E+01  0.9178E+02
      7.614  0.7966E+01  0.9259E+02
      7.716  0.8366E+01  0.9345E+02
      7.818  0.8851E+01  0.9435E+02
      7.920  0.7704E+01  0.9514E+02
      8.023  0.5156E+01  0.9567E+02
      8.125  0.2355E+01  0.9591E+02
      8.227  0.7977E+00  0.9599E+02
      8.329  0.1190E+00  0.9600E+02
      8.431  0.4386E-02  0.9600E+02
      8.533  0.2849E-04  0.9600E+02
      8.636  0.2755E-07  0.9600E+02
      8.738  0.3666E-11  0.9600E+02
      8.840  0.7154E-16  0.9600E+02
      8.942  0.0000E+00  0.9600E+02
      9.044  0.0000E+00  0.9600E+02
      9.146  0.0000E+00  0.9600E+02
      9.249  0.0000E+00  0.9600E+02
      9.351  0.0000E+00  0.9600E+02
      9.453  0.0000E+00  0.9600E+02
      9.555  0.0000E+00  0.9600E+02
