Lattice                                 
           1
     4.368232    2.522000    0.000000
    -4.368232    2.522000    0.000000
     0.000000    0.000000   15.000000
   B    C 
     2    14
Direct configuration=     1
   0.33833034  0.66916432  0.10000000
   0.67165522  0.33584146  0.10000000
   0.16373946  0.31999962  0.10000000
   0.32250218  0.16126397  0.10000000
   0.16376430  0.84376384  0.10000000
   0.84623863  0.16123684  0.10000000
   0.68749850  0.84373000  0.10000000
   0.84626736  0.68499594  0.10000000
   0.33333267  0.16666633  0.32553333
   0.49999967  0.99999933  0.32553333
   0.33333267  0.66666633  0.32553333
   0.49999967  0.49999933  0.32553333
   0.83333267  0.16666633  0.32553333
   0.99999967  0.99999933  0.32553333
   0.83333267  0.66666633  0.32553333
   0.99999967  0.49999933  0.32553333
Direct configuration=     2
   0.33834429  0.66917091  0.10017263
   0.67169302  0.33582110  0.09997921
   0.16696602  0.32645743  0.09994285
   0.32868685  0.16435251  0.10001536
   0.16699640  0.84052666  0.09994285
   0.84311901  0.16433921  0.10001491
   0.68103910  0.84051974  0.09994254
   0.84314380  0.67880462  0.10001489
   0.33337688  0.16668736  0.32554330
   0.50012662  0.00027092  0.32558637
   0.33332898  0.66666346  0.32532600
   0.50012662  0.49985686  0.32558636
   0.83331981  0.16669144  0.32553979
   0.00000492  0.00000303  0.32553205
   0.83331985  0.66662627  0.32553981
   0.99973316  0.49986715  0.32558775
