       N       E                     dE             d eps       ncg     rms          ort
SDA:   1    -0.143424992829E+03   -0.14342E+03   -0.22057E-06  5856   0.551E-06 0.000E+00
DMP:   2    -0.143424993012E+03   -0.18253E-06   -0.15594E-06  5856   0.253E-06 0.360E-06
   1 F= -.14342499E+03 E0= -.14342499E+03  d E =-.253505E-10
