 vasp.5.4.4.18Apr17-6-g9f103f2a35 (build Mar 30 2023 15:39:25) complex          
  
 executed on             LinuxIFC date 2023.07.19  12:37:11
 running on   16 total cores
 distrk:  each k-point on   16 cores,    1 groups
 distr:  one band on NCORES_PER_BAND=   1 cores,   16 groups


--------------------------------------------------------------------------------------------------------


 INCAR:
 POTCAR:    PAW_PBE B 06Sep2000                   
 POTCAR:    PAW_PBE C 08Apr2002                   

 ----------------------------------------------------------------------------- 
|                                                                             |
|           W    W    AA    RRRRR   N    N  II  N    N   GGGG   !!!           |
|           W    W   A  A   R    R  NN   N  II  NN   N  G    G  !!!           |
|           W    W  A    A  R    R  N N  N  II  N N  N  G       !!!           |
|           W WW W  AAAAAA  RRRRR   N  N N  II  N  N N  G  GGG   !            |
|           WW  WW  A    A  R   R   N   NN  II  N   NN  G    G                |
|           W    W  A    A  R    R  N    N  II  N    N   GGGG   !!!           |
|                                                                             |
|      For optimal performance we recommend to set                            |
|        NCORE= 4 - approx SQRT( number of cores)                             |
|      NCORE specifies how many cores store one orbital (NPAR=cpu/NCORE).     |
|      This setting can  greatly improve the performance of VASP for DFT.     |
|      The default,   NCORE=1            might be grossly inefficient         |
|      on modern multi-core architectures or massively parallel machines.     |
|      Do your own testing !!!!                                               |
|      Unfortunately you need to use the default for GW and RPA calculations. |
|      (for HF NCORE is supported but not extensively tested yet)             |
|                                                                             |
 ----------------------------------------------------------------------------- 

 POTCAR:    PAW_PBE B 06Sep2000                   
   SHA256 =  a32ced30f5ae56fd4d10b4325ff17eb3e4e38ee0f4288bc219fb012fddfa6e97 B/
   COPYR  = (c) Copyright 06Sep2000 Georg Kresse                                
   COPYR  = This file is part of the software VASP. Any use, copying, and all ot
   COPYR  = If you do not have a valid VASP license, you may not use, copy or di
   VRHFIN =B: s2p1                                                              
   LEXCH  = PE                                                                  
   EATOM  =    71.1703 eV,    5.2309 Ry                                         
                                                                                
   TITEL  = PAW_PBE B 06Sep2000                                                 
   LULTRA =        F    use ultrasoft PP ?                                      
   IUNSCR =        1    unscreen: 0-lin 1-nonlin 2-no                           
   RPACOR =    1.200    partial core radius                                     
   POMASS =   10.811; ZVAL   =    3.000    mass and valenz                      
   RCORE  =    1.700    outmost cutoff radius                                   
   RWIGS  =    1.710; RWIGS  =    0.905    wigner-seitz radius (au A)           
   ENMAX  =  318.614; ENMIN  =  238.960 eV                                      
   ICORE  =        2    local potential                                         
   LCOR   =        T    correct aug charges                                     
   LPAW   =        T    paw PP                                                  
   EAUG   =  535.514                                                            
   DEXC   =    0.000                                                            
   RMAX   =    1.732    core radius for proj-oper                               
   RAUG   =    1.300    factor for augmentation sphere                          
   RDEP   =    1.757    radius for radial grids                                 
   RDEPT  =    1.436    core radius for aug-charge                              
                                                                                
   Atomic configuration                                                         
    4 entries                                                                   
     n  l   j            E        occ.                                          
     1  0  0.50      -180.5896   2.0000                                         
     2  0  0.50        -9.4431   2.0000                                         
     2  1  0.50        -3.6068   1.0000                                         
     3  2  1.50        -4.0817   0.0000                                         
   Description                                                                  
     l       E           TYP  RCUT    TYP  RCUT                                 
     0     -9.4430752     23  1.500                                             
     0      0.8675899     23  1.500                                             
     1     -3.6067955     23  1.700                                             
     1      6.1086146     23  1.700                                             
     2     -4.0817478      7  1.700                                             
  local pseudopotential read in
  partial core-charges read in
  partial kinetic energy density read in
  atomic valenz-charges read in
  non local Contribution for L=           0  read in
    real space projection operators read in
  non local Contribution for L=           0  read in
    real space projection operators read in
  non local Contribution for L=           1  read in
    real space projection operators read in
  non local Contribution for L=           1  read in
    real space projection operators read in
    PAW grid and wavefunctions read in
 
   number of l-projection  operators is LMAX  =           4
   number of lm-projection operators is LMMAX =           8
 
 POTCAR:    PAW_PBE C 08Apr2002                   
   SHA256 =  253f7b50bb8d59471dbedb8285d89021f4a42ed1a2c5d38a03a736e69125dd95 C/
   COPYR  = (c) Copyright 08Apr2002 Georg Kresse                                
   COPYR  = This file is part of the software VASP. Any use, copying, and all ot
   COPYR  = If you do not have a valid VASP license, you may not use, copy or di
   VRHFIN =C: s2p2                                                              
   LEXCH  = PE                                                                  
   EATOM  =   147.1560 eV,   10.8157 Ry                                         
                                                                                
   TITEL  = PAW_PBE C 08Apr2002                                                 
   LULTRA =        F    use ultrasoft PP ?                                      
   IUNSCR =        1    unscreen: 0-lin 1-nonlin 2-no                           
   RPACOR =    1.200    partial core radius                                     
   POMASS =   12.011; ZVAL   =    4.000    mass and valenz                      
   RCORE  =    1.500    outmost cutoff radius                                   
   RWIGS  =    1.630; RWIGS  =    0.863    wigner-seitz radius (au A)           
   ENMAX  =  400.000; ENMIN  =  300.000 eV                                      
   ICORE  =        2    local potential                                         
   LCOR   =        T    correct aug charges                                     
   LPAW   =        T    paw PP                                                  
   EAUG   =  644.873                                                            
   DEXC   =    0.000                                                            
   RMAX   =    1.529    core radius for proj-oper                               
   RAUG   =    1.300    factor for augmentation sphere                          
   RDEP   =    1.501    radius for radial grids                                 
   RDEPT  =    1.300    core radius for aug-charge                              
                                                                                
   Atomic configuration                                                         
    4 entries                                                                   
     n  l   j            E        occ.                                          
     1  0  0.50      -273.3789   2.0000                                         
     2  0  0.50       -13.7508   2.0000                                         
     2  1  0.50        -5.2854   2.0000                                         
     3  2  1.50        -5.4423   0.0000                                         
   Description                                                                  
     l       E           TYP  RCUT    TYP  RCUT                                 
     0    -13.7508458     23  1.200                                             
     0     -8.2022199     23  1.200                                             
     1     -5.2854383     23  1.500                                             
     1     34.0145650     23  1.500                                             
     2     -5.4423304      7  1.500                                             
  local pseudopotential read in
  partial core-charges read in
  partial kinetic energy density read in
  atomic valenz-charges read in
  non local Contribution for L=           0  read in
    real space projection operators read in
  non local Contribution for L=           0  read in
    real space projection operators read in
  non local Contribution for L=           1  read in
    real space projection operators read in
  non local Contribution for L=           1  read in
    real space projection operators read in
    PAW grid and wavefunctions read in
 
   number of l-projection  operators is LMAX  =           4
   number of lm-projection operators is LMMAX =           8
 
  PAW_PBE B 06Sep2000                   :
 energy of atom  1       EATOM=  -71.1703
 kinetic energy error for atom=    0.0015 (will be added to EATOM!!)
  PAW_PBE C 08Apr2002                   :
 energy of atom  2       EATOM= -147.1560
 kinetic energy error for atom=    0.0116 (will be added to EATOM!!)
 
 
 POSCAR: BC3 with lattice parameter 5.169        
  positions in direct lattice
  velocities in cartesian coordinates
 exchange correlation table for  LEXCH =        8
   RHO(1)=    0.500       N(1)  =     2000
   RHO(2)=  100.500       N(2)  =     4000
 


--------------------------------------------------------------------------------------------------------


 ion  position               nearest neighbor table
   1  0.338  0.669  0.250-   3 1.56   5 1.56   7 1.56
   2  0.672  0.336  0.250-   4 1.56   8 1.56   6 1.56
   3  0.164  0.320  0.250-   4 1.42   6 1.42   1 1.56
   4  0.323  0.161  0.250-   3 1.42   5 1.42   2 1.56
   5  0.164  0.844  0.250-   8 1.42   4 1.42   1 1.56
   6  0.846  0.161  0.250-   3 1.42   7 1.42   2 1.56
   7  0.687  0.844  0.250-   8 1.42   6 1.42   1 1.56
   8  0.846  0.685  0.250-   5 1.42   7 1.42   2 1.56
 
  LATTYP: Found a hexagonal cell.
 ALAT       =     5.1690000000
 C/A-ratio  =     2.9019152641
  
  Lattice vectors:
  
 A1 = (   4.4764850000,   2.5845000000,   0.0000000000)
 A2 = (  -4.4764850000,   2.5845000000,   0.0000000000)
 A3 = (   0.0000000000,   0.0000000000,  15.0000000000)


Analysis of symmetry for initial positions (statically):
=====================================================================
 Subroutine PRICEL returns:
 Original cell was already a primitive cell.
 

 Routine SETGRP: Setting up the symmetry group for a 
 hexagonal supercell.


 Subroutine GETGRP returns: Found  2 space group operations
 (whereof  1 operations were pure point group operations)
 out of a pool of 24 trial point group operations.


The static configuration has the point symmetry C_1 .
 The point group associated with its full space group is C_1h.


Analysis of symmetry for dynamics (positions and initial velocities):
=====================================================================
 Subroutine PRICEL returns:
 Original cell was already a primitive cell.
 

 Routine SETGRP: Setting up the symmetry group for a 
 hexagonal supercell.


 Subroutine GETGRP returns: Found  2 space group operations
 (whereof  1 operations were pure point group operations)
 out of a pool of 24 trial point group operations.


The dynamic configuration has the point symmetry C_1 .
 The point group associated with its full space group is C_1h.


 Subroutine INISYM returns: Found  2 space group operations
 (whereof  1 operations are pure point group operations),
 and found     1 'primitive' translations

 
 
 KPOINTS: k-points                                

Automatic generation of k-mesh.
Space group operators:
 irot       det(A)        alpha          n_x          n_y          n_z        tau_x        tau_y        tau_z
    1     1.000000     0.000000     1.000000     0.000000     0.000000     0.000000     0.000000     0.000000
    2    -1.000000   180.000000     0.000000     0.000000     1.000000     0.000000     0.000000     0.500000
 
 Subroutine IBZKPT returns following result:
 ===========================================
 
 Found     52 irreducible k-points:
 
 Following reciprocal coordinates:
            Coordinates               Weight
  0.000000  0.000000  0.000000      1.000000
  0.100000  0.000000  0.000000      2.000000
  0.200000  0.000000  0.000000      2.000000
  0.300000  0.000000  0.000000      2.000000
  0.400000  0.000000  0.000000      2.000000
  0.500000 -0.000000  0.000000      1.000000
  0.000000  0.100000  0.000000      2.000000
  0.100000  0.100000  0.000000      2.000000
  0.200000  0.100000  0.000000      2.000000
  0.300000  0.100000  0.000000      2.000000
  0.400000  0.100000  0.000000      2.000000
  0.500000  0.100000  0.000000      2.000000
 -0.400000  0.100000  0.000000      2.000000
 -0.300000  0.100000  0.000000      2.000000
 -0.200000  0.100000  0.000000      2.000000
 -0.100000  0.100000  0.000000      2.000000
  0.000000  0.200000  0.000000      2.000000
  0.100000  0.200000  0.000000      2.000000
  0.200000  0.200000  0.000000      2.000000
  0.300000  0.200000  0.000000      2.000000
  0.400000  0.200000  0.000000      2.000000
  0.500000  0.200000  0.000000      2.000000
 -0.400000  0.200000  0.000000      2.000000
 -0.300000  0.200000  0.000000      2.000000
 -0.200000  0.200000  0.000000      2.000000
 -0.100000  0.200000  0.000000      2.000000
  0.000000  0.300000  0.000000      2.000000
  0.100000  0.300000  0.000000      2.000000
  0.200000  0.300000  0.000000      2.000000
  0.300000  0.300000  0.000000      2.000000
  0.400000  0.300000  0.000000      2.000000
  0.500000  0.300000  0.000000      2.000000
 -0.400000  0.300000  0.000000      2.000000
 -0.300000  0.300000  0.000000      2.000000
 -0.200000  0.300000  0.000000      2.000000
 -0.100000  0.300000  0.000000      2.000000
  0.000000  0.400000  0.000000      2.000000
  0.100000  0.400000  0.000000      2.000000
  0.200000  0.400000  0.000000      2.000000
  0.300000  0.400000  0.000000      2.000000
  0.400000  0.400000  0.000000      2.000000
  0.500000  0.400000  0.000000      2.000000
 -0.400000  0.400000  0.000000      2.000000
 -0.300000  0.400000  0.000000      2.000000
 -0.200000  0.400000  0.000000      2.000000
 -0.100000  0.400000  0.000000      2.000000
 -0.000000  0.500000  0.000000      1.000000
  0.100000  0.500000  0.000000      2.000000
  0.200000  0.500000  0.000000      2.000000
  0.300000  0.500000  0.000000      2.000000
  0.400000  0.500000  0.000000      2.000000
  0.500000  0.500000  0.000000      1.000000
 
 Following cartesian coordinates:
            Coordinates               Weight
  0.000000  0.000000  0.000000      1.000000
  0.011169  0.019346  0.000000      2.000000
  0.022339  0.038692  0.000000      2.000000
  0.033508  0.058038  0.000000      2.000000
  0.044678  0.077384  0.000000      2.000000
  0.055847  0.096731  0.000000      1.000000
 -0.011169  0.019346  0.000000      2.000000
  0.000000  0.038692  0.000000      2.000000
  0.011169  0.058038  0.000000      2.000000
  0.022339  0.077384  0.000000      2.000000
  0.033508  0.096731  0.000000      2.000000
  0.044678  0.116077  0.000000      2.000000
 -0.055847 -0.058038  0.000000      2.000000
 -0.044678 -0.038692  0.000000      2.000000
 -0.033508 -0.019346  0.000000      2.000000
 -0.022339  0.000000  0.000000      2.000000
 -0.022339  0.038692  0.000000      2.000000
 -0.011169  0.058038  0.000000      2.000000
  0.000000  0.077384  0.000000      2.000000
  0.011169  0.096731  0.000000      2.000000
  0.022339  0.116077  0.000000      2.000000
  0.033508  0.135423  0.000000      2.000000
 -0.067017 -0.038692  0.000000      2.000000
 -0.055847 -0.019346  0.000000      2.000000
 -0.044678  0.000000  0.000000      2.000000
 -0.033508  0.019346  0.000000      2.000000
 -0.033508  0.058038  0.000000      2.000000
 -0.022339  0.077384  0.000000      2.000000
 -0.011169  0.096731  0.000000      2.000000
  0.000000  0.116077  0.000000      2.000000
  0.011169  0.135423  0.000000      2.000000
  0.022339  0.154769  0.000000      2.000000
 -0.078186 -0.019346  0.000000      2.000000
 -0.067017  0.000000  0.000000      2.000000
 -0.055847  0.019346  0.000000      2.000000
 -0.044678  0.038692  0.000000      2.000000
 -0.044678  0.077384  0.000000      2.000000
 -0.033508  0.096731  0.000000      2.000000
 -0.022339  0.116077  0.000000      2.000000
 -0.011169  0.135423  0.000000      2.000000
  0.000000  0.154769  0.000000      2.000000
  0.011169  0.174115  0.000000      2.000000
 -0.089356  0.000000  0.000000      2.000000
 -0.078186  0.019346  0.000000      2.000000
 -0.067017  0.038692  0.000000      2.000000
 -0.055847  0.058038  0.000000      2.000000
 -0.055847  0.096731  0.000000      1.000000
 -0.044678  0.116077  0.000000      2.000000
 -0.033508  0.135423  0.000000      2.000000
 -0.022339  0.154769  0.000000      2.000000
 -0.011169  0.174115  0.000000      2.000000
  0.000000  0.193461  0.000000      1.000000
 


--------------------------------------------------------------------------------------------------------




 Dimension of arrays:
   k-points           NKPTS =     52   k-points in BZ     NKDIM =     52   number of bands    NBANDS=     32
   number of dos      NEDOS =    301   number of ions     NIONS =      8
   non local maximal  LDIM  =      4   non local SUM 2l+1 LMDIM =      8
   total plane-waves  NPLWV = 139968
   max r-space proj   IRMAX =      1   max aug-charges    IRDMAX=   6487
   dimension x,y,z NGX =    36 NGY =   36 NGZ =  108
   dimension x,y,z NGXF=    72 NGYF=   72 NGZF=  216
   support grid    NGXF=    72 NGYF=   72 NGZF=  216
   ions per type =               2   6
   NGX,Y,Z   is equivalent  to a cutoff of  11.58, 11.58, 11.97 a.u.
   NGXF,Y,Z  is equivalent  to a cutoff of  23.16, 23.16, 23.94 a.u.

 SYSTEM =  BC3                                     
 POSCAR =  BC3 with lattice parameter 5.169        

 Startparameter for this run:
   NWRITE =      2    write-flag & timer
   PREC   = accura    normal or accurate (medium, high low for compatibility)
   ISTART =      0    job   : 0-new  1-cont  2-samecut
   ICHARG =      2    charge: 1-file 2-atom 10-const
   ISPIN  =      1    spin polarized calculation?
   LNONCOLLINEAR =      F non collinear calculations
   LSORBIT =      F    spin-orbit coupling
   INIWAV =      1    electr: 0-lowe 1-rand  2-diag
   LASPH  =      F    aspherical Exc in radial PAW
   METAGGA=      F    non-selfconsistent MetaGGA calc.

 Electronic Relaxation 1
   ENCUT  =  450.0 eV  33.07 Ry    5.75 a.u.   8.94  8.94 25.95*2*pi/ulx,y,z
   ENINI  =  450.0     initial cutoff
   ENAUG  =  644.9 eV  augmentation charge cutoff
   NELM   =     60;   NELMIN=  2; NELMDL= -5     # of ELM steps 
   EDIFF  = 0.1E-05   stopping-criterion for ELM
   LREAL  =      F    real-space projection
   NLSPLINE    = F    spline interpolate recip. space projectors
   LCOMPAT=      F    compatible to vasp.4.4
   GGA_COMPAT  = T    GGA compatible to vasp.4.4-vasp.4.6
   LMAXPAW     = -100 max onsite density
   LMAXMIX     =    2 max onsite mixed and CHGCAR
   VOSKOWN=      0    Vosko Wilk Nusair interpolation
   ROPT   =    0.00000   0.00000
 Ionic relaxation
   EDIFFG = -.1E-01   stopping-criterion for IOM
   NSW    =    100    number of steps for IOM
   NBLOCK =      1;   KBLOCK =    100    inner block; outer block 
   IBRION =      2    ionic relax: 0-MD 1-quasi-New 2-CG
   NFREE  =      1    steps in history (QN), initial steepest desc. (CG)
   ISIF   =      2    stress and relaxation
   IWAVPR =     11    prediction:  0-non 1-charg 2-wave 3-comb
   ISYM   =      2    0-nonsym 1-usesym 2-fastsym
   LCORR  =      T    Harris-Foulkes like correction to forces

   POTIM  = 0.5000    time-step for ionic-motion
   TEIN   =    0.0    initial temperature
   TEBEG  =    0.0;   TEEND  =   0.0 temperature during run
   SMASS  =  -3.00    Nose mass-parameter (am)
   estimated Nose-frequenzy (Omega)   =  0.10E-29 period in steps =****** mass=  -0.611E-27a.u.
   SCALEE = 1.0000    scale energy and forces
   NPACO  =    256;   APACO  = 16.0  distance and # of slots for P.C.
   PSTRESS=    0.0 pullay stress

  Mass of Ions in am
   POMASS =  10.81 12.01
  Ionic Valenz
   ZVAL   =   3.00  4.00
  Atomic Wigner-Seitz radii
   RWIGS  =  -1.00 -1.00
  virtual crystal weights 
   VCA    =   1.00  1.00
   NELECT =      30.0000    total number of electrons
   NUPDOWN=      -1.0000    fix difference up-down

 DOS related values:
   EMIN   =  10.00;   EMAX   =-10.00  energy-range for DOS
   EFERMI =   0.00
   ISMEAR =     0;   SIGMA  =   0.10  broadening in eV -4-tet -1-fermi 0-gaus

 Electronic relaxation 2 (details)
   IALGO  =     38    algorithm
   LDIAG  =      T    sub-space diagonalisation (order eigenvalues)
   LSUBROT=      F    optimize rotation matrix (better conditioning)
   TURBO    =      0    0=normal 1=particle mesh
   IRESTART =      0    0=no restart 2=restart with 2 vectors
   NREBOOT  =      0    no. of reboots
   NMIN     =      0    reboot dimension
   EREF     =   0.00    reference energy to select bands
   IMIX   =      4    mixing-type and parameters
     AMIX     =   0.40;   BMIX     =  1.00
     AMIX_MAG =   1.60;   BMIX_MAG =  1.00
     AMIN     =   0.10
     WC   =   100.;   INIMIX=   1;  MIXPRE=   1;  MAXMIX= -45

 Intra band minimization:
   WEIMIN = 0.0010     energy-eigenvalue tresh-hold
   EBREAK =  0.78E-08  absolut break condition
   DEPER  =   0.30     relativ break condition  

   TIME   =   0.40     timestep for ELM

  volume/ion in A,a.u.               =      43.39       292.78
  Fermi-wavevector in a.u.,A,eV,Ry     =   0.723831  1.367842  7.128511  0.523931
  Thomas-Fermi vector in A             =   1.814147
 
 Write flags
   LWAVE        =      F    write WAVECAR
   LDOWNSAMPLE  =      F    k-point downsampling of WAVECAR
   LCHARG       =      F    write CHGCAR
   LVTOT        =      F    write LOCPOT, total local potential
   LVHAR        =      F    write LOCPOT, Hartree potential only
   LELF         =      F    write electronic localiz. function (ELF)
   LORBIT       =      0    0 simple, 1 ext, 2 COOP (PROOUT), +10 PAW based schemes


 Dipole corrections
   LMONO  =      F    monopole corrections only (constant potential shift)
   LDIPOL =      F    correct potential (dipole corrections)
   IDIPOL =      0    1-x, 2-y, 3-z, 4-all directions 
   EPSILON=  1.0000000 bulk dielectric constant

 Exchange correlation treatment:
   GGA     =    PE    GGA type
   LEXCH   =     8    internal setting for exchange type
   VOSKOWN=      0    Vosko Wilk Nusair interpolation
   LHFCALC =     F    Hartree Fock is set to
   LHFONE  =     F    Hartree Fock one center treatment
   AEXX    =    0.0000 exact exchange contribution

 Linear response parameters
   LEPSILON=     F    determine dielectric tensor
   LRPA    =     F    only Hartree local field effects (RPA)
   LNABLA  =     F    use nabla operator in PAW spheres
   LVEL    =     F    velocity operator in full k-point grid
   LINTERFAST=   F  fast interpolation
   KINTER  =     0    interpolate to denser k-point grid
   CSHIFT  =0.1000    complex shift for real part using Kramers Kronig
   OMEGAMAX=  -1.0    maximum frequency
   DEG_THRESHOLD= 0.2000000E-02 threshold for treating states as degnerate
   RTIME   =   -0.100 relaxation time in fs
  (WPLASMAI=    0.000 imaginary part of plasma frequency in eV, 0.658/RTIME)
   DFIELD  = 0.0000000 0.0000000 0.0000000 field for delta impulse in time
 
 Orbital magnetization related:
   ORBITALMAG=     F  switch on orbital magnetization
   LCHIMAG   =     F  perturbation theory with respect to B field
   DQ        =  0.001000  dq finite difference perturbation B field
   LLRAUG    =     F  two centre corrections for induced B field



--------------------------------------------------------------------------------------------------------


 conjugate gradient relaxation of ions
 charge density and potential will be updated during run
 non-spin polarized calculation
 Variant of blocked Davidson
 Davidson routine will perform the subspace rotation
 perform sub-space diagonalisation
    after iterative eigenvector-optimisation
 modified Broyden-mixing scheme, WC =      100.0
 initial mixing is a Kerker type mixing with AMIX =  0.4000 and BMIX =      1.0000
 Hartree-type preconditioning will be used
 using additional bands           17
 reciprocal scheme for non local part
 use partial core corrections
 calculate Harris-corrections to forces 
   (improved forces if not selfconsistent)
 use gradient corrections 
 use of overlap-Matrix (Vanderbilt PP)
 Gauss-broadening in eV      SIGMA  =   0.10


--------------------------------------------------------------------------------------------------------


  energy-cutoff  :      450.00
  volume of cell :      347.08
      direct lattice vectors                 reciprocal lattice vectors
     4.476485000  2.584500000  0.000000000     0.111694778  0.193461018  0.000000000
    -4.476485000  2.584500000  0.000000000    -0.111694778  0.193461018  0.000000000
     0.000000000  0.000000000 15.000000000     0.000000000  0.000000000  0.066666667

  length of vectors
     5.168999730  5.168999730 15.000000000     0.223389545  0.223389545  0.066666667


 
 k-points in units of 2pi/SCALE and weight: k-points                                
   0.00000000  0.00000000  0.00000000       0.010
   0.01116948  0.01934610  0.00000000       0.020
   0.02233896  0.03869220  0.00000000       0.020
   0.03350843  0.05803831  0.00000000       0.020
   0.04467791  0.07738441  0.00000000       0.020
   0.05584739  0.09673051  0.00000000       0.010
  -0.01116948  0.01934610  0.00000000       0.020
   0.00000000  0.03869220  0.00000000       0.020
   0.01116948  0.05803831  0.00000000       0.020
   0.02233896  0.07738441  0.00000000       0.020
   0.03350843  0.09673051  0.00000000       0.020
   0.04467791  0.11607661  0.00000000       0.020
  -0.05584739 -0.05803831  0.00000000       0.020
  -0.04467791 -0.03869220  0.00000000       0.020
  -0.03350843 -0.01934610  0.00000000       0.020
  -0.02233896  0.00000000  0.00000000       0.020
  -0.02233896  0.03869220  0.00000000       0.020
  -0.01116948  0.05803831  0.00000000       0.020
   0.00000000  0.07738441  0.00000000       0.020
   0.01116948  0.09673051  0.00000000       0.020
   0.02233896  0.11607661  0.00000000       0.020
   0.03350843  0.13542271  0.00000000       0.020
  -0.06701687 -0.03869220  0.00000000       0.020
  -0.05584739 -0.01934610  0.00000000       0.020
  -0.04467791  0.00000000  0.00000000       0.020
  -0.03350843  0.01934610  0.00000000       0.020
  -0.03350843  0.05803831  0.00000000       0.020
  -0.02233896  0.07738441  0.00000000       0.020
  -0.01116948  0.09673051  0.00000000       0.020
   0.00000000  0.11607661  0.00000000       0.020
   0.01116948  0.13542271  0.00000000       0.020
   0.02233896  0.15476881  0.00000000       0.020
  -0.07818634 -0.01934610  0.00000000       0.020
  -0.06701687  0.00000000  0.00000000       0.020
  -0.05584739  0.01934610  0.00000000       0.020
  -0.04467791  0.03869220  0.00000000       0.020
  -0.04467791  0.07738441  0.00000000       0.020
  -0.03350843  0.09673051  0.00000000       0.020
  -0.02233896  0.11607661  0.00000000       0.020
  -0.01116948  0.13542271  0.00000000       0.020
   0.00000000  0.15476881  0.00000000       0.020
   0.01116948  0.17411492  0.00000000       0.020
  -0.08935582  0.00000000  0.00000000       0.020
  -0.07818634  0.01934610  0.00000000       0.020
  -0.06701687  0.03869220  0.00000000       0.020
  -0.05584739  0.05803831  0.00000000       0.020
  -0.05584739  0.09673051  0.00000000       0.010
  -0.04467791  0.11607661  0.00000000       0.020
  -0.03350843  0.13542271  0.00000000       0.020
  -0.02233896  0.15476881  0.00000000       0.020
  -0.01116948  0.17411492  0.00000000       0.020
   0.00000000  0.19346102  0.00000000       0.010
 
 k-points in reciprocal lattice and weights: k-points                                
   0.00000000  0.00000000  0.00000000       0.010
   0.10000000  0.00000000  0.00000000       0.020
   0.20000000  0.00000000  0.00000000       0.020
   0.30000000  0.00000000  0.00000000       0.020
   0.40000000  0.00000000  0.00000000       0.020
   0.50000000 -0.00000000  0.00000000       0.010
   0.00000000  0.10000000  0.00000000       0.020
   0.10000000  0.10000000  0.00000000       0.020
   0.20000000  0.10000000  0.00000000       0.020
   0.30000000  0.10000000  0.00000000       0.020
   0.40000000  0.10000000  0.00000000       0.020
   0.50000000  0.10000000  0.00000000       0.020
  -0.40000000  0.10000000  0.00000000       0.020
  -0.30000000  0.10000000  0.00000000       0.020
  -0.20000000  0.10000000  0.00000000       0.020
  -0.10000000  0.10000000  0.00000000       0.020
   0.00000000  0.20000000  0.00000000       0.020
   0.10000000  0.20000000  0.00000000       0.020
   0.20000000  0.20000000  0.00000000       0.020
   0.30000000  0.20000000  0.00000000       0.020
   0.40000000  0.20000000  0.00000000       0.020
   0.50000000  0.20000000  0.00000000       0.020
  -0.40000000  0.20000000  0.00000000       0.020
  -0.30000000  0.20000000  0.00000000       0.020
  -0.20000000  0.20000000  0.00000000       0.020
  -0.10000000  0.20000000  0.00000000       0.020
   0.00000000  0.30000000  0.00000000       0.020
   0.10000000  0.30000000  0.00000000       0.020
   0.20000000  0.30000000  0.00000000       0.020
   0.30000000  0.30000000  0.00000000       0.020
   0.40000000  0.30000000  0.00000000       0.020
   0.50000000  0.30000000  0.00000000       0.020
  -0.40000000  0.30000000  0.00000000       0.020
  -0.30000000  0.30000000  0.00000000       0.020
  -0.20000000  0.30000000  0.00000000       0.020
  -0.10000000  0.30000000  0.00000000       0.020
   0.00000000  0.40000000  0.00000000       0.020
   0.10000000  0.40000000  0.00000000       0.020
   0.20000000  0.40000000  0.00000000       0.020
   0.30000000  0.40000000  0.00000000       0.020
   0.40000000  0.40000000  0.00000000       0.020
   0.50000000  0.40000000  0.00000000       0.020
  -0.40000000  0.40000000  0.00000000       0.020
  -0.30000000  0.40000000  0.00000000       0.020
  -0.20000000  0.40000000  0.00000000       0.020
  -0.10000000  0.40000000  0.00000000       0.020
  -0.00000000  0.50000000  0.00000000       0.010
   0.10000000  0.50000000  0.00000000       0.020
   0.20000000  0.50000000  0.00000000       0.020
   0.30000000  0.50000000  0.00000000       0.020
   0.40000000  0.50000000  0.00000000       0.020
   0.50000000  0.50000000  0.00000000       0.010
 
 position of ions in fractional coordinates (direct lattice) 
   0.33833034  0.66916432  0.25000000
   0.67165522  0.33584146  0.25000000
   0.16373946  0.31999962  0.25000000
   0.32250218  0.16126397  0.25000000
   0.16376430  0.84376384  0.25000000
   0.84623863  0.16123684  0.25000000
   0.68749850  0.84373000  0.25000000
   0.84626736  0.68499594  0.25000000
 
 position of ions in cartesian coordinates  (Angst):
  -1.48097334  2.60386996  3.75000000
   1.50326524  2.60387516  3.75000000
  -0.69949626  1.25022367  3.75000000
   0.72178046  1.25029362  3.75000000
  -3.04400774  2.60395648  3.75000000
   3.06640025  2.60382037  3.75000000
  -0.69936797  3.95746008  3.75000000
   0.72192906  3.95755000  3.75000000
 


--------------------------------------------------------------------------------------------------------


 k-point  1 :   0.0000 0.0000 0.0000  plane waves:    7497
 k-point  2 :   0.1000 0.0000 0.0000  plane waves:    7507
 k-point  3 :   0.2000 0.0000 0.0000  plane waves:    7505
 k-point  4 :   0.3000 0.0000 0.0000  plane waves:    7524
 k-point  5 :   0.4000 0.0000 0.0000  plane waves:    7514
 k-point  6 :   0.5000-0.0000 0.0000  plane waves:    7528
 k-point  7 :   0.0000 0.1000 0.0000  plane waves:    7507
 k-point  8 :   0.1000 0.1000 0.0000  plane waves:    7507
 k-point  9 :   0.2000 0.1000 0.0000  plane waves:    7506
 k-point 10 :   0.3000 0.1000 0.0000  plane waves:    7507
 k-point 11 :   0.4000 0.1000 0.0000  plane waves:    7524
 k-point 12 :   0.5000 0.1000 0.0000  plane waves:    7524
 k-point 13 :  -0.4000 0.1000 0.0000  plane waves:    7507
 k-point 14 :  -0.3000 0.1000 0.0000  plane waves:    7506
 k-point 15 :  -0.2000 0.1000 0.0000  plane waves:    7507
 k-point 16 :  -0.1000 0.1000 0.0000  plane waves:    7507
 k-point 17 :   0.0000 0.2000 0.0000  plane waves:    7505
 k-point 18 :   0.1000 0.2000 0.0000  plane waves:    7506
 k-point 19 :   0.2000 0.2000 0.0000  plane waves:    7531
 k-point 20 :   0.3000 0.2000 0.0000  plane waves:    7531
 k-point 21 :   0.4000 0.2000 0.0000  plane waves:    7561
 k-point 22 :   0.5000 0.2000 0.0000  plane waves:    7531
 k-point 23 :  -0.4000 0.2000 0.0000  plane waves:    7531
 k-point 24 :  -0.3000 0.2000 0.0000  plane waves:    7506
 k-point 25 :  -0.2000 0.2000 0.0000  plane waves:    7505
 k-point 26 :  -0.1000 0.2000 0.0000  plane waves:    7507
 k-point 27 :   0.0000 0.3000 0.0000  plane waves:    7524
 k-point 28 :   0.1000 0.3000 0.0000  plane waves:    7507
 k-point 29 :   0.2000 0.3000 0.0000  plane waves:    7531
 k-point 30 :   0.3000 0.3000 0.0000  plane waves:    7563
 k-point 31 :   0.4000 0.3000 0.0000  plane waves:    7563
 k-point 32 :   0.5000 0.3000 0.0000  plane waves:    7531
 k-point 33 :  -0.4000 0.3000 0.0000  plane waves:    7507
 k-point 34 :  -0.3000 0.3000 0.0000  plane waves:    7524
 k-point 35 :  -0.2000 0.3000 0.0000  plane waves:    7506
 k-point 36 :  -0.1000 0.3000 0.0000  plane waves:    7506
 k-point 37 :   0.0000 0.4000 0.0000  plane waves:    7514
 k-point 38 :   0.1000 0.4000 0.0000  plane waves:    7524
 k-point 39 :   0.2000 0.4000 0.0000  plane waves:    7561
 k-point 40 :   0.3000 0.4000 0.0000  plane waves:    7563
 k-point 41 :   0.4000 0.4000 0.0000  plane waves:    7561
 k-point 42 :   0.5000 0.4000 0.0000  plane waves:    7524
 k-point 43 :  -0.4000 0.4000 0.0000  plane waves:    7514
 k-point 44 :  -0.3000 0.4000 0.0000  plane waves:    7507
 k-point 45 :  -0.2000 0.4000 0.0000  plane waves:    7531
 k-point 46 :  -0.1000 0.4000 0.0000  plane waves:    7507
 k-point 47 :  -0.0000 0.5000 0.0000  plane waves:    7528
 k-point 48 :   0.1000 0.5000 0.0000  plane waves:    7524
 k-point 49 :   0.2000 0.5000 0.0000  plane waves:    7531
 k-point 50 :   0.3000 0.5000 0.0000  plane waves:    7531
 k-point 51 :   0.4000 0.5000 0.0000  plane waves:    7524
 k-point 52 :   0.5000 0.5000 0.0000  plane waves:    7528

 maximum and minimum number of plane-waves per node :      7563     7497

 maximum number of plane-waves:      7563
 maximum index in each direction: 
   IXMAX=    9   IYMAX=    8   IZMAX=   25
   IXMIN=   -9   IYMIN=   -9   IZMIN=  -25


 serial   3D FFT for wavefunctions
 parallel 3D FFT for charge:
    minimum data exchange during FFTs selected (reduces bandwidth)


 total amount of memory used by VASP MPI-rank0   107220. kBytes
=======================================================================

   base      :      30000. kBytes
   nonl-proj :      51341. kBytes
   fftplans  :       3154. kBytes
   grid      :      10002. kBytes
   one-center:         24. kBytes
   wavefun   :      12699. kBytes
 
     INWAV:  cpu time    0.0000: real time    0.0000
 Broyden mixing: mesh for mixing (old mesh)
   NGX = 17   NGY = 17   NGZ = 51
  (NGX  = 72   NGY  = 72   NGZ  =216)
  gives a total of  14739 points

 initial charge density was supplied:
 charge density of overlapping atoms calculated
 number of electron      30.0000000 magnetization 
 keeping initial charge density in first step


--------------------------------------------------------------------------------------------------------


 Maximum index for augmentation-charges          428 (set IRDMAX)


--------------------------------------------------------------------------------------------------------


 First call to EWALD:  gamma=   0.252
 Maximum number of real-space cells 4x 4x 2
 Maximum number of reciprocal cells 2x 2x 5

    FEWALD:  cpu time    0.0018: real time    0.0023


--------------------------------------- Iteration      1(   1)  ---------------------------------------


    POTLOK:  cpu time    0.0613: real time    0.0616
    SETDIJ:  cpu time    0.0030: real time    0.0030
     EDDAV:  cpu time    3.6748: real time    3.6757
       DOS:  cpu time    0.0007: real time    0.0007
    --------------------------------------------
      LOOP:  cpu time    3.7398: real time    3.7410

 eigenvalue-minimisations  :  3328
 total energy-change (2. order) : 0.1811490E+03  (-0.1002944E+04)
 number of electron      30.0000000 magnetization 
 augmentation part       30.0000000 magnetization 

 Free energy of the ion-electron system (eV)
  ---------------------------------------------------
  alpha Z        PSCENC =        14.61461864
  Ewald energy   TEWEN  =      2603.47533640
  -Hartree energ DENC   =     -3361.43975615
  -exchange      EXHF   =         0.00000000
  -V(xc)+E(xc)   XCENC  =        91.18491800
  PAW double counting   =       738.13200929     -739.83780425
  entropy T*S    EENTRO =        -0.01593160
  eigenvalues    EBANDS =      -190.16831014
  atomic energy  EATOM  =      1025.20389953
  Solvation  Ediel_sol  =         0.00000000
  ---------------------------------------------------
  free energy    TOTEN  =       181.14897971 eV

  energy without entropy =      181.16491131  energy(sigma->0) =      181.15694551


--------------------------------------------------------------------------------------------------------




--------------------------------------- Iteration      1(   2)  ---------------------------------------


     EDDAV:  cpu time    5.6511: real time    5.6521
       DOS:  cpu time    0.0004: real time    0.0004
    --------------------------------------------
      LOOP:  cpu time    5.6515: real time    5.6525

 eigenvalue-minimisations  :  5744
 total energy-change (2. order) :-0.2322461E+03  (-0.2057845E+03)
 number of electron      30.0000000 magnetization 
 augmentation part       30.0000000 magnetization 

 Free energy of the ion-electron system (eV)
  ---------------------------------------------------
  alpha Z        PSCENC =        14.61461864
  Ewald energy   TEWEN  =      2603.47533640
  -Hartree energ DENC   =     -3361.43975615
  -exchange      EXHF   =         0.00000000
  -V(xc)+E(xc)   XCENC  =        91.18491800
  PAW double counting   =       738.13200929     -739.83780425
  entropy T*S    EENTRO =        -0.00000000
  eigenvalues    EBANDS =      -422.43037839
  atomic energy  EATOM  =      1025.20389953
  Solvation  Ediel_sol  =         0.00000000
  ---------------------------------------------------
  free energy    TOTEN  =       -51.09715693 eV

  energy without entropy =      -51.09715693  energy(sigma->0) =      -51.09715693


--------------------------------------------------------------------------------------------------------




--------------------------------------- Iteration      1(   3)  ---------------------------------------


     EDDAV:  cpu time    4.7927: real time    4.7938
       DOS:  cpu time    0.0004: real time    0.0004
    --------------------------------------------
      LOOP:  cpu time    4.7931: real time    4.7942

 eigenvalue-minimisations  :  4704
 total energy-change (2. order) :-0.2186814E+02  (-0.2165517E+02)
 number of electron      30.0000000 magnetization 
 augmentation part       30.0000000 magnetization 

 Free energy of the ion-electron system (eV)
  ---------------------------------------------------
  alpha Z        PSCENC =        14.61461864
  Ewald energy   TEWEN  =      2603.47533640
  -Hartree energ DENC   =     -3361.43975615
  -exchange      EXHF   =         0.00000000
  -V(xc)+E(xc)   XCENC  =        91.18491800
  PAW double counting   =       738.13200929     -739.83780425
  entropy T*S    EENTRO =        -0.00000000
  eigenvalues    EBANDS =      -444.29852074
  atomic energy  EATOM  =      1025.20389953
  Solvation  Ediel_sol  =         0.00000000
  ---------------------------------------------------
  free energy    TOTEN  =       -72.96529928 eV

  energy without entropy =      -72.96529928  energy(sigma->0) =      -72.96529928


--------------------------------------------------------------------------------------------------------




--------------------------------------- Iteration      1(   4)  ---------------------------------------


     EDDAV:  cpu time    4.6174: real time    4.6184
       DOS:  cpu time    0.0004: real time    0.0003
    --------------------------------------------
      LOOP:  cpu time    4.6177: real time    4.6187

 eigenvalue-minimisations  :  4512
 total energy-change (2. order) :-0.5049288E+00  (-0.5041078E+00)
 number of electron      30.0000000 magnetization 
 augmentation part       30.0000000 magnetization 

 Free energy of the ion-electron system (eV)
  ---------------------------------------------------
  alpha Z        PSCENC =        14.61461864
  Ewald energy   TEWEN  =      2603.47533640
  -Hartree energ DENC   =     -3361.43975615
  -exchange      EXHF   =         0.00000000
  -V(xc)+E(xc)   XCENC  =        91.18491800
  PAW double counting   =       738.13200929     -739.83780425
  entropy T*S    EENTRO =        -0.00000000
  eigenvalues    EBANDS =      -444.80344952
  atomic energy  EATOM  =      1025.20389953
  Solvation  Ediel_sol  =         0.00000000
  ---------------------------------------------------
  free energy    TOTEN  =       -73.47022806 eV

  energy without entropy =      -73.47022806  energy(sigma->0) =      -73.47022806


--------------------------------------------------------------------------------------------------------




--------------------------------------- Iteration      1(   5)  ---------------------------------------


     EDDAV:  cpu time    4.5681: real time    4.5690
       DOS:  cpu time    0.0004: real time    0.0004
    CHARGE:  cpu time    0.1739: real time    0.1739
    MIXING:  cpu time    0.0014: real time    0.0014
    --------------------------------------------
      LOOP:  cpu time    4.7438: real time    4.7447

 eigenvalue-minimisations  :  4432
 total energy-change (2. order) :-0.1127519E-01  (-0.1126738E-01)
 number of electron      30.0000000 magnetization 
 augmentation part        0.5841388 magnetization 

 Broyden mixing:
  rms(total) = 0.13163E+01    rms(broyden)= 0.13158E+01
  rms(prec ) = 0.15024E+01
  weight for this iteration     100.00

 Free energy of the ion-electron system (eV)
  ---------------------------------------------------
  alpha Z        PSCENC =        14.61461864
  Ewald energy   TEWEN  =      2603.47533640
  -Hartree energ DENC   =     -3361.43975615
  -exchange      EXHF   =         0.00000000
  -V(xc)+E(xc)   XCENC  =        91.18491800
  PAW double counting   =       738.13200929     -739.83780425
  entropy T*S    EENTRO =        -0.00000000
  eigenvalues    EBANDS =      -444.81472471
  atomic energy  EATOM  =      1025.20389953
  Solvation  Ediel_sol  =         0.00000000
  ---------------------------------------------------
  free energy    TOTEN  =       -73.48150325 eV

  energy without entropy =      -73.48150325  energy(sigma->0) =      -73.48150325


--------------------------------------------------------------------------------------------------------




--------------------------------------- Iteration      1(   6)  ---------------------------------------


    POTLOK:  cpu time    0.0507: real time    0.0511
    SETDIJ:  cpu time    0.0019: real time    0.0019
     EDDAV:  cpu time    4.8621: real time    4.8630
       DOS:  cpu time    0.0004: real time    0.0004
    CHARGE:  cpu time    0.1729: real time    0.1729
    MIXING:  cpu time    0.0014: real time    0.0014
    --------------------------------------------
      LOOP:  cpu time    5.0893: real time    5.0907

 eigenvalue-minimisations  :  4800
 total energy-change (2. order) : 0.4506056E+01  (-0.4067002E+00)
 number of electron      30.0000000 magnetization 
 augmentation part        0.5428925 magnetization 

 Broyden mixing:
  rms(total) = 0.74246E+00    rms(broyden)= 0.74241E+00
  rms(prec ) = 0.83511E+00
  weight for this iteration     100.00

 eigenvalues of (default mixing * dielectric matrix)
  average eigenvalue GAMMA=   1.9979
  1.9979

 Free energy of the ion-electron system (eV)
  ---------------------------------------------------
  alpha Z        PSCENC =        14.61461864
  Ewald energy   TEWEN  =      2603.47533640
  -Hartree energ DENC   =     -3407.88211586
  -exchange      EXHF   =         0.00000000
  -V(xc)+E(xc)   XCENC  =        93.20911218
  PAW double counting   =      1382.14407878    -1384.41231612
  entropy T*S    EENTRO =        -0.00000000
  eigenvalues    EBANDS =      -395.32806078
  atomic energy  EATOM  =      1025.20389953
  Solvation  Ediel_sol  =         0.00000000
  ---------------------------------------------------
  free energy    TOTEN  =       -68.97544724 eV

  energy without entropy =      -68.97544724  energy(sigma->0) =      -68.97544724


--------------------------------------------------------------------------------------------------------




--------------------------------------- Iteration      1(   7)  ---------------------------------------


    POTLOK:  cpu time    0.0508: real time    0.0513
    SETDIJ:  cpu time    0.0018: real time    0.0018
     EDDAV:  cpu time    4.9362: real time    4.9372
       DOS:  cpu time    0.0004: real time    0.0004
    CHARGE:  cpu time    0.1725: real time    0.1725
    MIXING:  cpu time    0.0013: real time    0.0013
    --------------------------------------------
      LOOP:  cpu time    5.1631: real time    5.1646

 eigenvalue-minimisations  :  4896
 total energy-change (2. order) : 0.1643800E+01  (-0.3696223E+00)
 number of electron      30.0000000 magnetization 
 augmentation part        0.5053419 magnetization 

 Broyden mixing:
  rms(total) = 0.22048E+00    rms(broyden)= 0.22037E+00
  rms(prec ) = 0.24312E+00
  weight for this iteration     100.00

 eigenvalues of (default mixing * dielectric matrix)
  average eigenvalue GAMMA=   1.9814
  1.5578  2.4050

 Free energy of the ion-electron system (eV)
  ---------------------------------------------------
  alpha Z        PSCENC =        14.61461864
  Ewald energy   TEWEN  =      2603.47533640
  -Hartree energ DENC   =     -3460.53726208
  -exchange      EXHF   =         0.00000000
  -V(xc)+E(xc)   XCENC  =        95.47291735
  PAW double counting   =      2478.88428989    -2481.58029955
  entropy T*S    EENTRO =        -0.00000000
  eigenvalues    EBANDS =      -342.86514711
  atomic energy  EATOM  =      1025.20389953
  Solvation  Ediel_sol  =         0.00000000
  ---------------------------------------------------
  free energy    TOTEN  =       -67.33164693 eV

  energy without entropy =      -67.33164693  energy(sigma->0) =      -67.33164693


--------------------------------------------------------------------------------------------------------




--------------------------------------- Iteration      1(   8)  ---------------------------------------


    POTLOK:  cpu time    0.0510: real time    0.0511
    SETDIJ:  cpu time    0.0019: real time    0.0019
     EDDAV:  cpu time    4.6797: real time    4.6804
       DOS:  cpu time    0.0004: real time    0.0004
    CHARGE:  cpu time    0.1730: real time    0.1730
    MIXING:  cpu time    0.0014: real time    0.0014
    --------------------------------------------
      LOOP:  cpu time    4.9073: real time    4.9082

 eigenvalue-minimisations  :  4592
 total energy-change (2. order) : 0.7980580E-01  (-0.2229756E-01)
 number of electron      30.0000000 magnetization 
 augmentation part        0.4984683 magnetization 

 Broyden mixing:
  rms(total) = 0.52703E-01    rms(broyden)= 0.52680E-01
  rms(prec ) = 0.77531E-01
  weight for this iteration     100.00

 eigenvalues of (default mixing * dielectric matrix)
  average eigenvalue GAMMA=   1.8093
  1.2129  2.1074  2.1074

 Free energy of the ion-electron system (eV)
  ---------------------------------------------------
  alpha Z        PSCENC =        14.61461864
  Ewald energy   TEWEN  =      2603.47533640
  -Hartree energ DENC   =     -3474.24661184
  -exchange      EXHF   =         0.00000000
  -V(xc)+E(xc)   XCENC  =        95.84068071
  PAW double counting   =      2880.41281684    -2883.03014366
  entropy T*S    EENTRO =        -0.00000002
  eigenvalues    EBANDS =      -329.52243771
  atomic energy  EATOM  =      1025.20389953
  Solvation  Ediel_sol  =         0.00000000
  ---------------------------------------------------
  free energy    TOTEN  =       -67.25184113 eV

  energy without entropy =      -67.25184111  energy(sigma->0) =      -67.25184112


--------------------------------------------------------------------------------------------------------




--------------------------------------- Iteration      1(   9)  ---------------------------------------


    POTLOK:  cpu time    0.0515: real time    0.0517
    SETDIJ:  cpu time    0.0018: real time    0.0018
     EDDAV:  cpu time    4.4960: real time    4.4964
       DOS:  cpu time    0.0005: real time    0.0005
    CHARGE:  cpu time    0.1736: real time    0.1737
    MIXING:  cpu time    0.0014: real time    0.0014
    --------------------------------------------
      LOOP:  cpu time    4.7249: real time    4.7255

 eigenvalue-minimisations  :  4352
 total energy-change (2. order) : 0.1498762E-01  (-0.2242716E-02)
 number of electron      30.0000000 magnetization 
 augmentation part        0.4986592 magnetization 

 Broyden mixing:
  rms(total) = 0.17972E-01    rms(broyden)= 0.17967E-01
  rms(prec ) = 0.43748E-01
  weight for this iteration     100.00

 eigenvalues of (default mixing * dielectric matrix)
  average eigenvalue GAMMA=   1.8476
  2.4882  2.3403  1.1898  1.3721

 Free energy of the ion-electron system (eV)
  ---------------------------------------------------
  alpha Z        PSCENC =        14.61461864
  Ewald energy   TEWEN  =      2603.47533640
  -Hartree energ DENC   =     -3479.70985231
  -exchange      EXHF   =         0.00000000
  -V(xc)+E(xc)   XCENC  =        95.89379832
  PAW double counting   =      2917.62456241    -2920.17885343
  entropy T*S    EENTRO =        -0.00000003
  eigenvalues    EBANDS =      -324.16036304
  atomic energy  EATOM  =      1025.20389953
  Solvation  Ediel_sol  =         0.00000000
  ---------------------------------------------------
  free energy    TOTEN  =       -67.23685351 eV

  energy without entropy =      -67.23685348  energy(sigma->0) =      -67.23685350


--------------------------------------------------------------------------------------------------------




--------------------------------------- Iteration      1(  10)  ---------------------------------------


    POTLOK:  cpu time    0.0550: real time    0.0561
    SETDIJ:  cpu time    0.0019: real time    0.0019
     EDDAV:  cpu time    4.4043: real time    4.4047
       DOS:  cpu time    0.0005: real time    0.0005
    CHARGE:  cpu time    0.1726: real time    0.1726
    MIXING:  cpu time    0.0014: real time    0.0014
    --------------------------------------------
      LOOP:  cpu time    4.6356: real time    4.6371

 eigenvalue-minimisations  :  4240
 total energy-change (2. order) : 0.1104232E-01  (-0.7029148E-03)
 number of electron      30.0000000 magnetization 
 augmentation part        0.4977489 magnetization 

 Broyden mixing:
  rms(total) = 0.15594E-01    rms(broyden)= 0.15591E-01
  rms(prec ) = 0.27570E-01
  weight for this iteration     100.00

 eigenvalues of (default mixing * dielectric matrix)
  average eigenvalue GAMMA=   1.8455
  2.5985  2.5985  1.8081  0.9108  1.3113

 Free energy of the ion-electron system (eV)
  ---------------------------------------------------
  alpha Z        PSCENC =        14.61461864
  Ewald energy   TEWEN  =      2603.47533640
  -Hartree energ DENC   =     -3487.91870403
  -exchange      EXHF   =         0.00000000
  -V(xc)+E(xc)   XCENC  =        96.01276658
  PAW double counting   =      2940.68251424    -2943.20761593
  entropy T*S    EENTRO =        -0.00000007
  eigenvalues    EBANDS =      -316.08862654
  atomic energy  EATOM  =      1025.20389953
  Solvation  Ediel_sol  =         0.00000000
  ---------------------------------------------------
  free energy    TOTEN  =       -67.22581119 eV

  energy without entropy =      -67.22581112  energy(sigma->0) =      -67.22581115


--------------------------------------------------------------------------------------------------------




--------------------------------------- Iteration      1(  11)  ---------------------------------------


    POTLOK:  cpu time    0.0540: real time    0.0559
    SETDIJ:  cpu time    0.0019: real time    0.0019
     EDDAV:  cpu time    4.7583: real time    4.7599
       DOS:  cpu time    0.0005: real time    0.0005
    CHARGE:  cpu time    0.1722: real time    0.1722
    MIXING:  cpu time    0.0015: real time    0.0015
    --------------------------------------------
      LOOP:  cpu time    4.9883: real time    4.9918

 eigenvalue-minimisations  :  4640
 total energy-change (2. order) : 0.6843593E-03  (-0.3183855E-03)
 number of electron      30.0000000 magnetization 
 augmentation part        0.4970565 magnetization 

 Broyden mixing:
  rms(total) = 0.51861E-02    rms(broyden)= 0.51818E-02
  rms(prec ) = 0.13663E-01
  weight for this iteration     100.00

 eigenvalues of (default mixing * dielectric matrix)
  average eigenvalue GAMMA=   2.0833
  4.3144  2.5016  2.0392  0.9501  1.4013  1.2933

 Free energy of the ion-electron system (eV)
  ---------------------------------------------------
  alpha Z        PSCENC =        14.61461864
  Ewald energy   TEWEN  =      2603.47533640
  -Hartree energ DENC   =     -3493.22530722
  -exchange      EXHF   =         0.00000000
  -V(xc)+E(xc)   XCENC  =        96.06481806
  PAW double counting   =      2906.68934855    -2909.22292168
  entropy T*S    EENTRO =        -0.00000010
  eigenvalues    EBANDS =      -310.82491900
  atomic energy  EATOM  =      1025.20389953
  Solvation  Ediel_sol  =         0.00000000
  ---------------------------------------------------
  free energy    TOTEN  =       -67.22512683 eV

  energy without entropy =      -67.22512673  energy(sigma->0) =      -67.22512678


--------------------------------------------------------------------------------------------------------




--------------------------------------- Iteration      1(  12)  ---------------------------------------


    POTLOK:  cpu time    0.0514: real time    0.0516
    SETDIJ:  cpu time    0.0018: real time    0.0018
     EDDAV:  cpu time    3.8314: real time    3.8323
       DOS:  cpu time    0.0005: real time    0.0005
    CHARGE:  cpu time    0.1727: real time    0.1726
    MIXING:  cpu time    0.0015: real time    0.0015
    --------------------------------------------
      LOOP:  cpu time    4.0593: real time    4.0604

 eigenvalue-minimisations  :  3552
 total energy-change (2. order) : 0.2015878E-02  (-0.1492695E-03)
 number of electron      30.0000000 magnetization 
 augmentation part        0.4968549 magnetization 

 Broyden mixing:
  rms(total) = 0.39261E-02    rms(broyden)= 0.39248E-02
  rms(prec ) = 0.85924E-02
  weight for this iteration     100.00

 eigenvalues of (default mixing * dielectric matrix)
  average eigenvalue GAMMA=   2.2626
  5.4633  2.7009  2.3613  1.9414  1.0123  1.0565  1.3028

 Free energy of the ion-electron system (eV)
  ---------------------------------------------------
  alpha Z        PSCENC =        14.61461864
  Ewald energy   TEWEN  =      2603.47533640
  -Hartree energ DENC   =     -3496.60339687
  -exchange      EXHF   =         0.00000000
  -V(xc)+E(xc)   XCENC  =        96.09140071
  PAW double counting   =      2901.70442903    -2904.23734789
  entropy T*S    EENTRO =        -0.00000012
  eigenvalues    EBANDS =      -307.47205037
  atomic energy  EATOM  =      1025.20389953
  Solvation  Ediel_sol  =         0.00000000
  ---------------------------------------------------
  free energy    TOTEN  =       -67.22311095 eV

  energy without entropy =      -67.22311083  energy(sigma->0) =      -67.22311089


--------------------------------------------------------------------------------------------------------




--------------------------------------- Iteration      1(  13)  ---------------------------------------


    POTLOK:  cpu time    0.0494: real time    0.0495
    SETDIJ:  cpu time    0.0018: real time    0.0018
     EDDAV:  cpu time    4.3467: real time    4.3474
       DOS:  cpu time    0.0005: real time    0.0005
    CHARGE:  cpu time    0.1726: real time    0.1729
    MIXING:  cpu time    0.0016: real time    0.0016
    --------------------------------------------
      LOOP:  cpu time    4.5726: real time    4.5737

 eigenvalue-minimisations  :  4192
 total energy-change (2. order) :-0.2725503E-02  (-0.2814208E-04)
 number of electron      29.9999999 magnetization 
 augmentation part        0.4967626 magnetization 

 Broyden mixing:
  rms(total) = 0.23402E-02    rms(broyden)= 0.23398E-02
  rms(prec ) = 0.46241E-02
  weight for this iteration     100.00

 eigenvalues of (default mixing * dielectric matrix)
  average eigenvalue GAMMA=   2.4083
  5.9722  3.6529  2.4984  2.1339  1.6660  1.3408  1.0009  1.0009

 Free energy of the ion-electron system (eV)
  ---------------------------------------------------
  alpha Z        PSCENC =        14.61461864
  Ewald energy   TEWEN  =      2603.47533640
  -Hartree energ DENC   =     -3498.12417677
  -exchange      EXHF   =         0.00000000
  -V(xc)+E(xc)   XCENC  =        96.08652258
  PAW double counting   =      2903.96800781    -2906.50212173
  entropy T*S    EENTRO =        -0.00000013
  eigenvalues    EBANDS =      -305.94792279
  atomic energy  EATOM  =      1025.20389953
  Solvation  Ediel_sol  =         0.00000000
  ---------------------------------------------------
  free energy    TOTEN  =       -67.22583646 eV

  energy without entropy =      -67.22583633  energy(sigma->0) =      -67.22583639


--------------------------------------------------------------------------------------------------------




--------------------------------------- Iteration      1(  14)  ---------------------------------------


    POTLOK:  cpu time    0.0487: real time    0.0503
    SETDIJ:  cpu time    0.0018: real time    0.0018
     EDDAV:  cpu time    4.4442: real time    4.4445
       DOS:  cpu time    0.0005: real time    0.0005
    CHARGE:  cpu time    0.1726: real time    0.1726
    MIXING:  cpu time    0.0016: real time    0.0016
    --------------------------------------------
      LOOP:  cpu time    4.6694: real time    4.6713

 eigenvalue-minimisations  :  4304
 total energy-change (2. order) :-0.2886542E-02  (-0.5980427E-04)
 number of electron      30.0000000 magnetization 
 augmentation part        0.4968078 magnetization 

 Broyden mixing:
  rms(total) = 0.19636E-02    rms(broyden)= 0.19636E-02
  rms(prec ) = 0.26247E-02
  weight for this iteration     100.00

 eigenvalues of (default mixing * dielectric matrix)
  average eigenvalue GAMMA=   2.4311
  6.7332  3.7920  2.4287  2.4287  1.9480  0.9649  1.0391  1.2726  1.2726

 Free energy of the ion-electron system (eV)
  ---------------------------------------------------
  alpha Z        PSCENC =        14.61461864
  Ewald energy   TEWEN  =      2603.47533640
  -Hartree energ DENC   =     -3498.21342087
  -exchange      EXHF   =         0.00000000
  -V(xc)+E(xc)   XCENC  =        96.07191956
  PAW double counting   =      2910.42675842    -2912.95884049
  entropy T*S    EENTRO =        -0.00000011
  eigenvalues    EBANDS =      -305.84899407
  atomic energy  EATOM  =      1025.20389953
  Solvation  Ediel_sol  =         0.00000000
  ---------------------------------------------------
  free energy    TOTEN  =       -67.22872300 eV

  energy without entropy =      -67.22872288  energy(sigma->0) =      -67.22872294


--------------------------------------------------------------------------------------------------------




--------------------------------------- Iteration      1(  15)  ---------------------------------------


    POTLOK:  cpu time    0.0483: real time    0.0485
    SETDIJ:  cpu time    0.0018: real time    0.0018
     EDDAV:  cpu time    4.5962: real time    4.5969
       DOS:  cpu time    0.0005: real time    0.0005
    CHARGE:  cpu time    0.1725: real time    0.1725
    MIXING:  cpu time    0.0018: real time    0.0018
    --------------------------------------------
      LOOP:  cpu time    4.8211: real time    4.8219

 eigenvalue-minimisations  :  4464
 total energy-change (2. order) :-0.2401676E-03  (-0.3245912E-05)
 number of electron      30.0000000 magnetization 
 augmentation part        0.4967414 magnetization 

 Broyden mixing:
  rms(total) = 0.77091E-03    rms(broyden)= 0.77080E-03
  rms(prec ) = 0.12305E-02
  weight for this iteration     100.00

 eigenvalues of (default mixing * dielectric matrix)
  average eigenvalue GAMMA=   2.7173
  8.0562  5.2475  2.8283  2.5202  2.2757  1.8835  1.2782  0.9671  1.0134  1.1025

 Free energy of the ion-electron system (eV)
  ---------------------------------------------------
  alpha Z        PSCENC =        14.61461864
  Ewald energy   TEWEN  =      2603.47533640
  -Hartree energ DENC   =     -3498.82421753
  -exchange      EXHF   =         0.00000000
  -V(xc)+E(xc)   XCENC  =        96.08033420
  PAW double counting   =      2907.52082607    -2910.05300838
  entropy T*S    EENTRO =        -0.00000012
  eigenvalues    EBANDS =      -305.24675198
  atomic energy  EATOM  =      1025.20389953
  Solvation  Ediel_sol  =         0.00000000
  ---------------------------------------------------
  free energy    TOTEN  =       -67.22896317 eV

  energy without entropy =      -67.22896304  energy(sigma->0) =      -67.22896311


--------------------------------------------------------------------------------------------------------




--------------------------------------- Iteration      1(  16)  ---------------------------------------


    POTLOK:  cpu time    0.0493: real time    0.0494
    SETDIJ:  cpu time    0.0019: real time    0.0019
     EDDAV:  cpu time    4.3308: real time    4.3312
       DOS:  cpu time    0.0005: real time    0.0005
    CHARGE:  cpu time    0.1723: real time    0.1723
    MIXING:  cpu time    0.0018: real time    0.0018
    --------------------------------------------
      LOOP:  cpu time    4.5565: real time    4.5570

 eigenvalue-minimisations  :  4160
 total energy-change (2. order) :-0.5680531E-03  (-0.5543479E-05)
 number of electron      29.9999999 magnetization 
 augmentation part        0.4967305 magnetization 

 Broyden mixing:
  rms(total) = 0.25154E-03    rms(broyden)= 0.25147E-03
  rms(prec ) = 0.34048E-03
  weight for this iteration     100.00

 eigenvalues of (default mixing * dielectric matrix)
  average eigenvalue GAMMA=   2.6688
  8.7962  5.3117  3.1539  2.4585  2.0648  1.9921  1.2843  0.9591  0.9895  1.2107
  1.1364

 Free energy of the ion-electron system (eV)
  ---------------------------------------------------
  alpha Z        PSCENC =        14.61461864
  Ewald energy   TEWEN  =      2603.47533640
  -Hartree energ DENC   =     -3498.83427090
  -exchange      EXHF   =         0.00000000
  -V(xc)+E(xc)   XCENC  =        96.07919605
  PAW double counting   =      2906.34242799    -2908.87516273
  entropy T*S    EENTRO =        -0.00000012
  eigenvalues    EBANDS =      -305.23557607
  atomic energy  EATOM  =      1025.20389953
  Solvation  Ediel_sol  =         0.00000000
  ---------------------------------------------------
  free energy    TOTEN  =       -67.22953122 eV

  energy without entropy =      -67.22953110  energy(sigma->0) =      -67.22953116


--------------------------------------------------------------------------------------------------------




--------------------------------------- Iteration      1(  17)  ---------------------------------------


    POTLOK:  cpu time    0.0489: real time    0.0491
    SETDIJ:  cpu time    0.0018: real time    0.0018
     EDDAV:  cpu time    4.4172: real time    4.4176
       DOS:  cpu time    0.0005: real time    0.0005
    CHARGE:  cpu time    0.1724: real time    0.1726
    MIXING:  cpu time    0.0018: real time    0.0018
    --------------------------------------------
      LOOP:  cpu time    4.6426: real time    4.6434

 eigenvalue-minimisations  :  4272
 total energy-change (2. order) :-0.4660437E-04  (-0.1201663E-06)
 number of electron      29.9999999 magnetization 
 augmentation part        0.4967335 magnetization 

 Broyden mixing:
  rms(total) = 0.13156E-03    rms(broyden)= 0.13155E-03
  rms(prec ) = 0.17122E-03
  weight for this iteration     100.00

 eigenvalues of (default mixing * dielectric matrix)
  average eigenvalue GAMMA=   2.7881
  9.3514  5.8505  3.6412  2.7618  2.4381  2.1077  1.9172  1.2774  1.1231  1.0218
  1.0136  0.9528

 Free energy of the ion-electron system (eV)
  ---------------------------------------------------
  alpha Z        PSCENC =        14.61461864
  Ewald energy   TEWEN  =      2603.47533640
  -Hartree energ DENC   =     -3498.85279132
  -exchange      EXHF   =         0.00000000
  -V(xc)+E(xc)   XCENC  =        96.07918462
  PAW double counting   =      2906.41237892    -2908.94478342
  entropy T*S    EENTRO =        -0.00000012
  eigenvalues    EBANDS =      -305.21742106
  atomic energy  EATOM  =      1025.20389953
  Solvation  Ediel_sol  =         0.00000000
  ---------------------------------------------------
  free energy    TOTEN  =       -67.22957782 eV

  energy without entropy =      -67.22957770  energy(sigma->0) =      -67.22957776


--------------------------------------------------------------------------------------------------------




--------------------------------------- Iteration      1(  18)  ---------------------------------------


    POTLOK:  cpu time    0.0495: real time    0.0497
    SETDIJ:  cpu time    0.0018: real time    0.0018
     EDDAV:  cpu time    3.9050: real time    3.9053
       DOS:  cpu time    0.0005: real time    0.0005
    CHARGE:  cpu time    0.1734: real time    0.1738
    MIXING:  cpu time    0.0020: real time    0.0020
    --------------------------------------------
      LOOP:  cpu time    4.1322: real time    4.1330

 eigenvalue-minimisations  :  3632
 total energy-change (2. order) :-0.3368920E-04  (-0.1129068E-06)
 number of electron      29.9999999 magnetization 
 augmentation part        0.4967302 magnetization 

 Broyden mixing:
  rms(total) = 0.30269E-04    rms(broyden)= 0.30260E-04
  rms(prec ) = 0.36051E-04
  weight for this iteration     100.00

 eigenvalues of (default mixing * dielectric matrix)
  average eigenvalue GAMMA=   2.7146
  9.5326  5.9170  3.7307  2.7822  2.4293  2.1304  1.9286  1.4407  1.2565  1.1568
  0.9636  1.0106  1.0106

 Free energy of the ion-electron system (eV)
  ---------------------------------------------------
  alpha Z        PSCENC =        14.61461864
  Ewald energy   TEWEN  =      2603.47533640
  -Hartree energ DENC   =     -3498.86524931
  -exchange      EXHF   =         0.00000000
  -V(xc)+E(xc)   XCENC  =        96.07921189
  PAW double counting   =      2906.43269354    -2908.96520400
  entropy T*S    EENTRO =        -0.00000012
  eigenvalues    EBANDS =      -305.20491808
  atomic energy  EATOM  =      1025.20389953
  Solvation  Ediel_sol  =         0.00000000
  ---------------------------------------------------
  free energy    TOTEN  =       -67.22961151 eV

  energy without entropy =      -67.22961139  energy(sigma->0) =      -67.22961145


--------------------------------------------------------------------------------------------------------




--------------------------------------- Iteration      1(  19)  ---------------------------------------


    POTLOK:  cpu time    0.0501: real time    0.0502
    SETDIJ:  cpu time    0.0018: real time    0.0018
     EDDAV:  cpu time    3.5506: real time    3.5511
       DOS:  cpu time    0.0005: real time    0.0005
    CHARGE:  cpu time    0.1725: real time    0.1725
    MIXING:  cpu time    0.0019: real time    0.0019
    --------------------------------------------
      LOOP:  cpu time    3.7774: real time    3.7780

 eigenvalue-minimisations  :  3120
 total energy-change (2. order) :-0.1958315E-05  (-0.2865879E-08)
 number of electron      29.9999999 magnetization 
 augmentation part        0.4967305 magnetization 

 Broyden mixing:
  rms(total) = 0.14058E-04    rms(broyden)= 0.14057E-04
  rms(prec ) = 0.16497E-04
  weight for this iteration     100.00

 eigenvalues of (default mixing * dielectric matrix)
  average eigenvalue GAMMA=   2.7009
  9.5451  5.9326  3.8885  2.7697  2.7697  2.4164  2.0683  1.9296  1.2781  0.9634
  0.9867  1.0325  1.0728  1.1593

 Free energy of the ion-electron system (eV)
  ---------------------------------------------------
  alpha Z        PSCENC =        14.61461864
  Ewald energy   TEWEN  =      2603.47533640
  -Hartree energ DENC   =     -3498.85883770
  -exchange      EXHF   =         0.00000000
  -V(xc)+E(xc)   XCENC  =        96.07910294
  PAW double counting   =      2906.45050624    -2908.98301731
  entropy T*S    EENTRO =        -0.00000012
  eigenvalues    EBANDS =      -305.21122208
  atomic energy  EATOM  =      1025.20389953
  Solvation  Ediel_sol  =         0.00000000
  ---------------------------------------------------
  free energy    TOTEN  =       -67.22961347 eV

  energy without entropy =      -67.22961335  energy(sigma->0) =      -67.22961341


--------------------------------------------------------------------------------------------------------




--------------------------------------- Iteration      1(  20)  ---------------------------------------


    POTLOK:  cpu time    0.0511: real time    0.0513
    SETDIJ:  cpu time    0.0018: real time    0.0018
     EDDAV:  cpu time    3.4356: real time    3.4391
       DOS:  cpu time    0.0005: real time    0.0005
    CHARGE:  cpu time    0.1721: real time    0.1721
    MIXING:  cpu time    0.0020: real time    0.0020
    --------------------------------------------
      LOOP:  cpu time    3.6632: real time    3.6669

 eigenvalue-minimisations  :  2976
 total energy-change (2. order) :-0.1230615E-05  (-0.2868540E-08)
 number of electron      29.9999999 magnetization 
 augmentation part        0.4967308 magnetization 

 Broyden mixing:
  rms(total) = 0.45145E-05    rms(broyden)= 0.45143E-05
  rms(prec ) = 0.49750E-05
  weight for this iteration     100.00

 eigenvalues of (default mixing * dielectric matrix)
  average eigenvalue GAMMA=   2.6112
  9.5304  5.9518  3.8606  3.0102  2.6243  2.3946  2.1152  1.9048  1.3637  1.2562
  0.9594  0.9927  1.0312  1.0312  1.1418

 Free energy of the ion-electron system (eV)
  ---------------------------------------------------
  alpha Z        PSCENC =        14.61461864
  Ewald energy   TEWEN  =      2603.47533640
  -Hartree energ DENC   =     -3498.86051484
  -exchange      EXHF   =         0.00000000
  -V(xc)+E(xc)   XCENC  =        96.07911452
  PAW double counting   =      2906.47160502    -2909.00410380
  entropy T*S    EENTRO =        -0.00000012
  eigenvalues    EBANDS =      -305.20957005
  atomic energy  EATOM  =      1025.20389953
  Solvation  Ediel_sol  =         0.00000000
  ---------------------------------------------------
  free energy    TOTEN  =       -67.22961470 eV

  energy without entropy =      -67.22961458  energy(sigma->0) =      -67.22961464


--------------------------------------------------------------------------------------------------------




--------------------------------------- Iteration      1(  21)  ---------------------------------------


    POTLOK:  cpu time    0.0522: real time    0.0534
    SETDIJ:  cpu time    0.0018: real time    0.0018
     EDDAV:  cpu time    3.7253: real time    3.7261
       DOS:  cpu time    0.0005: real time    0.0005
    --------------------------------------------
      LOOP:  cpu time    3.7798: real time    3.7817

 eigenvalue-minimisations  :  3328
 total energy-change (2. order) :-0.8400048E-07  (-0.2845665E-09)
 number of electron      29.9999999 magnetization 
 augmentation part        0.4967308 magnetization 

 Free energy of the ion-electron system (eV)
  ---------------------------------------------------
  alpha Z        PSCENC =        14.61461864
  Ewald energy   TEWEN  =      2603.47533640
  -Hartree energ DENC   =     -3498.86036095
  -exchange      EXHF   =         0.00000000
  -V(xc)+E(xc)   XCENC  =        96.07911790
  PAW double counting   =      2906.47011524    -2909.00261834
  entropy T*S    EENTRO =        -0.00000012
  eigenvalues    EBANDS =      -305.20972309
  atomic energy  EATOM  =      1025.20389953
  Solvation  Ediel_sol  =         0.00000000
  ---------------------------------------------------
  free energy    TOTEN  =       -67.22961479 eV

  energy without entropy =      -67.22961466  energy(sigma->0) =      -67.22961473


--------------------------------------------------------------------------------------------------------




 average (electrostatic) potential at core
  the test charge radii are     0.7672  0.6991
  (the norm of the test charge is              1.0000)
       1 -34.5614       2 -34.5614       3 -57.0713       4 -57.0713       5 -57.0714
       6 -57.0713       7 -57.0713       8 -57.0713
 
 
 
 E-fermi :  -3.4781     XC(G=0):  -2.7932     alpha+bet : -2.3721


 k-point     1 :       0.0000    0.0000    0.0000
  band No.  band energies     occupation 
      1     -19.8848      2.00000
      2     -15.9832      2.00000
      3     -15.9830      2.00000
      4     -13.6418      2.00000
      5     -13.6417      2.00000
      6     -12.5733      2.00000
      7     -11.2501      2.00000
      8      -8.6887      2.00000
      9      -8.4566      2.00000
     10      -6.3045      2.00000
     11      -6.3041      2.00000
     12      -4.4807      2.00000
     13      -4.4806      2.00000
     14      -3.7921      1.99999
     15      -3.7916      1.99999
     16      -1.9639      0.00000
     17      -0.2278      0.00000
     18      -0.2277      0.00000
     19       0.4317      0.00000
     20       0.8399      0.00000
     21       1.8435      0.00000
     22       2.2431      0.00000
     23       4.2305      0.00000
     24       4.8417      0.00000
     25       5.0087      0.00000
     26       5.0093      0.00000
     27       6.2958      0.00000
     28       6.7700      0.00000
     29       6.7707      0.00000
     30       7.8738      0.00000
     31       8.0494      0.00000
     32       8.1312      0.00000

 k-point     2 :       0.1000    0.0000    0.0000
  band No.  band energies     occupation 
      1     -19.8457      2.00000
      2     -16.1703      2.00000
      3     -16.0433      2.00000
      4     -13.6984      2.00000
      5     -13.5007      2.00000
      6     -12.3793      2.00000
      7     -11.0222      2.00000
      8      -8.6292      2.00000
      9      -8.5402      2.00000
     10      -6.4808      2.00000
     11      -6.3347      2.00000
     12      -4.6591      2.00000
     13      -4.5102      2.00000
     14      -3.9968      2.00000
     15      -3.8904      2.00000
     16      -2.2386      0.00000
     17      -0.1426      0.00000
     18       0.1878      0.00000
     19       0.6165      0.00000
     20       0.9145      0.00000
     21       1.9249      0.00000
     22       2.3182      0.00000
     23       4.3043      0.00000
     24       4.9185      0.00000
     25       5.1111      0.00000
     26       5.2432      0.00000
     27       6.3307      0.00000
     28       6.7275      0.00000
     29       6.9472      0.00000
     30       6.9942      0.00000
     31       7.5040      0.00000
     32       7.5454      0.00000

 k-point     3 :       0.2000    0.0000    0.0000
  band No.  band energies     occupation 
      1     -19.7333      2.00000
      2     -16.6001      2.00000
      3     -16.1805      2.00000
      4     -13.8553      2.00000
      5     -13.1280      2.00000
      6     -11.8515      2.00000
      7     -10.4326      2.00000
      8      -8.8081      2.00000
      9      -8.4534      2.00000
     10      -6.9617      2.00000
     11      -6.3669      2.00000
     12      -5.1303      2.00000
     13      -4.5836      2.00000
     14      -4.5685      2.00000
     15      -4.1568      2.00000
     16      -2.6434      0.00000
     17       0.0831      0.00000
     18       0.6942      0.00000
     19       1.1373      0.00000
     20       1.3938      0.00000
     21       2.1837      0.00000
     22       2.5427      0.00000
     23       4.5247      0.00000
     24       5.1215      0.00000
     25       5.3293      0.00000
     26       5.4959      0.00000
     27       5.8995      0.00000
     28       6.3893      0.00000
     29       6.6909      0.00000
     30       6.8408      0.00000
     31       6.9710      0.00000
     32       7.0350      0.00000

 k-point     4 :       0.3000    0.0000    0.0000
  band No.  band energies     occupation 
      1     -19.5662      2.00000
      2     -17.0766      2.00000
      3     -16.3220      2.00000
      4     -14.0260      2.00000
      5     -12.6232      2.00000
      6     -11.1417      2.00000
      7      -9.6297      2.00000
      8      -9.2513      2.00000
      9      -8.1718      2.00000
     10      -7.6283      2.00000
     11      -6.3128      2.00000
     12      -5.7410      2.00000
     13      -5.4058      2.00000
     14      -4.6681      2.00000
     15      -4.5144      2.00000
     16      -2.9345      0.00000
     17       0.3719      0.00000
     18       1.1013      0.00000
     19       1.5066      0.00000
     20       2.3048      0.00000
     21       2.8067      0.00000
     22       2.9158      0.00000
     23       4.4191      0.00000
     24       4.8814      0.00000
     25       5.3288      0.00000
     26       5.3771      0.00000
     27       5.6185      0.00000
     28       5.8797      0.00000
     29       6.5431      0.00000
     30       6.5994      0.00000
     31       6.8663      0.00000
     32       6.9598      0.00000

 k-point     5 :       0.4000    0.0000    0.0000
  band No.  band energies     occupation 
      1     -19.3925      2.00000
      2     -17.4603      2.00000
      3     -16.4211      2.00000
      4     -14.1450      2.00000
      5     -12.1123      2.00000
      6     -10.3665      2.00000
      7      -9.7490      2.00000
      8      -8.9136      2.00000
      9      -8.1606      2.00000
     10      -7.8219      2.00000
[...]
     20       2.9042      0.00000
     21       3.4368      0.00000
     22       3.4804      0.00000
     23       3.8958      0.00000
     24       4.4281      0.00000
     25       4.9205      0.00000
     26       5.4140      0.00000
     27       5.5237      0.00000
     28       6.0455      0.00000
     29       6.3195      0.00000
     30       6.3702      0.00000
     31       6.4768      0.00000
     32       6.8014      0.00000

 k-point    44 :      -0.3000    0.4000    0.0000
  band No.  band energies     occupation 
      1     -19.4539      2.00000
      2     -17.2755      2.00000
      3     -16.5135      2.00000
      4     -13.9017      2.00000
      5     -12.5173      2.00000
      6     -10.5679      2.00000
      7      -9.6427      2.00000
      8      -9.1279      2.00000
      9      -7.9607      2.00000
     10      -7.8332      2.00000
     11      -6.4230      2.00000
     12      -6.0227      2.00000
     13      -5.8841      2.00000
     14      -4.9510      2.00000
     15      -4.8335      2.00000
     16      -2.7904      0.00000
     17       0.0744      0.00000
     18       1.8014      0.00000
     19       1.8161      0.00000
     20       2.6801      0.00000
     21       3.2140      0.00000
     22       3.3280      0.00000
     23       3.9886      0.00000
     24       4.8628      0.00000
     25       5.2062      0.00000
     26       5.3772      0.00000
     27       5.4401      0.00000
     28       5.7431      0.00000
     29       5.9400      0.00000
     30       6.2222      0.00000
     31       6.8788      0.00000
     32       6.9290      0.00000

 k-point    45 :      -0.2000    0.4000    0.0000
  band No.  band energies     occupation 
      1     -19.4770      2.00000
      2     -17.1384      2.00000
      3     -16.6454      2.00000
      4     -13.5743      2.00000
      5     -12.9131      2.00000
      6     -10.5756      2.00000
      7      -9.6247      2.00000
      8      -9.2774      2.00000
      9      -8.0100      2.00000
     10      -7.4597      2.00000
     11      -6.6911      2.00000
     12      -5.7865      2.00000
     13      -5.6349      2.00000
     14      -5.2109      2.00000
     15      -4.9091      2.00000
     16      -2.5105      0.00000
     17      -0.3041      0.00000
     18       1.7285      0.00000
     19       2.2343      0.00000
     20       2.5970      0.00000
     21       2.9137      0.00000
     22       3.1400      0.00000
     23       4.6229      0.00000
     24       4.6530      0.00000
     25       5.0911      0.00000
     26       5.4574      0.00000
     27       5.5727      0.00000
     28       5.7486      0.00000
     29       6.0976      0.00000
     30       6.0995      0.00000
     31       6.3340      0.00000
     32       6.4381      0.00000

 k-point    46 :      -0.1000    0.4000    0.0000
  band No.  band energies     occupation 
      1     -19.4539      2.00000
      2     -17.2756      2.00000
      3     -16.5134      2.00000
      4     -13.9015      2.00000
      5     -12.5174      2.00000
      6     -10.5679      2.00000
      7      -9.6429      2.00000
      8      -9.1277      2.00000
      9      -7.9607      2.00000
     10      -7.8336      2.00000
     11      -6.4225      2.00000
     12      -6.0228      2.00000
     13      -5.8844      2.00000
     14      -4.9510      2.00000
     15      -4.8333      2.00000
     16      -2.7904      0.00000
     17       0.0744      0.00000
     18       1.8014      0.00000
     19       1.8163      0.00000
     20       2.6802      0.00000
     21       3.2140      0.00000
     22       3.3278      0.00000
     23       3.9886      0.00000
     24       4.8628      0.00000
     25       5.2062      0.00000
     26       5.3772      0.00000
     27       5.4401      0.00000
     28       5.7433      0.00000
     29       5.9404      0.00000
     30       6.2222      0.00000
     31       6.8787      0.00000
     32       6.9290      0.00000

 k-point    47 :      -0.0000    0.5000    0.0000
  band No.  band energies     occupation 
      1     -19.3102      2.00000
      2     -17.6158      2.00000
      3     -16.4561      2.00000
      4     -14.1868      2.00000
      5     -11.8551      2.00000
      6     -10.0073      2.00000
      7      -9.7933      2.00000
      8      -9.1896      2.00000
      9      -7.5965      2.00000
     10      -7.5606      2.00000
     11      -7.3070      2.00000
     12      -6.6416      2.00000
     13      -6.0927      2.00000
     14      -5.0119      2.00000
     15      -4.7559      2.00000
     16      -3.1577      0.00001
     17       0.7139      0.00000
     18       1.5727      0.00000
     19       2.6777      0.00000
     20       2.6814      0.00000
     21       3.5194      0.00000
     22       3.5775      0.00000
     23       4.1035      0.00000
     24       4.1074      0.00000
     25       5.0843      0.00000
     26       5.3154      0.00000
     27       5.5634      0.00000
     28       5.9720      0.00000
     29       6.2515      0.00000
     30       6.3012      0.00000
     31       6.4223      0.00000
     32       6.4445      0.00000

 k-point    48 :       0.1000    0.5000    0.0000
  band No.  band energies     occupation 
      1     -19.3156      2.00000
      2     -17.5465      2.00000
      3     -16.5938      2.00000
      4     -13.9699      2.00000
      5     -12.0831      2.00000
      6     -10.1841      2.00000
      7      -9.7557      2.00000
      8      -8.8198      2.00000
      9      -7.8742      2.00000
     10      -7.6317      2.00000
     11      -6.9237      2.00000
     12      -6.5087      2.00000
     13      -6.2307      2.00000
     14      -5.1227      2.00000
     15      -5.0314      2.00000
     16      -2.8351      0.00000
     17       0.1883      0.00000
     18       2.0972      0.00000
     19       2.3881      0.00000
     20       3.1181      0.00000
     21       3.2746      0.00000
     22       3.8091      0.00000
     23       3.9518      0.00000
     24       4.5513      0.00000
     25       4.5759      0.00000
     26       5.2556      0.00000
     27       5.6212      0.00000
     28       5.8223      0.00000
     29       5.8992      0.00000
     30       6.2026      0.00000
     31       6.3872      0.00000
     32       6.5774      0.00000

 k-point    49 :       0.2000    0.5000    0.0000
  band No.  band energies     occupation 
      1     -19.3240      2.00000
      2     -17.3851      2.00000
      3     -16.8493      2.00000
      4     -13.4982      2.00000
      5     -12.5823      2.00000
      6     -10.3488      2.00000
      7      -9.6274      2.00000
      8      -8.5786      2.00000
      9      -7.8095      2.00000
     10      -7.6799      2.00000
     11      -6.8442      2.00000
     12      -6.2576      2.00000
     13      -6.2103      2.00000
     14      -5.4877      2.00000
     15      -5.3680      2.00000
     16      -2.3040      0.00000
     17      -0.4587      0.00000
     18       2.2430      0.00000
     19       2.7582      0.00000
     20       3.2365      0.00000
     21       3.6610      0.00000
     22       3.7020      0.00000
     23       3.8005      0.00000
     24       4.4252      0.00000
     25       4.5831      0.00000
     26       5.1461      0.00000
     27       5.2366      0.00000
     28       5.6514      0.00000
     29       5.8829      0.00000
     30       6.1412      0.00000
     31       6.2526      0.00000
     32       6.5122      0.00000

 k-point    50 :       0.3000    0.5000    0.0000
  band No.  band energies     occupation 
      1     -19.3240      2.00000
      2     -17.3850      2.00000
      3     -16.8494      2.00000
      4     -13.4983      2.00000
      5     -12.5822      2.00000
      6     -10.3488      2.00000
      7      -9.6273      2.00000
      8      -8.5789      2.00000
      9      -7.8089      2.00000
     10      -7.6799      2.00000
     11      -6.8447      2.00000
     12      -6.2574      2.00000
     13      -6.2102      2.00000
     14      -5.4877      2.00000
     15      -5.3681      2.00000
     16      -2.3040      0.00000
     17      -0.4588      0.00000
     18       2.2430      0.00000
     19       2.7582      0.00000
     20       3.2363      0.00000
     21       3.6610      0.00000
     22       3.7020      0.00000
     23       3.8007      0.00000
     24       4.4252      0.00000
     25       4.5831      0.00000
     26       5.1461      0.00000
     27       5.2365      0.00000
     28       5.6514      0.00000
     29       5.8829      0.00000
     30       6.1413      0.00000
     31       6.2526      0.00000
     32       6.5117      0.00000

 k-point    51 :       0.4000    0.5000    0.0000
  band No.  band energies     occupation 
      1     -19.3156      2.00000
      2     -17.5463      2.00000
      3     -16.5939      2.00000
      4     -13.9701      2.00000
      5     -12.0831      2.00000
      6     -10.1841      2.00000
      7      -9.7556      2.00000
      8      -8.8199      2.00000
      9      -7.8737      2.00000
     10      -7.6318      2.00000
     11      -6.9237      2.00000
     12      -6.5086      2.00000
     13      -6.2309      2.00000
     14      -5.1229      2.00000
     15      -5.0315      2.00000
     16      -2.8351      0.00000
     17       0.1883      0.00000
     18       2.0971      0.00000
     19       2.3881      0.00000
     20       3.1181      0.00000
     21       3.2745      0.00000
     22       3.8091      0.00000
     23       3.9518      0.00000
     24       4.5513      0.00000
     25       4.5760      0.00000
     26       5.2556      0.00000
     27       5.6212      0.00000
     28       5.8224      0.00000
     29       5.8988      0.00000
     30       6.2026      0.00000
     31       6.3873      0.00000
     32       6.5775      0.00000

 k-point    52 :       0.5000    0.5000    0.0000
  band No.  band energies     occupation 
      1     -19.3102      2.00000
      2     -17.6156      2.00000
      3     -16.4562      2.00000
      4     -14.1869      2.00000
      5     -11.8552      2.00000
      6     -10.0072      2.00000
      7      -9.7933      2.00000
      8      -9.1894      2.00000
      9      -7.5966      2.00000
     10      -7.5605      2.00000
     11      -7.3067      2.00000
     12      -6.6414      2.00000
     13      -6.0931      2.00000
     14      -5.0121      2.00000
     15      -4.7560      2.00000
     16      -3.1576      0.00001
     17       0.7139      0.00000
     18       1.5725      0.00000
     19       2.6777      0.00000
     20       2.6814      0.00000
     21       3.5194      0.00000
     22       3.5774      0.00000
     23       4.1035      0.00000
     24       4.1074      0.00000
     25       5.0845      0.00000
     26       5.3152      0.00000
     27       5.5631      0.00000
     28       5.9720      0.00000
     29       6.2516      0.00000
     30       6.3012      0.00000
     31       6.4222      0.00000
     32       6.4445      0.00000


--------------------------------------------------------------------------------------------------------


 soft charge-density along one line, spin component           1
         0         1         2         3         4         5         6         7         8         9
 total charge-density along one line
 
 pseudopotential strength for first ion, spin component:           1
  6.732  10.272  -0.000   0.000  -0.000  -0.000   0.000  -0.000
 10.272  15.670  -0.000   0.000  -0.000  -0.000   0.000  -0.000
 -0.000  -0.000  -2.315  -0.000   0.000  -3.974  -0.000   0.000
  0.000   0.000  -0.000  -2.321  -0.000  -0.000  -3.981  -0.000
 -0.000  -0.000   0.000  -0.000  -2.315   0.000  -0.000  -3.974
 -0.000  -0.000  -3.974  -0.000   0.000  -6.623  -0.000   0.000
  0.000   0.000  -0.000  -3.981  -0.000  -0.000  -6.632  -0.000
 -0.000  -0.000   0.000  -0.000  -3.974   0.000  -0.000  -6.623
 total augmentation occupancy for first ion, spin component:           1
  3.719  -0.953  -0.000   0.000   0.000   0.000   0.000  -0.000
 -0.953   0.264   0.000   0.000  -0.000  -0.000   0.000   0.000
 -0.000   0.000   4.142   0.000  -0.000  -1.105   0.000   0.000
  0.000   0.000   0.000   0.892   0.000   0.000  -0.223   0.000
  0.000  -0.000  -0.000   0.000   4.142   0.000   0.000  -1.105
  0.000  -0.000  -1.105   0.000   0.000   0.306   0.000  -0.000
  0.000   0.000   0.000  -0.223   0.000   0.000   0.056   0.000
 -0.000   0.000   0.000   0.000  -1.105  -0.000   0.000   0.306


------------------------ aborting loop because EDIFF is reached ----------------------------------------


    CHARGE:  cpu time    0.1723: real time    0.1723
    FORLOC:  cpu time    0.0048: real time    0.0048
    FORNL :  cpu time    0.5184: real time    0.5185
    STRESS:  cpu time    3.0522: real time    3.0526
    FORCOR:  cpu time    0.0549: real time    0.0549
    FORHAR:  cpu time    0.0134: real time    0.0134
    MIXING:  cpu time    0.0022: real time    0.0022
    OFIELD:  cpu time    0.0000: real time    0.0000

 ---------------------------------------------------------------------------------------------

         DFTD3 V3.0 Rev 1        
 IVDW         = 12
 DF pbe       
 parameters
 VDW_S6       =    1.0000
 VDW_S8       =    0.7875
 VDW_A1       =    0.4289
 VDW_A2       =    4.4407
 k1-k3        =   16.0000    1.3333   -4.0000
 VDW_RADIUS   =   50.2022 A
 VDW_CNRADIUS =   21.1671 A
 Edisp (eV)   -0.67804

 E6    (eV) :    -0.4579
 E8    (eV) :    -0.2201
 % E8        : 32.46
    FORVDW:  cpu time    0.0287: real time    0.0301

  FORCE on cell =-STRESS in cart. coord.  units (eV):
  Direction    XX          YY          ZZ          XY          YZ          ZX
  --------------------------------------------------------------------------------------
  Alpha Z    14.61462    14.61462    14.61462
  Ewald    3501.17518  3501.20683 -4398.90803     0.00327     0.00000     0.00000
  Hartree  3440.13219  3440.13831 -3381.40986    -0.00006    -0.00000     0.00000
  E(xc)    -107.49135  -107.49131  -111.32340     0.00001    -0.00000    -0.00000
  Local   -7258.17189 -7258.20445  7443.59016    -0.00238     0.00000     0.00000
  n-local   -21.69677   -21.69616   -10.37258     0.00001    -0.00000    -0.00000
  augment    -1.80630    -1.80625    -1.79653    -0.00002    -0.00000     0.00000
  Kinetic   433.61702   433.61212   445.42328    -0.00034     0.00000     0.00000
  Fock        0.00000     0.00000     0.00000     0.00000     0.00000     0.00000
  vdW        -0.54283    -0.54284    -0.00593     0.00000     0.00000    -0.00000
  -------------------------------------------------------------------------------------
  Total      -0.17014    -0.16913    -0.18827     0.00049     0.00000     0.00000
  in kB      -0.78537    -0.78071    -0.86906     0.00226     0.00000     0.00000
  external pressure =       -0.81 kB  Pullay stress =        0.00 kB


 VOLUME and BASIS-vectors are now :
 -----------------------------------------------------------------------------
  energy-cutoff  :      450.00
  volume of cell :      347.08
      direct lattice vectors                 reciprocal lattice vectors
     4.476485000  2.584500000  0.000000000     0.111694778  0.193461018  0.000000000
    -4.476485000  2.584500000  0.000000000    -0.111694778  0.193461018  0.000000000
     0.000000000  0.000000000 15.000000000     0.000000000  0.000000000  0.066666667

  length of vectors
     5.168999730  5.168999730 15.000000000     0.223389545  0.223389545  0.066666667


 FORCES acting on ions
    electron-ion (+dipol)            ewald-force                    non-local-force                 convergence-correction
 -----------------------------------------------------------------------------------------------
   0.117E-02 -.209E-02 0.177E-06   -.102E-02 0.230E-02 0.856E-18   0.209E-03 0.294E-03 0.000E+00   0.195E-05 -.198E-05 -.373E-13
   -.140E-01 0.565E-03 0.224E-07   0.159E-01 -.396E-03 -.373E-18   0.241E-02 0.148E-03 0.000E+00   -.191E-05 0.191E-05 -.379E-13
   0.256E+02 -.443E+02 -.228E-06   -.276E+02 0.478E+02 0.467E-18   0.201E+01 -.348E+01 0.000E+00   0.706E-05 -.104E-04 -.548E-13
   -.256E+02 -.443E+02 -.398E-06   0.276E+02 0.478E+02 -.660E-19   -.201E+01 -.348E+01 0.000E+00   -.110E-04 -.119E-04 -.558E-13
   -.511E+02 -.744E-02 0.421E-07   0.551E+02 0.834E-02 -.138E-18   -.402E+01 -.121E-02 0.000E+00   -.152E-04 -.257E-05 -.554E-13
   0.511E+02 0.868E-02 -.163E-06   -.552E+02 -.999E-02 0.725E-18   0.402E+01 0.115E-02 0.000E+00   0.167E-04 0.264E-05 -.551E-13
   0.256E+02 0.443E+02 0.259E-06   -.276E+02 -.478E+02 -.545E-18   0.201E+01 0.348E+01 0.000E+00   0.103E-04 0.108E-04 -.530E-13
   -.256E+02 0.443E+02 0.106E-09   0.276E+02 -.478E+02 -.925E-18   -.201E+01 0.348E+01 0.000E+00   -.787E-05 0.116E-04 -.560E-13
 -----------------------------------------------------------------------------------------------
   -.484E-03 -.723E-04 -.288E-06   -.711E-14 0.213E-13 0.000E+00   0.805E-03 0.602E-03 0.000E+00   -.706E-08 0.100E-06 -.405E-12
 
 
 POSITION                                       TOTAL-FORCE (eV/Angst)
 -----------------------------------------------------------------------------------
     -1.48097      2.60387      3.75000         0.000316      0.000436      0.000000
      1.50327      2.60388      3.75000         0.004251      0.000252      0.000000
     -0.69950      1.25022      3.75000         0.000061     -0.000226      0.000000
      0.72178      1.25029      3.75000        -0.000231     -0.001174      0.000000
     -3.04401      2.60396      3.75000         0.000753     -0.000375      0.000000
      3.06640      2.60382      3.75000        -0.001446     -0.000223      0.000000
     -0.69937      3.95746      3.75000        -0.001219      0.001741      0.000000
      0.72193      3.95755      3.75000        -0.002485     -0.000430      0.000000
 -----------------------------------------------------------------------------------
    total drift:                                0.000321      0.000529     -0.000000


--------------------------------------------------------------------------------------------------------



  FREE ENERGIE OF THE ION-ELECTRON SYSTEM (eV)
  ---------------------------------------------------
  free  energy   TOTEN  =       -67.90765158 eV

  energy  without entropy=      -67.90765146  energy(sigma->0) =      -67.90765152
 


--------------------------------------------------------------------------------------------------------


    POTLOK:  cpu time    0.0550: real time    0.0550


--------------------------------------------------------------------------------------------------------




--------------------------------------------------------------------------------------------------------


  
 reached required accuracy - stopping structural energy minimisation
     LOOP+:  cpu time   99.6420: real time   99.6755
    4ORBIT:  cpu time    0.0000: real time    0.0000

 total amount of memory used by VASP MPI-rank0   107220. kBytes
=======================================================================

   base      :      30000. kBytes
   nonl-proj :      51341. kBytes
   fftplans  :       3154. kBytes
   grid      :      10002. kBytes
   one-center:         24. kBytes
   wavefun   :      12699. kBytes
 
  
  
 General timing and accounting informations for this job:
 ========================================================
  
                  Total CPU time used (sec):      102.508
                            User time (sec):      101.860
                          System time (sec):        0.648
                         Elapsed time (sec):      102.919
  
                   Maximum memory used (kb):      208040.
                   Average memory used (kb):           0.
  
                          Minor page faults:        64436
                          Major page faults:            0
                 Voluntary context switches:          932
