 vasp.6.3.2 27Jun22 (build Dec 22 2022 13:13:19) complex                        
  
 executed on             LinuxIFC date 2023.09.10  01:01:48
 running   48 mpi-ranks, with    1 threads/rank
 distrk:  each k-point on   48 cores,    1 groups
 distr:  one band on NCORE=   1 cores,   48 groups


--------------------------------------------------------------------------------------------------------


 INCAR:
   SYSTEM = SC
   ISTART = 0
   ICHARG = 2
   PREC = Accurate
   ENCUT = 450
   LCHARG = .TRUE.
   LWAVE = .TRUE.
   ALGO = Normal
   NELM = 64
   EDIFF = 1E-6
   EDIFFG = -1E-3
   SIGMA = 0.1
   ISMEAR = 0
   GGA = PE
   IVDW = 12

 POTCAR:    PAW_PBE B 06Sep2000                   
 POTCAR:    PAW_PBE C 08Apr2002                   
 POTCAR:    PAW_PBE B 06Sep2000                   
   SHA256 =  a32ced30f5ae56fd4d10b4325ff17eb3e4e38ee0f4288bc219fb012fddfa6e97 B/POTCAR              
   COPYR  = (c) Copyright 06Sep2000 Georg Kresse                                                    
   COPYR  = This file is part of the software VASP. Any use, copying, and all other rights are regul
   COPYR  = If you do not have a valid VASP license, you may not use, copy or distribute this file. 
   VRHFIN =B: s2p1                                                                                  
   LEXCH  = PE                                                                                      
   EATOM  =    71.1703 eV,    5.2309 Ry                                                             
                                                                                                    
   TITEL  = PAW_PBE B 06Sep2000                                                                     
   LULTRA =        F    use ultrasoft PP ?                                                          
   IUNSCR =        1    unscreen: 0-lin 1-nonlin 2-no                                               
   RPACOR =    1.200    partial core radius                                                         
   POMASS =   10.811; ZVAL   =    3.000    mass and valenz                                          
   RCORE  =    1.700    outmost cutoff radius                                                       
   RWIGS  =    1.710; RWIGS  =    0.905    wigner-seitz radius (au A)                               
   ENMAX  =  318.614; ENMIN  =  238.960 eV                                                          
   ICORE  =        2    local potential                                                             
   LCOR   =        T    correct aug charges                                                         
   LPAW   =        T    paw PP                                                                      
   EAUG   =  535.514                                                                                
   DEXC   =    0.000                                                                                
   RMAX   =    1.732    core radius for proj-oper                                                   
   RAUG   =    1.300    factor for augmentation sphere                                              
   RDEP   =    1.757    radius for radial grids                                                     
   RDEPT  =    1.436    core radius for aug-charge                                                  
                                                                                                    
   Atomic configuration                                                                             
    4 entries                                                                                       
     n  l   j            E        occ.                                                              
     1  0  0.50      -180.5896   2.0000                                                             
     2  0  0.50        -9.4431   2.0000                                                             
     2  1  0.50        -3.6068   1.0000                                                             
     3  2  1.50        -4.0817   0.0000                                                             
   Description                                                                                      
     l       E           TYP  RCUT    TYP  RCUT                                                     
     0     -9.4430752     23  1.500                                                                 
     0      0.8675899     23  1.500                                                                 
     1     -3.6067955     23  1.700                                                                 
     1      6.1086146     23  1.700                                                                 
     2     -4.0817478      7  1.700                                                                 
  local pseudopotential read in
  partial core-charges read in
  partial kinetic energy density read in
  atomic valenz-charges read in
  non local Contribution for L=           0  read in
    real space projection operators read in
  non local Contribution for L=           0  read in
    real space projection operators read in
  non local Contribution for L=           1  read in
    real space projection operators read in
  non local Contribution for L=           1  read in
    real space projection operators read in
    PAW grid and wavefunctions read in
 
   number of l-projection  operators is LMAX  =           4
   number of lm-projection operators is LMMAX =           8
 
 POTCAR:    PAW_PBE C 08Apr2002                   
   SHA256 =  253f7b50bb8d59471dbedb8285d89021f4a42ed1a2c5d38a03a736e69125dd95 C/POTCAR              
   COPYR  = (c) Copyright 08Apr2002 Georg Kresse                                                    
   COPYR  = This file is part of the software VASP. Any use, copying, and all other rights are regul
   COPYR  = If you do not have a valid VASP license, you may not use, copy or distribute this file. 
   VRHFIN =C: s2p2                                                                                  
   LEXCH  = PE                                                                                      
   EATOM  =   147.1560 eV,   10.8157 Ry                                                             
                                                                                                    
   TITEL  = PAW_PBE C 08Apr2002                                                                     
   LULTRA =        F    use ultrasoft PP ?                                                          
   IUNSCR =        1    unscreen: 0-lin 1-nonlin 2-no                                               
   RPACOR =    1.200    partial core radius                                                         
   POMASS =   12.011; ZVAL   =    4.000    mass and valenz                                          
   RCORE  =    1.500    outmost cutoff radius                                                       
   RWIGS  =    1.630; RWIGS  =    0.863    wigner-seitz radius (au A)                               
   ENMAX  =  400.000; ENMIN  =  300.000 eV                                                          
   ICORE  =        2    local potential                                                             
   LCOR   =        T    correct aug charges                                                         
   LPAW   =        T    paw PP                                                                      
   EAUG   =  644.873                                                                                
   DEXC   =    0.000                                                                                
   RMAX   =    1.529    core radius for proj-oper                                                   
   RAUG   =    1.300    factor for augmentation sphere                                              
   RDEP   =    1.501    radius for radial grids                                                     
   RDEPT  =    1.300    core radius for aug-charge                                                  
                                                                                                    
   Atomic configuration                                                                             
    4 entries                                                                                       
     n  l   j            E        occ.                                                              
     1  0  0.50      -273.3789   2.0000                                                             
     2  0  0.50       -13.7508   2.0000                                                             
     2  1  0.50        -5.2854   2.0000                                                             
     3  2  1.50        -5.4423   0.0000                                                             
   Description                                                                                      
     l       E           TYP  RCUT    TYP  RCUT                                                     
     0    -13.7508458     23  1.200                                                                 
     0     -8.2022199     23  1.200                                                                 
     1     -5.2854383     23  1.500                                                                 
     1     34.0145650     23  1.500                                                                 
     2     -5.4423304      7  1.500                                                                 
  local pseudopotential read in
  partial core-charges read in
  partial kinetic energy density read in
  atomic valenz-charges read in
  non local Contribution for L=           0  read in
    real space projection operators read in
  non local Contribution for L=           0  read in
    real space projection operators read in
  non local Contribution for L=           1  read in
    real space projection operators read in
  non local Contribution for L=           1  read in
    real space projection operators read in
    PAW grid and wavefunctions read in
 
   number of l-projection  operators is LMAX  =           4
   number of lm-projection operators is LMMAX =           8
 
  PAW_PBE B 06Sep2000                   :
 energy of atom  1       EATOM=  -71.1703
 kinetic energy error for atom=    0.0015 (will be added to EATOM!!)
  PAW_PBE C 08Apr2002                   :
 energy of atom  2       EATOM= -147.1560
 kinetic energy error for atom=    0.0116 (will be added to EATOM!!)
 
 
 POSCAR: Graphene-BC3 Hollow with lattice paramet
  positions in direct lattice
  velocities in cartesian coordinates
 exchange correlation table for  LEXCH =        8
   RHO(1)=    0.500       N(1)  =     2000
   RHO(2)=  100.500       N(2)  =     4000

 VTST: version 4.2, (08/11/21)

 CHAIN: initializing optimizer
 
 OPT: Using VASP Dynamics algorithm
 CHAIN: Read ICHAIN            0
 
 POSCAR: Graphene-BC3 Hollow with lattice paramet
  positions in direct lattice
  velocities in cartesian coordinates
 


--------------------------------------------------------------------------------------------------------


 ion  position               nearest neighbor table
   1  0.338  0.669  0.113-   7 1.52   5 1.52   3 1.52
   2  0.672  0.336  0.113-   8 1.52   6 1.52   4 1.52
   3  0.164  0.322  0.113-   4 1.39   6 1.39   1 1.52
   4  0.324  0.162  0.113-   5 1.39   3 1.39   2 1.52
   5  0.164  0.843  0.113-   4 1.39   8 1.39   1 1.52
   6  0.845  0.162  0.113-   7 1.39   3 1.39   2 1.52
   7  0.686  0.843  0.113-   6 1.39   8 1.39   1 1.52
   8  0.845  0.683  0.113-   7 1.39   5 1.39   2 1.52
   9  0.333  0.167  0.338-  10 1.46  12 1.46  14 1.46
  10  0.500  0.000  0.338-   9 1.46  13 1.46  11 1.46
  11  0.333  0.667  0.338-  16 1.46  12 1.46  10 1.46
  12  0.500  0.500  0.338-   9 1.46  15 1.46  11 1.46
  13  0.833  0.167  0.338-  16 1.46  10 1.46  14 1.46
  14  0.000  0.000  0.338-   9 1.46  13 1.46  15 1.46
  15  0.833  0.667  0.338-  16 1.46  12 1.46  14 1.46
  16  0.000  0.500  0.338-  15 1.46  13 1.46  11 1.46
 
  LATTYP: Found a hexagonal cell.
 ALAT       =     5.0440000000
 C/A-ratio  =     2.9738302934
  
  Lattice vectors:
  
 A1 = (   4.3682321367,   2.5220000000,   0.0000000000)
 A2 = (  -4.3682321367,   2.5220000000,   0.0000000000)
 A3 = (   0.0000000000,   0.0000000000,  15.0000000000)


Analysis of symmetry for initial positions (statically):
=====================================================================
 Subroutine PRICEL returns:
 Original cell was already a primitive cell.
 

 Routine SETGRP: Setting up the symmetry group for a 
 hexagonal supercell.


 Subroutine GETGRP returns: Found  1 space group operations
 (whereof  1 operations were pure point group operations)
 out of a pool of 24 trial point group operations.


The static configuration has the point symmetry C_1 .


Analysis of symmetry for dynamics (positions and initial velocities):
=====================================================================
 Subroutine PRICEL returns:
 Original cell was already a primitive cell.
 

 Routine SETGRP: Setting up the symmetry group for a 
 hexagonal supercell.


 Subroutine GETGRP returns: Found  1 space group operations
 (whereof  1 operations were pure point group operations)
 out of a pool of 24 trial point group operations.


The dynamic configuration has the point symmetry C_1 .


 Subroutine INISYM returns: Found  1 space group operations
 (whereof  1 operations are pure point group operations),
 and found     1 'primitive' translations


----------------------------------------------------------------------------------------

                                     Primitive cell                                     

  volume of cell :     330.5004

  direct lattice vectors                    reciprocal lattice vectors
     4.368232137  2.522000000  0.000000000     0.114462781  0.198255353  0.000000000
    -4.368232137  2.522000000  0.000000000    -0.114462781  0.198255353  0.000000000
     0.000000000  0.000000000 15.000000000     0.000000000  0.000000000  0.066666667

  length of vectors
     5.044000000  5.044000000 15.000000000     0.228925563  0.228925563  0.066666667

  position of ions in fractional coordinates (direct lattice)
     0.338203334  0.669098661  0.113381622
     0.671538623  0.335766770  0.113066104
     0.164492162  0.321676120  0.113073872
     0.324038669  0.162015918  0.113080124
     0.164492146  0.842809624  0.113074202
     0.845282693  0.162014532  0.113070458
     0.685620398  0.842806916  0.113065505
     0.845283256  0.683261954  0.113070868
     0.333481117  0.166743137  0.338140385
     0.500169288  0.000150954  0.338117411
     0.333461746  0.666733449  0.337831925
     0.500169285  0.500023737  0.338117409
     0.833456475  0.166744471  0.338135786
     0.000131755  0.000068577  0.338120511
     0.833456492  0.666717201  0.338135817
     0.000047897  0.500026647  0.338118001

  ion indices of the primitive-cell ions
   primitive index   ion index
                 1           1
                 2           2
                 3           3
                 4           4
                 5           5
                 6           6
                 7           7
                 8           8
                 9           9
                10          10
                11          11
                12          12
                13          13
                14          14
                15          15
                16          16

----------------------------------------------------------------------------------------

 
 
 KPOINTS: k-points                                

Automatic generation of k-mesh.
 Grid dimensions read from file:
 generate k-points for:   27   27    1

 Generating k-lattice:

  Cartesian coordinates                     Fractional coordinates (reciprocal lattice)
     0.004239362  0.007342791  0.000000000     0.037037037 -0.000000000  0.000000000
    -0.004239362  0.007342791  0.000000000    -0.000000000  0.037037037  0.000000000
     0.000000000  0.000000000  0.066666667     0.000000000  0.000000000  1.000000000

  Length of vectors
     0.008478725  0.008478725  0.066666667

  Shift w.r.t. Gamma in fractional coordinates (k-lattice)
     0.000000000  0.000000000  0.000000000

 
 Subroutine IBZKPT returns following result:
 ===========================================
 
 Found    365 irreducible k-points:
 
 Following reciprocal coordinates:
            Coordinates               Weight
  0.000000  0.000000  0.000000      1.000000
  0.037037 -0.000000  0.000000      2.000000
 -0.000000  0.037037  0.000000      2.000000
 -0.037037  0.037037  0.000000      2.000000
  0.074074 -0.000000  0.000000      2.000000
 -0.000000  0.074074  0.000000      2.000000
 -0.074074  0.074074  0.000000      2.000000
  0.111111  0.000000  0.000000      2.000000
 -0.000000  0.111111  0.000000      2.000000
 -0.111111  0.111111  0.000000      2.000000
  0.148148 -0.000000  0.000000      2.000000
 -0.000000  0.148148  0.000000      2.000000
 -0.148148  0.148148  0.000000      2.000000
  0.185185  0.000000  0.000000      2.000000
 -0.000000  0.185185  0.000000      2.000000
 -0.185185  0.185185  0.000000      2.000000
  0.222222  0.000000  0.000000      2.000000
 -0.000000  0.222222  0.000000      2.000000
 -0.222222  0.222222  0.000000      2.000000
  0.259259 -0.000000  0.000000      2.000000
 -0.000000  0.259259  0.000000      2.000000
 -0.259259  0.259259  0.000000      2.000000
  0.296296 -0.000000  0.000000      2.000000
 -0.000000  0.296296  0.000000      2.000000
 -0.296296  0.296296  0.000000      2.000000
  0.333333  0.000000  0.000000      2.000000
 -0.000000  0.333333  0.000000      2.000000
 -0.333333  0.333333  0.000000      2.000000
  0.370370 -0.000000  0.000000      2.000000
 -0.000000  0.370370  0.000000      2.000000
 -0.370370  0.370370  0.000000      2.000000
  0.407407 -0.000000  0.000000      2.000000
 -0.000000  0.407407  0.000000      2.000000
 -0.407407  0.407407  0.000000      2.000000
  0.444444  0.000000  0.000000      2.000000
 -0.000000  0.444444  0.000000      2.000000
 -0.444444  0.444444  0.000000      2.000000
  0.481481 -0.000000  0.000000      2.000000
 -0.000000  0.481481  0.000000      2.000000
 -0.481481  0.481481  0.000000      2.000000
  0.037037  0.037037  0.000000      2.000000
 -0.037037  0.074074  0.000000      2.000000
 -0.074074  0.037037  0.000000      2.000000
  0.074074  0.037037  0.000000      2.000000
 -0.037037  0.111111  0.000000      2.000000
 -0.111111  0.074074  0.000000      2.000000
 -0.074074  0.111111  0.000000      2.000000
  0.037037  0.074074  0.000000      2.000000
  0.111111 -0.037037  0.000000      2.000000
  0.111111  0.037037  0.000000      2.000000
 -0.037037  0.148148  0.000000      2.000000
 -0.148148  0.111111  0.000000      2.000000
 -0.111111  0.148148  0.000000      2.000000
  0.037037  0.111111  0.000000      2.000000
  0.148148 -0.037037  0.000000      2.000000
  0.148148  0.037037  0.000000      2.000000
 -0.037037  0.185185  0.000000      2.000000
 -0.185185  0.148148  0.000000      2.000000
 -0.148148  0.185185  0.000000      2.000000
  0.037037  0.148148  0.000000      2.000000
  0.185185 -0.037037  0.000000      2.000000
  0.185185  0.037037  0.000000      2.000000
 -0.037037  0.222222  0.000000      2.000000
 -0.222222  0.185185  0.000000      2.000000
 -0.185185  0.222222  0.000000      2.000000
  0.037037  0.185185  0.000000      2.000000
  0.222222 -0.037037  0.000000      2.000000
  0.222222  0.037037  0.000000      2.000000
 -0.037037  0.259259  0.000000      2.000000
 -0.259259  0.222222  0.000000      2.000000
 -0.222222  0.259259  0.000000      2.000000
  0.037037  0.222222  0.000000      2.000000
  0.259259 -0.037037  0.000000      2.000000
  0.259259  0.037037  0.000000      2.000000
 -0.037037  0.296296  0.000000      2.000000
 -0.296296  0.259259  0.000000      2.000000
 -0.259259  0.296296  0.000000      2.000000
  0.037037  0.259259  0.000000      2.000000
  0.296296 -0.037037  0.000000      2.000000
  0.296296  0.037037  0.000000      2.000000
 -0.037037  0.333333  0.000000      2.000000
 -0.333333  0.296296  0.000000      2.000000
 -0.296296  0.333333  0.000000      2.000000
  0.037037  0.296296  0.000000      2.000000
  0.333333 -0.037037  0.000000      2.000000
  0.333333  0.037037  0.000000      2.000000
 -0.037037  0.370370  0.000000      2.000000
 -0.370370  0.333333  0.000000      2.000000
 -0.333333  0.370370  0.000000      2.000000
  0.037037  0.333333  0.000000      2.000000
  0.370370 -0.037037  0.000000      2.000000
  0.370370  0.037037  0.000000      2.000000
 -0.037037  0.407407  0.000000      2.000000
 -0.407407  0.370370  0.000000      2.000000
 -0.370370  0.407407  0.000000      2.000000
  0.037037  0.370370  0.000000      2.000000
  0.407407 -0.037037  0.000000      2.000000
  0.407407  0.037037  0.000000      2.000000
 -0.037037  0.444444  0.000000      2.000000
 -0.444444  0.407407  0.000000      2.000000
 -0.407407  0.444444  0.000000      2.000000
  0.037037  0.407407  0.000000      2.000000
  0.444444 -0.037037  0.000000      2.000000
  0.444444  0.037037  0.000000      2.000000
 -0.037037  0.481481  0.000000      2.000000
 -0.481481  0.444444  0.000000      2.000000
 -0.444444  0.481481  0.000000      2.000000
  0.037037  0.444444  0.000000      2.000000
  0.481481 -0.037037  0.000000      2.000000
  0.481481  0.037037  0.000000      2.000000
 -0.037037 -0.481481  0.000000      2.000000
  0.481481  0.481481  0.000000      2.000000
  0.074074  0.074074  0.000000      2.000000
 -0.074074  0.148148  0.000000      2.000000
 -0.148148  0.074074  0.000000      2.000000
  0.111111  0.074074  0.000000      2.000000
 -0.074074  0.185185  0.000000      2.000000
 -0.185185  0.111111  0.000000      2.000000
 -0.111111  0.185185  0.000000      2.000000
  0.074074  0.111111  0.000000      2.000000
  0.185185 -0.074074  0.000000      2.000000
  0.148148  0.074074  0.000000      2.000000
 -0.074074  0.222222  0.000000      2.000000
 -0.222222  0.148148  0.000000      2.000000
 -0.148148  0.222222  0.000000      2.000000
  0.074074  0.148148  0.000000      2.000000
  0.222222 -0.074074  0.000000      2.000000
  0.185185  0.074074  0.000000      2.000000
 -0.074074  0.259259  0.000000      2.000000
 -0.259259  0.185185  0.000000      2.000000
 -0.185185  0.259259  0.000000      2.000000
  0.074074  0.185185  0.000000      2.000000
  0.259259 -0.074074  0.000000      2.000000
  0.222222  0.074074  0.000000      2.000000
 -0.074074  0.296296  0.000000      2.000000
 -0.296296  0.222222  0.000000      2.000000
 -0.222222  0.296296  0.000000      2.000000
  0.074074  0.222222  0.000000      2.000000
  0.296296 -0.074074  0.000000      2.000000
  0.259259  0.074074  0.000000      2.000000
 -0.074074  0.333333  0.000000      2.000000
 -0.333333  0.259259  0.000000      2.000000
 -0.259259  0.333333  0.000000      2.000000
  0.074074  0.259259  0.000000      2.000000
  0.333333 -0.074074  0.000000      2.000000
  0.296296  0.074074  0.000000      2.000000
 -0.074074  0.370370  0.000000      2.000000
 -0.370370  0.296296  0.000000      2.000000
 -0.296296  0.370370  0.000000      2.000000
  0.074074  0.296296  0.000000      2.000000
  0.370370 -0.074074  0.000000      2.000000
  0.333333  0.074074  0.000000      2.000000
 -0.074074  0.407407  0.000000      2.000000
 -0.407407  0.333333  0.000000      2.000000
 -0.333333  0.407407  0.000000      2.000000
  0.074074  0.333333  0.000000      2.000000
  0.407407 -0.074074  0.000000      2.000000
  0.370370  0.074074  0.000000      2.000000
 -0.074074  0.444444  0.000000      2.000000
 -0.444444  0.370370  0.000000      2.000000
 -0.370370  0.444444  0.000000      2.000000
  0.074074  0.370370  0.000000      2.000000
  0.444444 -0.074074  0.000000      2.000000
  0.407407  0.074074  0.000000      2.000000
 -0.074074  0.481481  0.000000      2.000000
 -0.481481  0.407407  0.000000      2.000000
 -0.407407  0.481481  0.000000      2.000000
  0.074074  0.407407  0.000000      2.000000
  0.481481 -0.074074  0.000000      2.000000
  0.444444  0.074074  0.000000      2.000000
 -0.074074 -0.481481  0.000000      2.000000
  0.481481  0.444444  0.000000      2.000000
 -0.444444 -0.481481  0.000000      2.000000
  0.074074  0.444444  0.000000      2.000000
 -0.481481 -0.074074  0.000000      2.000000
  0.111111  0.111111  0.000000      2.000000
 -0.111111  0.222222  0.000000      2.000000
 -0.222222  0.111111  0.000000      2.000000
  0.148148  0.111111  0.000000      2.000000
 -0.111111  0.259259  0.000000      2.000000
 -0.259259  0.148148  0.000000      2.000000
 -0.148148  0.259259  0.000000      2.000000
  0.111111  0.148148  0.000000      2.000000
  0.259259 -0.111111  0.000000      2.000000
  0.185185  0.111111  0.000000      2.000000
 -0.111111  0.296296  0.000000      2.000000
 -0.296296  0.185185  0.000000      2.000000
 -0.185185  0.296296  0.000000      2.000000
  0.111111  0.185185  0.000000      2.000000
  0.296296 -0.111111  0.000000      2.000000
  0.222222  0.111111  0.000000      2.000000
 -0.111111  0.333333  0.000000      2.000000
 -0.333333  0.222222  0.000000      2.000000
 -0.222222  0.333333  0.000000      2.000000
  0.111111  0.222222  0.000000      2.000000
  0.333333 -0.111111  0.000000      2.000000
  0.259259  0.111111  0.000000      2.000000
 -0.111111  0.370370  0.000000      2.000000
 -0.370370  0.259259  0.000000      2.000000
 -0.259259  0.370370  0.000000      2.000000
  0.111111  0.259259  0.000000      2.000000
  0.370370 -0.111111  0.000000      2.000000
  0.296296  0.111111  0.000000      2.000000
 -0.111111  0.407407  0.000000      2.000000
 -0.407407  0.296296  0.000000      2.000000
 -0.296296  0.407407  0.000000      2.000000
  0.111111  0.296296  0.000000      2.000000
  0.407407 -0.111111  0.000000      2.000000
  0.333333  0.111111  0.000000      2.000000
 -0.111111  0.444444  0.000000      2.000000
 -0.444444  0.333333  0.000000      2.000000
 -0.333333  0.444444  0.000000      2.000000
  0.111111  0.333333  0.000000      2.000000
  0.444444 -0.111111  0.000000      2.000000
  0.370370  0.111111  0.000000      2.000000
 -0.111111  0.481481  0.000000      2.000000
 -0.481481  0.370370  0.000000      2.000000
 -0.370370  0.481481  0.000000      2.000000
  0.111111  0.370370  0.000000      2.000000
  0.481481 -0.111111  0.000000      2.000000
  0.407407  0.111111  0.000000      2.000000
 -0.111111 -0.481481  0.000000      2.000000
  0.481481  0.407407  0.000000      2.000000
 -0.407407 -0.481481  0.000000      2.000000
  0.111111  0.407407  0.000000      2.000000
 -0.481481 -0.111111  0.000000      2.000000
  0.444444  0.111111  0.000000      2.000000
 -0.111111 -0.444444  0.000000      2.000000
  0.444444  0.444444  0.000000      2.000000
  0.148148  0.148148  0.000000      2.000000
 -0.148148  0.296296  0.000000      2.000000
 -0.296296  0.148148  0.000000      2.000000
  0.185185  0.148148  0.000000      2.000000
 -0.148148  0.333333  0.000000      2.000000
 -0.333333  0.185185  0.000000      2.000000
 -0.185185  0.333333  0.000000      2.000000
  0.148148  0.185185  0.000000      2.000000
  0.333333 -0.148148  0.000000      2.000000
  0.222222  0.148148  0.000000      2.000000
 -0.148148  0.370370  0.000000      2.000000
 -0.370370  0.222222  0.000000      2.000000
 -0.222222  0.370370  0.000000      2.000000
  0.148148  0.222222  0.000000      2.000000
  0.370370 -0.148148  0.000000      2.000000
  0.259259  0.148148  0.000000      2.000000
 -0.148148  0.407407  0.000000      2.000000
 -0.407407  0.259259  0.000000      2.000000
 -0.259259  0.407407  0.000000      2.000000
  0.148148  0.259259  0.000000      2.000000
  0.407407 -0.148148  0.000000      2.000000
  0.296296  0.148148  0.000000      2.000000
 -0.148148  0.444444  0.000000      2.000000
 -0.444444  0.296296  0.000000      2.000000
 -0.296296  0.444444  0.000000      2.000000
  0.148148  0.296296  0.000000      2.000000
  0.444444 -0.148148  0.000000      2.000000
  0.333333  0.148148  0.000000      2.000000
 -0.148148  0.481481  0.000000      2.000000
 -0.481481  0.333333  0.000000      2.000000
 -0.333333  0.481481  0.000000      2.000000
  0.148148  0.333333  0.000000      2.000000
  0.481481 -0.148148  0.000000      2.000000
  0.370370  0.148148  0.000000      2.000000
 -0.148148 -0.481481  0.000000      2.000000
  0.481481  0.370370  0.000000      2.000000
 -0.370370 -0.481481  0.000000      2.000000
  0.148148  0.370370  0.000000      2.000000
 -0.481481 -0.148148  0.000000      2.000000
  0.407407  0.148148  0.000000      2.000000
 -0.148148 -0.444444  0.000000      2.000000
  0.444444  0.407407  0.000000      2.000000
 -0.407407 -0.444444  0.000000      2.000000
  0.148148  0.407407  0.000000      2.000000
 -0.444444 -0.148148  0.000000      2.000000
  0.185185  0.185185  0.000000      2.000000
 -0.185185  0.370370  0.000000      2.000000
 -0.370370  0.185185  0.000000      2.000000
  0.222222  0.185185  0.000000      2.000000
 -0.185185  0.407407  0.000000      2.000000
 -0.407407  0.222222  0.000000      2.000000
 -0.222222  0.407407  0.000000      2.000000
  0.185185  0.222222  0.000000      2.000000
  0.407407 -0.185185  0.000000      2.000000
  0.259259  0.185185  0.000000      2.000000
 -0.185185  0.444444  0.000000      2.000000
 -0.444444  0.259259  0.000000      2.000000
 -0.259259  0.444444  0.000000      2.000000
  0.185185  0.259259  0.000000      2.000000
  0.444444 -0.185185  0.000000      2.000000
  0.296296  0.185185  0.000000      2.000000
 -0.185185  0.481481  0.000000      2.000000
 -0.481481  0.296296  0.000000      2.000000
 -0.296296  0.481481  0.000000      2.000000
  0.185185  0.296296  0.000000      2.000000
  0.481481 -0.185185  0.000000      2.000000
  0.333333  0.185185  0.000000      2.000000
 -0.185185 -0.481481  0.000000      2.000000
  0.481481  0.333333  0.000000      2.000000
 -0.333333 -0.481481  0.000000      2.000000
  0.185185  0.333333  0.000000      2.000000
 -0.481481 -0.185185  0.000000      2.000000
  0.370370  0.185185  0.000000      2.000000
 -0.185185 -0.444444  0.000000      2.000000
  0.444444  0.370370  0.000000      2.000000
 -0.370370 -0.444444  0.000000      2.000000
  0.185185  0.370370  0.000000      2.000000
 -0.444444 -0.185185  0.000000      2.000000
  0.407407  0.185185  0.000000      2.000000
 -0.185185 -0.407407  0.000000      2.000000
  0.407407  0.407407  0.000000      2.000000
  0.222222  0.222222  0.000000      2.000000
 -0.222222  0.444444  0.000000      2.000000
 -0.444444  0.222222  0.000000      2.000000
  0.259259  0.222222  0.000000      2.000000
 -0.222222  0.481481  0.000000      2.000000
 -0.481481  0.259259  0.000000      2.000000
 -0.259259  0.481481  0.000000      2.000000
  0.222222  0.259259  0.000000      2.000000
  0.481481 -0.222222  0.000000      2.000000
  0.296296  0.222222  0.000000      2.000000
 -0.222222 -0.481481  0.000000      2.000000
  0.481481  0.296296  0.000000      2.000000
 -0.296296 -0.481481  0.000000      2.000000
  0.222222  0.296296  0.000000      2.000000
 -0.481481 -0.222222  0.000000      2.000000
  0.333333  0.222222  0.000000      2.000000
 -0.222222 -0.444444  0.000000      2.000000
  0.444444  0.333333  0.000000      2.000000
 -0.333333 -0.444444  0.000000      2.000000
  0.222222  0.333333  0.000000      2.000000
 -0.444444 -0.222222  0.000000      2.000000
  0.370370  0.222222  0.000000      2.000000
 -0.222222 -0.407407  0.000000      2.000000
  0.407407  0.370370  0.000000      2.000000
 -0.370370 -0.407407  0.000000      2.000000
  0.222222  0.370370  0.000000      2.000000
 -0.407407 -0.222222  0.000000      2.000000
  0.259259  0.259259  0.000000      2.000000
 -0.259259 -0.481481  0.000000      2.000000
  0.481481  0.259259  0.000000      2.000000
  0.296296  0.259259  0.000000      2.000000
 -0.259259 -0.444444  0.000000      2.000000
  0.444444  0.296296  0.000000      2.000000
 -0.296296 -0.444444  0.000000      2.000000
  0.259259  0.296296  0.000000      2.000000
 -0.444444 -0.259259  0.000000      2.000000
  0.333333  0.259259  0.000000      2.000000
 -0.259259 -0.407407  0.000000      2.000000
  0.407407  0.333333  0.000000      2.000000
 -0.333333 -0.407407  0.000000      2.000000
  0.259259  0.333333  0.000000      2.000000
 -0.407407 -0.259259  0.000000      2.000000
  0.370370  0.259259  0.000000      2.000000
 -0.259259 -0.370370  0.000000      2.000000
  0.370370  0.370370  0.000000      2.000000
  0.296296  0.296296  0.000000      2.000000
 -0.296296 -0.407407  0.000000      2.000000
  0.407407  0.296296  0.000000      2.000000
  0.333333  0.296296  0.000000      2.000000
 -0.296296 -0.370370  0.000000      2.000000
  0.370370  0.333333  0.000000      2.000000
 -0.333333 -0.370370  0.000000      2.000000
  0.296296  0.333333  0.000000      2.000000
 -0.370370 -0.296296  0.000000      2.000000
  0.333333  0.333333  0.000000      2.000000
 
 Following cartesian coordinates:
            Coordinates               Weight
  0.000000  0.000000  0.000000      1.000000
  0.004239  0.007343  0.000000      2.000000
 -0.004239  0.007343  0.000000      2.000000
 -0.008479 -0.000000  0.000000      2.000000
  0.008479  0.014686  0.000000      2.000000
 -0.008479  0.014686  0.000000      2.000000
 -0.016957 -0.000000  0.000000      2.000000
  0.012718  0.022028  0.000000      2.000000
 -0.012718  0.022028  0.000000      2.000000
 -0.025436 -0.000000  0.000000      2.000000
  0.016957  0.029371  0.000000      2.000000
 -0.016957  0.029371  0.000000      2.000000
 -0.033915  0.000000  0.000000      2.000000
  0.021197  0.036714  0.000000      2.000000
 -0.021197  0.036714  0.000000      2.000000
 -0.042394 -0.000000  0.000000      2.000000
  0.025436  0.044057  0.000000      2.000000
 -0.025436  0.044057  0.000000      2.000000
 -0.050872 -0.000000  0.000000      2.000000
  0.029676  0.051400  0.000000      2.000000
 -0.029676  0.051400  0.000000      2.000000
 -0.059351 -0.000000  0.000000      2.000000
  0.033915  0.058742  0.000000      2.000000
 -0.033915  0.058742  0.000000      2.000000
 -0.067830 -0.000000  0.000000      2.000000
  0.038154  0.066085  0.000000      2.000000
 -0.038154  0.066085  0.000000      2.000000
 -0.076309 -0.000000  0.000000      2.000000
  0.042394  0.073428  0.000000      2.000000
 -0.042394  0.073428  0.000000      2.000000
 -0.084787  0.000000  0.000000      2.000000
  0.046633  0.080771  0.000000      2.000000
 -0.046633  0.080771  0.000000      2.000000
 -0.093266  0.000000  0.000000      2.000000
  0.050872  0.088113  0.000000      2.000000
 -0.050872  0.088113  0.000000      2.000000
 -0.101745 -0.000000  0.000000      2.000000
  0.055112  0.095456  0.000000      2.000000
 -0.055112  0.095456  0.000000      2.000000
 -0.110223  0.000000  0.000000      2.000000
 -0.000000  0.014686  0.000000      2.000000
 -0.012718  0.007343  0.000000      2.000000
 -0.012718 -0.007343  0.000000      2.000000
  0.004239  0.022028  0.000000      2.000000
 -0.016957  0.014686  0.000000      2.000000
 -0.021197 -0.007343  0.000000      2.000000
 -0.021197  0.007343  0.000000      2.000000
 -0.004239  0.022028  0.000000      2.000000
  0.016957  0.014686  0.000000      2.000000
  0.008479  0.029371  0.000000      2.000000
 -0.021197  0.022028  0.000000      2.000000
 -0.029676 -0.007343  0.000000      2.000000
 -0.029676  0.007343  0.000000      2.000000
 -0.008479  0.029371  0.000000      2.000000
  0.021197  0.022028  0.000000      2.000000
  0.012718  0.036714  0.000000      2.000000
 -0.025436  0.029371  0.000000      2.000000
 -0.038154 -0.007343  0.000000      2.000000
 -0.038154  0.007343  0.000000      2.000000
 -0.012718  0.036714  0.000000      2.000000
  0.025436  0.029371  0.000000      2.000000
  0.016957  0.044057  0.000000      2.000000
 -0.029676  0.036714  0.000000      2.000000
 -0.046633 -0.007343  0.000000      2.000000
 -0.046633  0.007343  0.000000      2.000000
 -0.016957  0.044057  0.000000      2.000000
  0.029676  0.036714  0.000000      2.000000
  0.021197  0.051400  0.000000      2.000000
 -0.033915  0.044057  0.000000      2.000000
 -0.055112 -0.007343  0.000000      2.000000
 -0.055112  0.007343  0.000000      2.000000
 -0.021197  0.051400  0.000000      2.000000
  0.033915  0.044057  0.000000      2.000000
  0.025436  0.058742  0.000000      2.000000
 -0.038154  0.051400  0.000000      2.000000
 -0.063590 -0.007343  0.000000      2.000000
 -0.063590  0.007343  0.000000      2.000000
 -0.025436  0.058742  0.000000      2.000000
  0.038154  0.051400  0.000000      2.000000
  0.029676  0.066085  0.000000      2.000000
 -0.042394  0.058742  0.000000      2.000000
 -0.072069 -0.007343  0.000000      2.000000
 -0.072069  0.007343  0.000000      2.000000
 -0.029676  0.066085  0.000000      2.000000
  0.042394  0.058742  0.000000      2.000000
  0.033915  0.073428  0.000000      2.000000
 -0.046633  0.066085  0.000000      2.000000
 -0.080548 -0.007343  0.000000      2.000000
 -0.080548  0.007343  0.000000      2.000000
 -0.033915  0.073428  0.000000      2.000000
  0.046633  0.066085  0.000000      2.000000
  0.038154  0.080771  0.000000      2.000000
 -0.050872  0.073428  0.000000      2.000000
 -0.089027 -0.007343  0.000000      2.000000
 -0.089027  0.007343  0.000000      2.000000
 -0.038154  0.080771  0.000000      2.000000
  0.050872  0.073428  0.000000      2.000000
  0.042394  0.088113  0.000000      2.000000
 -0.055112  0.080771  0.000000      2.000000
 -0.097505 -0.007343  0.000000      2.000000
 -0.097505  0.007343  0.000000      2.000000
 -0.042394  0.088113  0.000000      2.000000
  0.055112  0.080771  0.000000      2.000000
  0.046633  0.095456  0.000000      2.000000
 -0.059351  0.088113  0.000000      2.000000
 -0.105984 -0.007343  0.000000      2.000000
 -0.105984  0.007343  0.000000      2.000000
 -0.046633  0.095456  0.000000      2.000000
  0.059351  0.088113  0.000000      2.000000
  0.050872  0.102799  0.000000      2.000000
  0.050872 -0.102799  0.000000      2.000000
  0.000000  0.190913  0.000000      2.000000
 -0.000000  0.029371  0.000000      2.000000
 -0.025436  0.014686  0.000000      2.000000
 -0.025436 -0.014686  0.000000      2.000000
  0.004239  0.036714  0.000000      2.000000
 -0.029676  0.022028  0.000000      2.000000
 -0.033915 -0.014686  0.000000      2.000000
 -0.033915  0.014686  0.000000      2.000000
 -0.004239  0.036714  0.000000      2.000000
  0.029676  0.022028  0.000000      2.000000
  0.008479  0.044057  0.000000      2.000000
 -0.033915  0.029371  0.000000      2.000000
 -0.042394 -0.014686  0.000000      2.000000
 -0.042394  0.014686  0.000000      2.000000
 -0.008479  0.044057  0.000000      2.000000
  0.033915  0.029371  0.000000      2.000000
  0.012718  0.051400  0.000000      2.000000
 -0.038154  0.036714  0.000000      2.000000
 -0.050872 -0.014686  0.000000      2.000000
 -0.050872  0.014686  0.000000      2.000000
 -0.012718  0.051400  0.000000      2.000000
  0.038154  0.036714  0.000000      2.000000
  0.016957  0.058742  0.000000      2.000000
 -0.042394  0.044057  0.000000      2.000000
 -0.059351 -0.014686  0.000000      2.000000
 -0.059351  0.014686  0.000000      2.000000
 -0.016957  0.058742  0.000000      2.000000
  0.042394  0.044057  0.000000      2.000000
  0.021197  0.066085  0.000000      2.000000
 -0.046633  0.051400  0.000000      2.000000
 -0.067830 -0.014686  0.000000      2.000000
 -0.067830  0.014686  0.000000      2.000000
 -0.021197  0.066085  0.000000      2.000000
  0.046633  0.051400  0.000000      2.000000
  0.025436  0.073428  0.000000      2.000000
 -0.050872  0.058742  0.000000      2.000000
 -0.076309 -0.014686  0.000000      2.000000
 -0.076309  0.014686  0.000000      2.000000
 -0.025436  0.073428  0.000000      2.000000
  0.050872  0.058742  0.000000      2.000000
  0.029676  0.080771  0.000000      2.000000
 -0.055112  0.066085  0.000000      2.000000
 -0.084787 -0.014686  0.000000      2.000000
 -0.084787  0.014686  0.000000      2.000000
 -0.029676  0.080771  0.000000      2.000000
  0.055112  0.066085  0.000000      2.000000
  0.033915  0.088113  0.000000      2.000000
 -0.059351  0.073428  0.000000      2.000000
 -0.093266 -0.014686  0.000000      2.000000
 -0.093266  0.014686  0.000000      2.000000
 -0.033915  0.088113  0.000000      2.000000
  0.059351  0.073428  0.000000      2.000000
  0.038154  0.095456  0.000000      2.000000
 -0.063590  0.080771  0.000000      2.000000
 -0.101745 -0.014686  0.000000      2.000000
 -0.101745  0.014686  0.000000      2.000000
 -0.038154  0.095456  0.000000      2.000000
  0.063590  0.080771  0.000000      2.000000
  0.042394  0.102799  0.000000      2.000000
  0.046633 -0.110142  0.000000      2.000000
  0.004239  0.183570  0.000000      2.000000
  0.004239 -0.183570  0.000000      2.000000
 -0.042394  0.102799  0.000000      2.000000
 -0.046633 -0.110142  0.000000      2.000000
  0.000000  0.044057  0.000000      2.000000
 -0.038154  0.022028  0.000000      2.000000
 -0.038154 -0.022028  0.000000      2.000000
  0.004239  0.051400  0.000000      2.000000
 -0.042394  0.029371  0.000000      2.000000
 -0.046633 -0.022028  0.000000      2.000000
 -0.046633  0.022028  0.000000      2.000000
 -0.004239  0.051400  0.000000      2.000000
  0.042394  0.029371  0.000000      2.000000
  0.008479  0.058742  0.000000      2.000000
 -0.046633  0.036714  0.000000      2.000000
 -0.055112 -0.022028  0.000000      2.000000
 -0.055112  0.022028  0.000000      2.000000
 -0.008479  0.058742  0.000000      2.000000
  0.046633  0.036714  0.000000      2.000000
  0.012718  0.066085  0.000000      2.000000
 -0.050872  0.044057  0.000000      2.000000
 -0.063590 -0.022028  0.000000      2.000000
 -0.063590  0.022028  0.000000      2.000000
 -0.012718  0.066085  0.000000      2.000000
  0.050872  0.044057  0.000000      2.000000
  0.016957  0.073428  0.000000      2.000000
 -0.055112  0.051400  0.000000      2.000000
 -0.072069 -0.022028  0.000000      2.000000
 -0.072069  0.022028  0.000000      2.000000
 -0.016957  0.073428  0.000000      2.000000
  0.055112  0.051400  0.000000      2.000000
  0.021197  0.080771  0.000000      2.000000
 -0.059351  0.058742  0.000000      2.000000
 -0.080548 -0.022028  0.000000      2.000000
 -0.080548  0.022028  0.000000      2.000000
 -0.021197  0.080771  0.000000      2.000000
  0.059351  0.058742  0.000000      2.000000
  0.025436  0.088113  0.000000      2.000000
 -0.063590  0.066085  0.000000      2.000000
 -0.089027 -0.022028  0.000000      2.000000
 -0.089027  0.022028  0.000000      2.000000
 -0.025436  0.088113  0.000000      2.000000
  0.063590  0.066085  0.000000      2.000000
  0.029676  0.095456  0.000000      2.000000
 -0.067830  0.073428  0.000000      2.000000
 -0.097505 -0.022028  0.000000      2.000000
 -0.097505  0.022028  0.000000      2.000000
 -0.029676  0.095456  0.000000      2.000000
  0.067830  0.073428  0.000000      2.000000
  0.033915  0.102799  0.000000      2.000000
  0.042394 -0.117485  0.000000      2.000000
  0.008479  0.176227  0.000000      2.000000
  0.008479 -0.176227  0.000000      2.000000
 -0.033915  0.102799  0.000000      2.000000
 -0.042394 -0.117485  0.000000      2.000000
  0.038154  0.110142  0.000000      2.000000
  0.038154 -0.110142  0.000000      2.000000
 -0.000000  0.176227  0.000000      2.000000
  0.000000  0.058742  0.000000      2.000000
 -0.050872  0.029371  0.000000      2.000000
 -0.050872 -0.029371  0.000000      2.000000
  0.004239  0.066085  0.000000      2.000000
 -0.055112  0.036714  0.000000      2.000000
 -0.059351 -0.029371  0.000000      2.000000
 -0.059351  0.029371  0.000000      2.000000
 -0.004239  0.066085  0.000000      2.000000
  0.055112  0.036714  0.000000      2.000000
  0.008479  0.073428  0.000000      2.000000
 -0.059351  0.044057  0.000000      2.000000
 -0.067830 -0.029371  0.000000      2.000000
 -0.067830  0.029371  0.000000      2.000000
 -0.008479  0.073428  0.000000      2.000000
  0.059351  0.044057  0.000000      2.000000
  0.012718  0.080771  0.000000      2.000000
 -0.063590  0.051400  0.000000      2.000000
 -0.076309 -0.029371  0.000000      2.000000
 -0.076309  0.029371  0.000000      2.000000
 -0.012718  0.080771  0.000000      2.000000
  0.063590  0.051400  0.000000      2.000000
  0.016957  0.088113  0.000000      2.000000
 -0.067830  0.058742  0.000000      2.000000
 -0.084787 -0.029371  0.000000      2.000000
 -0.084787  0.029371  0.000000      2.000000
 -0.016957  0.088113  0.000000      2.000000
  0.067830  0.058742  0.000000      2.000000
  0.021197  0.095456  0.000000      2.000000
 -0.072069  0.066085  0.000000      2.000000
 -0.093266 -0.029371  0.000000      2.000000
 -0.093266  0.029371  0.000000      2.000000
 -0.021197  0.095456  0.000000      2.000000
  0.072069  0.066085  0.000000      2.000000
  0.025436  0.102799  0.000000      2.000000
  0.038154 -0.124827  0.000000      2.000000
  0.012718  0.168884  0.000000      2.000000
  0.012718 -0.168884  0.000000      2.000000
 -0.025436  0.102799  0.000000      2.000000
 -0.038154 -0.124827  0.000000      2.000000
  0.029676  0.110142  0.000000      2.000000
  0.033915 -0.117485  0.000000      2.000000
  0.004239  0.168884  0.000000      2.000000
  0.004239 -0.168884  0.000000      2.000000
 -0.029676  0.110142  0.000000      2.000000
 -0.033915 -0.117485  0.000000      2.000000
  0.000000  0.073428  0.000000      2.000000
 -0.063590  0.036714  0.000000      2.000000
 -0.063590 -0.036714  0.000000      2.000000
  0.004239  0.080771  0.000000      2.000000
 -0.067830  0.044057  0.000000      2.000000
 -0.072069 -0.036714  0.000000      2.000000
 -0.072069  0.036714  0.000000      2.000000
 -0.004239  0.080771  0.000000      2.000000
  0.067830  0.044057  0.000000      2.000000
  0.008479  0.088113  0.000000      2.000000
 -0.072069  0.051400  0.000000      2.000000
 -0.080548 -0.036714  0.000000      2.000000
 -0.080548  0.036714  0.000000      2.000000
 -0.008479  0.088113  0.000000      2.000000
  0.072069  0.051400  0.000000      2.000000
  0.012718  0.095456  0.000000      2.000000
 -0.076309  0.058742  0.000000      2.000000
 -0.089027 -0.036714  0.000000      2.000000
 -0.089027  0.036714  0.000000      2.000000
 -0.012718  0.095456  0.000000      2.000000
  0.076309  0.058742  0.000000      2.000000
  0.016957  0.102799  0.000000      2.000000
  0.033915 -0.132170  0.000000      2.000000
  0.016957  0.161541  0.000000      2.000000
  0.016957 -0.161541  0.000000      2.000000
 -0.016957  0.102799  0.000000      2.000000
 -0.033915 -0.132170  0.000000      2.000000
  0.021197  0.110142  0.000000      2.000000
  0.029676 -0.124827  0.000000      2.000000
  0.008479  0.161541  0.000000      2.000000
  0.008479 -0.161541  0.000000      2.000000
 -0.021197  0.110142  0.000000      2.000000
 -0.029676 -0.124827  0.000000      2.000000
  0.025436  0.117485  0.000000      2.000000
  0.025436 -0.117485  0.000000      2.000000
  0.000000  0.161541  0.000000      2.000000
 -0.000000  0.088113  0.000000      2.000000
 -0.076309  0.044057  0.000000      2.000000
 -0.076309 -0.044057  0.000000      2.000000
  0.004239  0.095456  0.000000      2.000000
 -0.080548  0.051400  0.000000      2.000000
 -0.084787 -0.044057  0.000000      2.000000
 -0.084787  0.044057  0.000000      2.000000
 -0.004239  0.095456  0.000000      2.000000
  0.080548  0.051400  0.000000      2.000000
  0.008479  0.102799  0.000000      2.000000
  0.029676 -0.139513  0.000000      2.000000
  0.021197  0.154199  0.000000      2.000000
  0.021197 -0.154199  0.000000      2.000000
 -0.008479  0.102799  0.000000      2.000000
 -0.029676 -0.139513  0.000000      2.000000
  0.012718  0.110142  0.000000      2.000000
  0.025436 -0.132170  0.000000      2.000000
  0.012718  0.154199  0.000000      2.000000
  0.012718 -0.154199  0.000000      2.000000
 -0.012718  0.110142  0.000000      2.000000
 -0.025436 -0.132170  0.000000      2.000000
  0.016957  0.117485  0.000000      2.000000
  0.021197 -0.124827  0.000000      2.000000
  0.004239  0.154199  0.000000      2.000000
  0.004239 -0.154199  0.000000      2.000000
 -0.016957  0.117485  0.000000      2.000000
 -0.021197 -0.124827  0.000000      2.000000
 -0.000000  0.102799  0.000000      2.000000
  0.025436 -0.146856  0.000000      2.000000
  0.025436  0.146856  0.000000      2.000000
  0.004239  0.110142  0.000000      2.000000
  0.021197 -0.139513  0.000000      2.000000
  0.016957  0.146856  0.000000      2.000000
  0.016957 -0.146856  0.000000      2.000000
 -0.004239  0.110142  0.000000      2.000000
 -0.021197 -0.139513  0.000000      2.000000
  0.008479  0.117485  0.000000      2.000000
  0.016957 -0.132170  0.000000      2.000000
  0.008479  0.146856  0.000000      2.000000
  0.008479 -0.146856  0.000000      2.000000
 -0.008479  0.117485  0.000000      2.000000
 -0.016957 -0.132170  0.000000      2.000000
  0.012718  0.124827  0.000000      2.000000
  0.012718 -0.124827  0.000000      2.000000
 -0.000000  0.146856  0.000000      2.000000
  0.000000  0.117485  0.000000      2.000000
  0.012718 -0.139513  0.000000      2.000000
  0.012718  0.139513  0.000000      2.000000
  0.004239  0.124827  0.000000      2.000000
  0.008479 -0.132170  0.000000      2.000000
  0.004239  0.139513  0.000000      2.000000
  0.004239 -0.139513  0.000000      2.000000
 -0.004239  0.124827  0.000000      2.000000
 -0.008479 -0.132170  0.000000      2.000000
  0.000000  0.132170  0.000000      2.000000
 


--------------------------------------------------------------------------------------------------------




 Dimension of arrays:
   k-points           NKPTS =    365   k-points in BZ     NKDIM =    365   number of bands    NBANDS=     48
   number of dos      NEDOS =    301   number of ions     NIONS =     16
   non local maximal  LDIM  =      4   non local SUM 2l+1 LMDIM =      8
   total plane-waves  NPLWV = 139968
   max r-space proj   IRMAX =      1   max aug-charges    IRDMAX=   6803
   dimension x,y,z NGX =    36 NGY =   36 NGZ =  108
   dimension x,y,z NGXF=    72 NGYF=   72 NGZF=  216
   support grid    NGXF=    72 NGYF=   72 NGZF=  216
   ions per type =               2  14
   NGX,Y,Z   is equivalent  to a cutoff of  11.87, 11.87, 11.97 a.u.
   NGXF,Y,Z  is equivalent  to a cutoff of  23.73, 23.73, 23.94 a.u.

 SYSTEM =  SC                                      
 POSCAR =  Graphene-BC3 Hollow with lattice paramet

 Startparameter for this run:
   NWRITE =      2    write-flag & timer
   PREC   = accura    normal or accurate (medium, high low for compatibility)
   ISTART =      0    job   : 0-new  1-cont  2-samecut
   ICHARG =      2    charge: 1-file 2-atom 10-const
   ISPIN  =      1    spin polarized calculation?
   LNONCOLLINEAR =      F non collinear calculations
   LSORBIT =      F    spin-orbit coupling
   INIWAV =      1    electr: 0-lowe 1-rand  2-diag
   LASPH  =      F    aspherical Exc in radial PAW
 Electronic Relaxation 1
   ENCUT  =  450.0 eV  33.07 Ry    5.75 a.u.   8.72  8.72 25.95*2*pi/ulx,y,z
   ENINI  =  450.0     initial cutoff
   ENAUG  =  644.9 eV  augmentation charge cutoff
   NELM   =     64;   NELMIN=  2; NELMDL= -5     # of ELM steps 
   EDIFF  = 0.1E-05   stopping-criterion for ELM
   LREAL  =      F    real-space projection
   NLSPLINE    = F    spline interpolate recip. space projectors
   LCOMPAT=      F    compatible to vasp.4.4
   GGA_COMPAT  = T    GGA compatible to vasp.4.4-vasp.4.6
   LMAXPAW     = -100 max onsite density
   LMAXMIX     =    2 max onsite mixed and CHGCAR
   VOSKOWN=      0    Vosko Wilk Nusair interpolation
   ROPT   =    0.00000   0.00000
 Ionic relaxation
   EDIFFG = -.1E-02   stopping-criterion for IOM
   NSW    =      0    number of steps for IOM
   NBLOCK =      1;   KBLOCK =      1    inner block; outer block 
   IBRION =     -1    ionic relax: 0-MD 1-quasi-New 2-CG
   NFREE  =      0    steps in history (QN), initial steepest desc. (CG)
   ISIF   =      2    stress and relaxation
   IWAVPR =     10    prediction:  0-non 1-charg 2-wave 3-comb
   ISYM   =      2    0-nonsym 1-usesym 2-fastsym
   LCORR  =      T    Harris-Foulkes like correction to forces

   POTIM  = 0.5000    time-step for ionic-motion
   TEIN   =    0.0    initial temperature
   TEBEG  =    0.0;   TEEND  =   0.0 temperature during run
   SMASS  =  -3.00    Nose mass-parameter (am)
   estimated Nose-frequenzy (Omega)   =  0.10E-29 period in steps = 0.13E+47 mass=  -0.581E-27a.u.
   SCALEE = 1.0000    scale energy and forces
   NPACO  =    256;   APACO  = 10.0  distance and # of slots for P.C.
   PSTRESS=    0.0 pullay stress

  Mass of Ions in am
   POMASS =  10.81 12.01
  Ionic Valenz
   ZVAL   =   3.00  4.00
  Atomic Wigner-Seitz radii
   RWIGS  =  -1.00 -1.00
  virtual crystal weights 
   VCA    =   1.00  1.00
   NELECT =      62.0000    total number of electrons
   NUPDOWN=      -1.0000    fix difference up-down

 DOS related values:
   EMIN   =  10.00;   EMAX   =-10.00  energy-range for DOS
   EFERMI =   0.00
   ISMEAR =     0;   SIGMA  =   0.10  broadening in eV -4-tet -1-fermi 0-gaus

 Electronic relaxation 2 (details)
   IALGO  =     38    algorithm
   LDIAG  =      T    sub-space diagonalisation (order eigenvalues)
   LSUBROT=      F    optimize rotation matrix (better conditioning)
   TURBO    =      0    0=normal 1=particle mesh
   IRESTART =      0    0=no restart 2=restart with 2 vectors
   NREBOOT  =      0    no. of reboots
   NMIN     =      0    reboot dimension
   EREF     =   0.00    reference energy to select bands
   IMIX   =      4    mixing-type and parameters
     AMIX     =   0.40;   BMIX     =  1.00
     AMIX_MAG =   1.60;   BMIX_MAG =  1.00
     AMIN     =   0.10
     WC   =   100.;   INIMIX=   1;  MIXPRE=   1;  MAXMIX= -45

 Intra band minimization:
   WEIMIN = 0.0000     energy-eigenvalue tresh-hold
   EBREAK =  0.52E-08  absolut break condition
   DEPER  =   0.30     relativ break condition  

   TIME   =   0.40     timestep for ELM

  volume/ion in A,a.u.               =      20.66       139.40
  Fermi-wavevector in a.u.,A,eV,Ry     =   0.937162  1.770980 11.949627  0.878273
  Thomas-Fermi vector in A             =   2.064245
 
 Write flags
   LWAVE        =      T    write WAVECAR
   LDOWNSAMPLE  =      F    k-point downsampling of WAVECAR
   LCHARG       =      T    write CHGCAR
   LVTOT        =      F    write LOCPOT, total local potential
   LVHAR        =      F    write LOCPOT, Hartree potential only
   LELF         =      F    write electronic localiz. function (ELF)
   LORBIT       =      0    0 simple, 1 ext, 2 COOP (PROOUT), +10 PAW based schemes


 Dipole corrections
   LMONO  =      F    monopole corrections only (constant potential shift)
   LDIPOL =      F    correct potential (dipole corrections)
   IDIPOL =      0    1-x, 2-y, 3-z, 4-all directions 
   EPSILON=  1.0000000 bulk dielectric constant

 Exchange correlation treatment:
   GGA     =    PE    GGA type
   LEXCH   =     8    internal setting for exchange type
   LIBXC   =     F    Libxc                    
   VOSKOWN =     0    Vosko Wilk Nusair interpolation
   LHFCALC =     F    Hartree Fock is set to
   LHFONE  =     F    Hartree Fock one center treatment
   AEXX    =    0.0000 exact exchange contribution

 Linear response parameters
   LEPSILON=     F    determine dielectric tensor
   LRPA    =     F    only Hartree local field effects (RPA)
   LNABLA  =     F    use nabla operator in PAW spheres
   LVEL    =     F    velocity operator in full k-point grid
   CSHIFT  =0.1000    complex shift for real part using Kramers Kronig
   OMEGAMAX=  -1.0    maximum frequency
   DEG_THRESHOLD= 0.2000000E-02 threshold for treating states as degnerate
   RTIME   =   -0.100 relaxation time in fs
  (WPLASMAI=    0.000 imaginary part of plasma frequency in eV, 0.658/RTIME)
   DFIELD  = 0.0000000 0.0000000 0.0000000 field for delta impulse in time
 
  Optional k-point grid parameters
   LKPOINTS_OPT  =     F    use optional k-point grid
   KPOINTS_OPT_MODE=     1    mode for optional k-point grid
 
 Orbital magnetization related:
   ORBITALMAG=     F  switch on orbital magnetization
   LCHIMAG   =     F  perturbation theory with respect to B field
   DQ        =  0.001000  dq finite difference perturbation B field
   LLRAUG    =     F  two centre corrections for induced B field



--------------------------------------------------------------------------------------------------------


 Static calculation
 charge density and potential will be updated during run
 non-spin polarized calculation
 Variant of blocked Davidson
 Davidson routine will perform the subspace rotation
 perform sub-space diagonalisation
    after iterative eigenvector-optimisation
 modified Broyden-mixing scheme, WC =      100.0
 initial mixing is a Kerker type mixing with AMIX =  0.4000 and BMIX =      1.0000
 Hartree-type preconditioning will be used
 using additional bands           17
 reciprocal scheme for non local part
 use partial core corrections
 calculate Harris-corrections to forces 
   (improved forces if not selfconsistent)
 use gradient corrections 
 use of overlap-Matrix (Vanderbilt PP)
 Gauss-broadening in eV      SIGMA  =   0.10


--------------------------------------------------------------------------------------------------------


  energy-cutoff  :      450.00
  volume of cell :      330.50
      direct lattice vectors                 reciprocal lattice vectors
     4.368232137  2.522000000  0.000000000     0.114462781  0.198255353  0.000000000
    -4.368232137  2.522000000  0.000000000    -0.114462781  0.198255353  0.000000000
     0.000000000  0.000000000 15.000000000     0.000000000  0.000000000  0.066666667

  length of vectors
     5.044000000  5.044000000 15.000000000     0.228925563  0.228925563  0.066666667


 
 k-points in units of 2pi/SCALE and weight: k-points                                
   0.00000000  0.00000000  0.00000000       0.001
   0.00423936  0.00734279  0.00000000       0.003
  -0.00423936  0.00734279  0.00000000       0.003
  -0.00847872 -0.00000000  0.00000000       0.003
   0.00847872  0.01468558  0.00000000       0.003
  -0.00847872  0.01468558  0.00000000       0.003
  -0.01695745 -0.00000000  0.00000000       0.003
   0.01271809  0.02202837  0.00000000       0.003
  -0.01271809  0.02202837  0.00000000       0.003
  -0.02543617 -0.00000000  0.00000000       0.003
   0.01695745  0.02937116  0.00000000       0.003
  -0.01695745  0.02937116  0.00000000       0.003
  -0.03391490  0.00000000  0.00000000       0.003
   0.02119681  0.03671395  0.00000000       0.003
  -0.02119681  0.03671395  0.00000000       0.003
  -0.04239362 -0.00000000  0.00000000       0.003
   0.02543617  0.04405675  0.00000000       0.003
  -0.02543617  0.04405675  0.00000000       0.003
  -0.05087235 -0.00000000  0.00000000       0.003
   0.02967554  0.05139954  0.00000000       0.003
  -0.02967554  0.05139954  0.00000000       0.003
  -0.05935107 -0.00000000  0.00000000       0.003
   0.03391490  0.05874233  0.00000000       0.003
  -0.03391490  0.05874233  0.00000000       0.003
  -0.06782980 -0.00000000  0.00000000       0.003
   0.03815426  0.06608512  0.00000000       0.003
  -0.03815426  0.06608512  0.00000000       0.003
  -0.07630852 -0.00000000  0.00000000       0.003
   0.04239362  0.07342791  0.00000000       0.003
  -0.04239362  0.07342791  0.00000000       0.003
  -0.08478725  0.00000000  0.00000000       0.003
   0.04663298  0.08077070  0.00000000       0.003
  -0.04663298  0.08077070  0.00000000       0.003
  -0.09326597  0.00000000  0.00000000       0.003
   0.05087235  0.08811349  0.00000000       0.003
  -0.05087235  0.08811349  0.00000000       0.003
  -0.10174469 -0.00000000  0.00000000       0.003
   0.05511171  0.09545628  0.00000000       0.003
  -0.05511171  0.09545628  0.00000000       0.003
  -0.11022342  0.00000000  0.00000000       0.003
  -0.00000000  0.01468558  0.00000000       0.003
  -0.01271809  0.00734279  0.00000000       0.003
  -0.01271809 -0.00734279  0.00000000       0.003
   0.00423936  0.02202837  0.00000000       0.003
  -0.01695745  0.01468558  0.00000000       0.003
  -0.02119681 -0.00734279  0.00000000       0.003
  -0.02119681  0.00734279  0.00000000       0.003
  -0.00423936  0.02202837  0.00000000       0.003
   0.01695745  0.01468558  0.00000000       0.003
   0.00847872  0.02937116  0.00000000       0.003
  -0.02119681  0.02202837  0.00000000       0.003
  -0.02967554 -0.00734279  0.00000000       0.003
  -0.02967554  0.00734279  0.00000000       0.003
  -0.00847872  0.02937116  0.00000000       0.003
   0.02119681  0.02202837  0.00000000       0.003
   0.01271809  0.03671395  0.00000000       0.003
  -0.02543617  0.02937116  0.00000000       0.003
  -0.03815426 -0.00734279  0.00000000       0.003
  -0.03815426  0.00734279  0.00000000       0.003
  -0.01271809  0.03671395  0.00000000       0.003
   0.02543617  0.02937116  0.00000000       0.003
   0.01695745  0.04405675  0.00000000       0.003
  -0.02967554  0.03671395  0.00000000       0.003
  -0.04663298 -0.00734279  0.00000000       0.003
  -0.04663298  0.00734279  0.00000000       0.003
  -0.01695745  0.04405675  0.00000000       0.003
   0.02967554  0.03671395  0.00000000       0.003
   0.02119681  0.05139954  0.00000000       0.003
  -0.03391490  0.04405675  0.00000000       0.003
  -0.05511171 -0.00734279  0.00000000       0.003
  -0.05511171  0.00734279  0.00000000       0.003
  -0.02119681  0.05139954  0.00000000       0.003
   0.03391490  0.04405675  0.00000000       0.003
   0.02543617  0.05874233  0.00000000       0.003
  -0.03815426  0.05139954  0.00000000       0.003
  -0.06359043 -0.00734279  0.00000000       0.003
  -0.06359043  0.00734279  0.00000000       0.003
  -0.02543617  0.05874233  0.00000000       0.003
   0.03815426  0.05139954  0.00000000       0.003
   0.02967554  0.06608512  0.00000000       0.003
  -0.04239362  0.05874233  0.00000000       0.003
  -0.07206916 -0.00734279  0.00000000       0.003
  -0.07206916  0.00734279  0.00000000       0.003
  -0.02967554  0.06608512  0.00000000       0.003
   0.04239362  0.05874233  0.00000000       0.003
   0.03391490  0.07342791  0.00000000       0.003
  -0.04663298  0.06608512  0.00000000       0.003
  -0.08054788 -0.00734279  0.00000000       0.003
  -0.08054788  0.00734279  0.00000000       0.003
  -0.03391490  0.07342791  0.00000000       0.003
   0.04663298  0.06608512  0.00000000       0.003
   0.03815426  0.08077070  0.00000000       0.003
  -0.05087235  0.07342791  0.00000000       0.003
  -0.08902661 -0.00734279  0.00000000       0.003
  -0.08902661  0.00734279  0.00000000       0.003
  -0.03815426  0.08077070  0.00000000       0.003
   0.05087235  0.07342791  0.00000000       0.003
   0.04239362  0.08811349  0.00000000       0.003
  -0.05511171  0.08077070  0.00000000       0.003
  -0.09750533 -0.00734279  0.00000000       0.003
  -0.09750533  0.00734279  0.00000000       0.003
  -0.04239362  0.08811349  0.00000000       0.003
   0.05511171  0.08077070  0.00000000       0.003
   0.04663298  0.09545628  0.00000000       0.003
  -0.05935107  0.08811349  0.00000000       0.003
  -0.10598406 -0.00734279  0.00000000       0.003
  -0.10598406  0.00734279  0.00000000       0.003
  -0.04663298  0.09545628  0.00000000       0.003
   0.05935107  0.08811349  0.00000000       0.003
   0.05087235  0.10279907  0.00000000       0.003
   0.05087235 -0.10279907  0.00000000       0.003
   0.00000000  0.19091256  0.00000000       0.003
  -0.00000000  0.02937116  0.00000000       0.003
  -0.02543617  0.01468558  0.00000000       0.003
  -0.02543617 -0.01468558  0.00000000       0.003
   0.00423936  0.03671395  0.00000000       0.003
  -0.02967554  0.02202837  0.00000000       0.003
  -0.03391490 -0.01468558  0.00000000       0.003
  -0.03391490  0.01468558  0.00000000       0.003
  -0.00423936  0.03671395  0.00000000       0.003
   0.02967554  0.02202837  0.00000000       0.003
   0.00847872  0.04405675  0.00000000       0.003
  -0.03391490  0.02937116  0.00000000       0.003
  -0.04239362 -0.01468558  0.00000000       0.003
  -0.04239362  0.01468558  0.00000000       0.003
  -0.00847872  0.04405675  0.00000000       0.003
   0.03391490  0.02937116  0.00000000       0.003
   0.01271809  0.05139954  0.00000000       0.003
  -0.03815426  0.03671395  0.00000000       0.003
  -0.05087235 -0.01468558  0.00000000       0.003
  -0.05087235  0.01468558  0.00000000       0.003
  -0.01271809  0.05139954  0.00000000       0.003
   0.03815426  0.03671395  0.00000000       0.003
   0.01695745  0.05874233  0.00000000       0.003
  -0.04239362  0.04405675  0.00000000       0.003
  -0.05935107 -0.01468558  0.00000000       0.003
  -0.05935107  0.01468558  0.00000000       0.003
  -0.01695745  0.05874233  0.00000000       0.003
   0.04239362  0.04405675  0.00000000       0.003
   0.02119681  0.06608512  0.00000000       0.003
  -0.04663298  0.05139954  0.00000000       0.003
  -0.06782980 -0.01468558  0.00000000       0.003
  -0.06782980  0.01468558  0.00000000       0.003
  -0.02119681  0.06608512  0.00000000       0.003
   0.04663298  0.05139954  0.00000000       0.003
   0.02543617  0.07342791  0.00000000       0.003
  -0.05087235  0.05874233  0.00000000       0.003
  -0.07630852 -0.01468558  0.00000000       0.003
  -0.07630852  0.01468558  0.00000000       0.003
  -0.02543617  0.07342791  0.00000000       0.003
   0.05087235  0.05874233  0.00000000       0.003
   0.02967554  0.08077070  0.00000000       0.003
  -0.05511171  0.06608512  0.00000000       0.003
  -0.08478725 -0.01468558  0.00000000       0.003
  -0.08478725  0.01468558  0.00000000       0.003
  -0.02967554  0.08077070  0.00000000       0.003
   0.05511171  0.06608512  0.00000000       0.003
   0.03391490  0.08811349  0.00000000       0.003
  -0.05935107  0.07342791  0.00000000       0.003
  -0.09326597 -0.01468558  0.00000000       0.003
  -0.09326597  0.01468558  0.00000000       0.003
  -0.03391490  0.08811349  0.00000000       0.003
   0.05935107  0.07342791  0.00000000       0.003
   0.03815426  0.09545628  0.00000000       0.003
  -0.06359043  0.08077070  0.00000000       0.003
  -0.10174469 -0.01468558  0.00000000       0.003
  -0.10174469  0.01468558  0.00000000       0.003
  -0.03815426  0.09545628  0.00000000       0.003
   0.06359043  0.08077070  0.00000000       0.003
   0.04239362  0.10279907  0.00000000       0.003
   0.04663298 -0.11014186  0.00000000       0.003
   0.00423936  0.18356977  0.00000000       0.003
   0.00423936 -0.18356977  0.00000000       0.003
  -0.04239362  0.10279907  0.00000000       0.003
  -0.04663298 -0.11014186  0.00000000       0.003
   0.00000000  0.04405675  0.00000000       0.003
  -0.03815426  0.02202837  0.00000000       0.003
  -0.03815426 -0.02202837  0.00000000       0.003
   0.00423936  0.05139954  0.00000000       0.003
  -0.04239362  0.02937116  0.00000000       0.003
  -0.04663298 -0.02202837  0.00000000       0.003
  -0.04663298  0.02202837  0.00000000       0.003
  -0.00423936  0.05139954  0.00000000       0.003
   0.04239362  0.02937116  0.00000000       0.003
   0.00847872  0.05874233  0.00000000       0.003
  -0.04663298  0.03671395  0.00000000       0.003
  -0.05511171 -0.02202837  0.00000000       0.003
  -0.05511171  0.02202837  0.00000000       0.003
  -0.00847872  0.05874233  0.00000000       0.003
   0.04663298  0.03671395  0.00000000       0.003
   0.01271809  0.06608512  0.00000000       0.003
  -0.05087235  0.04405675  0.00000000       0.003
  -0.06359043 -0.02202837  0.00000000       0.003
  -0.06359043  0.02202837  0.00000000       0.003
  -0.01271809  0.06608512  0.00000000       0.003
   0.05087235  0.04405675  0.00000000       0.003
   0.01695745  0.07342791  0.00000000       0.003
  -0.05511171  0.05139954  0.00000000       0.003
  -0.07206916 -0.02202837  0.00000000       0.003
  -0.07206916  0.02202837  0.00000000       0.003
  -0.01695745  0.07342791  0.00000000       0.003
   0.05511171  0.05139954  0.00000000       0.003
   0.02119681  0.08077070  0.00000000       0.003
  -0.05935107  0.05874233  0.00000000       0.003
  -0.08054788 -0.02202837  0.00000000       0.003
  -0.08054788  0.02202837  0.00000000       0.003
  -0.02119681  0.08077070  0.00000000       0.003
   0.05935107  0.05874233  0.00000000       0.003
   0.02543617  0.08811349  0.00000000       0.003
  -0.06359043  0.06608512  0.00000000       0.003
  -0.08902661 -0.02202837  0.00000000       0.003
  -0.08902661  0.02202837  0.00000000       0.003
  -0.02543617  0.08811349  0.00000000       0.003
   0.06359043  0.06608512  0.00000000       0.003
   0.02967554  0.09545628  0.00000000       0.003
  -0.06782980  0.07342791  0.00000000       0.003
  -0.09750533 -0.02202837  0.00000000       0.003
  -0.09750533  0.02202837  0.00000000       0.003
  -0.02967554  0.09545628  0.00000000       0.003
   0.06782980  0.07342791  0.00000000       0.003
   0.03391490  0.10279907  0.00000000       0.003
   0.04239362 -0.11748465  0.00000000       0.003
   0.00847872  0.17622698  0.00000000       0.003
   0.00847872 -0.17622698  0.00000000       0.003
  -0.03391490  0.10279907  0.00000000       0.003
  -0.04239362 -0.11748465  0.00000000       0.003
   0.03815426  0.11014186  0.00000000       0.003
   0.03815426 -0.11014186  0.00000000       0.003
  -0.00000000  0.17622698  0.00000000       0.003
   0.00000000  0.05874233  0.00000000       0.003
  -0.05087235  0.02937116  0.00000000       0.003
  -0.05087235 -0.02937116  0.00000000       0.003
   0.00423936  0.06608512  0.00000000       0.003
  -0.05511171  0.03671395  0.00000000       0.003
  -0.05935107 -0.02937116  0.00000000       0.003
  -0.05935107  0.02937116  0.00000000       0.003
  -0.00423936  0.06608512  0.00000000       0.003
   0.05511171  0.03671395  0.00000000       0.003
   0.00847872  0.07342791  0.00000000       0.003
  -0.05935107  0.04405675  0.00000000       0.003
  -0.06782980 -0.02937116  0.00000000       0.003
  -0.06782980  0.02937116  0.00000000       0.003
  -0.00847872  0.07342791  0.00000000       0.003
   0.05935107  0.04405675  0.00000000       0.003
   0.01271809  0.08077070  0.00000000       0.003
  -0.06359043  0.05139954  0.00000000       0.003
  -0.07630852 -0.02937116  0.00000000       0.003
  -0.07630852  0.02937116  0.00000000       0.003
  -0.01271809  0.08077070  0.00000000       0.003
   0.06359043  0.05139954  0.00000000       0.003
   0.01695745  0.08811349  0.00000000       0.003
  -0.06782980  0.05874233  0.00000000       0.003
  -0.08478725 -0.02937116  0.00000000       0.003
  -0.08478725  0.02937116  0.00000000       0.003
  -0.01695745  0.08811349  0.00000000       0.003
   0.06782980  0.05874233  0.00000000       0.003
   0.02119681  0.09545628  0.00000000       0.003
  -0.07206916  0.06608512  0.00000000       0.003
  -0.09326597 -0.02937116  0.00000000       0.003
  -0.09326597  0.02937116  0.00000000       0.003
  -0.02119681  0.09545628  0.00000000       0.003
   0.07206916  0.06608512  0.00000000       0.003
   0.02543617  0.10279907  0.00000000       0.003
   0.03815426 -0.12482744  0.00000000       0.003
   0.01271809  0.16888419  0.00000000       0.003
   0.01271809 -0.16888419  0.00000000       0.003
  -0.02543617  0.10279907  0.00000000       0.003
  -0.03815426 -0.12482744  0.00000000       0.003
   0.02967554  0.11014186  0.00000000       0.003
   0.03391490 -0.11748465  0.00000000       0.003
   0.00423936  0.16888419  0.00000000       0.003
   0.00423936 -0.16888419  0.00000000       0.003
  -0.02967554  0.11014186  0.00000000       0.003
  -0.03391490 -0.11748465  0.00000000       0.003
   0.00000000  0.07342791  0.00000000       0.003
  -0.06359043  0.03671395  0.00000000       0.003
  -0.06359043 -0.03671395  0.00000000       0.003
   0.00423936  0.08077070  0.00000000       0.003
  -0.06782980  0.04405675  0.00000000       0.003
  -0.07206916 -0.03671395  0.00000000       0.003
  -0.07206916  0.03671395  0.00000000       0.003
  -0.00423936  0.08077070  0.00000000       0.003
   0.06782980  0.04405675  0.00000000       0.003
   0.00847872  0.08811349  0.00000000       0.003
  -0.07206916  0.05139954  0.00000000       0.003
  -0.08054788 -0.03671395  0.00000000       0.003
  -0.08054788  0.03671395  0.00000000       0.003
  -0.00847872  0.08811349  0.00000000       0.003
   0.07206916  0.05139954  0.00000000       0.003
   0.01271809  0.09545628  0.00000000       0.003
  -0.07630852  0.05874233  0.00000000       0.003
  -0.08902661 -0.03671395  0.00000000       0.003
  -0.08902661  0.03671395  0.00000000       0.003
  -0.01271809  0.09545628  0.00000000       0.003
   0.07630852  0.05874233  0.00000000       0.003
   0.01695745  0.10279907  0.00000000       0.003
   0.03391490 -0.13217024  0.00000000       0.003
   0.01695745  0.16154140  0.00000000       0.003
   0.01695745 -0.16154140  0.00000000       0.003
  -0.01695745  0.10279907  0.00000000       0.003
  -0.03391490 -0.13217024  0.00000000       0.003
   0.02119681  0.11014186  0.00000000       0.003
   0.02967554 -0.12482744  0.00000000       0.003
   0.00847872  0.16154140  0.00000000       0.003
   0.00847872 -0.16154140  0.00000000       0.003
  -0.02119681  0.11014186  0.00000000       0.003
  -0.02967554 -0.12482744  0.00000000       0.003
   0.02543617  0.11748465  0.00000000       0.003
   0.02543617 -0.11748465  0.00000000       0.003
   0.00000000  0.16154140  0.00000000       0.003
  -0.00000000  0.08811349  0.00000000       0.003
  -0.07630852  0.04405675  0.00000000       0.003
  -0.07630852 -0.04405675  0.00000000       0.003
   0.00423936  0.09545628  0.00000000       0.003
  -0.08054788  0.05139954  0.00000000       0.003
  -0.08478725 -0.04405675  0.00000000       0.003
  -0.08478725  0.04405675  0.00000000       0.003
  -0.00423936  0.09545628  0.00000000       0.003
   0.08054788  0.05139954  0.00000000       0.003
   0.00847872  0.10279907  0.00000000       0.003
   0.02967554 -0.13951303  0.00000000       0.003
   0.02119681  0.15419861  0.00000000       0.003
   0.02119681 -0.15419861  0.00000000       0.003
  -0.00847872  0.10279907  0.00000000       0.003
  -0.02967554 -0.13951303  0.00000000       0.003
   0.01271809  0.11014186  0.00000000       0.003
   0.02543617 -0.13217024  0.00000000       0.003
   0.01271809  0.15419861  0.00000000       0.003
   0.01271809 -0.15419861  0.00000000       0.003
  -0.01271809  0.11014186  0.00000000       0.003
  -0.02543617 -0.13217024  0.00000000       0.003
   0.01695745  0.11748465  0.00000000       0.003
   0.02119681 -0.12482744  0.00000000       0.003
   0.00423936  0.15419861  0.00000000       0.003
   0.00423936 -0.15419861  0.00000000       0.003
  -0.01695745  0.11748465  0.00000000       0.003
  -0.02119681 -0.12482744  0.00000000       0.003
  -0.00000000  0.10279907  0.00000000       0.003
   0.02543617 -0.14685582  0.00000000       0.003
   0.02543617  0.14685582  0.00000000       0.003
   0.00423936  0.11014186  0.00000000       0.003
   0.02119681 -0.13951303  0.00000000       0.003
   0.01695745  0.14685582  0.00000000       0.003
   0.01695745 -0.14685582  0.00000000       0.003
  -0.00423936  0.11014186  0.00000000       0.003
  -0.02119681 -0.13951303  0.00000000       0.003
   0.00847872  0.11748465  0.00000000       0.003
   0.01695745 -0.13217024  0.00000000       0.003
   0.00847872  0.14685582  0.00000000       0.003
   0.00847872 -0.14685582  0.00000000       0.003
  -0.00847872  0.11748465  0.00000000       0.003
  -0.01695745 -0.13217024  0.00000000       0.003
   0.01271809  0.12482744  0.00000000       0.003
   0.01271809 -0.12482744  0.00000000       0.003
  -0.00000000  0.14685582  0.00000000       0.003
   0.00000000  0.11748465  0.00000000       0.003
   0.01271809 -0.13951303  0.00000000       0.003
   0.01271809  0.13951303  0.00000000       0.003
   0.00423936  0.12482744  0.00000000       0.003
   0.00847872 -0.13217024  0.00000000       0.003
   0.00423936  0.13951303  0.00000000       0.003
   0.00423936 -0.13951303  0.00000000       0.003
  -0.00423936  0.12482744  0.00000000       0.003
  -0.00847872 -0.13217024  0.00000000       0.003
   0.00000000  0.13217024  0.00000000       0.003
 
 k-points in reciprocal lattice and weights: k-points                                
   0.00000000  0.00000000  0.00000000       0.001
   0.03703704 -0.00000000  0.00000000       0.003
  -0.00000000  0.03703704  0.00000000       0.003
  -0.03703704  0.03703704  0.00000000       0.003
   0.07407407 -0.00000000  0.00000000       0.003
  -0.00000000  0.07407407  0.00000000       0.003
  -0.07407407  0.07407407  0.00000000       0.003
   0.11111111  0.00000000  0.00000000       0.003
  -0.00000000  0.11111111  0.00000000       0.003
  -0.11111111  0.11111111  0.00000000       0.003
   0.14814815 -0.00000000  0.00000000       0.003
  -0.00000000  0.14814815  0.00000000       0.003
  -0.14814815  0.14814815  0.00000000       0.003
   0.18518519  0.00000000  0.00000000       0.003
  -0.00000000  0.18518519  0.00000000       0.003
  -0.18518519  0.18518519  0.00000000       0.003
   0.22222222  0.00000000  0.00000000       0.003
  -0.00000000  0.22222222  0.00000000       0.003
  -0.22222222  0.22222222  0.00000000       0.003
   0.25925926 -0.00000000  0.00000000       0.003
  -0.00000000  0.25925926  0.00000000       0.003
  -0.25925926  0.25925926  0.00000000       0.003
   0.29629630 -0.00000000  0.00000000       0.003
  -0.00000000  0.29629630  0.00000000       0.003
  -0.29629630  0.29629630  0.00000000       0.003
   0.33333333  0.00000000  0.00000000       0.003
  -0.00000000  0.33333333  0.00000000       0.003
  -0.33333333  0.33333333  0.00000000       0.003
   0.37037037 -0.00000000  0.00000000       0.003
  -0.00000000  0.37037037  0.00000000       0.003
  -0.37037037  0.37037037  0.00000000       0.003
   0.40740741 -0.00000000  0.00000000       0.003
  -0.00000000  0.40740741  0.00000000       0.003
  -0.40740741  0.40740741  0.00000000       0.003
   0.44444444  0.00000000  0.00000000       0.003
  -0.00000000  0.44444444  0.00000000       0.003
  -0.44444444  0.44444444  0.00000000       0.003
   0.48148148 -0.00000000  0.00000000       0.003
  -0.00000000  0.48148148  0.00000000       0.003
  -0.48148148  0.48148148  0.00000000       0.003
   0.03703704  0.03703704  0.00000000       0.003
  -0.03703704  0.07407407  0.00000000       0.003
  -0.07407407  0.03703704  0.00000000       0.003
   0.07407407  0.03703704  0.00000000       0.003
  -0.03703704  0.11111111  0.00000000       0.003
  -0.11111111  0.07407407  0.00000000       0.003
  -0.07407407  0.11111111  0.00000000       0.003
   0.03703704  0.07407407  0.00000000       0.003
   0.11111111 -0.03703704  0.00000000       0.003
   0.11111111  0.03703704  0.00000000       0.003
  -0.03703704  0.14814815  0.00000000       0.003
  -0.14814815  0.11111111  0.00000000       0.003
  -0.11111111  0.14814815  0.00000000       0.003
   0.03703704  0.11111111  0.00000000       0.003
   0.14814815 -0.03703704  0.00000000       0.003
   0.14814815  0.03703704  0.00000000       0.003
  -0.03703704  0.18518519  0.00000000       0.003
  -0.18518519  0.14814815  0.00000000       0.003
  -0.14814815  0.18518519  0.00000000       0.003
   0.03703704  0.14814815  0.00000000       0.003
   0.18518519 -0.03703704  0.00000000       0.003
   0.18518519  0.03703704  0.00000000       0.003
  -0.03703704  0.22222222  0.00000000       0.003
  -0.22222222  0.18518519  0.00000000       0.003
  -0.18518519  0.22222222  0.00000000       0.003
   0.03703704  0.18518519  0.00000000       0.003
   0.22222222 -0.03703704  0.00000000       0.003
   0.22222222  0.03703704  0.00000000       0.003
  -0.03703704  0.25925926  0.00000000       0.003
  -0.25925926  0.22222222  0.00000000       0.003
  -0.22222222  0.25925926  0.00000000       0.003
   0.03703704  0.22222222  0.00000000       0.003
   0.25925926 -0.03703704  0.00000000       0.003
   0.25925926  0.03703704  0.00000000       0.003
  -0.03703704  0.29629630  0.00000000       0.003
[...]
     33       0.7309      0.00000
     34       1.2524      0.00000
     35       4.6976      0.00000
     36       5.0661      0.00000
     37       5.1449      0.00000
     38       5.4254      0.00000
     39       5.4690      0.00000
     40       5.7059      0.00000
     41       5.7814      0.00000
     42       6.0539      0.00000
     43       6.3315      0.00000
     44       6.7684      0.00000
     45       6.9485      0.00000
     46       7.1595      0.00000
     47       7.2499      0.00000
     48       7.4709      0.00000

 k-point   361 :       0.3704    0.3333    0.0000
  band No.  band energies     occupation 
      1     -18.1914      2.00000
      2     -17.9867      2.00000
      3     -17.7829      2.00000
      4     -17.2758      2.00000
      5     -15.3998      2.00000
      6     -15.2232      2.00000
      7     -13.4953      2.00000
      8     -13.0768      2.00000
      9     -10.9111      2.00000
     10     -10.8434      2.00000
     11     -10.5301      2.00000
     12      -8.9402      2.00000
     13      -8.8886      2.00000
     14      -8.5979      2.00000
     15      -8.2318      2.00000
     16      -7.3597      2.00000
     17      -7.0589      2.00000
     18      -6.8136      2.00000
     19      -6.3973      2.00000
     20      -6.2377      2.00000
     21      -6.0647      2.00000
     22      -5.9701      2.00000
     23      -5.7982      2.00000
     24      -5.6808      2.00000
     25      -5.1054      2.00000
     26      -4.9080      2.00000
     27      -4.1369      2.00000
     28      -4.1087      2.00000
     29      -3.8569      2.00000
     30      -3.8092      2.00000
     31      -1.1933      1.99127
     32      -0.6360      0.00000
     33       0.7301      0.00000
     34       1.2536      0.00000
     35       4.6976      0.00000
     36       5.0652      0.00000
     37       5.1449      0.00000
     38       5.4254      0.00000
     39       5.4698      0.00000
     40       5.7059      0.00000
     41       5.7815      0.00000
     42       6.0538      0.00000
     43       6.3316      0.00000
     44       6.7683      0.00000
     45       6.9489      0.00000
     46       7.1605      0.00000
     47       7.2497      0.00000
     48       7.4704      0.00000

 k-point   362 :      -0.3333   -0.3704    0.0000
  band No.  band energies     occupation 
      1     -18.1914      2.00000
      2     -17.9867      2.00000
      3     -17.7829      2.00000
      4     -17.2758      2.00000
      5     -15.3998      2.00000
      6     -15.2232      2.00000
      7     -13.4953      2.00000
      8     -13.0768      2.00000
      9     -10.9110      2.00000
     10     -10.8436      2.00000
     11     -10.5300      2.00000
     12      -8.9402      2.00000
     13      -8.8886      2.00000
     14      -8.5979      2.00000
     15      -8.2318      2.00000
     16      -7.3597      2.00000
     17      -7.0589      2.00000
     18      -6.8135      2.00000
     19      -6.3972      2.00000
     20      -6.2378      2.00000
     21      -6.0645      2.00000
     22      -5.9701      2.00000
     23      -5.7983      2.00000
     24      -5.6808      2.00000
     25      -5.1054      2.00000
     26      -4.9080      2.00000
     27      -4.1370      2.00000
     28      -4.1087      2.00000
     29      -3.8569      2.00000
     30      -3.8092      2.00000
     31      -1.1942      1.99157
     32      -0.6349      0.00000
     33       0.7309      0.00000
     34       1.2524      0.00000
     35       4.6976      0.00000
     36       5.0661      0.00000
     37       5.1449      0.00000
     38       5.4254      0.00000
     39       5.4690      0.00000
     40       5.7059      0.00000
     41       5.7814      0.00000
     42       6.0539      0.00000
     43       6.3315      0.00000
     44       6.7684      0.00000
     45       6.9485      0.00000
     46       7.1595      0.00000
     47       7.2499      0.00000
     48       7.4709      0.00000

 k-point   363 :       0.2963    0.3333    0.0000
  band No.  band energies     occupation 
      1     -18.1914      2.00000
      2     -17.9867      2.00000
      3     -17.7829      2.00000
      4     -17.2758      2.00000
      5     -15.3998      2.00000
      6     -15.2232      2.00000
      7     -13.4953      2.00000
      8     -13.0768      2.00000
      9     -10.9111      2.00000
     10     -10.8434      2.00000
     11     -10.5301      2.00000
     12      -8.9402      2.00000
     13      -8.8886      2.00000
     14      -8.5979      2.00000
     15      -8.2318      2.00000
     16      -7.3597      2.00000
     17      -7.0589      2.00000
     18      -6.8136      2.00000
     19      -6.3973      2.00000
     20      -6.2377      2.00000
     21      -6.0647      2.00000
     22      -5.9701      2.00000
     23      -5.7982      2.00000
     24      -5.6808      2.00000
     25      -5.1054      2.00000
     26      -4.9080      2.00000
     27      -4.1369      2.00000
     28      -4.1087      2.00000
     29      -3.8569      2.00000
     30      -3.8092      2.00000
     31      -1.1933      1.99127
     32      -0.6360      0.00000
     33       0.7301      0.00000
     34       1.2536      0.00000
     35       4.6976      0.00000
     36       5.0652      0.00000
     37       5.1449      0.00000
     38       5.4254      0.00000
     39       5.4698      0.00000
     40       5.7059      0.00000
     41       5.7815      0.00000
     42       6.0538      0.00000
     43       6.3316      0.00000
     44       6.7683      0.00000
     45       6.9489      0.00000
     46       7.1605      0.00000
     47       7.2497      0.00000
     48       7.4704      0.00000

 k-point   364 :      -0.3704   -0.2963    0.0000
  band No.  band energies     occupation 
      1     -18.1914      2.00000
      2     -17.9867      2.00000
      3     -17.7829      2.00000
      4     -17.2758      2.00000
      5     -15.3998      2.00000
      6     -15.2232      2.00000
      7     -13.4953      2.00000
      8     -13.0768      2.00000
      9     -10.9114      2.00000
     10     -10.8430      2.00000
     11     -10.5302      2.00000
     12      -8.9402      2.00000
     13      -8.8886      2.00000
     14      -8.5978      2.00000
     15      -8.2318      2.00000
     16      -7.3596      2.00000
     17      -7.0589      2.00000
     18      -6.8136      2.00000
     19      -6.3972      2.00000
     20      -6.2379      2.00000
     21      -6.0650      2.00000
     22      -5.9699      2.00000
     23      -5.7979      2.00000
     24      -5.6809      2.00000
     25      -5.1054      2.00000
     26      -4.9080      2.00000
     27      -4.1369      2.00000
     28      -4.1086      2.00000
     29      -3.8570      2.00000
     30      -3.8092      2.00000
     31      -1.1928      1.99106
     32      -0.6366      0.00000
     33       0.7285      0.00000
     34       1.2553      0.00000
     35       4.6966      0.00000
     36       5.0661      0.00000
     37       5.1448      0.00000
     38       5.4255      0.00000
     39       5.4698      0.00000
     40       5.7060      0.00000
     41       5.7815      0.00000
     42       6.0539      0.00000
     43       6.3314      0.00000
     44       6.7701      0.00000
     45       6.9487      0.00000
     46       7.1593      0.00000
     47       7.2493      0.00000
     48       7.4703      0.00000

 k-point   365 :       0.3333    0.3333    0.0000
  band No.  band energies     occupation 
      1     -17.9951      2.00000
      2     -17.9941      2.00000
      3     -17.9934      2.00000
      4     -17.2691      2.00000
      5     -15.3234      2.00000
      6     -15.3215      2.00000
      7     -13.2716      2.00000
      8     -13.2710      2.00000
      9     -10.9485      2.00000
     10     -10.6750      2.00000
     11     -10.6715      2.00000
     12      -8.9870      2.00000
     13      -8.5517      2.00000
     14      -8.5503      2.00000
     15      -8.5486      2.00000
     16      -7.0957      2.00000
     17      -7.0948      2.00000
     18      -7.0945      2.00000
     19      -6.1615      2.00000
     20      -6.1392      2.00000
     21      -6.1156      2.00000
     22      -5.9466      2.00000
     23      -5.9280      2.00000
     24      -5.8105      2.00000
     25      -5.0867      2.00000
     26      -4.9065      2.00000
     27      -4.0112      2.00000
     28      -4.0063      2.00000
     29      -4.0029      2.00000
     30      -3.9967      2.00000
     31      -0.9363      0.31127
     32      -0.8870      0.08727
     33       0.9443      0.00000
     34       1.0372      0.00000
     35       5.0793      0.00000
     36       5.0928      0.00000
     37       5.0939      0.00000
     38       5.4073      0.00000
     39       5.4197      0.00000
     40       5.4203      0.00000
     41       6.0392      0.00000
     42       6.0525      0.00000
     43       6.0543      0.00000
     44       7.0473      0.00000
     45       7.1241      0.00000
     46       7.1282      0.00000
     47       7.2101      0.00000
     48       7.3471      0.00000


--------------------------------------------------------------------------------------------------------


 soft charge-density along one line, spin component           1
         0         1         2         3         4         5         6         7         8         9
 total charge-density along one line
 
 pseudopotential strength for first ion, spin component:           1
  6.578  10.025  -0.000   0.000  -0.000  -0.000   0.000  -0.000
 10.025  15.275  -0.000   0.000  -0.000  -0.000   0.001  -0.000
 -0.000  -0.000  -2.232  -0.000  -0.000  -3.812  -0.000  -0.000
  0.000   0.000  -0.000  -2.236  -0.000  -0.000  -3.816  -0.000
 -0.000  -0.000  -0.000  -0.000  -2.232  -0.000  -0.000  -3.812
 -0.000  -0.000  -3.812  -0.000  -0.000  -6.312  -0.000  -0.000
  0.000   0.001  -0.000  -3.816  -0.000  -0.000  -6.313  -0.000
 -0.000  -0.000  -0.000  -0.000  -3.812  -0.000  -0.000  -6.312
 total augmentation occupancy for first ion, spin component:           1
  4.059  -1.086   0.000  -0.008   0.000  -0.000   0.003  -0.000
 -1.086   0.312  -0.000   0.002  -0.000   0.000  -0.000   0.000
  0.000  -0.000   4.590  -0.000   0.000  -1.249   0.000  -0.000
 -0.008   0.002  -0.000   1.026  -0.000   0.000  -0.266   0.000
  0.000  -0.000   0.000  -0.000   4.590  -0.000   0.000  -1.249
 -0.000   0.000  -1.249   0.000  -0.000   0.353  -0.000   0.000
  0.003  -0.000   0.000  -0.266   0.000  -0.000   0.069  -0.000
 -0.000   0.000  -0.000   0.000  -1.249   0.000  -0.000   0.353


------------------------ aborting loop because EDIFF is reached ----------------------------------------


    CHARGE:  cpu time      0.6113: real time      0.6168
    FORLOC:  cpu time      0.0016: real time      0.0018
    FORNL :  cpu time      2.6059: real time      2.6125
    STRESS:  cpu time     17.0847: real time     17.1378
    FORCOR:  cpu time      0.0129: real time      0.0130
    FORHAR:  cpu time      0.0041: real time      0.0041
    MIXING:  cpu time      0.0009: real time      0.0009
    OFIELD:  cpu time      0.0000: real time      0.0000

 ---------------------------------------------------------------------------------------------

         DFTD3 V3.0 Rev 1        
 IVDW         = 12
 DF pbe       
 parameters
 VDW_S6       =    1.0000
 VDW_S8       =    0.7875
 VDW_A1       =    0.4289
 VDW_A2       =    4.4407
 k1-k3        =   16.0000    1.3333   -4.0000
 VDW_RADIUS   =   50.2022 A
 VDW_CNRADIUS =   21.1671 A
 Edisp (eV)   -1.89722

 E6    (eV) :    -1.3195
 E8    (eV) :    -0.5777
 % E8        : 30.45
    FORVDW:  cpu time      0.0445: real time      0.0447

  FORCE on cell =-STRESS in cart. coord.  units (eV):
  Direction    XX          YY          ZZ          XY          YZ          ZX
  --------------------------------------------------------------------------------------
  Alpha Z    62.53961    62.53961    62.53961
  Ewald    7447.82282  7447.80034 -9420.97517    -0.01955     0.02735     0.01642
  Hartree  7422.19328  7422.18204 -7319.97616    -0.00965     0.01368     0.00817
  E(xc)    -226.47974  -226.47986  -234.33128    -0.00010     0.00025     0.00015
  Local  -15564.63442-15564.60114 15959.44361     0.02891    -0.04053    -0.02426
  n-local   -49.96584   -49.96595   -36.23212    -0.00009    -0.00040    -0.00024
  augment    -4.85886    -4.85865    -4.63148     0.00006     0.00003     0.00002
  Kinetic   914.19086   914.18802   995.01065    -0.00248     0.00083     0.00044
  Fock        0.00000     0.00000     0.00000     0.00000     0.00000     0.00000
  vdW        -1.11855    -1.11860    -1.34847    -0.00005     0.00006     0.00003
  -------------------------------------------------------------------------------------
  Total      -0.31086    -0.31418    -0.50083    -0.00296     0.00126     0.00073
  in kB      -1.50694    -1.52305    -2.42789    -0.01436     0.00609     0.00353
  external pressure =       -1.82 kB  Pullay stress =        0.00 kB


 VOLUME and BASIS-vectors are now :
 -----------------------------------------------------------------------------
  energy-cutoff  :      450.00
  volume of cell :      330.50
      direct lattice vectors                 reciprocal lattice vectors
     4.368232137  2.522000000  0.000000000     0.114462781  0.198255353  0.000000000
    -4.368232137  2.522000000  0.000000000    -0.114462781  0.198255353  0.000000000
     0.000000000  0.000000000 15.000000000     0.000000000  0.000000000  0.066666667

  length of vectors
     5.044000000  5.044000000 15.000000000     0.228925563  0.228925563  0.066666667


 FORCES acting on ions
    electron-ion (+dipol)            ewald-force                    non-local-force                 convergence-correction
 -----------------------------------------------------------------------------------------------
   0.721E-03 0.162E-02 0.216E+03   -.649E-03 -.155E-02 -.216E+03   -.602E-04 -.171E-03 0.709E-01   0.104E-06 0.178E-06 0.117E-03
   0.169E-02 0.353E-02 0.217E+03   -.134E-02 -.308E-02 -.217E+03   -.186E-03 -.495E-03 -.316E-01   -.936E-07 -.116E-06 0.119E-03
   0.250E+02 -.432E+02 0.289E+03   -.271E+02 0.469E+02 -.289E+03   0.213E+01 -.368E+01 0.877E-02   -.291E-05 0.549E-05 0.158E-03
   -.250E+02 -.433E+02 0.289E+03   0.271E+02 0.469E+02 -.289E+03   -.211E+01 -.365E+01 -.102E-02   0.896E-06 0.156E-05 0.159E-03
   -.499E+02 0.443E-02 0.289E+03   0.541E+02 -.431E-02 -.289E+03   -.425E+01 -.208E-03 0.878E-02   0.620E-05 0.197E-06 0.158E-03
   0.499E+02 -.332E-02 0.289E+03   -.541E+02 0.292E-02 -.289E+03   0.422E+01 0.426E-03 0.104E-03   -.160E-05 -.309E-06 0.159E-03
   0.249E+02 0.432E+02 0.289E+03   -.271E+02 -.469E+02 -.289E+03   0.213E+01 0.368E+01 0.859E-02   -.314E-05 -.551E-05 0.158E-03
   -.250E+02 0.432E+02 0.289E+03   0.271E+02 -.469E+02 -.289E+03   -.211E+01 0.365E+01 0.924E-04   0.529E-06 -.156E-05 0.159E-03
   -.454E+00 -.787E+00 -.272E+03   0.448E+00 0.777E+00 0.272E+03   0.626E-02 0.109E-01 0.825E-01   0.797E-05 0.136E-04 0.122E-03
   -.101E+00 0.113E+00 -.271E+03   0.917E-01 -.975E-01 0.271E+03   0.911E-02 -.136E-01 0.407E-01   -.160E-04 0.266E-04 0.122E-03
   -.902E-02 -.157E-01 -.269E+03   0.847E-02 0.148E-01 0.269E+03   0.374E-03 0.662E-03 0.450E-01   -.275E-06 -.228E-06 0.123E-03
   0.148E+00 -.314E-01 -.271E+03   -.130E+00 0.305E-01 0.271E+03   -.163E-01 0.110E-02 0.407E-01   0.311E-04 -.451E-06 0.122E-03
   0.907E+00 0.166E-01 -.272E+03   -.894E+00 -.163E-01 0.272E+03   -.132E-01 -.471E-03 0.810E-01   -.159E-04 0.223E-06 0.122E-03
   0.133E-01 0.230E-01 -.273E+03   -.130E-01 -.226E-01 0.273E+03   -.100E-03 -.189E-03 0.113E+00   0.369E-06 0.437E-06 0.122E-03
   -.439E+00 0.794E+00 -.272E+03   0.433E+00 -.783E+00 0.272E+03   0.620E-02 -.117E-01 0.810E-01   0.822E-05 -.135E-04 0.122E-03
   -.670E-01 -.116E+00 -.271E+03   0.586E-01 0.101E+00 0.271E+03   0.780E-02 0.135E-01 0.407E-01   -.155E-04 -.266E-04 0.122E-03
 -----------------------------------------------------------------------------------------------
   0.194E-04 0.338E-04 -.592E+00   0.181E-13 0.243E-13 -.171E-12   -.134E-03 -.276E-03 0.590E+00   -.152E-07 -.780E-07 0.216E-02
 
 
 POSITION                                       TOTAL-FORCE (eV/Angst)
 -----------------------------------------------------------------------------------
     -1.44543      2.54042      1.70072         0.000021     -0.000084      0.005574
      1.46673      2.54042      1.69599         0.000167     -0.000033      0.002815
     -0.68662      1.22612      1.69611         0.002874     -0.005227     -0.002073
      0.70775      1.22583      1.69620        -0.003313     -0.005521      0.000228
     -2.96305      2.54042      1.69611        -0.005903     -0.000082     -0.002071
      2.98467      2.54040      1.69606         0.006252      0.000044      0.000238
     -0.68663      3.85469      1.69598         0.002892      0.005029     -0.002072
      0.70775      3.85499      1.69606        -0.003248      0.005411      0.000229
      0.72835      1.26157      5.07211         0.000023      0.000095      0.000380
      2.18420      1.26181      5.07176        -0.000551      0.001528     -0.000381
     -1.45581      2.52249      5.06748        -0.000175     -0.000245     -0.002191
      0.00064      2.52249      5.07176         0.001646      0.000265     -0.000379
      2.91235      2.52251      5.07204        -0.000397     -0.000191      0.000339
      0.00028      0.00051      5.07181         0.000192      0.000286     -0.000586
      0.72836      3.78344      5.07204        -0.000010     -0.000419      0.000335
     -2.18402      1.26119      5.07177        -0.000469     -0.000855     -0.000383
 -----------------------------------------------------------------------------------
    total drift:                               -0.000115     -0.000242     -0.000264


--------------------------------------------------------------------------------------------------------



  FREE ENERGIE OF THE ION-ELECTRON SYSTEM (eV)
  ---------------------------------------------------
  free  energy   TOTEN  =      -142.29390755 eV

  energy  without entropy=     -142.29307361  energy(sigma->0) =     -142.29349058
 


--------------------------------------------------------------------------------------------------------


    POTLOK:  cpu time      0.0247: real time      0.0254


--------------------------------------------------------------------------------------------------------


 stress matrix after NEB project (eV)
     -0.31086     -0.00296      0.00073
     -0.00296     -0.31418      0.00126
      0.00073      0.00126     -0.50083
  FORCES: max atom, RMS     0.006443    0.004253
  FORCE total and by dimension    0.017013    0.006252
  Stress total and by dimension    0.667975    0.500830
 writing wavefunctions
     LOOP+:  cpu time    479.7196: real time    484.1296
    4ORBIT:  cpu time      0.0000: real time      0.0000

 total amount of memory used by VASP MPI-rank0   420096. kBytes
=======================================================================

   base      :      30000. kBytes
   nonl-proj :     338227. kBytes
   fftplans  :       1560. kBytes
   grid      :       7372. kBytes
   one-center:         49. kBytes
   wavefun   :      42888. kBytes
 
  
  
 General timing and accounting informations for this job:
 ========================================================
  
                  Total CPU time used (sec):      492.118
                            User time (sec):      487.005
                          System time (sec):        5.112
                         Elapsed time (sec):      498.462
  
                   Maximum memory used (kb):     1020112.
                   Average memory used (kb):          N/A
  
                          Minor page faults:      1501692
                          Major page faults:         4038
                 Voluntary context switches:        11279
