  15  15   0   4
  0.2033749E+02  0.4846000E-09  0.4846000E-09  0.1500000E-08  0.5000000E-15
  1.000000000000000E-004
  CAR 
 SC                                      
     10.41898628    -21.66519622  301     -0.28074607      1.00000000
    -21.665  0.0000E+00  0.0000E+00
    -21.558  0.0000E+00  0.0000E+00
    -21.451  0.0000E+00  0.0000E+00
    -21.344  0.0000E+00  0.0000E+00
    -21.237  0.0000E+00  0.0000E+00
    -21.130  0.0000E+00  0.0000E+00
    -21.024  0.0000E+00  0.0000E+00
    -20.917  0.0000E+00  0.0000E+00
    -20.810  0.0000E+00  0.0000E+00
    -20.703  0.1628E-12  0.1741E-13
    -20.596  0.2885E-08  0.3085E-09
    -20.489  0.6097E-05  0.6523E-06
    -20.382  0.1691E-02  0.1815E-03
    -20.275  0.6884E-01  0.7543E-02
    -20.168  0.5045E+00  0.6150E-01
    -20.061  0.1062E+01  0.1751E+00
    -19.954  0.1156E+01  0.2988E+00
    -19.847  0.1263E+01  0.4338E+00
    -19.740  0.1063E+01  0.5475E+00
    -19.633  0.1378E+01  0.6949E+00
    -19.526  0.1074E+01  0.8098E+00
    -19.419  0.1093E+01  0.9267E+00
    -19.312  0.1537E+01  0.1091E+01
    -19.205  0.9671E+00  0.1194E+01
    -19.098  0.1001E+01  0.1302E+01
    -18.992  0.1567E+01  0.1469E+01
    -18.885  0.1324E+01  0.1611E+01
    -18.778  0.7492E+00  0.1691E+01
    -18.671  0.1139E+01  0.1813E+01
    -18.564  0.1765E+01  0.2001E+01
    -18.457  0.1155E+01  0.2125E+01
    -18.350  0.9658E+00  0.2228E+01
    -18.243  0.7692E+00  0.2311E+01
    -18.136  0.1720E+01  0.2495E+01
    -18.029  0.1669E+01  0.2673E+01
    -17.922  0.8854E+00  0.2768E+01
    -17.815  0.8527E+00  0.2859E+01
    -17.708  0.1055E+01  0.2972E+01
    -17.601  0.1615E+01  0.3144E+01
    -17.494  0.1770E+01  0.3334E+01
    -17.387  0.1812E+01  0.3528E+01
    -17.280  0.2148E+01  0.3757E+01
    -17.173  0.2816E+01  0.4058E+01
    -17.066  0.3900E+01  0.4475E+01
    -16.960  0.4275E+01  0.4933E+01
    -16.853  0.5072E+01  0.5475E+01
    -16.746  0.5235E+01  0.6035E+01
    -16.639  0.2578E+01  0.6311E+01
    -16.532  0.7050E+00  0.6386E+01
    -16.425  0.1899E+01  0.6589E+01
    -16.318  0.2027E+01  0.6806E+01
    -16.211  0.1152E+01  0.6929E+01
    -16.104  0.1050E+01  0.7041E+01
    -15.997  0.9990E+00  0.7148E+01
    -15.890  0.9529E+00  0.7250E+01
    -15.783  0.9827E+00  0.7355E+01
    -15.676  0.2121E+01  0.7582E+01
    -15.569  0.1998E+01  0.7796E+01
    -15.462  0.9797E+00  0.7900E+01
    -15.355  0.9834E+00  0.8006E+01
    -15.248  0.8690E+00  0.8098E+01
    -15.141  0.1219E+01  0.8229E+01
    -15.034  0.1878E+01  0.8430E+01
    -14.928  0.3683E+01  0.8824E+01
    -14.821  0.4993E+01  0.9358E+01
    -14.714  0.4720E+01  0.9862E+01
    -14.607  0.3865E+01  0.1028E+02
    -14.500  0.2329E+01  0.1052E+02
    -14.393  0.2361E+01  0.1078E+02
    -14.286  0.3722E+01  0.1118E+02
    -14.179  0.4014E+01  0.1160E+02
    -14.072  0.3173E+01  0.1194E+02
    -13.965  0.2730E+01  0.1224E+02
    -13.858  0.4110E+01  0.1268E+02
    -13.751  0.4872E+01  0.1320E+02
    -13.644  0.4523E+01  0.1368E+02
    -13.537  0.4043E+01  0.1411E+02
    -13.430  0.1950E+01  0.1432E+02
    -13.323  0.1399E+01  0.1447E+02
    -13.216  0.7758E+00  0.1455E+02
    -13.109  0.1109E+01  0.1467E+02
    -13.002  0.1805E+01  0.1487E+02
    -12.896  0.1690E+01  0.1505E+02
    -12.789  0.1250E+01  0.1518E+02
    -12.682  0.1778E+01  0.1537E+02
    -12.575  0.1750E+01  0.1556E+02
    -12.468  0.1431E+01  0.1571E+02
    -12.361  0.1328E+01  0.1585E+02
    -12.254  0.8493E+00  0.1594E+02
    -12.147  0.1775E+01  0.1613E+02
    -12.040  0.1939E+01  0.1634E+02
    -11.933  0.7864E+00  0.1642E+02
    -11.826  0.8922E+00  0.1652E+02
    -11.719  0.8818E+00  0.1661E+02
    -11.612  0.1626E+01  0.1679E+02
    -11.505  0.1666E+01  0.1697E+02
    -11.398  0.8661E+00  0.1706E+02
    -11.291  0.5201E+00  0.1711E+02
    -11.184  0.1297E+01  0.1725E+02
    -11.077  0.1476E+01  0.1741E+02
    -10.970  0.1333E+01  0.1755E+02
    -10.864  0.2087E+01  0.1778E+02
    -10.757  0.1382E+01  0.1792E+02
    -10.650  0.1036E+01  0.1804E+02
    -10.543  0.2771E+01  0.1833E+02
    -10.436  0.3813E+01  0.1874E+02
    -10.329  0.3877E+01  0.1915E+02
    -10.222  0.3903E+01  0.1957E+02
    -10.115  0.4264E+01  0.2003E+02
    -10.008  0.4346E+01  0.2049E+02
     -9.901  0.3617E+01  0.2088E+02
     -9.794  0.2317E+01  0.2113E+02
     -9.687  0.3169E+01  0.2147E+02
     -9.580  0.3122E+01  0.2180E+02
     -9.473  0.3228E+01  0.2214E+02
     -9.366  0.4854E+01  0.2266E+02
     -9.259  0.4503E+01  0.2315E+02
     -9.152  0.2877E+01  0.2345E+02
     -9.045  0.1848E+01  0.2365E+02
     -8.938  0.2587E+01  0.2393E+02
     -8.832  0.5398E+01  0.2450E+02
     -8.725  0.4553E+01  0.2499E+02
     -8.618  0.2498E+01  0.2526E+02
     -8.511  0.2320E+01  0.2551E+02
     -8.404  0.4052E+01  0.2594E+02
     -8.297  0.4952E+01  0.2647E+02
     -8.190  0.3735E+01  0.2687E+02
     -8.083  0.3704E+01  0.2727E+02
     -7.976  0.5215E+01  0.2782E+02
     -7.869  0.6315E+01  0.2850E+02
     -7.762  0.5729E+01  0.2911E+02
     -7.655  0.4010E+01  0.2954E+02
     -7.548  0.1943E+01  0.2975E+02
     -7.441  0.2667E+01  0.3003E+02
     -7.334  0.4982E+01  0.3057E+02
     -7.227  0.4146E+01  0.3101E+02
     -7.120  0.2912E+01  0.3132E+02
     -7.013  0.3241E+01  0.3167E+02
     -6.906  0.4509E+01  0.3215E+02
     -6.800  0.4670E+01  0.3265E+02
     -6.693  0.5460E+01  0.3323E+02
     -6.586  0.5470E+01  0.3382E+02
     -6.479  0.5117E+01  0.3437E+02
     -6.372  0.5288E+01  0.3493E+02
     -6.265  0.4163E+01  0.3538E+02
     -6.158  0.5865E+01  0.3600E+02
     -6.051  0.6618E+01  0.3671E+02
     -5.944  0.6989E+01  0.3746E+02
     -5.837  0.7781E+01  0.3829E+02
     -5.730  0.5509E+01  0.3888E+02
     -5.623  0.4830E+01  0.3940E+02
     -5.516  0.6981E+01  0.4014E+02
     -5.409  0.9262E+01  0.4113E+02
     -5.302  0.6785E+01  0.4186E+02
     -5.195  0.4285E+01  0.4232E+02
     -5.088  0.3457E+01  0.4269E+02
     -4.981  0.2399E+01  0.4294E+02
     -4.874  0.3278E+01  0.4329E+02
     -4.768  0.3332E+01  0.4365E+02
     -4.661  0.2252E+01  0.4389E+02
     -4.554  0.2047E+01  0.4411E+02
     -4.447  0.3090E+01  0.4444E+02
     -4.340  0.5651E+01  0.4504E+02
     -4.233  0.6070E+01  0.4569E+02
     -4.126  0.4909E+01  0.4622E+02
     -4.019  0.4253E+01  0.4667E+02
     -3.912  0.6053E+01  0.4732E+02
     -3.805  0.5599E+01  0.4792E+02
     -3.698  0.4631E+01  0.4842E+02
     -3.591  0.5319E+01  0.4898E+02
     -3.484  0.4476E+01  0.4946E+02
     -3.377  0.3557E+01  0.4984E+02
     -3.270  0.2981E+01  0.5016E+02
     -3.163  0.4115E+01  0.5060E+02
     -3.056  0.4843E+01  0.5112E+02
     -2.949  0.3496E+01  0.5149E+02
     -2.842  0.3122E+01  0.5183E+02
     -2.736  0.2584E+01  0.5210E+02
     -2.629  0.2075E+01  0.5233E+02
     -2.522  0.3594E+01  0.5271E+02
     -2.415  0.4945E+01  0.5324E+02
     -2.308  0.2245E+01  0.5348E+02
     -2.201  0.1044E+01  0.5359E+02
     -2.094  0.2220E+01  0.5383E+02
     -1.987  0.2442E+01  0.5409E+02
     -1.880  0.2513E+01  0.5436E+02
     -1.773  0.2897E+01  0.5467E+02
     -1.666  0.2637E+01  0.5495E+02
     -1.559  0.2471E+01  0.5521E+02
     -1.452  0.1261E+01  0.5535E+02
     -1.345  0.8591E+00  0.5544E+02
     -1.238  0.1262E+01  0.5558E+02
     -1.131  0.8142E+00  0.5566E+02
     -1.024  0.1102E+01  0.5578E+02
     -0.917  0.1299E+01  0.5592E+02
     -0.810  0.4347E+00  0.5597E+02
     -0.704  0.4999E-01  0.5597E+02
     -0.597  0.1579E-02  0.5597E+02
     -0.490  0.8196E-03  0.5597E+02
     -0.383  0.3799E-01  0.5598E+02
     -0.276  0.2356E+00  0.5600E+02
     -0.169  0.2156E+00  0.5602E+02
     -0.062  0.2894E-01  0.5603E+02
      0.045  0.5092E-03  0.5603E+02
      0.152  0.2669E-03  0.5603E+02
      0.259  0.2976E-01  0.5603E+02
      0.366  0.4202E+00  0.5608E+02
      0.473  0.8453E+00  0.5617E+02
      0.580  0.3383E+00  0.5620E+02
      0.687  0.8099E+00  0.5629E+02
      0.794  0.1733E+01  0.5647E+02
      0.901  0.2702E+01  0.5676E+02
      1.008  0.5705E+01  0.5737E+02
      1.115  0.5243E+01  0.5793E+02
      1.222  0.1435E+01  0.5809E+02
      1.328  0.2549E+00  0.5812E+02
      1.435  0.8381E+00  0.5820E+02
      1.542  0.3166E+01  0.5854E+02
      1.649  0.5250E+01  0.5910E+02
      1.756  0.4057E+01  0.5954E+02
      1.863  0.2622E+01  0.5982E+02
      1.970  0.2173E+01  0.6005E+02
      2.077  0.2563E+01  0.6033E+02
      2.184  0.1866E+01  0.6053E+02
      2.291  0.2240E+01  0.6076E+02
      2.398  0.1771E+01  0.6095E+02
      2.505  0.1391E+01  0.6110E+02
      2.612  0.3371E+01  0.6146E+02
      2.719  0.2769E+01  0.6176E+02
      2.826  0.1309E+01  0.6190E+02
      2.933  0.1561E+01  0.6207E+02
      3.040  0.2445E+01  0.6233E+02
      3.147  0.3165E+01  0.6267E+02
      3.254  0.2452E+01  0.6293E+02
      3.360  0.2747E+01  0.6322E+02
      3.467  0.2115E+01  0.6345E+02
      3.574  0.3992E+01  0.6388E+02
      3.681  0.6182E+01  0.6454E+02
      3.788  0.6226E+01  0.6520E+02
      3.895  0.5703E+01  0.6581E+02
      4.002  0.5518E+01  0.6640E+02
      4.109  0.6710E+01  0.6712E+02
      4.216  0.6808E+01  0.6785E+02
      4.323  0.5888E+01  0.6848E+02
      4.430  0.6163E+01  0.6914E+02
      4.537  0.5956E+01  0.6977E+02
      4.644  0.4865E+01  0.7029E+02
      4.751  0.6733E+01  0.7101E+02
      4.858  0.7265E+01  0.7179E+02
      4.965  0.5545E+01  0.7238E+02
      5.072  0.6119E+01  0.7304E+02
      5.179  0.6681E+01  0.7375E+02
      5.286  0.5497E+01  0.7434E+02
      5.392  0.5519E+01  0.7493E+02
      5.499  0.6128E+01  0.7559E+02
      5.606  0.7181E+01  0.7636E+02
      5.713  0.5556E+01  0.7695E+02
      5.820  0.5540E+01  0.7754E+02
      5.927  0.5174E+01  0.7810E+02
      6.034  0.5461E+01  0.7868E+02
      6.141  0.4130E+01  0.7912E+02
      6.248  0.4385E+01  0.7959E+02
      6.355  0.5888E+01  0.8022E+02
      6.462  0.6045E+01  0.8087E+02
      6.569  0.6530E+01  0.8156E+02
      6.676  0.6840E+01  0.8230E+02
      6.783  0.8769E+01  0.8323E+02
      6.890  0.7099E+01  0.8399E+02
      6.997  0.6412E+01  0.8468E+02
      7.104  0.6410E+01  0.8536E+02
      7.211  0.5414E+01  0.8594E+02
      7.318  0.4545E+01  0.8643E+02
      7.424  0.5715E+01  0.8704E+02
      7.531  0.5825E+01  0.8766E+02
      7.638  0.5575E+01  0.8826E+02
      7.745  0.6969E+01  0.8901E+02
      7.852  0.8363E+01  0.8990E+02
      7.959  0.7913E+01  0.9075E+02
      8.066  0.8167E+01  0.9162E+02
      8.173  0.8189E+01  0.9250E+02
      8.280  0.7164E+01  0.9326E+02
      8.387  0.9358E+01  0.9426E+02
      8.494  0.8254E+01  0.9514E+02
      8.601  0.3962E+01  0.9557E+02
      8.708  0.2112E+01  0.9579E+02
      8.815  0.1054E+01  0.9591E+02
      8.922  0.6555E+00  0.9598E+02
      9.029  0.1869E+00  0.9600E+02
      9.136  0.2463E-01  0.9600E+02
      9.243  0.8761E-03  0.9600E+02
      9.350  0.4342E-05  0.9600E+02
      9.456  0.2468E-08  0.9600E+02
      9.563  0.1522E-12  0.9600E+02
      9.670  0.0000E+00  0.9600E+02
      9.777  0.0000E+00  0.9600E+02
      9.884  0.0000E+00  0.9600E+02
      9.991  0.0000E+00  0.9600E+02
     10.098  0.0000E+00  0.9600E+02
     10.205  0.0000E+00  0.9600E+02
     10.312  0.0000E+00  0.9600E+02
     10.419  0.0000E+00  0.9600E+02
