<?xml version="1.0" encoding="ISO-8859-1"?>
<modeling>
 <generator>
  <i name="program" type="string">vasp </i>
  <i name="version" type="string">6.3.2  </i>
  <i name="subversion" type="string">27Jun22 (build Dec 22 2022 13:13:19) complex                          parallel </i>
  <i name="platform" type="string">LinuxIFC </i>
  <i name="date" type="string">2023 08 24 </i>
  <i name="time" type="string">19:32:38 </i>
 </generator>
 <incar>
  <i type="string" name="SYSTEM">Lattice</i>
  <i type="int" name="ISTART">     0</i>
  <i type="string" name="PREC">Accurate</i>
  <i type="string" name="ALGO">Normal</i>
  <i type="int" name="ISPIN">     2</i>
  <i type="int" name="ICHARG">     2</i>
  <i type="int" name="NELM">    64</i>
  <i type="int" name="IBRION">     2</i>
  <i name="EDIFF">      0.00000001</i>
  <i name="EDIFFG">     -0.00100000</i>
  <i type="int" name="NSW">   128</i>
  <i type="int" name="ISIF">     2</i>
  <i name="ENCUT">    450.00000000</i>
  <i name="POTIM">      0.50000000</i>
  <i type="int" name="ISMEAR">     0</i>
  <i name="SIGMA">      0.10000000</i>
  <i type="logical" name="LWAVE"> F  </i>
  <i type="logical" name="LCHARG"> F  </i>
  <i type="string" name="GGA">PE</i>
  <i type="int" name="IVDW">    12</i>
 </incar>
 <primitive_cell>
  <structure name="primitive_cell" >
   <crystal>
    <varray name="basis" >
     <v>       4.34744753       2.51000000       0.00000000 </v>
     <v>      -4.34744753       2.51000000       0.00000000 </v>
     <v>       0.00000000       0.00000000      15.00000000 </v>
    </varray>
    <i name="volume">    327.36279878 </i>
    <varray name="rec_basis" >
     <v>       0.11501001       0.19920319       0.00000000 </v>
     <v>      -0.11501001       0.19920319       0.00000000 </v>
     <v>       0.00000000       0.00000000       0.06666667 </v>
    </varray>
   </crystal>
   <varray name="positions" >
    <v>       0.66888689       1.00000000       0.10000000 </v>
    <v>       0.33111211       1.00000000       0.10000000 </v>
    <v>       1.00000000       0.33111211       0.10000000 </v>
    <v>       1.00000000       0.66888689       0.10000000 </v>
    <v>       0.33111211       0.33111211       0.10000000 </v>
    <v>       0.66888689       0.66888689       0.10000000 </v>
    <v>       0.66666600       0.33333300       0.09922189 </v>
    <v>       0.33333300       0.66666600       0.10077811 </v>
    <v>       0.24999933       0.24999967       0.46906667 </v>
    <v>       0.41666633       0.08333267       0.46906667 </v>
    <v>       0.24999933       0.74999967       0.46906667 </v>
    <v>       0.41666633       0.58333267       0.46906667 </v>
    <v>       0.74999933       0.24999967       0.46906667 </v>
    <v>       0.91666633       0.08333267       0.46906667 </v>
    <v>       0.74999933       0.74999967       0.46906667 </v>
    <v>       0.91666633       0.58333267       0.46906667 </v>
   </varray>
  </structure>
  <varray name="primitive_index" >
   <v type="int" >        1 </v>
   <v type="int" >        2 </v>
   <v type="int" >        3 </v>
   <v type="int" >        4 </v>
   <v type="int" >        5 </v>
   <v type="int" >        6 </v>
   <v type="int" >        7 </v>
   <v type="int" >        8 </v>
   <v type="int" >        9 </v>
   <v type="int" >       10 </v>
   <v type="int" >       11 </v>
   <v type="int" >       12 </v>
   <v type="int" >       13 </v>
   <v type="int" >       14 </v>
   <v type="int" >       15 </v>
   <v type="int" >       16 </v>
  </varray>
 </primitive_cell>
 <kpoints>
  <generation param="Gamma">
   <v type="int" name="divisions">      12       12        1 </v>
   <v name="usershift">      0.00000000       0.00000000       0.00000000 </v>
   <v name="genvec1">      0.08333333       0.00000000       0.00000000 </v>
   <v name="genvec2">      0.00000000       0.08333333       0.00000000 </v>
   <v name="genvec3">      0.00000000       0.00000000       1.00000000 </v>
   <v name="shift">      0.00000000       0.00000000       0.00000000 </v>
  </generation>
  <varray name="kpointlist" >
   <v>       0.00000000       0.00000000       0.00000000 </v>
   <v>       0.08333333       0.00000000       0.00000000 </v>
   <v>      -0.08333333       0.08333333       0.00000000 </v>
   <v>       0.16666667      -0.00000000       0.00000000 </v>
   <v>      -0.16666667       0.16666667       0.00000000 </v>
   <v>       0.25000000      -0.00000000       0.00000000 </v>
   <v>      -0.25000000       0.25000000       0.00000000 </v>
   <v>       0.33333333      -0.00000000       0.00000000 </v>
   <v>      -0.33333333       0.33333333       0.00000000 </v>
   <v>       0.41666667       0.00000000       0.00000000 </v>
   <v>      -0.41666667       0.41666667       0.00000000 </v>
   <v>       0.50000000      -0.00000000       0.00000000 </v>
   <v>       0.50000000       0.50000000       0.00000000 </v>
   <v>       0.08333333       0.08333333       0.00000000 </v>
   <v>      -0.08333333       0.16666667       0.00000000 </v>
   <v>       0.16666667       0.08333333       0.00000000 </v>
   <v>      -0.08333333       0.25000000       0.00000000 </v>
   <v>      -0.25000000       0.16666667       0.00000000 </v>
   <v>       0.25000000       0.08333333       0.00000000 </v>
   <v>      -0.08333333       0.33333333       0.00000000 </v>
   <v>      -0.33333333       0.25000000       0.00000000 </v>
   <v>       0.33333333       0.08333333       0.00000000 </v>
   <v>      -0.08333333       0.41666667       0.00000000 </v>
   <v>      -0.41666667       0.33333333       0.00000000 </v>
   <v>       0.41666667       0.08333333       0.00000000 </v>
   <v>      -0.08333333       0.50000000       0.00000000 </v>
   <v>       0.50000000       0.41666667       0.00000000 </v>
   <v>       0.16666667       0.16666667       0.00000000 </v>
   <v>      -0.16666667       0.33333333       0.00000000 </v>
   <v>       0.25000000       0.16666667       0.00000000 </v>
   <v>      -0.16666667       0.41666667       0.00000000 </v>
   <v>      -0.41666667       0.25000000       0.00000000 </v>
   <v>       0.33333333       0.16666667       0.00000000 </v>
   <v>      -0.16666667       0.50000000       0.00000000 </v>
   <v>       0.50000000       0.33333333       0.00000000 </v>
   <v>       0.41666667       0.16666667       0.00000000 </v>
   <v>       0.41666667       0.41666667       0.00000000 </v>
   <v>       0.25000000       0.25000000       0.00000000 </v>
   <v>      -0.25000000       0.50000000       0.00000000 </v>
   <v>       0.33333333       0.25000000       0.00000000 </v>
   <v>      -0.25000000      -0.41666667       0.00000000 </v>
   <v>       0.41666667       0.33333333       0.00000000 </v>
   <v>       0.33333333       0.33333333       0.00000000 </v>
  </varray>
  <varray name="weights" >
   <v>       0.00694444 </v>
   <v>       0.02777778 </v>
   <v>       0.01388889 </v>
   <v>       0.02777778 </v>
   <v>       0.01388889 </v>
   <v>       0.02777778 </v>
   <v>       0.01388889 </v>
   <v>       0.02777778 </v>
   <v>       0.01388889 </v>
   <v>       0.02777778 </v>
   <v>       0.01388889 </v>
   <v>       0.01388889 </v>
   <v>       0.00694444 </v>
   <v>       0.01388889 </v>
   <v>       0.02777778 </v>
   <v>       0.02777778 </v>
   <v>       0.02777778 </v>
   <v>       0.02777778 </v>
   <v>       0.02777778 </v>
   <v>       0.02777778 </v>
   <v>       0.02777778 </v>
   <v>       0.02777778 </v>
   <v>       0.02777778 </v>
   <v>       0.02777778 </v>
   <v>       0.02777778 </v>
   <v>       0.02777778 </v>
   <v>       0.02777778 </v>
   <v>       0.01388889 </v>
   <v>       0.02777778 </v>
   <v>       0.02777778 </v>
   <v>       0.02777778 </v>
   <v>       0.02777778 </v>
   <v>       0.02777778 </v>
   <v>       0.02777778 </v>
   <v>       0.02777778 </v>
   <v>       0.02777778 </v>
   <v>       0.01388889 </v>
   <v>       0.01388889 </v>
   <v>       0.02777778 </v>
   <v>       0.02777778 </v>
   <v>       0.02777778 </v>
   <v>       0.02777778 </v>
   <v>       0.01388889 </v>
  </varray>
 </kpoints>
 <parameters>
  <separator name="general" >
   <i type="string" name="SYSTEM">Lattice</i>
   <i type="logical" name="LCOMPAT"> F  </i>
  </separator>
  <separator name="electronic" >
   <i type="string" name="PREC">accura</i>
   <i name="ENMAX">    450.00000000</i>
   <i name="ENAUG">    644.87300000</i>
   <i name="EDIFF">      0.00000001</i>
   <i type="int" name="IALGO">    38</i>
   <i type="int" name="IWAVPR">    11</i>
   <i type="int" name="NBANDS">    48</i>
   <i type="int" name="NBANDSLOW">    -1</i>
   <i type="int" name="NBANDSHIGH">    -1</i>
   <i name="NELECT">     56.00000000</i>
   <i type="int" name="TURBO">     0</i>
   <i type="int" name="IRESTART">     0</i>
   <i type="int" name="NREBOOT">     0</i>
   <i type="int" name="NMIN">     0</i>
   <i name="EREF">      0.00000000</i>
   <separator name="electronic smearing" >
    <i type="int" name="ISMEAR">     0</i>
    <i name="SIGMA">      0.10000000</i>
    <i name="KSPACING">      0.50000000</i>
    <i type="logical" name="KGAMMA"> T  </i>
    <i type="logical" name="KBLOWUP"> T  </i>
   </separator>
   <separator name="electronic projectors" >
    <i type="logical" name="LREAL"> F  </i>
    <v name="ROPT">      0.00000000      0.00000000</v>
    <i type="int" name="LMAXPAW">  -100</i>
    <i type="int" name="LMAXMIX">     2</i>
    <i type="logical" name="NLSPLINE"> F  </i>
   </separator>
   <separator name="electronic startup" >
    <i type="int" name="ISTART">     0</i>
    <i type="int" name="ICHARG">     2</i>
    <i type="int" name="INIWAV">     1</i>
   </separator>
   <separator name="electronic spin" >
    <i type="int" name="ISPIN">     2</i>
    <i type="logical" name="LNONCOLLINEAR"> F  </i>
    <v name="MAGMOM">      1.00000000      1.00000000      1.00000000      1.00000000      1.00000000      1.00000000      1.00000000      1.00000000      1.00000000      1.00000000      1.00000000      1.00000000      1.00000000      1.00000000      1.00000000      1.00000000</v>
    <i name="NUPDOWN">     -1.00000000</i>
    <i type="logical" name="LSORBIT"> F  </i>
    <v name="SAXIS">      0.00000000      0.00000000      1.00000000</v>
    <i type="logical" name="LSPIRAL"> F  </i>
    <v name="QSPIRAL">      0.00000000      0.00000000      0.00000000</v>
    <i type="logical" name="LZEROZ"> F  </i>
   </separator>
   <separator name="electronic exchange-correlation" >
    <i type="logical" name="LASPH"> F  </i>
    <i type="logical" name="LMETAGGA"> F  </i>
   </separator>
   <separator name="electronic convergence" >
    <i type="int" name="NELM">    64</i>
    <i type="int" name="NELMDL">    -5</i>
    <i type="int" name="NELMIN">     2</i>
    <i name="ENINI">    450.00000000</i>
    <separator name="electronic convergence detail" >
     <i type="logical" name="LDIAG"> T  </i>
     <i type="logical" name="LSUBROT"> F  </i>
     <i name="WEIMIN">      0.00100000</i>
     <i name="EBREAK">      0.00000000</i>
     <i name="DEPER">      0.30000000</i>
     <i type="int" name="NRMM">     4</i>
     <i name="TIME">      0.40000000</i>
    </separator>
   </separator>
   <separator name="electronic mixer" >
    <i name="AMIX">      0.40000000</i>
    <i name="BMIX">      1.00000000</i>
    <i name="AMIN">      0.10000000</i>
    <i name="AMIX_MAG">      1.60000000</i>
    <i name="BMIX_MAG">      1.00000000</i>
    <separator name="electronic mixer details" >
     <i type="int" name="IMIX">     4</i>
     <i type="logical" name="MIXFIRST"> F  </i>
     <i type="int" name="MAXMIX">   -45</i>
     <i name="WC">    100.00000000</i>
     <i type="int" name="INIMIX">     1</i>
     <i type="int" name="MIXPRE">     1</i>
     <i type="int" name="MREMOVE">     5</i>
    </separator>
   </separator>
   <separator name="electronic dipolcorrection" >
    <i type="logical" name="LDIPOL"> F  </i>
    <i type="logical" name="LMONO"> F  </i>
    <i type="int" name="IDIPOL">     0</i>
    <i name="EPSILON">      1.00000000</i>
    <v name="DIPOL">   -100.00000000   -100.00000000   -100.00000000</v>
    <i name="EFIELD">      0.00000000</i>
   </separator>
  </separator>
  <separator name="grids" >
   <i type="int" name="NGX">    36</i>
   <i type="int" name="NGY">    36</i>
   <i type="int" name="NGZ">   108</i>
   <i type="int" name="NGXF">    72</i>
   <i type="int" name="NGYF">    72</i>
   <i type="int" name="NGZF">   216</i>
   <i type="logical" name="ADDGRID"> F  </i>
  </separator>
  <separator name="ionic" >
   <i type="int" name="NSW">   128</i>
   <i type="int" name="IBRION">     2</i>
   <i type="int" name="MDALGO">     0</i>
   <i type="int" name="ISIF">     2</i>
   <i name="PSTRESS">      0.00000000</i>
   <i name="EDIFFG">     -0.00100000</i>
   <i type="int" name="NFREE">     1</i>
   <i name="POTIM">      0.50000000</i>
   <i name="SMASS">     -3.00000000</i>
   <i name="SCALEE">      1.00000000</i>
  </separator>
  <separator name="ionic md" >
   <i name="TEBEG">      0.00010000</i>
   <i name="TEEND">      0.00010000</i>
   <i type="int" name="NBLOCK">     1</i>
   <i type="int" name="KBLOCK">   128</i>
   <i type="int" name="NPACO">   256</i>
   <i name="APACO">     10.00000000</i>
  </separator>
  <separator name="symmetry" >
   <i type="int" name="ISYM">     2</i>
   <i name="SYMPREC">      0.00001000</i>
  </separator>
  <separator name="dos" >
   <i type="int" name="LORBIT">     0</i>
   <v name="RWIGS">     -1.00000000     -1.00000000</v>
   <i type="int" name="NEDOS">   301</i>
   <i name="EMIN">     10.00000000</i>
   <i name="EMAX">    -10.00000000</i>
   <i name="EFERMI">      0.00000000</i>
  </separator>
  <separator name="writing" >
   <i type="int" name="NWRITE">     2</i>
   <i type="logical" name="LWAVE"> F  </i>
   <i type="logical" name="LDOWNSAMPLE"> F  </i>
   <i type="logical" name="LCHARG"> F  </i>
   <i type="logical" name="LPARD"> F  </i>
   <i type="logical" name="LVTOT"> F  </i>
   <i type="logical" name="LVHAR"> F  </i>
   <i type="logical" name="LELF"> F  </i>
   <i type="logical" name="LOPTICS"> F  </i>
   <v name="STM">      0.00000000      0.00000000      0.00000000      0.00000000      0.00000000      0.00000000      0.00000000</v>
  </separator>
  <separator name="performance" >
   <i type="int" name="NPAR">    48</i>
   <i type="int" name="NSIM">     4</i>
   <i type="int" name="NBLK">    -1</i>
   <i type="logical" name="LPLANE"> T  </i>
   <i type="logical" name="LSCALAPACK"> T  </i>
   <i type="logical" name="LSCAAWARE"> F  </i>
   <i type="logical" name="LSCALU"> F  </i>
   <i type="logical" name="LASYNC"> F  </i>
   <i type="logical" name="LORBITALREAL"> F  </i>
  </separator>
  <separator name="miscellaneous" >
   <i type="int" name="IDIOT">     3</i>
   <i type="int" name="PHON_NSTRUCT">    -1</i>
   <i type="logical" name="LMUSIC"> F  </i>
   <v name="POMASS">     10.81100000     12.01100000</v>
   <v name="DARWINR">      0.00000000      0.00000000</v>
   <v name="DARWINV">      1.00000000      1.00000000</v>
   <i type="logical" name="LCORR"> T  </i>
  </separator>
  <i type="logical" name="GGA_COMPAT"> T  </i>
  <i type="logical" name="LBERRY"> F  </i>
  <i type="int" name="ICORELEVEL">     0</i>
  <i type="logical" name="LDAU"> F  </i>
  <i type="int" name="I_CONSTRAINED_M">     0</i>
  <separator name="electronic exchange-correlation" >
   <i type="string" name="GGA">PE</i>
   <i type="int" name="VOSKOWN">     0</i>
   <i type="logical" name="LHFCALC"> F  </i>
   <i type="string" name="PRECFOCK"></i>
   <i type="logical" name="LSYMGRAD"> F  </i>
   <i type="logical" name="LHFONE"> F  </i>
   <i type="logical" name="LRHFCALC"> F  </i>
   <i type="logical" name="LTHOMAS"> F  </i>
   <i type="logical" name="LMODELHF"> F  </i>
   <i type="logical" name="LFOCKACE"> F  </i>
   <i name="ENCUT4O">     -1.00000000</i>
   <i type="int" name="EXXOEP">     0</i>
   <i type="int" name="FOURORBIT">     0</i>
   <i name="AEXX">      0.00000000</i>
   <i name="HFALPHA">      0.00000000</i>
   <i name="MCALPHA">      0.00000000</i>
   <i name="ALDAX">      1.00000000</i>
   <i name="AGGAX">      1.00000000</i>
   <i name="ALDAC">      1.00000000</i>
   <i name="AGGAC">      1.00000000</i>
   <i type="int" name="NKREDX">     1</i>
   <i type="int" name="NKREDY">     1</i>
   <i type="int" name="NKREDZ">     1</i>
   <i type="logical" name="SHIFTRED"> F  </i>
   <i type="logical" name="ODDONLY"> F  </i>
   <i type="logical" name="EVENONLY"> F  </i>
   <i type="int" name="LMAXFOCK">     0</i>
   <i type="int" name="NMAXFOCKAE">     0</i>
   <i type="logical" name="LFOCKAEDFT"> F  </i>
   <i name="HFSCREEN">      0.00000000</i>
   <i name="HFSCREENC">      0.00000000</i>
   <i type="int" name="NBANDSGWLOW">     0</i>
  </separator>
  <separator name="vdW DFT" >
   <i type="logical" name="LUSE_VDW"> F  </i>
   <i name="Zab_VDW">     -0.84910000</i>
   <i name="PARAM1">      0.12340000</i>
   <i name="PARAM2">      1.00000000</i>
   <i name="PARAM3">      0.00000000</i>
  </separator>
  <separator name="model GW" >
   <i type="int" name="MODEL_GW">     0</i>
   <i name="MODEL_EPS0">     12.27610495</i>
   <i name="MODEL_ALPHA">      1.00000000</i>
  </separator>
  <separator name="linear response parameters" >
   <i type="logical" name="LEPSILON"> F  </i>
   <i type="logical" name="LRPA"> F  </i>
   <i type="logical" name="LNABLA"> F  </i>
   <i type="logical" name="LVEL"> F  </i>
   <i name="CSHIFT">      0.10000000</i>
   <i name="OMEGAMAX">     -1.00000000</i>
   <i name="DEG_THRESHOLD">      0.00200000</i>
   <i name="RTIME">     -0.10000000</i>
   <i name="WPLASMAI">      0.00000000</i>
   <v name="DFIELD">      0.00000000      0.00000000      0.00000000</v>
   <v name="WPLASMA">      0.00000000      0.00000000      0.00000000      0.00000000      0.00000000      0.00000000      0.00000000      0.00000000      0.00000000</v>
  </separator>
  <separator name="orbital magnetization" >
   <i type="logical" name="NUCIND"> F  </i>
   <v name="MAGPOS">      0.00000000      0.00000000      0.00000000</v>
   <i type="logical" name="LNICSALL"> T  </i>
   <i type="logical" name="ORBITALMAG"> F  </i>
   <i type="logical" name="LMAGBLOCH"> F  </i>
   <i type="logical" name="LCHIMAG"> F  </i>
   <i type="logical" name="LGAUGE"> T  </i>
   <i type="int" name="MAGATOM">     0</i>
   <v name="MAGDIPOL">      0.00000000      0.00000000      0.00000000</v>
   <v name="AVECCONST">      0.00000000      0.00000000      0.00000000</v>
  </separator>
  <separator name="response functions" >
   <i type="logical" name="LFINITE_TEMPERATURE"> F  </i>
   <i type="logical" name="LADDER"> F  </i>
   <i type="logical" name="LRPAFORCE"> F  </i>
   <i type="logical" name="LFXC"> F  </i>
   <i type="logical" name="LHARTREE"> T  </i>
   <i type="int" name="IBSE">     0</i>
   <v type="int" name="KPOINT">    -1     0     0     0</v>
   <i type="logical" name="LTCTC"> F  </i>
   <i type="logical" name="LTCTE"> F  </i>
   <i type="logical" name="LTETE"> F  </i>
   <i type="logical" name="LTRIPLET"> F  </i>
   <i type="logical" name="LFXCEPS"> F  </i>
   <i type="logical" name="LFXHEG"> F  </i>
   <i type="int" name="NATURALO">     2</i>
   <i type="logical" name="LHOLEGF"> F  </i>
   <i type="logical" name="L2ORDER"> F  </i>
   <i type="logical" name="LDMP1"> F  </i>
   <i type="logical" name="LMP2LT"> F  </i>
   <i type="logical" name="LSMP2LT"> F  </i>
   <i type="logical" name="LGWLF"> F  </i>
   <i name="ENCUTGW">     -2.00000000</i>
   <i name="ENCUTGWSOFT">     -2.00000000</i>
   <i name="ENCUTLF">     -1.00000000</i>
   <i type="logical" name="LESF_SPLINES"> F  </i>
   <i type="int" name="LMAXMP2">    -1</i>
   <i name="SCISSOR">      0.00000000</i>
   <i type="int" name="NOMEGA">     0</i>
   <i type="int" name="NOMEGAR">     0</i>
   <i type="int" name="NBANDSGW">    -1</i>
   <i type="int" name="NBANDSO">    -1</i>
   <i type="int" name="NBANDSV">    -1</i>
   <i type="int" name="NELMGW">     1</i>
   <i type="int" name="NELMHF">     1</i>
   <i type="int" name="DIM">     3</i>
   <i type="int" name="IESPILON">     4</i>
   <i type="int" name="ANTIRES">     0</i>
   <i name="OMEGAMAX">    -30.00000000</i>
   <i name="OMEGAMIN">    -30.00000000</i>
   <i name="OMEGATL">   -200.00000000</i>
   <i type="int" name="OMEGAGRID">     0</i>
   <i name="CSHIFT">     -0.10000000</i>
   <i type="logical" name="LSELFENERGY"> F  </i>
   <i type="logical" name="LSPECTRAL"> F  </i>
   <i type="logical" name="LSPECTRALGW"> F  </i>
   <i type="logical" name="LSINGLES"> F  </i>
   <i type="logical" name="LFERMIGW"> F  </i>
   <i type="logical" name="ODDONLYGW"> F  </i>
   <i type="logical" name="EVENONLYGW"> F  </i>
   <i type="int" name="NKREDLFX">     1</i>
   <i type="int" name="NKREDLFY">     1</i>
   <i type="int" name="NKREDLFZ">     1</i>
   <i type="int" name="MAXMEM">  2800</i>
   <i type="int" name="TELESCOPE">     0</i>
   <i type="int" name="NTAUPAR">    -1</i>
   <i type="int" name="NOMEGAPAR">    -1</i>
   <i name="DAMP_NEWTON">      0.80000001</i>
   <i name="LAMBDA">      1.00000000</i>
  </separator>
  <separator name="External order field" >
   <i name="OFIELD_KAPPA">      0.00000000</i>
   <v name="OFIELD_K">      0.00000000      0.00000000      0.00000000</v>
   <i name="OFIELD_Q6_NEAR">      0.00000000</i>
   <i name="OFIELD_Q6_FAR">      0.00000000</i>
   <i name="OFIELD_A">      0.00000000</i>
  </separator>
  <separator name="optional k-points parameters" >
   <i type="int" name="KPOINTS_OPT_MODE">     1</i>
   <i type="logical" name="LKPOINTS_OPT"> F  </i>
  </separator>
  <separator name="solvation model" >
   <i type="logical" name="LSOL"> F  </i>
  </separator>
 </parameters>
 <atominfo>
  <atoms>      16 </atoms>
  <types>       2 </types>
  <array name="atoms" >
   <dimension dim="1">ion</dimension>
   <field type="string">element</field>
   <field type="int">atomtype</field>
   <set>
    <rc><c>B </c><c>   1</c></rc>
    <rc><c>B </c><c>   1</c></rc>
    <rc><c>B </c><c>   1</c></rc>
    <rc><c>B </c><c>   1</c></rc>
    <rc><c>B </c><c>   1</c></rc>
    <rc><c>B </c><c>   1</c></rc>
    <rc><c>B </c><c>   1</c></rc>
    <rc><c>B </c><c>   1</c></rc>
    <rc><c>C </c><c>   2</c></rc>
    <rc><c>C </c><c>   2</c></rc>
    <rc><c>C </c><c>   2</c></rc>
    <rc><c>C </c><c>   2</c></rc>
    <rc><c>C </c><c>   2</c></rc>
    <rc><c>C </c><c>   2</c></rc>
    <rc><c>C </c><c>   2</c></rc>
    <rc><c>C </c><c>   2</c></rc>
   </set>
  </array>
  <array name="atomtypes" >
   <dimension dim="1">type</dimension>
   <field type="int">atomspertype</field>
   <field type="string">element</field>
   <field>mass</field>
   <field>valence</field>
   <field type="string">pseudopotential</field>
   <set>
    <rc><c>   8</c><c>B </c><c>     10.81100000</c><c>      3.00000000</c><c>  PAW_PBE B 06Sep2000                   </c></rc>
    <rc><c>   8</c><c>C </c><c>     12.01100000</c><c>      4.00000000</c><c>  PAW_PBE C 08Apr2002                   </c></rc>
   </set>
  </array>
 </atominfo>
 <structure name="initialpos" >
  <crystal>
   <varray name="basis" >
    <v>       4.34744753       2.51000000       0.00000000 </v>
    <v>      -4.34744753       2.51000000       0.00000000 </v>
    <v>       0.00000000       0.00000000      15.00000000 </v>
   </varray>
   <i name="volume">    327.36279878 </i>
   <varray name="rec_basis" >
    <v>       0.11501001       0.19920319       0.00000000 </v>
    <v>      -0.11501001       0.19920319       0.00000000 </v>
    <v>       0.00000000       0.00000000       0.06666667 </v>
   </varray>
  </crystal>
  <varray name="positions" >
   <v>       0.66888689       0.00000000       0.10000000 </v>
   <v>       0.33111211       0.00000000       0.10000000 </v>
   <v>       0.00000000       0.33111211       0.10000000 </v>
   <v>       0.00000000       0.66888689       0.10000000 </v>
   <v>       0.33111211       0.33111211       0.10000000 </v>
   <v>       0.66888689       0.66888689       0.10000000 </v>
   <v>       0.66666600       0.33333300       0.09922189 </v>
   <v>       0.33333300       0.66666600       0.10077811 </v>
   <v>       0.24999933       0.24999967       0.46906667 </v>
   <v>       0.41666633       0.08333267       0.46906667 </v>
   <v>       0.24999933       0.74999967       0.46906667 </v>
   <v>       0.41666633       0.58333267       0.46906667 </v>
   <v>       0.74999933       0.24999967       0.46906667 </v>
   <v>       0.91666633       0.08333267       0.46906667 </v>
   <v>       0.74999933       0.74999967       0.46906667 </v>
   <v>       0.91666633       0.58333267       0.46906667 </v>
  </varray>
 </structure>
 <calculation>
  <scstep>
   <time name="dav">    3.32    3.35</time>
   <time name="total">    3.37    3.40</time>
   <energy>
    <i name="alphaZ">     59.48700774 </i>
    <i name="ewald">   1818.14605631 </i>
    <i name="hartreedc">  -3238.46350975 </i>
    <i name="XCdc">    162.70989351 </i>
    <i name="pawpsdc">   1214.24570090 </i>
    <i name="pawaedc">  -1211.68112031 </i>
    <i name="eentropy">     -0.02228281 </i>
    <i name="bandstr">   -365.53597870 </i>
    <i name="atom">   1746.50554237 </i>
    <i name="e_fr_energy">    185.39130925 </i>
    <i name="e_wo_entrp">    185.41359206 </i>
    <i name="e_0_energy">    185.40245066 </i>
   </energy>
  </scstep>
  <scstep>
   <time name="dav">    5.35    5.39</time>
   <time name="total">    5.35    5.39</time>
   <energy>
    <i name="e_fr_energy">   -117.74591671 </i>
    <i name="e_wo_entrp">   -117.73417916 </i>
    <i name="e_0_energy">   -117.74004794 </i>
   </energy>
  </scstep>
  <scstep>
   <time name="dav">    5.76    5.81</time>
   <time name="total">    5.76    5.81</time>
   <energy>
    <i name="e_fr_energy">   -127.17419877 </i>
    <i name="e_wo_entrp">   -127.16130515 </i>
    <i name="e_0_energy">   -127.16775196 </i>
   </energy>
  </scstep>
  <scstep>
   <time name="dav">    5.54    5.59</time>
   <time name="total">    5.54    5.59</time>
   <energy>
    <i name="e_fr_energy">   -127.21061269 </i>
    <i name="e_wo_entrp">   -127.19772391 </i>
    <i name="e_0_energy">   -127.20416830 </i>
   </energy>
  </scstep>
  <scstep>
   <time name="dav">    5.29    5.33</time>
   <time name="total">    5.47    5.53</time>
   <energy>
    <i name="e_fr_energy">   -127.21065419 </i>
    <i name="e_wo_entrp">   -127.19776549 </i>
    <i name="e_0_energy">   -127.20420984 </i>
   </energy>
  </scstep>
  <scstep>
   <time name="dav">    4.56    4.61</time>
   <time name="total">    4.79    4.86</time>
   <energy>
    <i name="e_fr_energy">    -94.24894943 </i>
    <i name="e_wo_entrp">    -94.23918574 </i>
    <i name="e_0_energy">    -94.24406759 </i>
   </energy>
  </scstep>
  <scstep>
   <time name="dav">    5.17    5.22</time>
   <time name="total">    5.40    5.47</time>
   <energy>
    <i name="e_fr_energy">   -105.48104516 </i>
    <i name="e_wo_entrp">   -105.47160113 </i>
    <i name="e_0_energy">   -105.47632314 </i>
   </energy>
  </scstep>
  <scstep>
   <time name="dav">    5.33    5.38</time>
   <time name="total">    5.56    5.62</time>
   <energy>
    <i name="e_fr_energy">   -111.38975140 </i>
    <i name="e_wo_entrp">   -111.38018150 </i>
    <i name="e_0_energy">   -111.38496645 </i>
   </energy>
  </scstep>
  <scstep>
   <time name="dav">    4.31    4.35</time>
   <time name="total">    4.53    4.59</time>
   <energy>
    <i name="e_fr_energy">   -116.62478895 </i>
    <i name="e_wo_entrp">   -116.62171176 </i>
    <i name="e_0_energy">   -116.62325035 </i>
   </energy>
  </scstep>
  <scstep>
   <time name="dav">    5.18    5.22</time>
   <time name="total">    5.40    5.45</time>
   <energy>
    <i name="e_fr_energy">   -120.82118714 </i>
    <i name="e_wo_entrp">   -120.81646451 </i>
    <i name="e_0_energy">   -120.81882583 </i>
   </energy>
  </scstep>
  <scstep>
   <time name="dav">    4.84    4.88</time>
   <time name="total">    5.06    5.12</time>
   <energy>
    <i name="e_fr_energy">   -122.72893407 </i>
    <i name="e_wo_entrp">   -122.72567053 </i>
    <i name="e_0_energy">   -122.72730230 </i>
   </energy>
  </scstep>
  <scstep>
   <time name="dav">    5.77    5.81</time>
   <time name="total">    5.99    6.05</time>
   <energy>
    <i name="e_fr_energy">   -123.72287476 </i>
    <i name="e_wo_entrp">   -123.71850250 </i>
    <i name="e_0_energy">   -123.72068863 </i>
   </energy>
  </scstep>
  <scstep>
   <time name="dav">    4.90    4.94</time>
   <time name="total">    5.13    5.17</time>
   <energy>
    <i name="e_fr_energy">   -124.03296029 </i>
    <i name="e_wo_entrp">   -124.02699943 </i>
    <i name="e_0_energy">   -124.02997986 </i>
   </energy>
  </scstep>
  <scstep>
   <time name="dav">    4.55    4.59</time>
   <time name="total">    4.78    4.82</time>
   <energy>
    <i name="e_fr_energy">   -124.08856355 </i>
    <i name="e_wo_entrp">   -124.08244864 </i>
    <i name="e_0_energy">   -124.08550609 </i>
   </energy>
  </scstep>
  <scstep>
   <time name="dav">    4.04    4.08</time>
   <time name="total">    4.26    4.30</time>
   <energy>
    <i name="e_fr_energy">   -124.11085894 </i>
    <i name="e_wo_entrp">   -124.10474566 </i>
    <i name="e_0_energy">   -124.10780230 </i>
   </energy>
  </scstep>
  <scstep>
   <time name="dav">    4.09    4.11</time>
   <time name="total">    4.30    4.34</time>
   <energy>
    <i name="e_fr_energy">   -124.11262355 </i>
    <i name="e_wo_entrp">   -124.10655984 </i>
    <i name="e_0_energy">   -124.10959169 </i>
   </energy>
  </scstep>
  <scstep>
   <time name="dav">    3.87    3.90</time>
   <time name="total">    4.09    4.13</time>
   <energy>
    <i name="e_fr_energy">   -124.11343890 </i>
    <i name="e_wo_entrp">   -124.10739859 </i>
    <i name="e_0_energy">   -124.11041875 </i>
   </energy>
  </scstep>
  <scstep>
   <time name="dav">    3.54    3.56</time>
   <time name="total">    3.75    3.79</time>
   <energy>
    <i name="e_fr_energy">   -124.11344078 </i>
    <i name="e_wo_entrp">   -124.10738643 </i>
    <i name="e_0_energy">   -124.11041361 </i>
   </energy>
  </scstep>
  <scstep>
   <time name="dav">    3.74    3.78</time>
   <time name="total">    3.96    4.01</time>
   <energy>
    <i name="e_fr_energy">   -124.11348545 </i>
    <i name="e_wo_entrp">   -124.10742577 </i>
    <i name="e_0_energy">   -124.11045561 </i>
   </energy>
  </scstep>
  <scstep>
   <time name="dav">    3.47    3.51</time>
   <time name="total">    3.70    3.74</time>
   <energy>
    <i name="e_fr_energy">   -124.11351117 </i>
    <i name="e_wo_entrp">   -124.10745309 </i>
    <i name="e_0_energy">   -124.11048213 </i>
   </energy>
  </scstep>
  <scstep>
   <time name="dav">    3.52    3.55</time>
   <time name="total">    3.74    3.77</time>
   <energy>
    <i name="e_fr_energy">   -124.11355746 </i>
    <i name="e_wo_entrp">   -124.10749927 </i>
    <i name="e_0_energy">   -124.11052837 </i>
   </energy>
  </scstep>
  <scstep>
   <time name="dav">    3.97    4.01</time>
   <time name="total">    4.19    4.24</time>
   <energy>
    <i name="e_fr_energy">   -124.11358184 </i>
    <i name="e_wo_entrp">   -124.10752349 </i>
    <i name="e_0_energy">   -124.11055266 </i>
   </energy>
  </scstep>
  <scstep>
   <time name="dav">    4.70    4.73</time>
   <time name="total">    4.92    4.96</time>
   <energy>
    <i name="e_fr_energy">   -124.11358548 </i>
    <i name="e_wo_entrp">   -124.10752767 </i>
    <i name="e_0_energy">   -124.11055657 </i>
   </energy>
  </scstep>
  <scstep>
   <time name="dav">    4.80    4.83</time>
   <time name="total">    5.02    5.06</time>
   <energy>
    <i name="e_fr_energy">   -124.11358891 </i>
    <i name="e_wo_entrp">   -124.10753114 </i>
    <i name="e_0_energy">   -124.11056003 </i>
   </energy>
  </scstep>
  <scstep>
   <time name="dav">    4.66    4.69</time>
   <time name="total">    4.87    4.92</time>
   <energy>
    <i name="e_fr_energy">   -124.11359016 </i>
    <i name="e_wo_entrp">   -124.10753239 </i>
    <i name="e_0_energy">   -124.11056127 </i>
   </energy>
  </scstep>
  <scstep>
   <time name="dav">    5.57    5.61</time>
   <time name="total">    5.79    5.84</time>
   <energy>
    <i name="e_fr_energy">   -124.11359051 </i>
    <i name="e_wo_entrp">   -124.10753289 </i>
    <i name="e_0_energy">   -124.11056170 </i>
   </energy>
  </scstep>
  <scstep>
   <time name="dav">    4.97    5.02</time>
   <time name="total">    5.19    5.24</time>
   <energy>
    <i name="e_fr_energy">   -124.11359058 </i>
    <i name="e_wo_entrp">   -124.10753305 </i>
    <i name="e_0_energy">   -124.11056182 </i>
   </energy>
  </scstep>
  <scstep>
   <time name="dav">    5.08    5.11</time>
   <time name="total">    5.30    5.34</time>
   <energy>
    <i name="e_fr_energy">   -124.11359060 </i>
    <i name="e_wo_entrp">   -124.10753305 </i>
    <i name="e_0_energy">   -124.11056182 </i>
   </energy>
  </scstep>
  <scstep>
   <time name="dav">    6.04    6.07</time>
   <time name="total">    6.07    6.11</time>
   <energy>
    <i name="alphaZ">     59.48700774 </i>
    <i name="ewald">   1818.14605631 </i>
    <i name="hartreedc">  -3426.17589082 </i>
    <i name="XCdc">    167.31726632 </i>
    <i name="pawpsdc">   5573.68361718 </i>
    <i name="pawaedc">  -5572.96588442 </i>
    <i name="eentropy">     -0.00605758 </i>
    <i name="bandstr">   -490.10524769 </i>
    <i name="atom">   1746.50554237 </i>
    <i name="e_fr_energy">   -124.11359060 </i>
    <i name="e_wo_entrp">   -124.10753302 </i>
    <i name="e_0_energy">   -124.11056181 </i>
   </energy>
  </scstep>
  <structure>
   <crystal>
    <varray name="basis" >
     <v>       4.34744753       2.51000000       0.00000000 </v>
     <v>      -4.34744753       2.51000000       0.00000000 </v>
     <v>       0.00000000       0.00000000      15.00000000 </v>
    </varray>
    <i name="volume">    327.36279878 </i>
    <varray name="rec_basis" >
     <v>       0.11501001       0.19920319       0.00000000 </v>
     <v>      -0.11501001       0.19920319       0.00000000 </v>
     <v>       0.00000000       0.00000000       0.06666667 </v>
    </varray>
   </crystal>
   <varray name="positions" >
    <v>       0.66888689       0.00000000       0.10000000 </v>
    <v>       0.33111211       0.00000000       0.10000000 </v>
    <v>       0.00000000       0.33111211       0.10000000 </v>
    <v>       0.00000000       0.66888689       0.10000000 </v>
    <v>       0.33111211       0.33111211       0.10000000 </v>
    <v>       0.66888689       0.66888689       0.10000000 </v>
    <v>       0.66666600       0.33333300       0.09922189 </v>
    <v>       0.33333300       0.66666600       0.10077811 </v>
    <v>       0.24999933       0.24999967       0.46906667 </v>
    <v>       0.41666633       0.08333267       0.46906667 </v>
    <v>       0.24999933       0.74999967       0.46906667 </v>
    <v>       0.41666633       0.58333267       0.46906667 </v>
    <v>       0.74999933       0.24999967       0.46906667 </v>
    <v>       0.91666633       0.08333267       0.46906667 </v>
    <v>       0.74999933       0.74999967       0.46906667 </v>
    <v>       0.91666633       0.58333267       0.46906667 </v>
   </varray>
  </structure>
  <varray name="forces" >
   <v>       0.06182187       0.03567517       0.00811585 </v>
   <v>      -0.06177803      -0.03568645       0.00814279 </v>
   <v>       0.06182187      -0.03567517       0.00811585 </v>
   <v>      -0.06177803       0.03568645       0.00814279 </v>
   <v>       0.00000327      -0.07138972       0.00814702 </v>
   <v>       0.00000327       0.07138972       0.00814702 </v>
   <v>       0.00001195      -0.00000000       0.01036705 </v>
   <v>      -0.00008034       0.00000000       0.00817662 </v>
   <v>       0.00004257      -0.00045935      -0.00833484 </v>
   <v>      -0.00043076      -0.00009108      -0.00850647 </v>
   <v>      -0.00007624       0.00000000      -0.00863021 </v>
   <v>       0.00013469       0.00000000      -0.00843030 </v>
   <v>       0.00050941       0.00000000      -0.00838857 </v>
   <v>       0.00018268       0.00000000      -0.00822327 </v>
   <v>       0.00004257       0.00045935      -0.00833484 </v>
   <v>      -0.00043076       0.00009108      -0.00850647 </v>
  </varray>
  <varray name="stress" >
   <v>     -34.24373665       0.00000000      -0.00072125 </v>
   <v>       0.00000000     -34.24303572       0.00000000 </v>
   <v>      -0.00072124       0.00000000      -3.57936089 </v>
  </varray>
  <energy>
   <i name="e_fr_energy">   -125.58554567 </i>
   <i name="e_wo_entrp">   -125.57948809 </i>
   <i name="e_0_energy">   -125.58251688 </i>
  </energy>
  <time name="totalsc">  144.45  145.85</time>
 </calculation>
 <calculation>
  <scstep>
   <time name="dav">    3.41    3.43</time>
   <time name="total">    3.63    3.67</time>
   <energy>
    <i name="alphaZ">     59.48700774 </i>
    <i name="ewald">   1818.14686684 </i>
    <i name="hartreedc">  -3426.46286730 </i>
    <i name="XCdc">    167.30276948 </i>
    <i name="pawpsdc">   5573.68322888 </i>
    <i name="pawaedc">  -5572.96549590 </i>
    <i name="eentropy">     -0.00611209 </i>
    <i name="bandstr">   -489.80519344 </i>
    <i name="atom">   1746.50554237 </i>
    <i name="e_fr_energy">   -124.11425342 </i>
    <i name="e_wo_entrp">   -124.10814133 </i>
    <i name="e_0_energy">   -124.11119737 </i>
   </energy>
  </scstep>
  <scstep>
   <time name="dav">    5.37    5.41</time>
   <time name="total">    5.59    5.64</time>
   <energy>
    <i name="e_fr_energy">   -124.11373761 </i>
    <i name="e_wo_entrp">   -124.10766630 </i>
    <i name="e_0_energy">   -124.11070195 </i>
   </energy>
  </scstep>
  <scstep>
   <time name="dav">    5.60    5.64</time>
   <time name="total">    5.82    5.86</time>
   <energy>
    <i name="e_fr_energy">   -124.11365173 </i>
    <i name="e_wo_entrp">   -124.10761216 </i>
    <i name="e_0_energy">   -124.11063194 </i>
   </energy>
  </scstep>
  <scstep>
   <time name="dav">    5.31    5.34</time>
   <time name="total">    5.52    5.57</time>
   <energy>
    <i name="e_fr_energy">   -124.11364884 </i>
    <i name="e_wo_entrp">   -124.10761177 </i>
    <i name="e_0_energy">   -124.11063031 </i>
   </energy>
  </scstep>
  <scstep>
   <time name="dav">    4.65    4.68</time>
   <time name="total">    4.86    4.91</time>
   <energy>
    <i name="e_fr_energy">   -124.11364879 </i>
    <i name="e_wo_entrp">   -124.10761197 </i>
    <i name="e_0_energy">   -124.11063038 </i>
   </energy>
  </scstep>
  <scstep>
   <time name="dav">    3.67    3.69</time>
   <time name="total">    3.89    3.92</time>
   <energy>
    <i name="e_fr_energy">   -124.11364891 </i>
    <i name="e_wo_entrp">   -124.10761166 </i>
    <i name="e_0_energy">   -124.11063029 </i>
   </energy>
  </scstep>
  <scstep>
   <time name="dav">    4.07    4.11</time>
   <time name="total">    4.29    4.34</time>
   <energy>
    <i name="e_fr_energy">   -124.11364917 </i>
    <i name="e_wo_entrp">   -124.10761266 </i>
    <i name="e_0_energy">   -124.11063091 </i>
   </energy>
  </scstep>
  <scstep>
   <time name="dav">    4.11    4.14</time>
   <time name="total">    4.33    4.36</time>
   <energy>
    <i name="e_fr_energy">   -124.11364936 </i>
    <i name="e_wo_entrp">   -124.10761305 </i>
    <i name="e_0_energy">   -124.11063121 </i>
   </energy>
  </scstep>
  <scstep>
   <time name="dav">    4.24    4.26</time>
   <time name="total">    4.46    4.50</time>
   <energy>
    <i name="e_fr_energy">   -124.11364953 </i>
    <i name="e_wo_entrp">   -124.10761321 </i>
    <i name="e_0_energy">   -124.11063137 </i>
   </energy>
  </scstep>
  <scstep>
   <time name="dav">    4.22    4.26</time>
   <time name="total">    4.44    4.49</time>
   <energy>
    <i name="e_fr_energy">   -124.11364964 </i>
    <i name="e_wo_entrp">   -124.10761333 </i>
    <i name="e_0_energy">   -124.11063148 </i>
   </energy>
  </scstep>
  <scstep>
   <time name="dav">    4.68    4.71</time>
   <time name="total">    4.90    4.94</time>
   <energy>
    <i name="e_fr_energy">   -124.11364968 </i>
    <i name="e_wo_entrp">   -124.10761339 </i>
    <i name="e_0_energy">   -124.11063153 </i>
   </energy>
  </scstep>
  <scstep>
   <time name="dav">    5.36    5.39</time>
   <time name="total">    5.39    5.42</time>
   <energy>
    <i name="alphaZ">     59.48700774 </i>
    <i name="ewald">   1818.14686684 </i>
    <i name="hartreedc">  -3426.20673788 </i>
    <i name="XCdc">    167.29776477 </i>
    <i name="pawpsdc">   5567.07073248 </i>
    <i name="pawaedc">  -5566.35089943 </i>
    <i name="eentropy">     -0.00603628 </i>
    <i name="bandstr">   -490.05789029 </i>
    <i name="atom">   1746.50554237 </i>
    <i name="e_fr_energy">   -124.11364968 </i>
    <i name="e_wo_entrp">   -124.10761340 </i>
    <i name="e_0_energy">   -124.11063154 </i>
   </energy>
  </scstep>
  <structure>
   <crystal>
    <varray name="basis" >
     <v>       4.34744753       2.51000000       0.00000000 </v>
     <v>      -4.34744753       2.51000000       0.00000000 </v>
     <v>       0.00000000       0.00000000      15.00000000 </v>
    </varray>
    <i name="volume">    327.36279878 </i>
    <varray name="rec_basis" >
     <v>       0.11501001       0.19920319       0.00000000 </v>
     <v>      -0.11501001       0.19920319       0.00000000 </v>
     <v>       0.00000000       0.00000000       0.06666667 </v>
    </varray>
   </crystal>
   <varray name="positions" >
    <v>       0.66957274      -0.00000017       0.10002610 </v>
    <v>       0.33042639      -0.00000018       0.10002619 </v>
    <v>       0.00000017       0.33042626       0.10002610 </v>
    <v>       0.00000018       0.66957261       0.10002619 </v>
    <v>       0.33042607       0.33042603       0.10002620 </v>
    <v>       0.66957297       0.66957293       0.10002620 </v>
    <v>       0.66666607       0.33333293       0.09925523 </v>
    <v>       0.33333255       0.66666645       0.10080441 </v>
    <v>       0.24999516       0.24999502       0.46903986 </v>
    <v>       0.41666307       0.08333418       0.46903931 </v>
    <v>       0.24999891       0.75000009       0.46903891 </v>
    <v>       0.41666708       0.58333192       0.46903955 </v>
    <v>       0.75000216       0.24999684       0.46903969 </v>
    <v>       0.91666735       0.08333165       0.46904022 </v>
    <v>       0.75000398       0.75000384       0.46903986 </v>
    <v>       0.91666482       0.58333593       0.46903931 </v>
   </varray>
  </structure>
  <varray name="forces" >
   <v>      -0.05026788      -0.02901354       0.00817478 </v>
   <v>       0.05026070       0.02903839       0.00819891 </v>
   <v>      -0.05026788       0.02901354       0.00817478 </v>
   <v>       0.05026070      -0.02903839       0.00819891 </v>
   <v>       0.00000256       0.05808801       0.00820239 </v>
   <v>       0.00000256      -0.05808801       0.00820239 </v>
   <v>      -0.00002123      -0.00000000       0.01103389 </v>
   <v>       0.00005614      -0.00000000       0.00721070 </v>
   <v>      -0.00022134       0.00109434      -0.00837883 </v>
   <v>       0.00115582       0.00018757      -0.00847155 </v>
   <v>       0.00002575      -0.00000000      -0.00852585 </v>
   <v>      -0.00023279      -0.00000000      -0.00843542 </v>
   <v>      -0.00138010      -0.00000000      -0.00840861 </v>
   <v>      -0.00030748      -0.00000000      -0.00832611 </v>
   <v>      -0.00022134      -0.00109434      -0.00837883 </v>
   <v>       0.00115582      -0.00018757      -0.00847155 </v>
  </varray>
  <varray name="stress" >
   <v>     -34.83558765       0.00000000      -0.00070285 </v>
   <v>       0.00000000     -34.83750380       0.00000000 </v>
   <v>      -0.00070285       0.00000000      -3.57937267 </v>
  </varray>
  <energy>
   <i name="e_fr_energy">   -125.58573459 </i>
   <i name="e_wo_entrp">   -125.57969831 </i>
   <i name="e_0_energy">   -125.58271645 </i>
  </energy>
  <time name="totalsc">   60.29   60.82</time>
 </calculation>
 <calculation>
  <scstep>
   <time name="dav">    3.38    3.41</time>
   <time name="total">    3.59    3.63</time>
   <energy>
    <i name="alphaZ">     59.48700774 </i>
    <i name="ewald">   1818.14453641 </i>
    <i name="hartreedc">  -3426.08153328 </i>
    <i name="XCdc">    167.30394260 </i>
    <i name="pawpsdc">   5567.06979663 </i>
    <i name="pawaedc">  -5566.34996317 </i>
    <i name="eentropy">     -0.00599839 </i>
    <i name="bandstr">   -490.18739247 </i>
    <i name="atom">   1746.50554237 </i>
    <i name="e_fr_energy">   -124.11406156 </i>
    <i name="e_wo_entrp">   -124.10806317 </i>
    <i name="e_0_energy">   -124.11106236 </i>
   </energy>
  </scstep>
  <scstep>
   <time name="dav">    5.28    5.31</time>
   <time name="total">    5.49    5.53</time>
   <energy>
    <i name="e_fr_energy">   -124.11396767 </i>
    <i name="e_wo_entrp">   -124.10794574 </i>
    <i name="e_0_energy">   -124.11095670 </i>
   </energy>
  </scstep>
  <scstep>
   <time name="dav">    6.01    6.06</time>
   <time name="total">    6.23    6.28</time>
   <energy>
    <i name="e_fr_energy">   -124.11395203 </i>
    <i name="e_wo_entrp">   -124.10791495 </i>
    <i name="e_0_energy">   -124.11093349 </i>
   </energy>
  </scstep>
  <scstep>
   <time name="dav">    5.40    5.43</time>
   <time name="total">    5.61    5.66</time>
   <energy>
    <i name="e_fr_energy">   -124.11395155 </i>
    <i name="e_wo_entrp">   -124.10791351 </i>
    <i name="e_0_energy">   -124.11093253 </i>
   </energy>
  </scstep>
  <scstep>
   <time name="dav">    5.39    5.44</time>
   <time name="total">    5.61    5.66</time>
   <energy>
    <i name="e_fr_energy">   -124.11395158 </i>
    <i name="e_wo_entrp">   -124.10791328 </i>
    <i name="e_0_energy">   -124.11093243 </i>
   </energy>
  </scstep>
  <scstep>
   <time name="dav">    4.00    4.03</time>
   <time name="total">    4.21    4.25</time>
   <energy>
    <i name="e_fr_energy">   -124.11395160 </i>
    <i name="e_wo_entrp">   -124.10791349 </i>
    <i name="e_0_energy">   -124.11093255 </i>
   </energy>
  </scstep>
  <scstep>
   <time name="dav">    4.35    4.38</time>
   <time name="total">    4.56    4.60</time>
   <energy>
    <i name="e_fr_energy">   -124.11395163 </i>
    <i name="e_wo_entrp">   -124.10791332 </i>
    <i name="e_0_energy">   -124.11093248 </i>
   </energy>
  </scstep>
  <scstep>
   <time name="dav">    3.84    3.87</time>
   <time name="total">    4.05    4.09</time>
   <energy>
    <i name="e_fr_energy">   -124.11395167 </i>
    <i name="e_wo_entrp">   -124.10791313 </i>
    <i name="e_0_energy">   -124.11093240 </i>
   </energy>
  </scstep>
  <scstep>
   <time name="dav">    4.31    4.34</time>
   <time name="total">    4.53    4.58</time>
   <energy>
    <i name="e_fr_energy">   -124.11395169 </i>
    <i name="e_wo_entrp">   -124.10791317 </i>
    <i name="e_0_energy">   -124.11093243 </i>
   </energy>
  </scstep>
  <scstep>
   <time name="dav">    3.95    3.98</time>
   <time name="total">    4.18    4.21</time>
   <energy>
    <i name="e_fr_energy">   -124.11395171 </i>
    <i name="e_wo_entrp">   -124.10791318 </i>
    <i name="e_0_energy">   -124.11093245 </i>
   </energy>
  </scstep>
  <scstep>
   <time name="dav">    4.99    5.02</time>
   <time name="total">    5.02    5.06</time>
   <energy>
    <i name="alphaZ">     59.48700774 </i>
    <i name="ewald">   1818.14453641 </i>
    <i name="hartreedc">  -3426.19095831 </i>
    <i name="XCdc">    167.30607076 </i>
    <i name="pawpsdc">   5569.88608891 </i>
    <i name="pawaedc">  -5569.16714290 </i>
    <i name="eentropy">     -0.00603854 </i>
    <i name="bandstr">   -490.07905816 </i>
    <i name="atom">   1746.50554237 </i>
    <i name="e_fr_energy">   -124.11395171 </i>
    <i name="e_wo_entrp">   -124.10791318 </i>
    <i name="e_0_energy">   -124.11093245 </i>
   </energy>
  </scstep>
  <structure>
   <crystal>
    <varray name="basis" >
     <v>       4.34744753       2.51000000       0.00000000 </v>
     <v>      -4.34744753       2.51000000       0.00000000 </v>
     <v>       0.00000000       0.00000000      15.00000000 </v>
    </varray>
    <i name="volume">    327.36279878 </i>
    <varray name="rec_basis" >
     <v>       0.11501001       0.19920319       0.00000000 </v>
     <v>      -0.11501001       0.19920319       0.00000000 </v>
     <v>       0.00000000       0.00000000       0.06666667 </v>
    </varray>
   </crystal>
   <varray name="positions" >
    <v>       0.66927785      -0.00000010       0.10001488 </v>
    <v>       0.33072123      -0.00000010       0.10001493 </v>
    <v>       0.00000010       0.33072115       0.10001488 </v>
    <v>       0.00000010       0.66927777       0.10001493 </v>
    <v>       0.33072105       0.33072102       0.10001494 </v>
    <v>       0.66927798       0.66927795       0.10001494 </v>
    <v>       0.66666604       0.33333296       0.09924089 </v>
    <v>       0.33333275       0.66666625       0.10079310 </v>
    <v>       0.24999695       0.24999702       0.46905139 </v>
    <v>       0.41666447       0.08333353       0.46905107 </v>
    <v>       0.24999909       0.74999991       0.46905084 </v>
    <v>       0.41666676       0.58333224       0.46905121 </v>
    <v>       0.75000094       0.24999806       0.46905129 </v>
    <v>       0.91666691       0.08333209       0.46905159 </v>
    <v>       0.75000198       0.75000205       0.46905139 </v>
    <v>       0.91666547       0.58333453       0.46905107 </v>
   </varray>
  </structure>
  <varray name="forces" >
   <v>      -0.00217590      -0.00125911       0.00814858 </v>
   <v>       0.00219071       0.00126835       0.00817393 </v>
   <v>      -0.00217590       0.00125911       0.00814858 </v>
   <v>       0.00219071      -0.00126835       0.00817393 </v>
   <v>       0.00000272       0.00253614       0.00817771 </v>
   <v>       0.00000272      -0.00253614       0.00817771 </v>
   <v>      -0.00000706      -0.00000000       0.01075584 </v>
   <v>      -0.00000227      -0.00000000       0.00761665 </v>
   <v>      -0.00010804       0.00042623      -0.00835917 </v>
   <v>       0.00047376       0.00006775      -0.00848585 </v>
   <v>      -0.00001828      -0.00000000      -0.00856998 </v>
   <v>      -0.00007458      -0.00000000      -0.00843247 </v>
   <v>      -0.00056777      -0.00000000      -0.00839928 </v>
   <v>      -0.00009653      -0.00000000      -0.00828116 </v>
   <v>      -0.00010804      -0.00042623      -0.00835917 </v>
   <v>       0.00047376      -0.00006775      -0.00848585 </v>
  </varray>
  <varray name="stress" >
   <v>     -34.58716334       0.00000000      -0.00071071 </v>
   <v>       0.00000000     -34.58796005       0.00000000 </v>
   <v>      -0.00071073       0.00000000      -3.57891046 </v>
  </varray>
  <energy>
   <i name="e_fr_energy">   -125.58598094 </i>
   <i name="e_wo_entrp">   -125.57994241 </i>
   <i name="e_0_energy">   -125.58296168 </i>
  </energy>
  <time name="totalsc">   56.23   56.74</time>
 </calculation>
 <calculation>
  <scstep>
   <time name="dav">    3.35    3.38</time>
   <time name="total">    3.57    3.60</time>
   <energy>
    <i name="alphaZ">     59.48700774 </i>
    <i name="ewald">   1818.78628581 </i>
    <i name="hartreedc">  -3426.83285211 </i>
    <i name="XCdc">    167.30608296 </i>
    <i name="pawpsdc">   5569.88607876 </i>
    <i name="pawaedc">  -5569.16713257 </i>
    <i name="eentropy">     -0.00603840 </i>
    <i name="bandstr">   -490.07893314 </i>
    <i name="atom">   1746.50554237 </i>
    <i name="e_fr_energy">   -124.11395859 </i>
    <i name="e_wo_entrp">   -124.10792019 </i>
    <i name="e_0_energy">   -124.11093939 </i>
   </energy>
  </scstep>
  <scstep>
   <time name="dav">    3.58    3.60</time>
   <time name="total">    3.79    3.83</time>
   <energy>
    <i name="e_fr_energy">   -124.11395800 </i>
    <i name="e_wo_entrp">   -124.10791919 </i>
    <i name="e_0_energy">   -124.11093860 </i>
   </energy>
  </scstep>
  <scstep>
   <time name="dav">    3.75    3.78</time>
   <time name="total">    3.96    4.00</time>
   <energy>
    <i name="e_fr_energy">   -124.11395735 </i>
    <i name="e_wo_entrp">   -124.10791883 </i>
    <i name="e_0_energy">   -124.11093809 </i>
   </energy>
  </scstep>
  <scstep>
   <time name="dav">    5.50    5.54</time>
   <time name="total">    5.71    5.76</time>
   <energy>
    <i name="e_fr_energy">   -124.11395739 </i>
    <i name="e_wo_entrp">   -124.10791898 </i>
    <i name="e_0_energy">   -124.11093818 </i>
   </energy>
  </scstep>
  <scstep>
   <time name="dav">    4.79    4.82</time>
   <time name="total">    4.82    4.86</time>
   <energy>
    <i name="alphaZ">     59.48700774 </i>
    <i name="ewald">   1818.78628581 </i>
    <i name="hartreedc">  -3426.83683110 </i>
    <i name="XCdc">    167.30609402 </i>
    <i name="pawpsdc">   5569.88579767 </i>
    <i name="pawaedc">  -5569.16685148 </i>
    <i name="eentropy">     -0.00603838 </i>
    <i name="bandstr">   -490.07496403 </i>
    <i name="atom">   1746.50554237 </i>
    <i name="e_fr_energy">   -124.11395739 </i>
    <i name="e_wo_entrp">   -124.10791901 </i>
    <i name="e_0_energy">   -124.11093820 </i>
   </energy>
  </scstep>
  <structure>
   <crystal>
    <varray name="basis" >
     <v>       4.34744753       2.51000000       0.00000000 </v>
     <v>      -4.34744753       2.51000000       0.00000000 </v>
     <v>       0.00000000       0.00000000      15.00000000 </v>
    </varray>
    <i name="volume">    327.36279878 </i>
    <varray name="rec_basis" >
     <v>       0.11501001       0.19920319       0.00000000 </v>
     <v>      -0.11501001       0.19920319       0.00000000 </v>
     <v>       0.00000000       0.00000000       0.06666667 </v>
    </varray>
   </crystal>
   <varray name="positions" >
    <v>       0.66927799      -0.00000013       0.10003968 </v>
    <v>       0.33072125      -0.00000008       0.10003981 </v>
    <v>       0.00000013       0.33072101       0.10003968 </v>
    <v>       0.00000008       0.66927775       0.10003981 </v>
    <v>       0.33072110       0.33072105       0.10003982 </v>
    <v>       0.66927795       0.66927790       0.10003982 </v>
    <v>       0.66666600       0.33333300       0.09927359 </v>
    <v>       0.33333272       0.66666628       0.10081635 </v>
    <v>       0.25000001       0.25000116       0.46902594 </v>
    <v>       0.41666736       0.08333177       0.46902524 </v>
    <v>       0.24999899       0.75000001       0.46902475 </v>
    <v>       0.41666641       0.58333259       0.46902554 </v>
    <v>       0.74999816       0.25000084       0.46902572 </v>
    <v>       0.91666645       0.08333255       0.46902639 </v>
    <v>       0.74999784       0.74999899       0.46902594 </v>
    <v>       0.91666723       0.58333164       0.46902524 </v>
   </varray>
  </structure>
  <varray name="forces" >
   <v>      -0.00218770      -0.00127268       0.00815778 </v>
   <v>       0.00219916       0.00125745       0.00818087 </v>
   <v>      -0.00218770       0.00127268       0.00815778 </v>
   <v>       0.00219916      -0.00125745       0.00818087 </v>
   <v>      -0.00000396       0.00252883       0.00818391 </v>
   <v>      -0.00000396      -0.00252883       0.00818391 </v>
   <v>       0.00000998       0.00000000       0.01066271 </v>
   <v>       0.00000082      -0.00000000       0.00754667 </v>
   <v>       0.00036633      -0.00084766      -0.00837345 </v>
   <v>      -0.00114077      -0.00010901      -0.00844050 </v>
   <v>       0.00022267       0.00000000      -0.00848240 </v>
   <v>      -0.00001337      -0.00000000      -0.00841511 </v>
   <v>       0.00132124       0.00000000      -0.00839703 </v>
   <v>      -0.00000746      -0.00000000      -0.00833205 </v>
   <v>       0.00036633       0.00084766      -0.00837345 </v>
   <v>      -0.00114077       0.00010901      -0.00844050 </v>
  </varray>
  <varray name="stress" >
   <v>     -34.58907333       0.00000000      -0.00071345 </v>
   <v>       0.00000000     -34.58601281       0.00000000 </v>
   <v>      -0.00071345       0.00000000      -3.58076058 </v>
  </varray>
  <energy>
   <i name="e_fr_energy">   -125.58603303 </i>
   <i name="e_wo_entrp">   -125.57999464 </i>
   <i name="e_0_energy">   -125.58301384 </i>
  </energy>
  <time name="totalsc">   25.06   28.87</time>
 </calculation>
 <calculation>
  <scstep>
   <time name="dav">    3.30    3.33</time>
   <time name="total">    3.51    3.54</time>
   <energy>
    <i name="alphaZ">     59.48700774 </i>
    <i name="ewald">   1820.71302772 </i>
    <i name="hartreedc">  -3428.76233099 </i>
    <i name="XCdc">    167.30612333 </i>
    <i name="pawpsdc">   5569.88666063 </i>
    <i name="pawaedc">  -5569.16771471 </i>
    <i name="eentropy">     -0.00603796 </i>
    <i name="bandstr">   -490.07626240 </i>
    <i name="atom">   1746.50554237 </i>
    <i name="e_fr_energy">   -124.11398428 </i>
    <i name="e_wo_entrp">   -124.10794632 </i>
    <i name="e_0_energy">   -124.11096530 </i>
   </energy>
  </scstep>
  <scstep>
   <time name="dav">    3.55    3.58</time>
   <time name="total">    3.76    3.79</time>
   <energy>
    <i name="e_fr_energy">   -124.11397874 </i>
    <i name="e_wo_entrp">   -124.10793959 </i>
    <i name="e_0_energy">   -124.11095917 </i>
   </energy>
  </scstep>
  <scstep>
   <time name="dav">    4.42    4.45</time>
   <time name="total">    4.62    4.67</time>
   <energy>
    <i name="e_fr_energy">   -124.11397254 </i>
    <i name="e_wo_entrp">   -124.10793418 </i>
    <i name="e_0_energy">   -124.11095336 </i>
   </energy>
  </scstep>
  <scstep>
   <time name="dav">    3.75    3.78</time>
   <time name="total">    3.95    3.99</time>
   <energy>
    <i name="e_fr_energy">   -124.11397312 </i>
    <i name="e_wo_entrp">   -124.10793510 </i>
    <i name="e_0_energy">   -124.11095411 </i>
   </energy>
  </scstep>
  <scstep>
   <time name="dav">    3.67    3.70</time>
   <time name="total">    3.87    3.92</time>
   <energy>
    <i name="e_fr_energy">   -124.11397326 </i>
    <i name="e_wo_entrp">   -124.10793533 </i>
    <i name="e_0_energy">   -124.11095429 </i>
   </energy>
  </scstep>
  <scstep>
   <time name="dav">    5.65    5.69</time>
   <time name="total">    5.68    5.72</time>
   <energy>
    <i name="alphaZ">     59.48700774 </i>
    <i name="ewald">   1820.71302772 </i>
    <i name="hartreedc">  -3428.76941598 </i>
    <i name="XCdc">    167.30615280 </i>
    <i name="pawpsdc">   5569.88655921 </i>
    <i name="pawaedc">  -5569.16761334 </i>
    <i name="eentropy">     -0.00603795 </i>
    <i name="bandstr">   -490.06919581 </i>
    <i name="atom">   1746.50554237 </i>
    <i name="e_fr_energy">   -124.11397325 </i>
    <i name="e_wo_entrp">   -124.10793530 </i>
    <i name="e_0_energy">   -124.11095427 </i>
   </energy>
  </scstep>
  <structure>
   <crystal>
    <varray name="basis" >
     <v>       4.34744753       2.51000000       0.00000000 </v>
     <v>      -4.34744753       2.51000000       0.00000000 </v>
     <v>       0.00000000       0.00000000      15.00000000 </v>
    </varray>
    <i name="volume">    327.36279878 </i>
    <varray name="rec_basis" >
     <v>       0.11501001       0.19920319       0.00000000 </v>
     <v>      -0.11501001       0.19920319       0.00000000 </v>
     <v>       0.00000000       0.00000000       0.06666667 </v>
    </varray>
   </crystal>
   <varray name="positions" >
    <v>       0.66927841      -0.00000022       0.10011408 </v>
    <v>       0.33072131      -0.00000000       0.10011444 </v>
    <v>       0.00000022       0.33072059       0.10011408 </v>
    <v>       0.00000000       0.66927769       0.10011444 </v>
    <v>       0.33072125       0.33072111       0.10011449 </v>
    <v>       0.66927789       0.66927775       0.10011449 </v>
    <v>       0.66666590       0.33333310       0.09937169 </v>
    <v>       0.33333264       0.66666636       0.10088607 </v>
    <v>       0.25000919       0.25001358       0.46894962 </v>
    <v>       0.41667604       0.08332650       0.46894774 </v>
    <v>       0.24999867       0.75000033       0.46894648 </v>
    <v>       0.41666534       0.58333366       0.46894854 </v>
    <v>       0.74998979       0.25000921       0.46894903 </v>
    <v>       0.91666508       0.08333392       0.46895079 </v>
    <v>       0.74998542       0.74998981       0.46894962 </v>
    <v>       0.91667250       0.58332296       0.46894774 </v>
   </varray>
  </structure>
  <varray name="forces" >
   <v>      -0.00221988      -0.00130810       0.00827729 </v>
   <v>       0.00221849       0.00122460       0.00829384 </v>
   <v>      -0.00221988       0.00130810       0.00827729 </v>
   <v>       0.00221849      -0.00122460       0.00829384 </v>
   <v>      -0.00002089       0.00250155       0.00829458 </v>
   <v>      -0.00002089      -0.00250155       0.00829458 </v>
   <v>       0.00006081      -0.00000000       0.01044973 </v>
   <v>       0.00000972      -0.00000000       0.00739484 </v>
   <v>       0.00178583      -0.00467728      -0.00849973 </v>
   <v>      -0.00598349      -0.00064399      -0.00838996 </v>
   <v>       0.00093714      -0.00000000      -0.00830591 </v>
   <v>       0.00017425      -0.00000000      -0.00844771 </v>
   <v>       0.00698677       0.00000000      -0.00847498 </v>
   <v>       0.00027121      -0.00000000      -0.00856800 </v>
   <v>       0.00178583       0.00467728      -0.00849973 </v>
   <v>      -0.00598349       0.00064399      -0.00838996 </v>
  </varray>
  <varray name="stress" >
   <v>     -34.59465577       0.00000000      -0.00071977 </v>
   <v>       0.00000000     -34.58031502       0.00000000 </v>
   <v>      -0.00071975       0.00000000      -3.58615575 </v>
  </varray>
  <energy>
   <i name="e_fr_energy">   -125.58618828 </i>
   <i name="e_wo_entrp">   -125.58015033 </i>
   <i name="e_0_energy">   -125.58316930 </i>
  </energy>
  <time name="totalsc">   28.55   28.81</time>
 </calculation>
 <calculation>
  <scstep>
   <time name="dav">    3.30    3.32</time>
   <time name="total">    3.50    3.54</time>
   <energy>
    <i name="alphaZ">     59.48700774 </i>
    <i name="ewald">   1824.57323322 </i>
    <i name="hartreedc">  -3432.62579459 </i>
    <i name="XCdc">    167.30620118 </i>
    <i name="pawpsdc">   5569.88986292 </i>
    <i name="pawaedc">  -5569.17091722 </i>
    <i name="eentropy">     -0.00603702 </i>
    <i name="bandstr">   -490.07314348 </i>
    <i name="atom">   1746.50554237 </i>
    <i name="e_fr_energy">   -124.11404489 </i>
    <i name="e_wo_entrp">   -124.10800786 </i>
    <i name="e_0_energy">   -124.11102637 </i>
   </energy>
  </scstep>
  <scstep>
   <time name="dav">    3.48    3.50</time>
   <time name="total">    3.68    3.71</time>
   <energy>
    <i name="e_fr_energy">   -124.11402529 </i>
    <i name="e_wo_entrp">   -124.10798596 </i>
    <i name="e_0_energy">   -124.11100563 </i>
   </energy>
  </scstep>
  <scstep>
   <time name="dav">    4.49    4.54</time>
   <time name="total">    4.70    4.75</time>
   <energy>
    <i name="e_fr_energy">   -124.11399704 </i>
    <i name="e_wo_entrp">   -124.10795921 </i>
    <i name="e_0_energy">   -124.11097813 </i>
   </energy>
  </scstep>
  <scstep>
   <time name="dav">    4.03    4.06</time>
   <time name="total">    4.23    4.27</time>
   <energy>
    <i name="e_fr_energy">   -124.11399886 </i>
    <i name="e_wo_entrp">   -124.10796174 </i>
    <i name="e_0_energy">   -124.11098030 </i>
   </energy>
  </scstep>
  <scstep>
   <time name="dav">    3.74    3.77</time>
   <time name="total">    3.94    3.99</time>
   <energy>
    <i name="e_fr_energy">   -124.11399977 </i>
    <i name="e_wo_entrp">   -124.10796282 </i>
    <i name="e_0_energy">   -124.11098129 </i>
   </energy>
  </scstep>
  <scstep>
   <time name="dav">    5.10    5.13</time>
   <time name="total">    5.30    5.35</time>
   <energy>
    <i name="e_fr_energy">   -124.11399982 </i>
    <i name="e_wo_entrp">   -124.10796282 </i>
    <i name="e_0_energy">   -124.11098132 </i>
   </energy>
  </scstep>
  <scstep>
   <time name="dav">    3.99    4.02</time>
   <time name="total">    4.20    4.23</time>
   <energy>
    <i name="e_fr_energy">   -124.11400002 </i>
    <i name="e_wo_entrp">   -124.10796302 </i>
    <i name="e_0_energy">   -124.11098152 </i>
   </energy>
  </scstep>
  <scstep>
   <time name="dav">    4.14    4.17</time>
   <time name="total">    4.35    4.38</time>
   <energy>
    <i name="e_fr_energy">   -124.11400056 </i>
    <i name="e_wo_entrp">   -124.10796361 </i>
    <i name="e_0_energy">   -124.11098209 </i>
   </energy>
  </scstep>
  <scstep>
   <time name="dav">    4.28    4.31</time>
   <time name="total">    4.48    4.52</time>
   <energy>
    <i name="e_fr_energy">   -124.11400093 </i>
    <i name="e_wo_entrp">   -124.10796400 </i>
    <i name="e_0_energy">   -124.11098247 </i>
   </energy>
  </scstep>
  <scstep>
   <time name="dav">    4.38    4.41</time>
   <time name="total">    4.59    4.63</time>
   <energy>
    <i name="e_fr_energy">   -124.11400128 </i>
    <i name="e_wo_entrp">   -124.10796433 </i>
    <i name="e_0_energy">   -124.11098280 </i>
   </energy>
  </scstep>
  <scstep>
   <time name="dav">    4.91    4.94</time>
   <time name="total">    5.11    5.16</time>
   <energy>
    <i name="e_fr_energy">   -124.11400129 </i>
    <i name="e_wo_entrp">   -124.10796433 </i>
    <i name="e_0_energy">   -124.11098281 </i>
   </energy>
  </scstep>
  <scstep>
   <time name="dav">    4.91    4.94</time>
   <time name="total">    5.12    5.17</time>
   <energy>
    <i name="e_fr_energy">   -124.11400131 </i>
    <i name="e_wo_entrp">   -124.10796435 </i>
    <i name="e_0_energy">   -124.11098283 </i>
   </energy>
  </scstep>
  <scstep>
   <time name="dav">    5.22    5.25</time>
   <time name="total">    5.25    5.28</time>
   <energy>
    <i name="alphaZ">     59.48700774 </i>
    <i name="ewald">   1824.57323322 </i>
    <i name="hartreedc">  -3432.61770026 </i>
    <i name="XCdc">    167.30611674 </i>
    <i name="pawpsdc">   5569.90210915 </i>
    <i name="pawaedc">  -5569.18316782 </i>
    <i name="eentropy">     -0.00603696 </i>
    <i name="bandstr">   -490.08110550 </i>
    <i name="atom">   1746.50554237 </i>
    <i name="e_fr_energy">   -124.11400132 </i>
    <i name="e_wo_entrp">   -124.10796436 </i>
    <i name="e_0_energy">   -124.11098284 </i>
   </energy>
  </scstep>
  <structure>
   <crystal>
    <varray name="basis" >
     <v>       4.34744753       2.51000000       0.00000000 </v>
     <v>      -4.34744753       2.51000000       0.00000000 </v>
     <v>       0.00000000       0.00000000      15.00000000 </v>
    </varray>
    <i name="volume">    327.36279878 </i>
    <varray name="rec_basis" >
     <v>       0.11501001       0.19920319       0.00000000 </v>
     <v>      -0.11501001       0.19920319       0.00000000 </v>
     <v>       0.00000000       0.00000000       0.06666667 </v>
    </varray>
   </crystal>
   <varray name="positions" >
    <v>       0.66927924      -0.00000040       0.10026288 </v>
    <v>       0.33072144       0.00000015       0.10026370 </v>
    <v>       0.00000040       0.33071976       0.10026288 </v>
    <v>      -0.00000015       0.66927756       0.10026370 </v>
    <v>       0.33072155       0.33072124       0.10026382 </v>
    <v>       0.66927776       0.66927745       0.10026382 </v>
    <v>       0.66666570       0.33333330       0.09956788 </v>
    <v>       0.33333249       0.66666651       0.10102553 </v>
    <v>       0.25002756       0.25003843       0.46879697 </v>
    <v>       0.41669339       0.08331595       0.46879275 </v>
    <v>       0.24999803       0.75000097       0.46878992 </v>
    <v>       0.41666322       0.58333578       0.46879454 </v>
    <v>       0.74997307       0.25002593       0.46879564 </v>
    <v>       0.91666234       0.08333666       0.46879958 </v>
    <v>       0.74996057       0.74997144       0.46879697 </v>
    <v>       0.91668305       0.58330561       0.46879275 </v>
   </varray>
  </structure>
  <varray name="forces" >
   <v>      -0.00229083      -0.00138404       0.00848692 </v>
   <v>       0.00226510       0.00116227       0.00849047 </v>
   <v>      -0.00229083       0.00138404       0.00848692 </v>
   <v>       0.00226510      -0.00116227       0.00849047 </v>
   <v>      -0.00005579       0.00245581       0.00848655 </v>
   <v>      -0.00005579      -0.00245581       0.00848655 </v>
   <v>       0.00016211      -0.00000000       0.00999659 </v>
   <v>       0.00002747      -0.00000000       0.00705391 </v>
   <v>       0.00461523      -0.01232649      -0.00872253 </v>
   <v>      -0.01565402      -0.00170964      -0.00825866 </v>
   <v>       0.00236610      -0.00000000      -0.00792382 </v>
   <v>       0.00055276      -0.00000000      -0.00848282 </v>
   <v>       0.01830335      -0.00000000      -0.00859908 </v>
   <v>       0.00082882      -0.00000000      -0.00901029 </v>
   <v>       0.00461523       0.01232649      -0.00872253 </v>
   <v>      -0.01565402       0.00170964      -0.00825866 </v>
  </varray>
  <varray name="stress" >
   <v>     -34.60578658       0.00000000      -0.00072848 </v>
   <v>       0.00000000     -34.56936680       0.00000000 </v>
   <v>      -0.00072850       0.00000000      -3.58943631 </v>
  </varray>
  <energy>
   <i name="e_fr_energy">   -125.58649609 </i>
   <i name="e_wo_entrp">   -125.58045913 </i>
   <i name="e_0_energy">   -125.58347761 </i>
  </energy>
  <time name="totalsc">   61.58   62.16</time>
 </calculation>
 <calculation>
  <scstep>
   <time name="dav">    3.30    3.32</time>
   <time name="total">    3.51    3.54</time>
   <energy>
    <i name="alphaZ">     59.48700774 </i>
    <i name="ewald">   1832.32053065 </i>
    <i name="hartreedc">  -3440.36017817 </i>
    <i name="XCdc">    167.30619878 </i>
    <i name="pawpsdc">   5569.90246465 </i>
    <i name="pawaedc">  -5569.18352337 </i>
    <i name="eentropy">     -0.00603484 </i>
    <i name="bandstr">   -490.08622163 </i>
    <i name="atom">   1746.50554237 </i>
    <i name="e_fr_energy">   -124.11421383 </i>
    <i name="e_wo_entrp">   -124.10817899 </i>
    <i name="e_0_energy">   -124.11119641 </i>
   </energy>
  </scstep>
  <scstep>
   <time name="dav">    3.74    3.77</time>
   <time name="total">    3.94    3.98</time>
   <energy>
    <i name="e_fr_energy">   -124.11414928 </i>
    <i name="e_wo_entrp">   -124.10811005 </i>
    <i name="e_0_energy">   -124.11112966 </i>
   </energy>
  </scstep>
  <scstep>
   <time name="dav">    4.92    4.96</time>
   <time name="total">    5.13    5.17</time>
   <energy>
    <i name="e_fr_energy">   -124.11403151 </i>
    <i name="e_wo_entrp">   -124.10799487 </i>
    <i name="e_0_energy">   -124.11101319 </i>
   </energy>
  </scstep>
  <scstep>
   <time name="dav">    4.77    4.80</time>
   <time name="total">    4.98    5.02</time>
   <energy>
    <i name="e_fr_energy">   -124.11403544 </i>
    <i name="e_wo_entrp">   -124.10800032 </i>
    <i name="e_0_energy">   -124.11101788 </i>
   </energy>
  </scstep>
  <scstep>
   <time name="dav">    4.16    4.19</time>
   <time name="total">    4.37    4.41</time>
   <energy>
    <i name="e_fr_energy">   -124.11403493 </i>
    <i name="e_wo_entrp">   -124.10800026 </i>
    <i name="e_0_energy">   -124.11101759 </i>
   </energy>
  </scstep>
  <scstep>
   <time name="dav">    5.42    5.45</time>
   <time name="total">    5.62    5.67</time>
   <energy>
    <i name="e_fr_energy">   -124.11403432 </i>
    <i name="e_wo_entrp">   -124.10799949 </i>
    <i name="e_0_energy">   -124.11101691 </i>
   </energy>
  </scstep>
  <scstep>
   <time name="dav">    3.86    3.89</time>
   <time name="total">    4.07    4.11</time>
   <energy>
    <i name="e_fr_energy">   -124.11403503 </i>
    <i name="e_wo_entrp">   -124.10800021 </i>
    <i name="e_0_energy">   -124.11101762 </i>
   </energy>
  </scstep>
  <scstep>
   <time name="dav">    4.13    4.16</time>
   <time name="total">    4.36    4.40</time>
   <energy>
    <i name="e_fr_energy">   -124.11403640 </i>
    <i name="e_wo_entrp">   -124.10800167 </i>
    <i name="e_0_energy">   -124.11101904 </i>
   </energy>
  </scstep>
  <scstep>
   <time name="dav">    4.20    4.22</time>
   <time name="total">    4.40    4.44</time>
   <energy>
    <i name="e_fr_energy">   -124.11403780 </i>
    <i name="e_wo_entrp">   -124.10800311 </i>
    <i name="e_0_energy">   -124.11102045 </i>
   </energy>
  </scstep>
  <scstep>
   <time name="dav">    4.03    4.05</time>
   <time name="total">    4.23    4.27</time>
   <energy>
    <i name="e_fr_energy">   -124.11403933 </i>
    <i name="e_wo_entrp">   -124.10800462 </i>
    <i name="e_0_energy">   -124.11102198 </i>
   </energy>
  </scstep>
  <scstep>
   <time name="dav">    5.12    5.16</time>
   <time name="total">    5.33    5.37</time>
   <energy>
    <i name="e_fr_energy">   -124.11403954 </i>
    <i name="e_wo_entrp">   -124.10800479 </i>
    <i name="e_0_energy">   -124.11102217 </i>
   </energy>
  </scstep>
  <scstep>
   <time name="dav">    5.03    5.07</time>
   <time name="total">    5.24    5.29</time>
   <energy>
    <i name="e_fr_energy">   -124.11403960 </i>
    <i name="e_wo_entrp">   -124.10800485 </i>
    <i name="e_0_energy">   -124.11102222 </i>
   </energy>
  </scstep>
  <scstep>
   <time name="dav">    5.15    5.18</time>
   <time name="total">    5.19    5.22</time>
   <energy>
    <i name="alphaZ">     59.48700774 </i>
    <i name="ewald">   1832.32053065 </i>
    <i name="hartreedc">  -3440.36190184 </i>
    <i name="XCdc">    167.30615922 </i>
    <i name="pawpsdc">   5569.92096790 </i>
    <i name="pawaedc">  -5569.20203208 </i>
    <i name="eentropy">     -0.00603475 </i>
    <i name="bandstr">   -490.08427880 </i>
    <i name="atom">   1746.50554237 </i>
    <i name="e_fr_energy">   -124.11403960 </i>
    <i name="e_wo_entrp">   -124.10800485 </i>
    <i name="e_0_energy">   -124.11102223 </i>
   </energy>
  </scstep>
  <structure>
   <crystal>
    <varray name="basis" >
     <v>       4.34744753       2.51000000       0.00000000 </v>
     <v>      -4.34744753       2.51000000       0.00000000 </v>
     <v>       0.00000000       0.00000000      15.00000000 </v>
    </varray>
    <i name="volume">    327.36279878 </i>
    <varray name="rec_basis" >
     <v>       0.11501001       0.19920319       0.00000000 </v>
     <v>      -0.11501001       0.19920319       0.00000000 </v>
     <v>       0.00000000       0.00000000       0.06666667 </v>
    </varray>
   </crystal>
   <varray name="positions" >
    <v>       0.66928092      -0.00000077       0.10056047 </v>
    <v>       0.33072169       0.00000045       0.10056223 </v>
    <v>       0.00000077       0.33071808       0.10056047 </v>
    <v>      -0.00000045       0.66927731       0.10056223 </v>
    <v>       0.33072215       0.33072150       0.10056249 </v>
    <v>       0.66927750       0.66927685       0.10056249 </v>
    <v>       0.66666530       0.33333370       0.09996027 </v>
    <v>       0.33333218       0.66666682       0.10130444 </v>
    <v>       0.25006428       0.25008812       0.46849167 </v>
    <v>       0.41672809       0.08329485       0.46848277 </v>
    <v>       0.24999675       0.75000225       0.46847682 </v>
    <v>       0.41665897       0.58334003       0.46848654 </v>
    <v>       0.74993962       0.25005938       0.46848885 </v>
    <v>       0.91665686       0.08334214       0.46849717 </v>
    <v>       0.74991088       0.74993472       0.46849167 </v>
    <v>       0.91670415       0.58327091       0.46848277 </v>
   </varray>
  </structure>
  <varray name="forces" >
   <v>      -0.00243714      -0.00152675       0.00888599 </v>
   <v>       0.00235197       0.00104592       0.00886305 </v>
   <v>      -0.00243714       0.00152675       0.00888599 </v>
   <v>       0.00235197      -0.00104592       0.00886305 </v>
   <v>      -0.00011538       0.00236333       0.00885044 </v>
   <v>      -0.00011538      -0.00236333       0.00885044 </v>
   <v>       0.00036508       0.00000000       0.00907965 </v>
   <v>       0.00006428      -0.00000000       0.00637152 </v>
   <v>       0.01027941      -0.02763578      -0.00915231 </v>
   <v>      -0.03500554      -0.00385363      -0.00797851 </v>
   <v>       0.00522822       0.00000000      -0.00714089 </v>
   <v>       0.00129763       0.00000000      -0.00853704 </v>
   <v>       0.04095583       0.00000000      -0.00883103 </v>
   <v>       0.00194229       0.00000000      -0.00987954 </v>
   <v>       0.01027941       0.02763578      -0.00915231 </v>
   <v>      -0.03500554       0.00385363      -0.00797851 </v>
  </varray>
  <varray name="stress" >
   <v>     -34.62802929       0.00000000      -0.00078813 </v>
   <v>       0.00000000     -34.54681493       0.00000000 </v>
   <v>      -0.00078814       0.00000000      -3.60151172 </v>
  </varray>
  <energy>
   <i name="e_fr_energy">   -125.58709777 </i>
   <i name="e_wo_entrp">   -125.58106302 </i>
   <i name="e_0_energy">   -125.58408039 </i>
  </energy>
  <time name="totalsc">   63.51   64.07</time>
 </calculation>
 <calculation>
  <scstep>
   <time name="dav">    3.29    3.31</time>
   <time name="total">    3.50    3.53</time>
   <energy>
    <i name="alphaZ">     59.48700774 </i>
    <i name="ewald">   1847.92267378 </i>
    <i name="hartreedc">  -3455.94705357 </i>
    <i name="XCdc">    167.30625828 </i>
    <i name="pawpsdc">   5569.92138465 </i>
    <i name="pawaedc">  -5569.20244893 </i>
    <i name="eentropy">     -0.00602948 </i>
    <i name="bandstr">   -490.10206809 </i>
    <i name="atom">   1746.50554237 </i>
    <i name="e_fr_energy">   -124.11473326 </i>
    <i name="e_wo_entrp">   -124.10870378 </i>
    <i name="e_0_energy">   -124.11171852 </i>
   </energy>
  </scstep>
  <scstep>
   <time name="dav">    4.21    4.23</time>
   <time name="total">    4.41    4.45</time>
   <energy>
    <i name="e_fr_energy">   -124.11449105 </i>
    <i name="e_wo_entrp">   -124.10845367 </i>
    <i name="e_0_energy">   -124.11147236 </i>
   </energy>
  </scstep>
  <scstep>
   <time name="dav">    4.65    4.68</time>
   <time name="total">    4.85    4.90</time>
   <energy>
    <i name="e_fr_energy">   -124.11402255 </i>
    <i name="e_wo_entrp">   -124.10798902 </i>
    <i name="e_0_energy">   -124.11100579 </i>
   </energy>
  </scstep>
  <scstep>
   <time name="dav">    6.19    6.23</time>
   <time name="total">    6.39    6.45</time>
   <energy>
    <i name="e_fr_energy">   -124.11403248 </i>
    <i name="e_wo_entrp">   -124.10800227 </i>
    <i name="e_0_energy">   -124.11101738 </i>
   </energy>
  </scstep>
  <scstep>
   <time name="dav">    4.18    4.21</time>
   <time name="total">    4.38    4.42</time>
   <energy>
    <i name="e_fr_energy">   -124.11402700 </i>
    <i name="e_wo_entrp">   -124.10799797 </i>
    <i name="e_0_energy">   -124.11101248 </i>
   </energy>
  </scstep>
  <scstep>
   <time name="dav">    5.77    5.81</time>
   <time name="total">    5.98    6.03</time>
   <energy>
    <i name="e_fr_energy">   -124.11402574 </i>
    <i name="e_wo_entrp">   -124.10799638 </i>
    <i name="e_0_energy">   -124.11101106 </i>
   </energy>
  </scstep>
  <scstep>
   <time name="dav">    3.52    3.55</time>
   <time name="total">    3.73    3.76</time>
   <energy>
    <i name="e_fr_energy">   -124.11402770 </i>
    <i name="e_wo_entrp">   -124.10799828 </i>
    <i name="e_0_energy">   -124.11101299 </i>
   </energy>
  </scstep>
  <scstep>
   <time name="dav">    3.90    3.93</time>
   <time name="total">    4.11    4.14</time>
   <energy>
    <i name="e_fr_energy">   -124.11403050 </i>
    <i name="e_wo_entrp">   -124.10800129 </i>
    <i name="e_0_energy">   -124.11101590 </i>
   </energy>
  </scstep>
  <scstep>
   <time name="dav">    4.25    4.29</time>
   <time name="total">    4.46    4.51</time>
   <energy>
    <i name="e_fr_energy">   -124.11403365 </i>
    <i name="e_wo_entrp">   -124.10800453 </i>
[...]
   <v>       0.12329480      -1.07548806      -0.08069237 </v>
   <v>      -1.06563869      -0.19046007       0.05771053 </v>
   <v>      -0.14748379      -0.00000000       0.12743147 </v>
   <v>       0.35398276      -0.00000000      -0.00582571 </v>
   <v>       1.27654928      -0.00000000      -0.02906185 </v>
   <v>       0.38738601      -0.00000000      -0.17097700 </v>
   <v>       0.12329480       1.07548806      -0.08069237 </v>
   <v>      -1.06563869       0.19046007       0.05771053 </v>
  </varray>
  <varray name="stress" >
   <v>     -39.08873014       0.00000000      -0.11840300 </v>
   <v>       0.00000000     -36.48648695       0.00000000 </v>
   <v>      -0.11840298       0.00000000      -4.24528623 </v>
  </varray>
  <energy>
   <i name="e_fr_energy">   -125.76589843 </i>
   <i name="e_wo_entrp">   -125.75992127 </i>
   <i name="e_0_energy">   -125.76290985 </i>
  </energy>
  <time name="totalsc">  116.35  118.11</time>
 </calculation>
 <calculation>
  <scstep>
   <time name="dav">    3.30    3.32</time>
   <time name="total">    3.50    3.54</time>
   <energy>
    <i name="alphaZ">     59.48700774 </i>
    <i name="ewald">   4277.94467834 </i>
    <i name="hartreedc">  -5885.02641760 </i>
    <i name="XCdc">    167.41135638 </i>
    <i name="pawpsdc">   5531.52520061 </i>
    <i name="pawaedc">  -5530.79486914 </i>
    <i name="eentropy">     -0.00532144 </i>
    <i name="bandstr">   -491.02461906 </i>
    <i name="atom">   1746.50554237 </i>
    <i name="e_fr_energy">   -123.97744181 </i>
    <i name="e_wo_entrp">   -123.97212037 </i>
    <i name="e_0_energy">   -123.97478109 </i>
   </energy>
  </scstep>
  <scstep>
   <time name="dav">    4.07    4.09</time>
   <time name="total">    4.27    4.31</time>
   <energy>
    <i name="e_fr_energy">   -123.97222947 </i>
    <i name="e_wo_entrp">   -123.96737206 </i>
    <i name="e_0_energy">   -123.96980077 </i>
   </energy>
  </scstep>
  <scstep>
   <time name="dav">    6.60    6.64</time>
   <time name="total">    6.80    6.86</time>
   <energy>
    <i name="e_fr_energy">   -123.94405647 </i>
    <i name="e_wo_entrp">   -123.93941071 </i>
    <i name="e_0_energy">   -123.94173359 </i>
   </energy>
  </scstep>
  <scstep>
   <time name="dav">    6.03    6.07</time>
   <time name="total">    6.24    6.29</time>
   <energy>
    <i name="e_fr_energy">   -123.94424682 </i>
    <i name="e_wo_entrp">   -123.93961230 </i>
    <i name="e_0_energy">   -123.94192956 </i>
   </energy>
  </scstep>
  <scstep>
   <time name="dav">    6.58    6.62</time>
   <time name="total">    6.79    6.84</time>
   <energy>
    <i name="e_fr_energy">   -123.94389813 </i>
    <i name="e_wo_entrp">   -123.93929409 </i>
    <i name="e_0_energy">   -123.94159611 </i>
   </energy>
  </scstep>
  <scstep>
   <time name="dav">    5.07    5.11</time>
   <time name="total">    5.27    5.32</time>
   <energy>
    <i name="e_fr_energy">   -123.94385101 </i>
    <i name="e_wo_entrp">   -123.93926092 </i>
    <i name="e_0_energy">   -123.94155596 </i>
   </energy>
  </scstep>
  <scstep>
   <time name="dav">    5.02    5.06</time>
   <time name="total">    5.24    5.28</time>
   <energy>
    <i name="e_fr_energy">   -123.94390322 </i>
    <i name="e_wo_entrp">   -123.93933136 </i>
    <i name="e_0_energy">   -123.94161729 </i>
   </energy>
  </scstep>
  <scstep>
   <time name="dav">    4.61    4.64</time>
   <time name="total">    4.82    4.86</time>
   <energy>
    <i name="e_fr_energy">   -123.94395254 </i>
    <i name="e_wo_entrp">   -123.93938320 </i>
    <i name="e_0_energy">   -123.94166787 </i>
   </energy>
  </scstep>
  <scstep>
   <time name="dav">    5.50    5.53</time>
   <time name="total">    5.70    5.75</time>
   <energy>
    <i name="e_fr_energy">   -123.94399692 </i>
    <i name="e_wo_entrp">   -123.93942858 </i>
    <i name="e_0_energy">   -123.94171275 </i>
   </energy>
  </scstep>
  <scstep>
   <time name="dav">    5.52    5.56</time>
   <time name="total">    5.72    5.78</time>
   <energy>
    <i name="e_fr_energy">   -123.94401582 </i>
    <i name="e_wo_entrp">   -123.93944828 </i>
    <i name="e_0_energy">   -123.94173205 </i>
   </energy>
  </scstep>
  <scstep>
   <time name="dav">    5.30    5.34</time>
   <time name="total">    5.51    5.56</time>
   <energy>
    <i name="e_fr_energy">   -123.94402944 </i>
    <i name="e_wo_entrp">   -123.93946232 </i>
    <i name="e_0_energy">   -123.94174588 </i>
   </energy>
  </scstep>
  <scstep>
   <time name="dav">    6.08    6.12</time>
   <time name="total">    6.29    6.34</time>
   <energy>
    <i name="e_fr_energy">   -123.94403440 </i>
    <i name="e_wo_entrp">   -123.93946689 </i>
    <i name="e_0_energy">   -123.94175065 </i>
   </energy>
  </scstep>
  <scstep>
   <time name="dav">    5.34    5.38</time>
   <time name="total">    5.55    5.60</time>
   <energy>
    <i name="e_fr_energy">   -123.94403656 </i>
    <i name="e_wo_entrp">   -123.93946870 </i>
    <i name="e_0_energy">   -123.94175263 </i>
   </energy>
  </scstep>
  <scstep>
   <time name="dav">    6.34    6.39</time>
   <time name="total">    6.55    6.60</time>
   <energy>
    <i name="e_fr_energy">   -123.94403704 </i>
    <i name="e_wo_entrp">   -123.93946912 </i>
    <i name="e_0_energy">   -123.94175308 </i>
   </energy>
  </scstep>
  <scstep>
   <time name="dav">    5.47    5.51</time>
   <time name="total">    5.67    5.73</time>
   <energy>
    <i name="e_fr_energy">   -123.94403733 </i>
    <i name="e_wo_entrp">   -123.93946940 </i>
    <i name="e_0_energy">   -123.94175337 </i>
   </energy>
  </scstep>
  <scstep>
   <time name="dav">    5.28    5.31</time>
   <time name="total">    5.48    5.53</time>
   <energy>
    <i name="e_fr_energy">   -123.94403765 </i>
    <i name="e_wo_entrp">   -123.93946970 </i>
    <i name="e_0_energy">   -123.94175367 </i>
   </energy>
  </scstep>
  <scstep>
   <time name="dav">    5.97    6.01</time>
   <time name="total">    6.18    6.23</time>
   <energy>
    <i name="e_fr_energy">   -123.94403772 </i>
    <i name="e_wo_entrp">   -123.93946976 </i>
    <i name="e_0_energy">   -123.94175374 </i>
   </energy>
  </scstep>
  <scstep>
   <time name="dav">    5.27    5.30</time>
   <time name="total">    5.48    5.52</time>
   <energy>
    <i name="e_fr_energy">   -123.94403773 </i>
    <i name="e_wo_entrp">   -123.93946978 </i>
    <i name="e_0_energy">   -123.94175375 </i>
   </energy>
  </scstep>
  <scstep>
   <time name="dav">    5.71    5.75</time>
   <time name="total">    5.91    5.96</time>
   <energy>
    <i name="e_fr_energy">   -123.94403774 </i>
    <i name="e_wo_entrp">   -123.93946978 </i>
    <i name="e_0_energy">   -123.94175376 </i>
   </energy>
  </scstep>
  <scstep>
   <time name="dav">    5.15    5.18</time>
   <time name="total">    5.18    5.21</time>
   <energy>
    <i name="alphaZ">     59.48700774 </i>
    <i name="ewald">   4277.94467834 </i>
    <i name="hartreedc">  -5885.66629396 </i>
    <i name="XCdc">    167.36938497 </i>
    <i name="pawpsdc">   5525.40377570 </i>
    <i name="pawaedc">  -5524.67170306 </i>
    <i name="eentropy">     -0.00456796 </i>
    <i name="bandstr">   -490.31186189 </i>
    <i name="atom">   1746.50554237 </i>
    <i name="e_fr_energy">   -123.94403775 </i>
    <i name="e_wo_entrp">   -123.93946979 </i>
    <i name="e_0_energy">   -123.94175377 </i>
   </energy>
  </scstep>
  <structure>
   <crystal>
    <varray name="basis" >
     <v>       4.34744753       2.51000000       0.00000000 </v>
     <v>      -4.34744753       2.51000000       0.00000000 </v>
     <v>       0.00000000       0.00000000      15.00000000 </v>
    </varray>
    <i name="volume">    327.36279878 </i>
    <varray name="rec_basis" >
     <v>       0.11501001       0.19920319       0.00000000 </v>
     <v>      -0.11501001       0.19920319       0.00000000 </v>
     <v>       0.00000000       0.00000000       0.06666667 </v>
    </varray>
   </crystal>
   <varray name="positions" >
    <v>       0.66951659      -0.00002549       0.16360392 </v>
    <v>       0.33085569       0.00007527       0.16379842 </v>
    <v>       0.00002549       0.33048241       0.16360392 </v>
    <v>      -0.00007527       0.66914331       0.16379842 </v>
    <v>       0.33090652       0.33078353       0.16382714 </v>
    <v>       0.66921547       0.66909248       0.16382714 </v>
    <v>       0.66662543       0.33337357       0.18289399 </v>
    <v>       0.33327374       0.66672526       0.16025031 </v>
    <v>       0.25312217       0.25334916       0.40381376 </v>
    <v>       0.41882730       0.08227948       0.40290726 </v>
    <v>       0.25038843       0.74961057       0.40230498 </v>
    <v>       0.41588743       0.58411157       0.40328466 </v>
    <v>       0.74797963       0.25201937       0.40352539 </v>
    <v>       0.91574168       0.08425732       0.40437300 </v>
    <v>       0.74664984       0.74687683       0.40381376 </v>
    <v>       0.91771952       0.58117170       0.40290726 </v>
   </varray>
  </structure>
  <varray name="forces" >
   <v>      -0.30544034       0.05690264       0.08104384 </v>
   <v>       0.09576811       0.29507493       0.08232211 </v>
   <v>      -0.30544034      -0.05690264       0.08104384 </v>
   <v>       0.09576811      -0.29507493       0.08232211 </v>
   <v>       0.24476583       0.18507202       0.11453633 </v>
   <v>       0.24476583      -0.18507202       0.11453633 </v>
   <v>      -0.00490585      -0.00000000      -0.36930079 </v>
   <v>      -0.04075259      -0.00000000      -0.17224583 </v>
   <v>       0.11654072      -1.13015490      -0.07453796 </v>
   <v>      -1.11321722      -0.20386468       0.08213768 </v>
   <v>      -0.17073583      -0.00000000       0.14795783 </v>
   <v>       0.38798552      -0.00000000       0.01076211 </v>
   <v>       1.33122475       0.00000000      -0.01105265 </v>
   <v>       0.42034979      -0.00000000      -0.17712468 </v>
   <v>       0.11654072       1.13015490      -0.07453796 </v>
   <v>      -1.11321722       0.20386468       0.08213768 </v>
  </varray>
  <varray name="stress" >
   <v>     -39.95839428       0.00000000      -0.27519490 </v>
   <v>       0.00000000     -37.14053251       0.00000000 </v>
   <v>      -0.27519490       0.00000000      -2.33866249 </v>
  </varray>
  <energy>
   <i name="e_fr_energy">   -125.76524081 </i>
   <i name="e_wo_entrp">   -125.76067285 </i>
   <i name="e_0_energy">   -125.76295683 </i>
  </energy>
  <time name="totalsc">  115.30  116.27</time>
 </calculation>
 <calculation>
  <scstep>
   <time name="dav">    4.94    4.97</time>
   <time name="total">    5.14    5.18</time>
   <energy>
    <i name="alphaZ">     59.48700774 </i>
    <i name="ewald">   2081.40918398 </i>
    <i name="hartreedc">  -3593.16328525 </i>
    <i name="XCdc">    165.67138742 </i>
    <i name="pawpsdc">   5525.40382035 </i>
    <i name="pawaedc">  -5524.67174766 </i>
    <i name="eentropy">     -0.00252802 </i>
    <i name="bandstr">   -579.46374729 </i>
    <i name="atom">   1746.50554237 </i>
    <i name="e_fr_energy">   -118.82436636 </i>
    <i name="e_wo_entrp">   -118.82183833 </i>
    <i name="e_0_energy">   -118.82310235 </i>
   </energy>
  </scstep>
  <scstep>
   <time name="dav">    3.71    3.73</time>
   <time name="total">    3.91    3.95</time>
   <energy>
    <i name="e_fr_energy">   -127.58996771 </i>
    <i name="e_wo_entrp">   -127.58409157 </i>
    <i name="e_0_energy">   -127.58702964 </i>
   </energy>
  </scstep>
  <scstep>
   <time name="dav">    6.54    6.58</time>
   <time name="total">    6.75    6.80</time>
   <energy>
    <i name="e_fr_energy">   -125.06480785 </i>
    <i name="e_wo_entrp">   -125.05987239 </i>
    <i name="e_0_energy">   -125.06234012 </i>
   </energy>
  </scstep>
  <scstep>
   <time name="dav">    5.53    5.57</time>
   <time name="total">    5.74    5.78</time>
   <energy>
    <i name="e_fr_energy">   -124.08537808 </i>
    <i name="e_wo_entrp">   -124.08005692 </i>
    <i name="e_0_energy">   -124.08271750 </i>
   </energy>
  </scstep>
  <scstep>
   <time name="dav">    4.60    4.63</time>
   <time name="total">    4.81    4.85</time>
   <energy>
    <i name="e_fr_energy">   -124.09567003 </i>
    <i name="e_wo_entrp">   -124.09022073 </i>
    <i name="e_0_energy">   -124.09294538 </i>
   </energy>
  </scstep>
  <scstep>
   <time name="dav">    6.17    6.21</time>
   <time name="total">    6.37    6.42</time>
   <energy>
    <i name="e_fr_energy">   -124.10296069 </i>
    <i name="e_wo_entrp">   -124.09726493 </i>
    <i name="e_0_energy">   -124.10011281 </i>
   </energy>
  </scstep>
  <scstep>
   <time name="dav">    5.21    5.24</time>
   <time name="total">    5.42    5.46</time>
   <energy>
    <i name="e_fr_energy">   -124.10243714 </i>
    <i name="e_wo_entrp">   -124.09665537 </i>
    <i name="e_0_energy">   -124.09954626 </i>
   </energy>
  </scstep>
  <scstep>
   <time name="dav">    4.87    4.91</time>
   <time name="total">    5.08    5.13</time>
   <energy>
    <i name="e_fr_energy">   -124.10212756 </i>
    <i name="e_wo_entrp">   -124.09628375 </i>
    <i name="e_0_energy">   -124.09920566 </i>
   </energy>
  </scstep>
  <scstep>
   <time name="dav">    3.88    3.91</time>
   <time name="total">    4.09    4.12</time>
   <energy>
    <i name="e_fr_energy">   -124.10232785 </i>
    <i name="e_wo_entrp">   -124.09647583 </i>
    <i name="e_0_energy">   -124.09940184 </i>
   </energy>
  </scstep>
  <scstep>
   <time name="dav">    4.45    4.47</time>
   <time name="total">    4.65    4.69</time>
   <energy>
    <i name="e_fr_energy">   -124.10305268 </i>
    <i name="e_wo_entrp">   -124.09720946 </i>
    <i name="e_0_energy">   -124.10013107 </i>
   </energy>
  </scstep>
  <scstep>
   <time name="dav">    4.50    4.52</time>
   <time name="total">    4.70    4.74</time>
   <energy>
    <i name="e_fr_energy">   -124.10347267 </i>
    <i name="e_wo_entrp">   -124.09763775 </i>
    <i name="e_0_energy">   -124.10055521 </i>
   </energy>
  </scstep>
  <scstep>
   <time name="dav">    4.33    4.36</time>
   <time name="total">    4.54    4.58</time>
   <energy>
    <i name="e_fr_energy">   -124.10368692 </i>
    <i name="e_wo_entrp">   -124.09785383 </i>
    <i name="e_0_energy">   -124.10077038 </i>
   </energy>
  </scstep>
  <scstep>
   <time name="dav">    4.78    4.81</time>
   <time name="total">    4.98    5.03</time>
   <energy>
    <i name="e_fr_energy">   -124.10373726 </i>
    <i name="e_wo_entrp">   -124.09790336 </i>
    <i name="e_0_energy">   -124.10082031 </i>
   </energy>
  </scstep>
  <scstep>
   <time name="dav">    5.24    5.27</time>
   <time name="total">    5.44    5.49</time>
   <energy>
    <i name="e_fr_energy">   -124.10374683 </i>
    <i name="e_wo_entrp">   -124.09791205 </i>
    <i name="e_0_energy">   -124.10082944 </i>
   </energy>
  </scstep>
  <scstep>
   <time name="dav">    4.75    4.78</time>
   <time name="total">    4.96    5.00</time>
   <energy>
    <i name="e_fr_energy">   -124.10375249 </i>
    <i name="e_wo_entrp">   -124.09791808 </i>
    <i name="e_0_energy">   -124.10083529 </i>
   </energy>
  </scstep>
  <scstep>
   <time name="dav">    4.93    4.96</time>
   <time name="total">    5.13    5.17</time>
   <energy>
    <i name="e_fr_energy">   -124.10375416 </i>
    <i name="e_wo_entrp">   -124.09792025 </i>
    <i name="e_0_energy">   -124.10083721 </i>
   </energy>
  </scstep>
  <scstep>
   <time name="dav">    4.77    4.79</time>
   <time name="total">    4.97    5.01</time>
   <energy>
    <i name="e_fr_energy">   -124.10375481 </i>
    <i name="e_wo_entrp">   -124.09792113 </i>
    <i name="e_0_energy">   -124.10083797 </i>
   </energy>
  </scstep>
  <scstep>
   <time name="dav">    4.91    4.95</time>
   <time name="total">    5.12    5.16</time>
   <energy>
    <i name="e_fr_energy">   -124.10375498 </i>
    <i name="e_wo_entrp">   -124.09792131 </i>
    <i name="e_0_energy">   -124.10083815 </i>
   </energy>
  </scstep>
  <scstep>
   <time name="dav">    5.81    5.85</time>
   <time name="total">    6.02    6.07</time>
   <energy>
    <i name="e_fr_energy">   -124.10375501 </i>
    <i name="e_wo_entrp">   -124.09792129 </i>
    <i name="e_0_energy">   -124.10083815 </i>
   </energy>
  </scstep>
  <scstep>
   <time name="dav">    4.88    4.91</time>
   <time name="total">    4.91    4.95</time>
   <energy>
    <i name="alphaZ">     59.48700774 </i>
    <i name="ewald">   2081.40918398 </i>
    <i name="hartreedc">  -3689.35697482 </i>
    <i name="XCdc">    167.30543911 </i>
    <i name="pawpsdc">   5569.79292299 </i>
    <i name="pawaedc">  -5569.07403612 </i>
    <i name="eentropy">     -0.00583371 </i>
    <i name="bandstr">   -490.16700656 </i>
    <i name="atom">   1746.50554237 </i>
    <i name="e_fr_energy">   -124.10375502 </i>
    <i name="e_wo_entrp">   -124.09792131 </i>
    <i name="e_0_energy">   -124.10083817 </i>
   </energy>
  </scstep>
  <structure>
   <crystal>
    <varray name="basis" >
     <v>       4.34744753       2.51000000       0.00000000 </v>
     <v>      -4.34744753       2.51000000       0.00000000 </v>
     <v>       0.00000000       0.00000000      15.00000000 </v>
    </varray>
    <i name="volume">    327.36279878 </i>
    <varray name="rec_basis" >
     <v>       0.11501001       0.19920319       0.00000000 </v>
     <v>      -0.11501001       0.19920319       0.00000000 </v>
     <v>       0.00000000       0.00000000       0.06666667 </v>
    </varray>
   </crystal>
   <varray name="positions" >
    <v>       0.66933124      -0.00001177       0.10948840 </v>
    <v>       0.33072919       0.00000954       0.10951799 </v>
    <v>       0.00001177       0.33066776       0.10948840 </v>
    <v>      -0.00000954       0.66926981       0.10951799 </v>
    <v>       0.33074025       0.33072924       0.10952241 </v>
    <v>       0.66926976       0.66925875       0.10952241 </v>
    <v>       0.66665319       0.33334581       0.11173184 </v>
    <v>       0.33332284       0.66667616       0.10967172 </v>
    <v>       0.25116608       0.25157889       0.45933266 </v>
    <v>       0.41776915       0.08266185       0.45918326 </v>
    <v>       0.24995844       0.75004056       0.45908363 </v>
    <v>       0.41653153       0.58346747       0.45924638 </v>
    <v>       0.74893605       0.25106295       0.45928539 </v>
    <v>       0.91649246       0.08350654       0.45942491 </v>
    <v>       0.74842011       0.74883292       0.45933266 </v>
    <v>       0.91733715       0.58222985       0.45918326 </v>
   </varray>
  </structure>
  <varray name="forces" >
   <v>      -0.01214308      -0.00270168       0.02101122 </v>
   <v>       0.00496662       0.00374456       0.02014304 </v>
   <v>      -0.01214308       0.00270168       0.02101122 </v>
   <v>       0.00496662      -0.00374456       0.02014304 </v>
   <v>       0.00348008       0.00261389       0.01993229 </v>
   <v>       0.00348008      -0.00261389       0.01993229 </v>
   <v>       0.00642732       0.00000000      -0.01852934 </v>
   <v>       0.00104836       0.00000000      -0.01408423 </v>
   <v>       0.17931837      -0.48765539      -0.02221562 </v>
   <v>      -0.61357615      -0.07311865       0.00047383 </v>
   <v>       0.09345944      -0.00000000       0.01613016 </v>
   <v>       0.01795132       0.00000000      -0.01046413 </v>
   <v>       0.72254286       0.00000000      -0.01540507 </v>
   <v>       0.03447901       0.00000000      -0.03633693 </v>
   <v>       0.17931837       0.48765539      -0.02221562 </v>
   <v>      -0.61357615       0.07311865       0.00047383 </v>
  </varray>
  <varray name="stress" >
   <v>     -35.30933755       0.00000000       0.00881037 </v>
   <v>       0.00000000     -33.78997970       0.00000000 </v>
   <v>       0.00881035       0.00000000      -4.00439433 </v>
  </varray>
  <energy>
   <i name="e_fr_energy">   -125.59631128 </i>
   <i name="e_wo_entrp">   -125.59047757 </i>
   <i name="e_0_energy">   -125.59339442 </i>
  </energy>
