   8   8   0  16
  0.4338553E+02  0.5169000E-09  0.5169000E-09  0.1500000E-08  0.5000000E-15
  1.000000000000000E-004
  CAR 
 SC                                      
     12.54530919    -21.42913342  301     -3.47922256      1.00000000
    -21.429  0.0000E+00  0.0000E+00
    -21.316  0.0000E+00  0.0000E+00
    -21.203  0.0000E+00  0.0000E+00
    -21.089  0.0000E+00  0.0000E+00
    -20.976  0.0000E+00  0.0000E+00
    -20.863  0.0000E+00  0.0000E+00
    -20.750  0.0000E+00  0.0000E+00
    -20.636  0.0000E+00  0.0000E+00
    -20.523  0.0000E+00  0.0000E+00
    -20.410  0.8419E-14  0.9535E-15
    -20.297  0.5405E-09  0.6122E-10
    -20.183  0.3016E-05  0.3416E-06
    -20.070  0.1587E-02  0.1800E-03
    -19.957  0.9214E-01  0.1061E-01
    -19.844  0.7997E+00  0.1012E+00
    -19.730  0.1760E+01  0.3004E+00
    -19.617  0.2124E+01  0.5410E+00
    -19.504  0.2458E+01  0.8193E+00
    -19.391  0.3272E+01  0.1190E+01
    -19.277  0.4302E+01  0.1677E+01
    -19.164  0.2496E+01  0.1960E+01
    -19.051  0.3488E+00  0.1999E+01
    -18.938  0.8057E-02  0.2000E+01
    -18.824  0.2244E-04  0.2000E+01
    -18.711  0.6171E-08  0.2000E+01
    -18.598  0.1514E-12  0.2000E+01
    -18.485  0.0000E+00  0.2000E+01
    -18.371  0.0000E+00  0.2000E+01
    -18.258  0.0000E+00  0.2000E+01
    -18.145  0.7035E-14  0.2000E+01
    -18.032  0.5262E-09  0.2000E+01
    -17.918  0.3304E-05  0.2000E+01
    -17.805  0.1904E-02  0.2000E+01
    -17.692  0.1196E+00  0.2014E+01
    -17.579  0.1119E+01  0.2141E+01
    -17.465  0.2677E+01  0.2444E+01
    -17.352  0.3205E+01  0.2807E+01
    -17.239  0.2409E+01  0.3079E+01
    -17.126  0.1864E+01  0.3291E+01
    -17.012  0.1891E+01  0.3505E+01
    -16.899  0.1937E+01  0.3724E+01
    -16.786  0.2168E+01  0.3970E+01
    -16.673  0.2253E+01  0.4225E+01
    -16.559  0.2817E+01  0.4544E+01
    -16.446  0.3424E+01  0.4932E+01
    -16.333  0.3307E+01  0.5306E+01
    -16.220  0.2396E+01  0.5578E+01
    -16.106  0.1924E+01  0.5795E+01
    -15.993  0.1342E+01  0.5947E+01
    -15.880  0.4337E+00  0.5997E+01
    -15.767  0.3023E-01  0.6000E+01
    -15.653  0.2983E-03  0.6000E+01
    -15.540  0.3204E-06  0.6000E+01
    -15.427  0.3213E-10  0.6000E+01
    -15.314  0.2985E-15  0.6000E+01
    -15.200  0.0000E+00  0.6000E+01
    -15.087  0.0000E+00  0.6000E+01
    -14.974  0.0000E+00  0.6000E+01
    -14.861  0.0000E+00  0.6000E+01
    -14.747  0.2646E-15  0.6000E+01
    -14.634  0.3500E-10  0.6000E+01
    -14.521  0.3687E-06  0.6000E+01
    -14.408  0.3477E-03  0.6000E+01
    -14.295  0.3450E-01  0.6004E+01
    -14.181  0.5050E+00  0.6061E+01
    -14.068  0.1663E+01  0.6249E+01
    -13.955  0.2109E+01  0.6488E+01
    -13.842  0.2792E+01  0.6804E+01
    -13.728  0.3203E+01  0.7167E+01
    -13.615  0.3214E+01  0.7531E+01
    -13.502  0.2162E+01  0.7776E+01
    -13.389  0.1326E+01  0.7926E+01
    -13.275  0.1673E+01  0.8116E+01
    -13.162  0.1289E+01  0.8262E+01
    -13.049  0.1360E+01  0.8416E+01
    -12.936  0.1154E+01  0.8546E+01
    -12.822  0.1510E+01  0.8717E+01
    -12.709  0.1458E+01  0.8882E+01
    -12.596  0.1935E+01  0.9102E+01
    -12.483  0.2198E+01  0.9351E+01
    -12.369  0.1454E+01  0.9515E+01
    -12.256  0.1854E+01  0.9725E+01
    -12.143  0.1388E+01  0.9882E+01
    -12.030  0.1527E+01  0.1006E+02
    -11.916  0.1216E+01  0.1019E+02
    -11.803  0.7821E+00  0.1028E+02
    -11.690  0.7398E+00  0.1037E+02
    -11.577  0.3892E+00  0.1041E+02
    -11.463  0.2116E+00  0.1043E+02
    -11.350  0.6840E+00  0.1051E+02
    -11.237  0.7873E+00  0.1060E+02
    -11.124  0.5514E+00  0.1066E+02
    -11.010  0.5792E+00  0.1073E+02
    -10.897  0.1423E+01  0.1089E+02
    -10.784  0.1431E+01  0.1105E+02
    -10.671  0.1425E+01  0.1121E+02
    -10.557  0.1258E+01  0.1136E+02
    -10.444  0.2355E+01  0.1162E+02
    -10.331  0.2264E+01  0.1188E+02
    -10.218  0.2011E+01  0.1211E+02
    -10.104  0.1634E+01  0.1229E+02
     -9.991  0.1491E+01  0.1246E+02
     -9.878  0.1962E+01  0.1268E+02
     -9.765  0.2461E+01  0.1296E+02
     -9.651  0.2541E+01  0.1325E+02
     -9.538  0.2055E+01  0.1348E+02
     -9.425  0.2112E+01  0.1372E+02
     -9.312  0.2125E+01  0.1396E+02
     -9.198  0.1481E+01  0.1413E+02
     -9.085  0.2296E+01  0.1439E+02
     -8.972  0.2369E+01  0.1466E+02
     -8.859  0.2632E+01  0.1496E+02
     -8.745  0.2554E+01  0.1524E+02
     -8.632  0.2669E+01  0.1555E+02
     -8.519  0.2877E+01  0.1587E+02
     -8.406  0.2774E+01  0.1619E+02
     -8.292  0.2227E+01  0.1644E+02
     -8.179  0.1876E+01  0.1665E+02
     -8.066  0.2308E+01  0.1691E+02
     -7.953  0.3039E+01  0.1726E+02
     -7.839  0.3633E+01  0.1767E+02
     -7.726  0.4757E+01  0.1821E+02
     -7.613  0.4112E+01  0.1867E+02
     -7.500  0.3679E+01  0.1909E+02
     -7.386  0.2379E+01  0.1936E+02
     -7.273  0.1742E+01  0.1956E+02
     -7.160  0.2064E+01  0.1979E+02
     -7.047  0.1915E+01  0.2001E+02
     -6.933  0.1691E+01  0.2020E+02
     -6.820  0.1577E+01  0.2038E+02
     -6.707  0.1767E+01  0.2058E+02
     -6.594  0.2735E+01  0.2089E+02
     -6.480  0.4403E+01  0.2139E+02
     -6.367  0.7226E+01  0.2220E+02
     -6.254  0.7481E+01  0.2305E+02
     -6.141  0.4975E+01  0.2361E+02
     -6.027  0.3314E+01  0.2399E+02
     -5.914  0.2309E+01  0.2425E+02
     -5.801  0.2285E+01  0.2451E+02
     -5.688  0.2611E+01  0.2481E+02
     -5.574  0.2470E+01  0.2509E+02
     -5.461  0.2361E+01  0.2535E+02
     -5.348  0.3221E+01  0.2572E+02
     -5.235  0.2828E+01  0.2604E+02
     -5.121  0.3304E+01  0.2641E+02
     -5.008  0.4024E+01  0.2687E+02
     -4.895  0.4314E+01  0.2736E+02
     -4.782  0.4546E+01  0.2787E+02
     -4.668  0.4614E+01  0.2839E+02
     -4.555  0.4288E+01  0.2888E+02
     -4.442  0.2757E+01  0.2919E+02
     -4.329  0.1610E+01  0.2937E+02
     -4.215  0.1311E+01  0.2952E+02
     -4.102  0.1139E+01  0.2965E+02
     -3.989  0.1184E+01  0.2978E+02
     -3.876  0.1057E+01  0.2990E+02
     -3.762  0.6938E+00  0.2998E+02
     -3.649  0.1448E+00  0.3000E+02
     -3.536  0.5388E-02  0.3000E+02
     -3.423  0.5338E-04  0.3000E+02
     -3.309  0.6053E-02  0.3000E+02
     -3.196  0.1534E+00  0.3002E+02
     -3.083  0.7786E+00  0.3011E+02
     -2.970  0.1565E+01  0.3028E+02
     -2.856  0.1486E+01  0.3045E+02
     -2.743  0.2079E+01  0.3069E+02
     -2.630  0.2862E+01  0.3101E+02
     -2.517  0.2063E+01  0.3124E+02
     -2.403  0.1909E+01  0.3146E+02
     -2.290  0.1458E+01  0.3163E+02
     -2.177  0.7712E+00  0.3171E+02
     -2.064  0.8333E+00  0.3181E+02
     -1.950  0.7575E+00  0.3189E+02
     -1.837  0.3075E+00  0.3193E+02
     -1.724  0.2335E+00  0.3195E+02
     -1.611  0.2117E+00  0.3198E+02
     -1.497  0.1668E+00  0.3200E+02
     -1.384  0.2069E-01  0.3200E+02
     -1.271  0.9956E-02  0.3200E+02
     -1.158  0.1266E+00  0.3202E+02
     -1.044  0.2255E+00  0.3204E+02
     -0.931  0.2265E+00  0.3207E+02
     -0.818  0.2355E+00  0.3209E+02
     -0.705  0.5520E+00  0.3216E+02
     -0.591  0.6604E+00  0.3223E+02
     -0.478  0.3942E+00  0.3228E+02
     -0.365  0.8715E+00  0.3237E+02
     -0.252  0.1764E+01  0.3257E+02
     -0.138  0.2121E+01  0.3281E+02
     -0.025  0.2928E+01  0.3315E+02
      0.088  0.2482E+01  0.3343E+02
      0.201  0.1538E+01  0.3360E+02
      0.315  0.1335E+01  0.3375E+02
      0.428  0.1402E+01  0.3391E+02
      0.541  0.1514E+01  0.3408E+02
      0.654  0.1537E+01  0.3426E+02
      0.768  0.1116E+01  0.3438E+02
      0.881  0.1225E+01  0.3452E+02
      0.994  0.1841E+01  0.3473E+02
      1.107  0.1700E+01  0.3492E+02
      1.220  0.2214E+01  0.3517E+02
      1.334  0.1772E+01  0.3537E+02
      1.447  0.2292E+01  0.3563E+02
      1.560  0.2390E+01  0.3590E+02
      1.673  0.2080E+01  0.3614E+02
      1.787  0.2696E+01  0.3644E+02
      1.900  0.2779E+01  0.3676E+02
      2.013  0.2626E+01  0.3706E+02
      2.126  0.2920E+01  0.3739E+02
      2.240  0.3422E+01  0.3778E+02
      2.353  0.3832E+01  0.3821E+02
      2.466  0.3769E+01  0.3864E+02
      2.579  0.3601E+01  0.3904E+02
      2.693  0.3667E+01  0.3946E+02
      2.806  0.4734E+01  0.4000E+02
      2.919  0.3292E+01  0.4037E+02
      3.032  0.3601E+01  0.4078E+02
      3.146  0.4006E+01  0.4123E+02
      3.259  0.3877E+01  0.4167E+02
      3.372  0.3816E+01  0.4210E+02
      3.485  0.3782E+01  0.4253E+02
      3.599  0.3504E+01  0.4293E+02
      3.712  0.4114E+01  0.4339E+02
      3.825  0.3829E+01  0.4383E+02
      3.938  0.3817E+01  0.4426E+02
      4.052  0.3917E+01  0.4470E+02
      4.165  0.3597E+01  0.4511E+02
      4.278  0.3529E+01  0.4551E+02
      4.391  0.3810E+01  0.4594E+02
      4.505  0.4517E+01  0.4645E+02
      4.618  0.5501E+01  0.4707E+02
      4.731  0.4791E+01  0.4762E+02
      4.844  0.4851E+01  0.4817E+02
      4.958  0.5553E+01  0.4880E+02
      5.071  0.6071E+01  0.4948E+02
      5.184  0.6856E+01  0.5026E+02
      5.297  0.6555E+01  0.5100E+02
      5.411  0.7470E+01  0.5185E+02
      5.524  0.8316E+01  0.5279E+02
      5.637  0.7428E+01  0.5363E+02
      5.750  0.5483E+01  0.5425E+02
      5.864  0.7299E+01  0.5508E+02
      5.977  0.8244E+01  0.5601E+02
      6.090  0.7804E+01  0.5690E+02
      6.203  0.6279E+01  0.5761E+02
      6.317  0.6830E+01  0.5838E+02
      6.430  0.8041E+01  0.5929E+02
      6.543  0.7331E+01  0.6012E+02
      6.656  0.6719E+01  0.6088E+02
      6.770  0.8264E+01  0.6182E+02
      6.883  0.1052E+02  0.6301E+02
      6.996  0.9528E+01  0.6409E+02
      7.109  0.8284E+01  0.6503E+02
      7.223  0.8403E+01  0.6598E+02
      7.336  0.8770E+01  0.6697E+02
      7.449  0.7927E+01  0.6787E+02
      7.562  0.7307E+01  0.6870E+02
      7.676  0.8470E+01  0.6966E+02
      7.789  0.8928E+01  0.7067E+02
      7.902  0.8665E+01  0.7165E+02
      8.015  0.9185E+01  0.7269E+02
      8.129  0.9666E+01  0.7378E+02
      8.242  0.8272E+01  0.7472E+02
      8.355  0.7132E+01  0.7553E+02
      8.468  0.8376E+01  0.7648E+02
      8.582  0.8706E+01  0.7746E+02
      8.695  0.8029E+01  0.7837E+02
      8.808  0.6906E+01  0.7915E+02
      8.921  0.6806E+01  0.7992E+02
      9.035  0.7510E+01  0.8077E+02
      9.148  0.8036E+01  0.8168E+02
      9.261  0.8044E+01  0.8260E+02
      9.374  0.9827E+01  0.8371E+02
      9.488  0.1003E+02  0.8484E+02
      9.601  0.1014E+02  0.8599E+02
      9.714  0.1019E+02  0.8715E+02
      9.827  0.1019E+02  0.8830E+02
      9.941  0.9256E+01  0.8935E+02
     10.054  0.7410E+01  0.9019E+02
     10.167  0.6825E+01  0.9096E+02
     10.280  0.5826E+01  0.9162E+02
     10.394  0.6601E+01  0.9237E+02
     10.507  0.7219E+01  0.9318E+02
     10.620  0.7170E+01  0.9400E+02
     10.733  0.7079E+01  0.9480E+02
     10.847  0.5789E+01  0.9545E+02
     10.960  0.3443E+01  0.9584E+02
     11.073  0.1217E+01  0.9598E+02
     11.186  0.1586E+00  0.9600E+02
     11.300  0.3648E-02  0.9600E+02
     11.413  0.9272E-05  0.9600E+02
     11.526  0.2141E-08  0.9600E+02
     11.639  0.4143E-13  0.9600E+02
     11.753  0.0000E+00  0.9600E+02
     11.866  0.0000E+00  0.9600E+02
     11.979  0.0000E+00  0.9600E+02
     12.092  0.0000E+00  0.9600E+02
     12.206  0.0000E+00  0.9600E+02
     12.319  0.0000E+00  0.9600E+02
     12.432  0.0000E+00  0.9600E+02
     12.545  0.0000E+00  0.9600E+02
