DAV: 11 -0.566045285082E+05 -0.94235E-06 36864
