  16  16   0  16
  0.2103476E+02  0.5090000E-09  0.5090000E-09  0.1500000E-08  0.5000000E-15
  1.000000000000000E-004
  CAR 
 Lattice                                 
      9.50962514    -21.16044914  301     -1.05133925      1.00000000
    -21.160  0.0000E+00  0.0000E+00  0.0000E+00  0.0000E+00
    -21.058  0.0000E+00  0.0000E+00  0.0000E+00  0.0000E+00
    -20.956  0.0000E+00  0.0000E+00  0.0000E+00  0.0000E+00
    -20.854  0.0000E+00  0.0000E+00  0.0000E+00  0.0000E+00
    -20.752  0.0000E+00  0.0000E+00  0.0000E+00  0.0000E+00
    -20.649  0.0000E+00  0.0000E+00  0.0000E+00  0.0000E+00
    -20.547  0.0000E+00  0.0000E+00  0.0000E+00  0.0000E+00
    -20.445  0.0000E+00  0.0000E+00  0.0000E+00  0.0000E+00
    -20.343  0.8838E-19  0.8838E-19  0.9035E-20  0.9035E-20
    -20.240  0.6061E-14  0.6061E-14  0.6197E-15  0.6197E-15
    -20.138  0.4892E-10  0.4892E-10  0.5002E-11  0.5002E-11
    -20.036  0.5731E-07  0.5731E-07  0.5864E-08  0.5864E-08
    -19.934  0.1049E-04  0.1049E-04  0.1078E-05  0.1078E-05
    -19.831  0.3295E-03  0.3295E-03  0.3477E-04  0.3477E-04
    -19.729  0.2168E-02  0.2168E-02  0.2564E-03  0.2564E-03
    -19.627  0.4463E-02  0.4463E-02  0.7127E-03  0.7127E-03
    -19.525  0.4997E-02  0.4997E-02  0.1223E-02  0.1223E-02
    -19.422  0.5231E-02  0.5231E-02  0.1758E-02  0.1758E-02
    -19.320  0.4766E-02  0.4766E-02  0.2246E-02  0.2246E-02
    -19.218  0.5728E-02  0.5728E-02  0.2831E-02  0.2831E-02
    -19.116  0.4354E-02  0.4354E-02  0.3276E-02  0.3276E-02
    -19.014  0.5418E-02  0.5418E-02  0.3830E-02  0.3830E-02
    -18.911  0.5899E-02  0.5899E-02  0.4433E-02  0.4433E-02
    -18.809  0.3752E-02  0.3752E-02  0.4817E-02  0.4817E-02
    -18.707  0.5521E-02  0.5521E-02  0.5381E-02  0.5381E-02
    -18.605  0.6395E-02  0.6395E-02  0.6035E-02  0.6035E-02
    -18.502  0.4373E-02  0.4373E-02  0.6482E-02  0.6482E-02
    -18.400  0.3633E-02  0.3633E-02  0.6854E-02  0.6854E-02
    -18.298  0.6956E-02  0.6956E-02  0.7565E-02  0.7565E-02
    -18.196  0.5916E-02  0.5916E-02  0.8169E-02  0.8169E-02
    -18.093  0.4281E-02  0.4281E-02  0.8607E-02  0.8607E-02
    -17.991  0.3977E-02  0.3977E-02  0.9014E-02  0.9014E-02
    -17.889  0.9645E-02  0.9645E-02  0.1000E-01  0.1000E-01
    -17.787  0.1382E-01  0.1382E-01  0.1141E-01  0.1141E-01
    -17.685  0.1189E-01  0.1189E-01  0.1263E-01  0.1263E-01
    -17.582  0.1225E-01  0.1225E-01  0.1388E-01  0.1388E-01
    -17.480  0.1455E-01  0.1455E-01  0.1537E-01  0.1537E-01
    -17.378  0.2011E-01  0.2011E-01  0.1742E-01  0.1742E-01
    -17.276  0.2260E-01  0.2260E-01  0.1973E-01  0.1973E-01
    -17.173  0.1405E-01  0.1405E-01  0.2117E-01  0.2117E-01
    -17.071  0.4363E-02  0.4363E-02  0.2162E-01  0.2162E-01
    -16.969  0.4872E-02  0.4872E-02  0.2212E-01  0.2212E-01
    -16.867  0.7437E-02  0.7437E-02  0.2288E-01  0.2288E-01
    -16.764  0.6734E-02  0.6734E-02  0.2356E-01  0.2356E-01
    -16.662  0.5470E-02  0.5470E-02  0.2412E-01  0.2412E-01
    -16.560  0.4484E-02  0.4484E-02  0.2458E-01  0.2458E-01
    -16.458  0.2556E-02  0.2556E-02  0.2484E-01  0.2484E-01
    -16.355  0.5553E-02  0.5553E-02  0.2541E-01  0.2541E-01
    -16.253  0.9294E-02  0.9294E-02  0.2636E-01  0.2636E-01
    -16.151  0.5905E-02  0.5905E-02  0.2696E-01  0.2696E-01
    -16.049  0.4823E-02  0.4823E-02  0.2746E-01  0.2746E-01
    -15.947  0.4442E-02  0.4442E-02  0.2791E-01  0.2791E-01
    -15.844  0.3974E-02  0.3974E-02  0.2832E-01  0.2832E-01
    -15.742  0.4754E-02  0.4754E-02  0.2880E-01  0.2880E-01
    -15.640  0.1155E-01  0.1155E-01  0.2999E-01  0.2999E-01
    -15.538  0.1481E-01  0.1481E-01  0.3150E-01  0.3150E-01
    -15.435  0.1574E-01  0.1574E-01  0.3311E-01  0.3311E-01
    -15.333  0.1655E-01  0.1655E-01  0.3480E-01  0.3480E-01
    -15.231  0.1318E-01  0.1318E-01  0.3615E-01  0.3615E-01
    -15.129  0.1215E-01  0.1215E-01  0.3739E-01  0.3739E-01
    -15.026  0.1714E-01  0.1714E-01  0.3914E-01  0.3914E-01
    -14.924  0.1841E-01  0.1841E-01  0.4102E-01  0.4102E-01
    -14.822  0.1510E-01  0.1510E-01  0.4257E-01  0.4257E-01
    -14.720  0.1227E-01  0.1227E-01  0.4382E-01  0.4382E-01
    -14.617  0.9887E-02  0.9887E-02  0.4483E-01  0.4483E-01
    -14.515  0.1272E-01  0.1272E-01  0.4613E-01  0.4613E-01
    -14.413  0.2013E-01  0.2013E-01  0.4819E-01  0.4819E-01
    -14.311  0.1938E-01  0.1938E-01  0.5017E-01  0.5017E-01
    -14.209  0.1123E-01  0.1123E-01  0.5132E-01  0.5132E-01
    -14.106  0.8067E-02  0.8067E-02  0.5215E-01  0.5215E-01
    -14.004  0.8066E-02  0.8066E-02  0.5297E-01  0.5297E-01
    -13.902  0.7602E-02  0.7602E-02  0.5375E-01  0.5375E-01
    -13.800  0.5721E-02  0.5721E-02  0.5433E-01  0.5433E-01
    -13.697  0.2575E-02  0.2575E-02  0.5460E-01  0.5460E-01
    -13.595  0.2053E-02  0.2053E-02  0.5481E-01  0.5481E-01
    -13.493  0.4429E-02  0.4429E-02  0.5526E-01  0.5526E-01
    -13.391  0.5030E-02  0.5030E-02  0.5577E-01  0.5577E-01
    -13.288  0.6525E-02  0.6525E-02  0.5644E-01  0.5644E-01
    -13.186  0.6046E-02  0.6046E-02  0.5706E-01  0.5706E-01
    -13.084  0.6631E-02  0.6631E-02  0.5774E-01  0.5774E-01
    -12.982  0.9074E-02  0.9074E-02  0.5866E-01  0.5866E-01
    -12.880  0.8350E-02  0.8350E-02  0.5952E-01  0.5952E-01
    -12.777  0.7413E-02  0.7413E-02  0.6027E-01  0.6027E-01
    -12.675  0.6137E-02  0.6137E-02  0.6090E-01  0.6090E-01
    -12.573  0.7396E-02  0.7396E-02  0.6166E-01  0.6166E-01
    -12.471  0.4827E-02  0.4827E-02  0.6215E-01  0.6215E-01
    -12.368  0.5090E-02  0.5090E-02  0.6267E-01  0.6267E-01
    -12.266  0.8179E-02  0.8179E-02  0.6351E-01  0.6351E-01
    -12.164  0.6780E-02  0.6780E-02  0.6420E-01  0.6420E-01
    -12.062  0.8137E-02  0.8137E-02  0.6503E-01  0.6503E-01
    -11.959  0.1414E-01  0.1414E-01  0.6648E-01  0.6648E-01
    -11.857  0.1606E-01  0.1606E-01  0.6812E-01  0.6812E-01
    -11.755  0.1435E-01  0.1435E-01  0.6959E-01  0.6959E-01
    -11.653  0.1590E-01  0.1590E-01  0.7121E-01  0.7121E-01
    -11.550  0.1851E-01  0.1851E-01  0.7311E-01  0.7311E-01
    -11.448  0.1232E-01  0.1232E-01  0.7437E-01  0.7437E-01
    -11.346  0.7677E-02  0.7677E-02  0.7515E-01  0.7515E-01
    -11.244  0.1094E-01  0.1094E-01  0.7627E-01  0.7627E-01
    -11.142  0.1259E-01  0.1259E-01  0.7756E-01  0.7756E-01
    -11.039  0.1016E-01  0.1016E-01  0.7860E-01  0.7860E-01
    -10.937  0.4381E-02  0.4381E-02  0.7904E-01  0.7904E-01
    -10.835  0.7036E-02  0.7036E-02  0.7976E-01  0.7976E-01
    -10.733  0.1613E-01  0.1613E-01  0.8141E-01  0.8141E-01
    -10.630  0.1767E-01  0.1767E-01  0.8322E-01  0.8322E-01
    -10.528  0.7338E-02  0.7338E-02  0.8397E-01  0.8397E-01
    -10.426  0.7247E-02  0.7247E-02  0.8471E-01  0.8471E-01
    -10.324  0.1457E-01  0.1457E-01  0.8620E-01  0.8620E-01
    -10.221  0.1800E-01  0.1800E-01  0.8804E-01  0.8804E-01
    -10.119  0.1353E-01  0.1353E-01  0.8942E-01  0.8942E-01
    -10.017  0.9694E-02  0.9694E-02  0.9041E-01  0.9041E-01
     -9.915  0.8918E-02  0.8918E-02  0.9133E-01  0.9133E-01
     -9.813  0.1323E-01  0.1323E-01  0.9268E-01  0.9268E-01
     -9.710  0.9732E-02  0.9732E-02  0.9367E-01  0.9367E-01
     -9.608  0.6309E-02  0.6309E-02  0.9432E-01  0.9432E-01
     -9.506  0.8908E-02  0.8908E-02  0.9523E-01  0.9523E-01
     -9.404  0.1231E-01  0.1231E-01  0.9649E-01  0.9649E-01
     -9.301  0.1074E-01  0.1074E-01  0.9758E-01  0.9758E-01
     -9.199  0.7795E-02  0.7795E-02  0.9838E-01  0.9838E-01
     -9.097  0.4099E-02  0.4099E-02  0.9880E-01  0.9880E-01
     -8.995  0.5587E-02  0.5587E-02  0.9937E-01  0.9937E-01
     -8.892  0.1181E-01  0.1181E-01  0.1006E+00  0.1006E+00
     -8.790  0.1869E-01  0.1869E-01  0.1025E+00  0.1025E+00
     -8.688  0.1682E-01  0.1682E-01  0.1042E+00  0.1042E+00
     -8.586  0.1037E-01  0.1037E-01  0.1053E+00  0.1053E+00
     -8.483  0.7374E-02  0.7374E-02  0.1060E+00  0.1060E+00
     -8.381  0.1100E-01  0.1100E-01  0.1071E+00  0.1071E+00
     -8.279  0.1862E-01  0.1862E-01  0.1091E+00  0.1091E+00
     -8.177  0.2000E-01  0.2000E-01  0.1111E+00  0.1111E+00
     -8.075  0.2191E-01  0.2191E-01  0.1133E+00  0.1133E+00
     -7.972  0.1701E-01  0.1701E-01  0.1151E+00  0.1151E+00
     -7.870  0.1416E-01  0.1416E-01  0.1165E+00  0.1165E+00
     -7.768  0.1395E-01  0.1395E-01  0.1179E+00  0.1179E+00
     -7.666  0.2427E-01  0.2427E-01  0.1204E+00  0.1204E+00
     -7.563  0.3053E-01  0.3053E-01  0.1236E+00  0.1236E+00
     -7.461  0.2342E-01  0.2342E-01  0.1259E+00  0.1259E+00
     -7.359  0.1811E-01  0.1811E-01  0.1278E+00  0.1278E+00
     -7.257  0.2275E-01  0.2275E-01  0.1301E+00  0.1301E+00
     -7.154  0.2771E-01  0.2771E-01  0.1330E+00  0.1330E+00
     -7.052  0.2552E-01  0.2552E-01  0.1356E+00  0.1356E+00
     -6.950  0.2191E-01  0.2191E-01  0.1378E+00  0.1378E+00
     -6.848  0.2307E-01  0.2307E-01  0.1402E+00  0.1402E+00
     -6.746  0.3084E-01  0.3084E-01  0.1433E+00  0.1433E+00
     -6.643  0.2053E-01  0.2053E-01  0.1454E+00  0.1454E+00
     -6.541  0.1654E-01  0.1654E-01  0.1471E+00  0.1471E+00
     -6.439  0.2737E-01  0.2737E-01  0.1499E+00  0.1499E+00
     -6.337  0.2546E-01  0.2546E-01  0.1525E+00  0.1525E+00
     -6.234  0.2186E-01  0.2186E-01  0.1547E+00  0.1547E+00
     -6.132  0.1918E-01  0.1918E-01  0.1567E+00  0.1567E+00
     -6.030  0.1385E-01  0.1385E-01  0.1581E+00  0.1581E+00
     -5.928  0.2189E-01  0.2189E-01  0.1604E+00  0.1604E+00
     -5.825  0.2922E-01  0.2922E-01  0.1633E+00  0.1633E+00
     -5.723  0.2475E-01  0.2475E-01  0.1659E+00  0.1659E+00
     -5.621  0.1861E-01  0.1861E-01  0.1678E+00  0.1678E+00
     -5.519  0.1844E-01  0.1844E-01  0.1697E+00  0.1697E+00
     -5.416  0.2814E-01  0.2814E-01  0.1725E+00  0.1725E+00
     -5.314  0.2882E-01  0.2882E-01  0.1755E+00  0.1755E+00
     -5.212  0.1591E-01  0.1591E-01  0.1771E+00  0.1771E+00
     -5.110  0.1616E-01  0.1616E-01  0.1788E+00  0.1788E+00
     -5.008  0.1923E-01  0.1923E-01  0.1807E+00  0.1807E+00
     -4.905  0.1771E-01  0.1771E-01  0.1825E+00  0.1825E+00
     -4.803  0.1625E-01  0.1625E-01  0.1842E+00  0.1842E+00
     -4.701  0.1759E-01  0.1759E-01  0.1860E+00  0.1860E+00
     -4.599  0.1705E-01  0.1705E-01  0.1877E+00  0.1877E+00
     -4.496  0.1836E-01  0.1836E-01  0.1896E+00  0.1896E+00
     -4.394  0.1809E-01  0.1809E-01  0.1915E+00  0.1915E+00
     -4.292  0.2526E-01  0.2526E-01  0.1940E+00  0.1940E+00
     -4.190  0.4027E-01  0.4027E-01  0.1982E+00  0.1982E+00
     -4.087  0.3898E-01  0.3898E-01  0.2022E+00  0.2022E+00
     -3.985  0.2733E-01  0.2733E-01  0.2049E+00  0.2049E+00
     -3.883  0.2074E-01  0.2074E-01  0.2071E+00  0.2071E+00
     -3.781  0.1219E-01  0.1219E-01  0.2083E+00  0.2083E+00
     -3.679  0.1157E-01  0.1157E-01  0.2095E+00  0.2095E+00
     -3.576  0.1880E-01  0.1880E-01  0.2114E+00  0.2114E+00
     -3.474  0.2219E-01  0.2219E-01  0.2137E+00  0.2137E+00
     -3.372  0.1765E-01  0.1765E-01  0.2155E+00  0.2155E+00
     -3.270  0.1368E-01  0.1368E-01  0.2169E+00  0.2169E+00
     -3.167  0.1772E-01  0.1772E-01  0.2187E+00  0.2187E+00
     -3.065  0.1977E-01  0.1977E-01  0.2207E+00  0.2207E+00
     -2.963  0.2442E-01  0.2442E-01  0.2232E+00  0.2232E+00
     -2.861  0.2147E-01  0.2147E-01  0.2254E+00  0.2254E+00
     -2.758  0.1382E-01  0.1382E-01  0.2268E+00  0.2268E+00
     -2.656  0.1935E-01  0.1935E-01  0.2288E+00  0.2288E+00
     -2.554  0.2076E-01  0.2076E-01  0.2309E+00  0.2309E+00
     -2.452  0.1925E-01  0.1925E-01  0.2329E+00  0.2329E+00
     -2.349  0.2514E-01  0.2514E-01  0.2355E+00  0.2355E+00
     -2.247  0.1840E-01  0.1840E-01  0.2373E+00  0.2373E+00
     -2.145  0.6995E-02  0.6995E-02  0.2381E+00  0.2381E+00
     -2.043  0.5422E-02  0.5422E-02  0.2386E+00  0.2386E+00
     -1.941  0.8286E-02  0.8286E-02  0.2395E+00  0.2395E+00
     -1.838  0.5291E-02  0.5291E-02  0.2400E+00  0.2400E+00
     -1.736  0.4330E-02  0.4330E-02  0.2404E+00  0.2404E+00
     -1.634  0.7442E-02  0.7442E-02  0.2412E+00  0.2412E+00
     -1.532  0.6147E-02  0.6147E-02  0.2418E+00  0.2418E+00
     -1.429  0.2082E-02  0.2082E-02  0.2420E+00  0.2420E+00
     -1.327  0.3059E-03  0.3059E-03  0.2421E+00  0.2421E+00
     -1.225  0.2100E-04  0.2100E-04  0.2421E+00  0.2421E+00
     -1.123  0.2252E-03  0.2252E-03  0.2421E+00  0.2421E+00
     -1.020  0.1504E-02  0.1504E-02  0.2423E+00  0.2423E+00
     -0.918  0.3403E-02  0.3403E-02  0.2426E+00  0.2426E+00
     -0.816  0.4029E-02  0.4029E-02  0.2430E+00  0.2430E+00
     -0.714  0.7669E-02  0.7669E-02  0.2438E+00  0.2438E+00
     -0.611  0.1151E-01  0.1151E-01  0.2450E+00  0.2450E+00
     -0.509  0.1034E-01  0.1034E-01  0.2460E+00  0.2460E+00
     -0.407  0.1266E-01  0.1266E-01  0.2473E+00  0.2473E+00
     -0.305  0.1247E-01  0.1247E-01  0.2486E+00  0.2486E+00
     -0.203  0.8476E-02  0.8476E-02  0.2495E+00  0.2495E+00
     -0.100  0.3503E-02  0.3503E-02  0.2498E+00  0.2498E+00
      0.002  0.1395E-02  0.1395E-02  0.2500E+00  0.2500E+00
      0.104  0.9045E-03  0.9045E-03  0.2501E+00  0.2501E+00
      0.206  0.4665E-02  0.4665E-02  0.2505E+00  0.2505E+00
      0.309  0.9618E-02  0.9618E-02  0.2515E+00  0.2515E+00
      0.411  0.8827E-02  0.8827E-02  0.2524E+00  0.2524E+00
      0.513  0.4110E-02  0.4110E-02  0.2528E+00  0.2528E+00
      0.615  0.4688E-02  0.4688E-02  0.2533E+00  0.2533E+00
      0.718  0.1173E-01  0.1173E-01  0.2545E+00  0.2545E+00
      0.820  0.1413E-01  0.1413E-01  0.2560E+00  0.2560E+00
      0.922  0.1202E-01  0.1202E-01  0.2572E+00  0.2572E+00
      1.024  0.6389E-02  0.6389E-02  0.2579E+00  0.2579E+00
      1.126  0.4667E-02  0.4667E-02  0.2583E+00  0.2583E+00
      1.229  0.5598E-02  0.5598E-02  0.2589E+00  0.2589E+00
      1.331  0.5601E-02  0.5601E-02  0.2595E+00  0.2595E+00
      1.433  0.6520E-02  0.6520E-02  0.2601E+00  0.2601E+00
      1.535  0.1071E-01  0.1071E-01  0.2612E+00  0.2612E+00
      1.638  0.9886E-02  0.9886E-02  0.2622E+00  0.2622E+00
      1.740  0.4176E-02  0.4176E-02  0.2627E+00  0.2627E+00
      1.842  0.2706E-02  0.2706E-02  0.2629E+00  0.2629E+00
      1.944  0.7149E-02  0.7149E-02  0.2637E+00  0.2637E+00
      2.047  0.1529E-01  0.1529E-01  0.2652E+00  0.2652E+00
      2.149  0.1514E-01  0.1514E-01  0.2668E+00  0.2668E+00
      2.251  0.1191E-01  0.1191E-01  0.2680E+00  0.2680E+00
      2.353  0.1220E-01  0.1220E-01  0.2693E+00  0.2693E+00
      2.456  0.1246E-01  0.1246E-01  0.2705E+00  0.2705E+00
      2.558  0.1130E-01  0.1130E-01  0.2717E+00  0.2717E+00
      2.660  0.7413E-02  0.7413E-02  0.2724E+00  0.2724E+00
      2.762  0.5652E-02  0.5652E-02  0.2730E+00  0.2730E+00
      2.864  0.1028E-01  0.1028E-01  0.2741E+00  0.2741E+00
      2.967  0.1395E-01  0.1395E-01  0.2755E+00  0.2755E+00
      3.069  0.1442E-01  0.1442E-01  0.2770E+00  0.2770E+00
      3.171  0.1113E-01  0.1113E-01  0.2781E+00  0.2781E+00
      3.273  0.8735E-02  0.8735E-02  0.2790E+00  0.2790E+00
      3.376  0.8661E-02  0.8661E-02  0.2799E+00  0.2799E+00
      3.478  0.1328E-01  0.1328E-01  0.2812E+00  0.2812E+00
      3.580  0.1085E-01  0.1085E-01  0.2824E+00  0.2824E+00
      3.682  0.8399E-02  0.8399E-02  0.2832E+00  0.2832E+00
      3.785  0.1530E-01  0.1530E-01  0.2848E+00  0.2848E+00
      3.887  0.1928E-01  0.1928E-01  0.2867E+00  0.2867E+00
      3.989  0.1757E-01  0.1757E-01  0.2885E+00  0.2885E+00
      4.091  0.1355E-01  0.1355E-01  0.2899E+00  0.2899E+00
      4.193  0.1233E-01  0.1233E-01  0.2912E+00  0.2912E+00
      4.296  0.1357E-01  0.1357E-01  0.2926E+00  0.2926E+00
      4.398  0.1762E-01  0.1762E-01  0.2944E+00  0.2944E+00
      4.500  0.1721E-01  0.1721E-01  0.2961E+00  0.2961E+00
      4.602  0.1008E-01  0.1008E-01  0.2972E+00  0.2972E+00
      4.705  0.1225E-01  0.1225E-01  0.2984E+00  0.2984E+00
      4.807  0.1966E-01  0.1966E-01  0.3004E+00  0.3004E+00
      4.909  0.2306E-01  0.2306E-01  0.3028E+00  0.3028E+00
      5.011  0.1735E-01  0.1735E-01  0.3046E+00  0.3046E+00
      5.114  0.1552E-01  0.1552E-01  0.3061E+00  0.3061E+00
      5.216  0.1408E-01  0.1408E-01  0.3076E+00  0.3076E+00
      5.318  0.1391E-01  0.1391E-01  0.3090E+00  0.3090E+00
      5.420  0.2436E-01  0.2436E-01  0.3115E+00  0.3115E+00
      5.523  0.2129E-01  0.2129E-01  0.3137E+00  0.3137E+00
      5.625  0.2053E-01  0.2053E-01  0.3158E+00  0.3158E+00
      5.727  0.2785E-01  0.2785E-01  0.3186E+00  0.3186E+00
      5.829  0.2663E-01  0.2663E-01  0.3213E+00  0.3213E+00
      5.931  0.2051E-01  0.2051E-01  0.3234E+00  0.3234E+00
      6.034  0.2280E-01  0.2280E-01  0.3258E+00  0.3258E+00
      6.136  0.2878E-01  0.2878E-01  0.3287E+00  0.3287E+00
      6.238  0.3254E-01  0.3254E-01  0.3320E+00  0.3320E+00
      6.340  0.2447E-01  0.2447E-01  0.3345E+00  0.3345E+00
      6.443  0.1785E-01  0.1785E-01  0.3364E+00  0.3364E+00
      6.545  0.2576E-01  0.2576E-01  0.3390E+00  0.3390E+00
      6.647  0.3138E-01  0.3138E-01  0.3422E+00  0.3422E+00
      6.749  0.3121E-01  0.3121E-01  0.3454E+00  0.3454E+00
      6.852  0.3417E-01  0.3417E-01  0.3489E+00  0.3489E+00
      6.954  0.3468E-01  0.3468E-01  0.3524E+00  0.3524E+00
      7.056  0.3131E-01  0.3131E-01  0.3556E+00  0.3556E+00
      7.158  0.3137E-01  0.3137E-01  0.3588E+00  0.3588E+00
      7.260  0.3049E-01  0.3049E-01  0.3620E+00  0.3620E+00
      7.363  0.2237E-01  0.2237E-01  0.3643E+00  0.3643E+00
      7.465  0.1836E-01  0.1836E-01  0.3661E+00  0.3661E+00
      7.567  0.2316E-01  0.2316E-01  0.3685E+00  0.3685E+00
      7.669  0.2481E-01  0.2481E-01  0.3710E+00  0.3710E+00
      7.772  0.1702E-01  0.1702E-01  0.3728E+00  0.3728E+00
      7.874  0.1103E-01  0.1103E-01  0.3739E+00  0.3739E+00
      7.976  0.6193E-02  0.6194E-02  0.3745E+00  0.3745E+00
      8.078  0.2236E-02  0.2237E-02  0.3748E+00  0.3748E+00
      8.181  0.1750E-02  0.1750E-02  0.3749E+00  0.3749E+00
      8.283  0.5406E-03  0.5406E-03  0.3750E+00  0.3750E+00
      8.385  0.2830E-04  0.2830E-04  0.3750E+00  0.3750E+00
      8.487  0.2182E-06  0.2182E-06  0.3750E+00  0.3750E+00
      8.590  0.2306E-09  0.2306E-09  0.3750E+00  0.3750E+00
      8.692  0.3211E-13  0.3211E-13  0.3750E+00  0.3750E+00
      8.794  0.7070E-18  0.7070E-18  0.3750E+00  0.3750E+00
      8.896  0.0000E+00  0.0000E+00  0.3750E+00  0.3750E+00
      8.998  0.0000E+00  0.0000E+00  0.3750E+00  0.3750E+00
      9.101  0.0000E+00  0.0000E+00  0.3750E+00  0.3750E+00
      9.203  0.0000E+00  0.0000E+00  0.3750E+00  0.3750E+00
      9.305  0.0000E+00  0.0000E+00  0.3750E+00  0.3750E+00
      9.407  0.0000E+00  0.0000E+00  0.3750E+00  0.3750E+00
      9.510  0.0000E+00  0.0000E+00  0.3750E+00  0.3750E+00
