Lattice                                 
           1
     4.408069    2.545000    0.000000
    -4.408069    2.545000    0.000000
     0.000000    0.000000   15.000000
   B    C 
     2    14
Direct configuration=     1
   0.33833034  0.66916432  0.10000000
   0.67165522  0.33584146  0.10000000
   0.16373946  0.31999962  0.10000000
   0.32250218  0.16126397  0.10000000
   0.16376430  0.84376384  0.10000000
   0.84623863  0.16123684  0.10000000
   0.68749850  0.84373000  0.10000000
   0.84626736  0.68499594  0.10000000
   0.33333267  0.16666633  0.32553333
   0.49999967  0.99999933  0.32553333
   0.33333267  0.66666633  0.32553333
   0.49999967  0.49999933  0.32553333
   0.83333267  0.16666633  0.32553333
   0.99999967  0.99999933  0.32553333
   0.83333267  0.66666633  0.32553333
   0.99999967  0.49999933  0.32553333
Direct configuration=     2
   0.33834370  0.66917054  0.10018092
   0.67169127  0.33582258  0.09997904
   0.16572082  0.32396328  0.09993569
   0.32618502  0.16310167  0.10001140
   0.16574991  0.84177469  0.09993569
   0.84437132  0.16308979  0.10001104
   0.68353355  0.84176643  0.09993527
   0.84439470  0.68130412  0.10001102
   0.33337495  0.16668647  0.32554563
   0.50012737  0.00027306  0.32559220
   0.33332909  0.66666359  0.32532242
   0.50012737  0.49985531  0.32559219
   0.83332064  0.16669088  0.32554204
   0.00000491  0.00000295  0.32553644
   0.83332068  0.66662781  0.32554206
   0.99973002  0.49986551  0.32559362
Direct configuration=     3
   0.33833425  0.66916614  0.10005292
   0.67166576  0.33583594  0.09999387
   0.16431901  0.32115899  0.09998119
   0.32357941  0.16180149  0.10000333
   0.16434509  0.84318201  0.09998119
   0.84569245  0.16177883  0.10000323
   0.68633875  0.84315566  0.09998107
   0.84571960  0.68391608  0.10000322
   0.33334504  0.16667222  0.32553693
   0.50003702  0.00007940  0.32555055
   0.33333162  0.66666553  0.32547164
   0.50003702  0.49995721  0.32555055
   0.83332915  0.16667351  0.32553588
   0.00000120  0.00000039  0.32553424
   0.83332916  0.66665507  0.32553589
   0.99992080  0.49996019  0.32555097
Direct configuration=     4
   0.33833871  0.66916666  0.10016954
   0.67166833  0.33583263  0.09998063
   0.16431301  0.32115359  0.09994973
   0.32356831  0.16178975  0.09999982
   0.16433042  0.84317685  0.09994973
   0.84570939  0.16177669  0.09999951
   0.68633609  0.84316406  0.09994926
   0.84572529  0.68393247  0.09999951
   0.33336071  0.16668020  0.32555339
   0.50004837  0.00010190  0.32557953
   0.33333077  0.66666522  0.32534162
   0.50004837  0.49994583  0.32557953
   0.83332205  0.16668222  0.32555000
   0.00000310  0.00000123  0.32553412
   0.83332204  0.66663950  0.32555001
   0.99990037  0.49994987  0.32558075
Direct configuration=     5
   0.33833998  0.66916681  0.10020279
   0.67166907  0.33583169  0.09997685
   0.16431130  0.32115204  0.09994076
   0.32356514  0.16178640  0.09999882
   0.16432624  0.84317538  0.09994076
   0.84571422  0.16177609  0.09999845
   0.68633533  0.84316645  0.09994019
   0.84572692  0.68393714  0.09999845
   0.33336519  0.16668248  0.32555808
   0.50005160  0.00010831  0.32558779
   0.33333053  0.66666513  0.32530454
   0.50005161  0.49994259  0.32558779
   0.83332002  0.16668470  0.32555403
   0.00000364  0.00000147  0.32553409
   0.83332001  0.66663505  0.32555403
   0.99989454  0.49994693  0.32558924
Direct configuration=     6
   0.33831782  0.66916363  0.10025895
   0.67167367  0.33583822  0.09998073
   0.16434381  0.32114110  0.09995224
   0.32356193  0.16178988  0.09996774
   0.16434131  0.84319041  0.09995226
   0.84568551  0.16177855  0.09996706
   0.68637178  0.84317243  0.09995130
   0.84568610  0.68391455  0.09996706
   0.33333750  0.16666826  0.32558590
   0.50002992  0.00006299  0.32557061
   0.33333488  0.66666694  0.32527067
   0.50002988  0.49996700  0.32557062
   0.83333611  0.16666898  0.32558102
   0.00000118  0.00000063  0.32553766
   0.83333612  0.66666618  0.32558100
   0.99993780  0.49996892  0.32557185
Direct configuration=     7
   0.33832260  0.66916431  0.10024683
   0.67167267  0.33583681  0.09997989
   0.16433679  0.32114347  0.09994976
   0.32356262  0.16178913  0.09997445
   0.16433806  0.84318717  0.09994978
   0.84569170  0.16177802  0.09997383
   0.68636392  0.84317114  0.09994890
   0.84569491  0.68391942  0.09997384
   0.33334347  0.16667133  0.32557990
   0.50003460  0.00007277  0.32557432
   0.33333394  0.66666655  0.32527798
   0.50003457  0.49996173  0.32557432
   0.83333264  0.16667237  0.32557519
   0.00000171  0.00000081  0.32553689
   0.83333265  0.66665947  0.32557518
   0.99992847  0.49996417  0.32557561
Direct configuration=     8
   0.33835004  0.66916960  0.10028930
   0.67164719  0.33582958  0.09997811
   0.16427772  0.32114570  0.09996188
   0.32359826  0.16178185  0.09994975
   0.16428223  0.84315676  0.09996193
   0.84575446  0.16179717  0.09994872
   0.68630650  0.84316971  0.09996062
   0.84575895  0.68393480  0.09994872
   0.33335313  0.16667658  0.32559793
   0.50004637  0.00009372  0.32555498
   0.33333239  0.66666629  0.32526477
   0.50004644  0.49995182  0.32555498
   0.83332743  0.16667823  0.32559284
   0.00000498  0.00000207  0.32555350
   0.83332745  0.66664927  0.32559285
   0.99991178  0.49995551  0.32555578
Direct configuration=     9
   0.33833192  0.66916611  0.10026126
   0.67166402  0.33583435  0.09997928
   0.16431673  0.32114422  0.09995388
   0.32357473  0.16178666  0.09996606
   0.16431910  0.84317684  0.09995390
   0.84571302  0.16178452  0.09996530
   0.68634442  0.84317065  0.09995288
   0.84571666  0.68392464  0.09996530
   0.33334676  0.16667311  0.32558602
   0.50003860  0.00007988  0.32556775
   0.33333342  0.66666646  0.32527349
   0.50003860  0.49995837  0.32556775
   0.83333087  0.16667436  0.32558119
   0.00000282  0.00000124  0.32554253
   0.83333088  0.66665600  0.32558118
   0.99992280  0.49996123  0.32556887
Direct configuration=    10
   0.33833247  0.66916622  0.10026211
   0.67166351  0.33583421  0.09997925
   0.16431554  0.32114427  0.09995412
   0.32357544  0.16178651  0.09996556
   0.16431798  0.84317623  0.09995415
   0.84571428  0.16178491  0.09996480
   0.68634326  0.84317062  0.09995312
   0.84571795  0.68392495  0.09996480
   0.33334695  0.16667322  0.32558638
   0.50003883  0.00008031  0.32556736
   0.33333339  0.66666646  0.32527323
   0.50003884  0.49995817  0.32556736
   0.83333076  0.16667448  0.32558154
   0.00000289  0.00000126  0.32554286
   0.83333078  0.66665580  0.32558154
   0.99992246  0.49996106  0.32556847
Direct configuration=    11
   0.33833220  0.66916562  0.10027726
   0.67167128  0.33583164  0.09997222
   0.16432755  0.32115368  0.09995718
   0.32355740  0.16178071  0.09996062
   0.16432961  0.84317271  0.09995721
   0.84570838  0.16177682  0.09995955
   0.68633932  0.84316937  0.09995591
   0.84570867  0.68393422  0.09995954
   0.33336392  0.16668191  0.32558685
   0.50005287  0.00010788  0.32556061
   0.33333232  0.66666610  0.32527399
   0.50005287  0.49994432  0.32556061
   0.83332296  0.16668404  0.32558209
   0.00000534  0.00000234  0.32555961
   0.83332295  0.66663881  0.32558209
   0.99989768  0.49994850  0.32556134
Direct configuration=    12
   0.33833230  0.66916585  0.10027159
   0.67166837  0.33583260  0.09997485
   0.16432305  0.32115016  0.09995604
   0.32356416  0.16178288  0.09996247
   0.16432526  0.84317403  0.09995606
   0.84571059  0.16177985  0.09996152
   0.68634080  0.84316984  0.09995486
   0.84571214  0.68393075  0.09996151
   0.33335757  0.16667866  0.32558667
   0.50004762  0.00009755  0.32556314
   0.33333272  0.66666623  0.32527370
   0.50004762  0.49994950  0.32556314
   0.83332588  0.16668046  0.32558188
   0.00000442  0.00000194  0.32555334
   0.83332588  0.66664517  0.32558188
   0.99990696  0.49995320  0.32556401
Direct configuration=    13
   0.33833040  0.66916473  0.10027873
   0.67166792  0.33583309  0.09996752
   0.16432237  0.32114611  0.09995618
   0.32356609  0.16178339  0.09996322
   0.16432220  0.84317524  0.09995620
   0.84570837  0.16178218  0.09996198
   0.68634510  0.84317168  0.09995480
   0.84570829  0.68392643  0.09996200
   0.33335587  0.16667767  0.32558371
   0.50004438  0.00009063  0.32556103
   0.33333436  0.66666690  0.32527519
   0.50004438  0.49995355  0.32556103
   0.83332869  0.16667927  0.32557902
   0.00000426  0.00000204  0.32556541
   0.83332868  0.66664887  0.32557902
   0.99991397  0.49995688  0.32556164
Direct configuration=    14
   0.33833042  0.66916474  0.10027866
   0.67166793  0.33583309  0.09996759
   0.16432238  0.32114615  0.09995618
   0.32356607  0.16178339  0.09996321
   0.16432223  0.84317523  0.09995620
   0.84570839  0.16178216  0.09996197
   0.68634505  0.84317166  0.09995480
   0.84570833  0.68392648  0.09996199
   0.33335589  0.16667768  0.32558374
   0.50004442  0.00009070  0.32556105
   0.33333434  0.66666690  0.32527517
   0.50004442  0.49995351  0.32556105
   0.83332867  0.16667928  0.32557905
   0.00000426  0.00000203  0.32556528
   0.83332865  0.66664883  0.32557905
   0.99991390  0.49995684  0.32556167
Direct configuration=    15
   0.33833173  0.66916546  0.10027861
   0.67166366  0.33583242  0.09996527
   0.16431820  0.32114708  0.09995672
   0.32356838  0.16178251  0.09996404
   0.16431882  0.84317242  0.09995675
   0.84571321  0.16178218  0.09996263
   0.68633887  0.84317047  0.09995518
   0.84571352  0.68392807  0.09996265
   0.33335380  0.16667685  0.32558330
   0.50004596  0.00009152  0.32556103
   0.33333409  0.66666700  0.32527505
   0.50004597  0.49995384  0.32556102
   0.83332920  0.16667840  0.32557861
   0.00000570  0.00000253  0.32556554
   0.83332921  0.66665071  0.32557861
   0.99991502  0.49995721  0.32556165
Direct configuration=    16
   0.33833095  0.66916503  0.10027864
   0.67166620  0.33583282  0.09996665
   0.16432069  0.32114653  0.09995640
   0.32356700  0.16178303  0.09996355
   0.16432085  0.84317409  0.09995642
   0.84571034  0.16178217  0.09996224
   0.68634255  0.84317118  0.09995495
   0.84571043  0.68392712  0.09996226
   0.33335504  0.16667734  0.32558356
   0.50004504  0.00009103  0.32556104
   0.33333424  0.66666694  0.32527512
   0.50004504  0.49995364  0.32556104
   0.83332888  0.16667893  0.32557888
   0.00000484  0.00000224  0.32556539
   0.83332888  0.66664959  0.32557887
   0.99991435  0.49995699  0.32556166
