  15  15   0  16
  0.2030393E+02  0.4842000E-09  0.4842000E-09  0.1500000E-08  0.5000000E-15
  1.000000000000000E-004
  CAR 
 Lattice                                 
     10.34161244    -21.70911969  301     -0.31236527      1.00000000
    -21.709  0.0000E+00  0.0000E+00  0.0000E+00  0.0000E+00
    -21.602  0.0000E+00  0.0000E+00  0.0000E+00  0.0000E+00
    -21.495  0.0000E+00  0.0000E+00  0.0000E+00  0.0000E+00
    -21.389  0.0000E+00  0.0000E+00  0.0000E+00  0.0000E+00
    -21.282  0.0000E+00  0.0000E+00  0.0000E+00  0.0000E+00
    -21.175  0.0000E+00  0.0000E+00  0.0000E+00  0.0000E+00
    -21.068  0.0000E+00  0.0000E+00  0.0000E+00  0.0000E+00
    -20.961  0.0000E+00  0.0000E+00  0.0000E+00  0.0000E+00
    -20.854  0.0000E+00  0.0000E+00  0.0000E+00  0.0000E+00
    -20.748  0.6705E-15  0.6705E-15  0.7163E-16  0.7164E-16
    -20.641  0.1165E-10  0.1165E-10  0.1245E-11  0.1245E-11
    -20.534  0.2425E-07  0.2425E-07  0.2592E-08  0.2592E-08
    -20.427  0.6655E-05  0.6655E-05  0.7136E-06  0.7136E-06
    -20.320  0.2693E-03  0.2693E-03  0.2948E-04  0.2948E-04
    -20.213  0.1968E-02  0.1968E-02  0.2398E-03  0.2398E-03
    -20.107  0.4143E-02  0.4143E-02  0.6824E-03  0.6824E-03
    -20.000  0.4509E-02  0.4509E-02  0.1164E-02  0.1164E-02
    -19.893  0.4929E-02  0.4929E-02  0.1691E-02  0.1691E-02
    -19.786  0.4142E-02  0.4142E-02  0.2133E-02  0.2133E-02
    -19.679  0.5371E-02  0.5371E-02  0.2707E-02  0.2707E-02
    -19.572  0.4216E-02  0.4216E-02  0.3157E-02  0.3157E-02
    -19.466  0.4227E-02  0.4227E-02  0.3609E-02  0.3609E-02
    -19.359  0.6002E-02  0.6002E-02  0.4250E-02  0.4250E-02
    -19.252  0.3824E-02  0.3824E-02  0.4659E-02  0.4659E-02
    -19.145  0.3843E-02  0.3843E-02  0.5069E-02  0.5069E-02
    -19.038  0.6097E-02  0.6097E-02  0.5721E-02  0.5721E-02
    -18.931  0.5219E-02  0.5219E-02  0.6278E-02  0.6278E-02
    -18.825  0.2973E-02  0.2973E-02  0.6596E-02  0.6596E-02
    -18.718  0.4303E-02  0.4303E-02  0.7056E-02  0.7056E-02
    -18.611  0.6913E-02  0.6913E-02  0.7794E-02  0.7794E-02
    -18.504  0.4586E-02  0.4586E-02  0.8284E-02  0.8284E-02
    -18.397  0.3800E-02  0.3800E-02  0.8690E-02  0.8690E-02
    -18.290  0.2945E-02  0.2945E-02  0.9005E-02  0.9005E-02
    -18.184  0.6546E-02  0.6546E-02  0.9704E-02  0.9704E-02
    -18.077  0.6651E-02  0.6651E-02  0.1041E-01  0.1041E-01
    -17.970  0.3578E-02  0.3578E-02  0.1080E-01  0.1080E-01
    -17.863  0.3246E-02  0.3246E-02  0.1114E-01  0.1114E-01
    -17.756  0.4077E-02  0.4077E-02  0.1158E-01  0.1158E-01
    -17.649  0.6133E-02  0.6133E-02  0.1223E-01  0.1223E-01
    -17.543  0.6797E-02  0.6797E-02  0.1296E-01  0.1296E-01
    -17.436  0.5559E-02  0.5559E-02  0.1355E-01  0.1355E-01
    -17.329  0.6481E-02  0.6481E-02  0.1425E-01  0.1425E-01
    -17.222  0.1004E-01  0.1004E-01  0.1532E-01  0.1532E-01
    -17.115  0.1449E-01  0.1449E-01  0.1687E-01  0.1687E-01
    -17.008  0.1559E-01  0.1559E-01  0.1853E-01  0.1853E-01
    -16.902  0.1698E-01  0.1698E-01  0.2035E-01  0.2035E-01
    -16.795  0.2068E-01  0.2068E-01  0.2256E-01  0.2256E-01
    -16.688  0.1667E-01  0.1667E-01  0.2434E-01  0.2434E-01
    -16.581  0.5192E-02  0.5192E-02  0.2489E-01  0.2489E-01
    -16.474  0.7035E-02  0.7035E-02  0.2564E-01  0.2564E-01
    -16.367  0.8287E-02  0.8287E-02  0.2653E-01  0.2653E-01
    -16.260  0.4598E-02  0.4598E-02  0.2702E-01  0.2702E-01
    -16.154  0.4165E-02  0.4165E-02  0.2747E-01  0.2747E-01
    -16.047  0.3834E-02  0.3834E-02  0.2788E-01  0.2788E-01
    -15.940  0.3859E-02  0.3859E-02  0.2829E-01  0.2829E-01
    -15.833  0.3532E-02  0.3532E-02  0.2867E-01  0.2867E-01
    -15.726  0.7866E-02  0.7866E-02  0.2951E-01  0.2951E-01
    -15.619  0.8240E-02  0.8240E-02  0.3039E-01  0.3039E-01
    -15.513  0.4011E-02  0.4011E-02  0.3081E-01  0.3081E-01
    -15.406  0.3861E-02  0.3861E-02  0.3123E-01  0.3123E-01
    -15.299  0.3332E-02  0.3332E-02  0.3158E-01  0.3158E-01
    -15.192  0.4536E-02  0.4536E-02  0.3207E-01  0.3207E-01
    -15.085  0.6051E-02  0.6051E-02  0.3271E-01  0.3271E-01
    -14.978  0.1036E-01  0.1036E-01  0.3382E-01  0.3382E-01
    -14.872  0.1668E-01  0.1668E-01  0.3560E-01  0.3560E-01
    -14.765  0.1825E-01  0.1825E-01  0.3755E-01  0.3755E-01
    -14.658  0.1748E-01  0.1748E-01  0.3942E-01  0.3942E-01
    -14.551  0.1153E-01  0.1153E-01  0.4065E-01  0.4065E-01
    -14.444  0.7527E-02  0.7527E-02  0.4146E-01  0.4146E-01
    -14.337  0.1423E-01  0.1423E-01  0.4298E-01  0.4298E-01
    -14.231  0.1578E-01  0.1578E-01  0.4466E-01  0.4466E-01
    -14.124  0.1126E-01  0.1126E-01  0.4587E-01  0.4587E-01
    -14.017  0.1080E-01  0.1080E-01  0.4702E-01  0.4702E-01
    -13.910  0.1205E-01  0.1205E-01  0.4831E-01  0.4831E-01
    -13.803  0.1935E-01  0.1935E-01  0.5037E-01  0.5037E-01
    -13.696  0.1997E-01  0.1997E-01  0.5251E-01  0.5251E-01
    -13.590  0.1830E-01  0.1830E-01  0.5446E-01  0.5446E-01
    -13.483  0.1166E-01  0.1166E-01  0.5571E-01  0.5571E-01
    -13.376  0.6987E-02  0.6987E-02  0.5645E-01  0.5645E-01
    -13.269  0.3303E-02  0.3303E-02  0.5681E-01  0.5681E-01
    -13.162  0.3930E-02  0.3930E-02  0.5723E-01  0.5723E-01
    -13.055  0.6682E-02  0.6682E-02  0.5794E-01  0.5794E-01
    -12.949  0.7015E-02  0.7015E-02  0.5869E-01  0.5869E-01
    -12.842  0.4811E-02  0.4811E-02  0.5920E-01  0.5920E-01
    -12.735  0.6549E-02  0.6549E-02  0.5990E-01  0.5990E-01
    -12.628  0.7091E-02  0.7091E-02  0.6066E-01  0.6066E-01
    -12.521  0.5640E-02  0.5640E-02  0.6126E-01  0.6126E-01
    -12.414  0.5419E-02  0.5419E-02  0.6184E-01  0.6184E-01
    -12.308  0.3415E-02  0.3415E-02  0.6221E-01  0.6221E-01
    -12.201  0.6029E-02  0.6029E-02  0.6285E-01  0.6285E-01
    -12.094  0.8144E-02  0.8144E-02  0.6372E-01  0.6372E-01
    -11.987  0.3591E-02  0.3591E-02  0.6411E-01  0.6411E-01
    -11.880  0.3299E-02  0.3299E-02  0.6446E-01  0.6446E-01
    -11.773  0.3373E-02  0.3373E-02  0.6482E-01  0.6482E-01
    -11.667  0.5667E-02  0.5667E-02  0.6542E-01  0.6542E-01
    -11.560  0.6879E-02  0.6879E-02  0.6616E-01  0.6616E-01
    -11.453  0.4086E-02  0.4086E-02  0.6660E-01  0.6660E-01
    -11.346  0.1805E-02  0.1805E-02  0.6679E-01  0.6679E-01
    -11.239  0.4552E-02  0.4552E-02  0.6727E-01  0.6727E-01
    -11.132  0.5822E-02  0.5822E-02  0.6790E-01  0.6790E-01
    -11.026  0.5244E-02  0.5244E-02  0.6846E-01  0.6846E-01
    -10.919  0.7610E-02  0.7610E-02  0.6927E-01  0.6927E-01
    -10.812  0.6306E-02  0.6306E-02  0.6994E-01  0.6994E-01
    -10.705  0.2458E-02  0.2458E-02  0.7021E-01  0.7021E-01
    -10.598  0.7700E-02  0.7700E-02  0.7103E-01  0.7103E-01
    -10.491  0.1242E-01  0.1242E-01  0.7236E-01  0.7236E-01
    -10.385  0.1534E-01  0.1534E-01  0.7399E-01  0.7399E-01
    -10.278  0.1516E-01  0.1516E-01  0.7561E-01  0.7561E-01
    -10.171  0.1449E-01  0.1449E-01  0.7716E-01  0.7716E-01
    -10.064  0.1763E-01  0.1763E-01  0.7905E-01  0.7905E-01
     -9.957  0.1871E-01  0.1871E-01  0.8104E-01  0.8104E-01
     -9.850  0.1007E-01  0.1007E-01  0.8212E-01  0.8212E-01
     -9.744  0.6780E-02  0.6780E-02  0.8284E-01  0.8284E-01
     -9.637  0.1385E-01  0.1385E-01  0.8432E-01  0.8432E-01
     -9.530  0.1529E-01  0.1529E-01  0.8596E-01  0.8596E-01
     -9.423  0.1630E-01  0.1630E-01  0.8770E-01  0.8770E-01
     -9.316  0.1572E-01  0.1572E-01  0.8938E-01  0.8938E-01
     -9.209  0.1423E-01  0.1423E-01  0.9090E-01  0.9090E-01
     -9.102  0.1067E-01  0.1067E-01  0.9204E-01  0.9204E-01
     -8.996  0.7221E-02  0.7221E-02  0.9281E-01  0.9281E-01
     -8.889  0.1511E-01  0.1511E-01  0.9442E-01  0.9442E-01
     -8.782  0.2083E-01  0.2083E-01  0.9665E-01  0.9665E-01
     -8.675  0.1575E-01  0.1575E-01  0.9833E-01  0.9833E-01
     -8.568  0.7738E-02  0.7738E-02  0.9916E-01  0.9916E-01
     -8.461  0.1023E-01  0.1023E-01  0.1003E+00  0.1003E+00
     -8.355  0.2040E-01  0.2040E-01  0.1024E+00  0.1024E+00
     -8.248  0.1937E-01  0.1937E-01  0.1045E+00  0.1045E+00
     -8.141  0.1165E-01  0.1165E-01  0.1057E+00  0.1057E+00
     -8.034  0.1567E-01  0.1567E-01  0.1074E+00  0.1074E+00
     -7.927  0.2477E-01  0.2477E-01  0.1101E+00  0.1101E+00
     -7.820  0.2438E-01  0.2438E-01  0.1127E+00  0.1127E+00
     -7.714  0.2083E-01  0.2083E-01  0.1149E+00  0.1149E+00
     -7.607  0.1066E-01  0.1066E-01  0.1160E+00  0.1160E+00
     -7.500  0.8018E-02  0.8018E-02  0.1169E+00  0.1169E+00
     -7.393  0.1833E-01  0.1833E-01  0.1188E+00  0.1188E+00
     -7.286  0.1813E-01  0.1813E-01  0.1208E+00  0.1208E+00
     -7.179  0.1191E-01  0.1191E-01  0.1221E+00  0.1221E+00
     -7.073  0.1114E-01  0.1114E-01  0.1232E+00  0.1232E+00
     -6.966  0.1681E-01  0.1681E-01  0.1250E+00  0.1250E+00
     -6.859  0.1791E-01  0.1791E-01  0.1270E+00  0.1270E+00
     -6.752  0.1964E-01  0.1964E-01  0.1291E+00  0.1291E+00
     -6.645  0.2132E-01  0.2132E-01  0.1313E+00  0.1313E+00
     -6.538  0.1867E-01  0.1867E-01  0.1333E+00  0.1333E+00
     -6.432  0.2051E-01  0.2051E-01  0.1355E+00  0.1355E+00
     -6.325  0.1704E-01  0.1704E-01  0.1373E+00  0.1373E+00
     -6.218  0.1793E-01  0.1793E-01  0.1393E+00  0.1393E+00
     -6.111  0.2607E-01  0.2607E-01  0.1420E+00  0.1420E+00
     -6.004  0.2263E-01  0.2263E-01  0.1445E+00  0.1445E+00
     -5.897  0.3121E-01  0.3121E-01  0.1478E+00  0.1478E+00
     -5.791  0.2870E-01  0.2870E-01  0.1509E+00  0.1509E+00
     -5.684  0.1657E-01  0.1657E-01  0.1526E+00  0.1526E+00
     -5.577  0.1873E-01  0.1873E-01  0.1546E+00  0.1546E+00
     -5.470  0.3220E-01  0.3220E-01  0.1581E+00  0.1581E+00
     -5.363  0.3533E-01  0.3533E-01  0.1618E+00  0.1618E+00
     -5.256  0.2400E-01  0.2400E-01  0.1644E+00  0.1644E+00
     -5.150  0.1720E-01  0.1720E-01  0.1662E+00  0.1662E+00
     -5.043  0.1037E-01  0.1037E-01  0.1674E+00  0.1674E+00
     -4.936  0.9928E-02  0.9928E-02  0.1684E+00  0.1684E+00
     -4.829  0.1428E-01  0.1428E-01  0.1699E+00  0.1699E+00
     -4.722  0.1159E-01  0.1159E-01  0.1712E+00  0.1712E+00
     -4.615  0.8166E-02  0.8166E-02  0.1720E+00  0.1720E+00
     -4.509  0.8747E-02  0.8747E-02  0.1730E+00  0.1730E+00
     -4.402  0.1542E-01  0.1542E-01  0.1746E+00  0.1746E+00
     -4.295  0.2245E-01  0.2245E-01  0.1770E+00  0.1770E+00
     -4.188  0.1863E-01  0.1863E-01  0.1790E+00  0.1790E+00
     -4.081  0.1889E-01  0.1889E-01  0.1810E+00  0.1810E+00
     -3.974  0.2194E-01  0.2194E-01  0.1834E+00  0.1834E+00
     -3.868  0.2463E-01  0.2463E-01  0.1860E+00  0.1860E+00
     -3.761  0.1848E-01  0.1848E-01  0.1880E+00  0.1880E+00
     -3.654  0.1807E-01  0.1807E-01  0.1899E+00  0.1899E+00
     -3.547  0.2025E-01  0.2025E-01  0.1921E+00  0.1921E+00
     -3.440  0.1608E-01  0.1608E-01  0.1938E+00  0.1938E+00
     -3.333  0.1354E-01  0.1355E-01  0.1952E+00  0.1952E+00
     -3.227  0.1303E-01  0.1303E-01  0.1966E+00  0.1966E+00
     -3.120  0.1744E-01  0.1744E-01  0.1985E+00  0.1985E+00
     -3.013  0.1821E-01  0.1822E-01  0.2004E+00  0.2004E+00
     -2.906  0.1198E-01  0.1198E-01  0.2017E+00  0.2017E+00
     -2.799  0.1211E-01  0.1211E-01  0.2030E+00  0.2030E+00
     -2.692  0.7573E-02  0.7573E-02  0.2038E+00  0.2038E+00
     -2.586  0.9792E-02  0.9791E-02  0.2049E+00  0.2049E+00
     -2.479  0.1904E-01  0.1904E-01  0.2069E+00  0.2069E+00
     -2.372  0.1508E-01  0.1508E-01  0.2085E+00  0.2085E+00
     -2.265  0.4185E-02  0.4185E-02  0.2090E+00  0.2090E+00
     -2.158  0.4872E-02  0.4872E-02  0.2095E+00  0.2095E+00
     -2.051  0.1052E-01  0.1052E-01  0.2106E+00  0.2106E+00
     -1.945  0.9944E-02  0.9944E-02  0.2117E+00  0.2117E+00
     -1.838  0.1105E-01  0.1105E-01  0.2129E+00  0.2129E+00
     -1.731  0.1133E-01  0.1133E-01  0.2141E+00  0.2141E+00
     -1.624  0.9666E-02  0.9666E-02  0.2151E+00  0.2151E+00
     -1.517  0.7262E-02  0.7262E-02  0.2159E+00  0.2159E+00
     -1.410  0.4366E-02  0.4366E-02  0.2163E+00  0.2163E+00
     -1.303  0.3972E-02  0.3972E-02  0.2168E+00  0.2168E+00
     -1.197  0.4073E-02  0.4073E-02  0.2172E+00  0.2172E+00
     -1.090  0.3728E-02  0.3728E-02  0.2176E+00  0.2176E+00
     -0.983  0.5792E-02  0.5792E-02  0.2182E+00  0.2182E+00
     -0.876  0.3187E-02  0.3187E-02  0.2186E+00  0.2186E+00
     -0.769  0.6797E-03  0.6797E-03  0.2186E+00  0.2186E+00
     -0.662  0.8219E-04  0.8220E-04  0.2186E+00  0.2186E+00
     -0.556  0.2623E-05  0.2623E-05  0.2186E+00  0.2186E+00
     -0.449  0.5498E-04  0.5498E-04  0.2186E+00  0.2186E+00
     -0.342  0.6319E-03  0.6319E-03  0.2187E+00  0.2187E+00
     -0.235  0.1063E-02  0.1063E-02  0.2188E+00  0.2188E+00
     -0.128  0.2715E-03  0.2715E-03  0.2189E+00  0.2189E+00
     -0.021  0.9659E-05  0.9659E-05  0.2189E+00  0.2189E+00
      0.085  0.1711E-06  0.1711E-06  0.2189E+00  0.2189E+00
      0.192  0.2944E-04  0.2944E-04  0.2189E+00  0.2189E+00
      0.299  0.8278E-03  0.8278E-03  0.2190E+00  0.2190E+00
      0.406  0.3208E-02  0.3208E-02  0.2193E+00  0.2193E+00
      0.513  0.1927E-02  0.1927E-02  0.2195E+00  0.2195E+00
      0.620  0.1088E-02  0.1088E-02  0.2196E+00  0.2196E+00
      0.726  0.3409E-02  0.3409E-02  0.2200E+00  0.2200E+00
      0.833  0.5395E-02  0.5395E-02  0.2206E+00  0.2206E+00
      0.940  0.9451E-02  0.9451E-02  0.2216E+00  0.2216E+00
      1.047  0.2397E-01  0.2397E-01  0.2241E+00  0.2241E+00
      1.154  0.2076E-01  0.2076E-01  0.2263E+00  0.2263E+00
      1.261  0.6352E-02  0.6352E-02  0.2270E+00  0.2270E+00
      1.367  0.3605E-02  0.3605E-02  0.2274E+00  0.2274E+00
      1.474  0.7557E-02  0.7557E-02  0.2282E+00  0.2282E+00
      1.581  0.1325E-01  0.1325E-01  0.2296E+00  0.2296E+00
      1.688  0.1922E-01  0.1922E-01  0.2317E+00  0.2317E+00
      1.795  0.1532E-01  0.1532E-01  0.2333E+00  0.2333E+00
      1.902  0.6902E-02  0.6902E-02  0.2341E+00  0.2341E+00
      2.008  0.6909E-02  0.6909E-02  0.2348E+00  0.2348E+00
      2.115  0.1014E-01  0.1014E-01  0.2359E+00  0.2359E+00
      2.222  0.7107E-02  0.7107E-02  0.2366E+00  0.2366E+00
      2.329  0.8207E-02  0.8207E-02  0.2375E+00  0.2375E+00
      2.436  0.7637E-02  0.7637E-02  0.2383E+00  0.2383E+00
      2.543  0.9749E-02  0.9749E-02  0.2394E+00  0.2394E+00
      2.649  0.1131E-01  0.1131E-01  0.2406E+00  0.2406E+00
      2.756  0.7019E-02  0.7019E-02  0.2413E+00  0.2413E+00
      2.863  0.4588E-02  0.4589E-02  0.2418E+00  0.2418E+00
      2.970  0.9136E-02  0.9137E-02  0.2428E+00  0.2428E+00
      3.077  0.1221E-01  0.1221E-01  0.2441E+00  0.2441E+00
      3.184  0.8880E-02  0.8881E-02  0.2451E+00  0.2451E+00
      3.290  0.1028E-01  0.1028E-01  0.2461E+00  0.2461E+00
      3.397  0.1007E-01  0.1007E-01  0.2472E+00  0.2472E+00
      3.504  0.9839E-02  0.9839E-02  0.2483E+00  0.2483E+00
      3.611  0.1611E-01  0.1611E-01  0.2500E+00  0.2500E+00
      3.718  0.2119E-01  0.2119E-01  0.2523E+00  0.2523E+00
      3.825  0.2450E-01  0.2451E-01  0.2549E+00  0.2549E+00
      3.931  0.2196E-01  0.2196E-01  0.2572E+00  0.2572E+00
      4.038  0.2322E-01  0.2322E-01  0.2597E+00  0.2597E+00
      4.145  0.2266E-01  0.2266E-01  0.2621E+00  0.2621E+00
      4.252  0.2677E-01  0.2677E-01  0.2650E+00  0.2650E+00
      4.359  0.2482E-01  0.2482E-01  0.2676E+00  0.2676E+00
      4.466  0.2392E-01  0.2392E-01  0.2702E+00  0.2702E+00
      4.572  0.2241E-01  0.2241E-01  0.2726E+00  0.2726E+00
      4.679  0.2138E-01  0.2138E-01  0.2749E+00  0.2749E+00
      4.786  0.2611E-01  0.2611E-01  0.2777E+00  0.2777E+00
      4.893  0.2429E-01  0.2429E-01  0.2803E+00  0.2803E+00
      5.000  0.2212E-01  0.2212E-01  0.2826E+00  0.2826E+00
      5.107  0.2577E-01  0.2577E-01  0.2854E+00  0.2854E+00
      5.213  0.2603E-01  0.2602E-01  0.2882E+00  0.2882E+00
      5.320  0.2359E-01  0.2359E-01  0.2907E+00  0.2907E+00
      5.427  0.2204E-01  0.2204E-01  0.2930E+00  0.2930E+00
      5.534  0.2149E-01  0.2149E-01  0.2953E+00  0.2953E+00
      5.641  0.2754E-01  0.2755E-01  0.2983E+00  0.2983E+00
      5.748  0.2318E-01  0.2318E-01  0.3007E+00  0.3007E+00
      5.855  0.2181E-01  0.2181E-01  0.3031E+00  0.3031E+00
      5.961  0.1902E-01  0.1902E-01  0.3051E+00  0.3051E+00
      6.068  0.2075E-01  0.2075E-01  0.3073E+00  0.3073E+00
      6.175  0.1610E-01  0.1609E-01  0.3090E+00  0.3090E+00
      6.282  0.1782E-01  0.1782E-01  0.3109E+00  0.3109E+00
      6.389  0.2330E-01  0.2331E-01  0.3134E+00  0.3134E+00
      6.496  0.2369E-01  0.2369E-01  0.3160E+00  0.3160E+00
      6.602  0.2455E-01  0.2454E-01  0.3186E+00  0.3186E+00
      6.709  0.2643E-01  0.2643E-01  0.3214E+00  0.3214E+00
      6.816  0.3277E-01  0.3277E-01  0.3249E+00  0.3249E+00
      6.923  0.2857E-01  0.2856E-01  0.3280E+00  0.3280E+00
      7.030  0.2590E-01  0.2590E-01  0.3307E+00  0.3307E+00
      7.137  0.2512E-01  0.2514E-01  0.3334E+00  0.3334E+00
      7.243  0.2121E-01  0.2122E-01  0.3357E+00  0.3357E+00
      7.350  0.1842E-01  0.1842E-01  0.3377E+00  0.3377E+00
      7.457  0.2058E-01  0.2058E-01  0.3399E+00  0.3399E+00
      7.564  0.2274E-01  0.2275E-01  0.3423E+00  0.3423E+00
      7.671  0.2312E-01  0.2313E-01  0.3448E+00  0.3448E+00
      7.778  0.2828E-01  0.2829E-01  0.3478E+00  0.3478E+00
      7.884  0.3483E-01  0.3484E-01  0.3515E+00  0.3515E+00
      7.991  0.2919E-01  0.2918E-01  0.3546E+00  0.3546E+00
      8.098  0.3117E-01  0.3116E-01  0.3579E+00  0.3579E+00
      8.205  0.3334E-01  0.3334E-01  0.3615E+00  0.3615E+00
      8.312  0.3039E-01  0.3039E-01  0.3648E+00  0.3648E+00
      8.419  0.3797E-01  0.3797E-01  0.3688E+00  0.3688E+00
      8.525  0.2995E-01  0.2995E-01  0.3720E+00  0.3720E+00
      8.632  0.1467E-01  0.1467E-01  0.3736E+00  0.3736E+00
      8.739  0.6648E-02  0.6646E-02  0.3743E+00  0.3743E+00
      8.846  0.3434E-02  0.3432E-02  0.3747E+00  0.3747E+00
      8.953  0.2662E-02  0.2661E-02  0.3749E+00  0.3749E+00
      9.060  0.5634E-03  0.5633E-03  0.3750E+00  0.3750E+00
      9.166  0.2066E-04  0.2066E-04  0.3750E+00  0.3750E+00
      9.273  0.1010E-06  0.1010E-06  0.3750E+00  0.3750E+00
      9.380  0.5734E-10  0.5730E-10  0.3750E+00  0.3750E+00
      9.487  0.3561E-14  0.3557E-14  0.3750E+00  0.3750E+00
      9.594  0.0000E+00  0.0000E+00  0.3750E+00  0.3750E+00
      9.701  0.0000E+00  0.0000E+00  0.3750E+00  0.3750E+00
      9.807  0.0000E+00  0.0000E+00  0.3750E+00  0.3750E+00
      9.914  0.0000E+00  0.0000E+00  0.3750E+00  0.3750E+00
     10.021  0.0000E+00  0.0000E+00  0.3750E+00  0.3750E+00
     10.128  0.0000E+00  0.0000E+00  0.3750E+00  0.3750E+00
     10.235  0.0000E+00  0.0000E+00  0.3750E+00  0.3750E+00
     10.342  0.0000E+00  0.0000E+00  0.3750E+00  0.3750E+00
