 vasp.6.3.2 27Jun22 (build Dec 22 2022 13:13:19) complex                        
  
 executed on             LinuxIFC date 2023.08.22  23:24:43
 running   48 mpi-ranks, with    1 threads/rank
 distrk:  each k-point on   48 cores,    1 groups
 distr:  one band on NCORE=   1 cores,   48 groups


--------------------------------------------------------------------------------------------------------


 INCAR:
   SYSTEM = Lattice
   ISTART = 0
   ICHARG = 2
   PREC = Accurate
   ENCUT = 450
   LCHARG = .FALSE.
   LWAVE = .FALSE.
   ALGO = Normal
   NELM = 64
   EDIFF = 1E-6
   EDIFFG = -1E-3
   SIGMA = 0.1
   ISMEAR = 0
   ISPIN = 2
   NSW = 128
   IBRION = 2
   POTIM = .5
   ISIF = 2
   GGA = PE
   IVDW = 12

 POTCAR:    PAW_PBE B 06Sep2000                   
 POTCAR:    PAW_PBE C 08Apr2002                   
 -----------------------------------------------------------------------------
|                                                                             |
|           W    W    AA    RRRRR   N    N  II  N    N   GGGG   !!!           |
|           W    W   A  A   R    R  NN   N  II  NN   N  G    G  !!!           |
|           W    W  A    A  R    R  N N  N  II  N N  N  G       !!!           |
|           W WW W  AAAAAA  RRRRR   N  N N  II  N  N N  G  GGG   !            |
|           WW  WW  A    A  R   R   N   NN  II  N   NN  G    G                |
|           W    W  A    A  R    R  N    N  II  N    N   GGGG   !!!           |
|                                                                             |
|     You use a magnetic or noncollinear calculation, but did not specify     |
|     the initial magnetic moment with the MAGMOM tag. Note that a            |
|     default of 1 will be used for all atoms. This ferromagnetic setup       |
|     may break the symmetry of the crystal, in particular it may rule        |
|     out finding an antiferromagnetic solution. Thence, we recommend         |
|     setting the initial magnetic moment manually or verifying carefully     |
|     that this magnetic setup is desired.                                    |
|                                                                             |
 -----------------------------------------------------------------------------

 POTCAR:    PAW_PBE B 06Sep2000                   
   SHA256 =  a32ced30f5ae56fd4d10b4325ff17eb3e4e38ee0f4288bc219fb012fddfa6e97 B/POTCAR              
   COPYR  = (c) Copyright 06Sep2000 Georg Kresse                                                    
   COPYR  = This file is part of the software VASP. Any use, copying, and all other rights are regul
   COPYR  = If you do not have a valid VASP license, you may not use, copy or distribute this file. 
   VRHFIN =B: s2p1                                                                                  
   LEXCH  = PE                                                                                      
   EATOM  =    71.1703 eV,    5.2309 Ry                                                             
                                                                                                    
   TITEL  = PAW_PBE B 06Sep2000                                                                     
   LULTRA =        F    use ultrasoft PP ?                                                          
   IUNSCR =        1    unscreen: 0-lin 1-nonlin 2-no                                               
   RPACOR =    1.200    partial core radius                                                         
   POMASS =   10.811; ZVAL   =    3.000    mass and valenz                                          
   RCORE  =    1.700    outmost cutoff radius                                                       
   RWIGS  =    1.710; RWIGS  =    0.905    wigner-seitz radius (au A)                               
   ENMAX  =  318.614; ENMIN  =  238.960 eV                                                          
   ICORE  =        2    local potential                                                             
   LCOR   =        T    correct aug charges                                                         
   LPAW   =        T    paw PP                                                                      
   EAUG   =  535.514                                                                                
   DEXC   =    0.000                                                                                
   RMAX   =    1.732    core radius for proj-oper                                                   
   RAUG   =    1.300    factor for augmentation sphere                                              
   RDEP   =    1.757    radius for radial grids                                                     
   RDEPT  =    1.436    core radius for aug-charge                                                  
                                                                                                    
   Atomic configuration                                                                             
    4 entries                                                                                       
     n  l   j            E        occ.                                                              
     1  0  0.50      -180.5896   2.0000                                                             
     2  0  0.50        -9.4431   2.0000                                                             
     2  1  0.50        -3.6068   1.0000                                                             
     3  2  1.50        -4.0817   0.0000                                                             
   Description                                                                                      
     l       E           TYP  RCUT    TYP  RCUT                                                     
     0     -9.4430752     23  1.500                                                                 
     0      0.8675899     23  1.500                                                                 
     1     -3.6067955     23  1.700                                                                 
     1      6.1086146     23  1.700                                                                 
     2     -4.0817478      7  1.700                                                                 
  local pseudopotential read in
  partial core-charges read in
  partial kinetic energy density read in
  atomic valenz-charges read in
  non local Contribution for L=           0  read in
    real space projection operators read in
  non local Contribution for L=           0  read in
    real space projection operators read in
  non local Contribution for L=           1  read in
    real space projection operators read in
  non local Contribution for L=           1  read in
    real space projection operators read in
    PAW grid and wavefunctions read in
 
   number of l-projection  operators is LMAX  =           4
   number of lm-projection operators is LMMAX =           8
 
 POTCAR:    PAW_PBE C 08Apr2002                   
   SHA256 =  253f7b50bb8d59471dbedb8285d89021f4a42ed1a2c5d38a03a736e69125dd95 C/POTCAR              
   COPYR  = (c) Copyright 08Apr2002 Georg Kresse                                                    
   COPYR  = This file is part of the software VASP. Any use, copying, and all other rights are regul
   COPYR  = If you do not have a valid VASP license, you may not use, copy or distribute this file. 
   VRHFIN =C: s2p2                                                                                  
   LEXCH  = PE                                                                                      
   EATOM  =   147.1560 eV,   10.8157 Ry                                                             
                                                                                                    
   TITEL  = PAW_PBE C 08Apr2002                                                                     
   LULTRA =        F    use ultrasoft PP ?                                                          
   IUNSCR =        1    unscreen: 0-lin 1-nonlin 2-no                                               
   RPACOR =    1.200    partial core radius                                                         
   POMASS =   12.011; ZVAL   =    4.000    mass and valenz                                          
   RCORE  =    1.500    outmost cutoff radius                                                       
   RWIGS  =    1.630; RWIGS  =    0.863    wigner-seitz radius (au A)                               
   ENMAX  =  400.000; ENMIN  =  300.000 eV                                                          
   ICORE  =        2    local potential                                                             
   LCOR   =        T    correct aug charges                                                         
   LPAW   =        T    paw PP                                                                      
   EAUG   =  644.873                                                                                
   DEXC   =    0.000                                                                                
   RMAX   =    1.529    core radius for proj-oper                                                   
   RAUG   =    1.300    factor for augmentation sphere                                              
   RDEP   =    1.501    radius for radial grids                                                     
   RDEPT  =    1.300    core radius for aug-charge                                                  
                                                                                                    
   Atomic configuration                                                                             
    4 entries                                                                                       
     n  l   j            E        occ.                                                              
     1  0  0.50      -273.3789   2.0000                                                             
     2  0  0.50       -13.7508   2.0000                                                             
     2  1  0.50        -5.2854   2.0000                                                             
     3  2  1.50        -5.4423   0.0000                                                             
   Description                                                                                      
     l       E           TYP  RCUT    TYP  RCUT                                                     
     0    -13.7508458     23  1.200                                                                 
     0     -8.2022199     23  1.200                                                                 
     1     -5.2854383     23  1.500                                                                 
     1     34.0145650     23  1.500                                                                 
     2     -5.4423304      7  1.500                                                                 
  local pseudopotential read in
  partial core-charges read in
  partial kinetic energy density read in
  atomic valenz-charges read in
  non local Contribution for L=           0  read in
    real space projection operators read in
  non local Contribution for L=           0  read in
    real space projection operators read in
  non local Contribution for L=           1  read in
    real space projection operators read in
  non local Contribution for L=           1  read in
    real space projection operators read in
    PAW grid and wavefunctions read in
 
   number of l-projection  operators is LMAX  =           4
   number of lm-projection operators is LMMAX =           8
 
  PAW_PBE B 06Sep2000                   :
 energy of atom  1       EATOM=  -71.1703
 kinetic energy error for atom=    0.0015 (will be added to EATOM!!)
  PAW_PBE C 08Apr2002                   :
 energy of atom  2       EATOM= -147.1560
 kinetic energy error for atom=    0.0116 (will be added to EATOM!!)
 
 
 POSCAR: Graphene-B4C3 Bridge with lattice parame
  positions in direct lattice
  No initial velocities read in
 exchange correlation table for  LEXCH =        8
   RHO(1)=    0.500       N(1)  =     2000
   RHO(2)=  100.500       N(2)  =     4000

 VTST: version 4.2, (08/11/21)

 CHAIN: initializing optimizer
 
 OPT: Using VASP Conjugate-Gradient optimizer
 CHAIN: Read ICHAIN            0
 
 POSCAR: Graphene-B4C3 Bridge with lattice parame
  positions in direct lattice
  No initial velocities read in
 


--------------------------------------------------------------------------------------------------------


 ion  position               nearest neighbor table
   1  0.004  0.003  0.120-   7 1.60   6 1.60   5 1.60   4 1.74   2 1.74   3 1.74
   2  0.357  0.003  0.097-   6 1.57   5 1.64   7 1.64   1 1.74
   3  0.004  0.356  0.097-   7 1.57   5 1.64   6 1.64   1 1.74
   4  0.651  0.650  0.097-   5 1.57   6 1.64   7 1.64   1 1.74
   5  0.328  0.327  0.100-   4 1.57   1 1.60   3 1.64   2 1.64
   6  0.680  0.003  0.100-   2 1.57   1 1.60   4 1.64   3 1.64
   7  0.004  0.679  0.100-   3 1.57   1 1.60   4 1.64   2 1.64
   8  0.083  0.417  0.336-  11 1.40  13 1.40   9 1.40
   9  0.250  0.250  0.336-  10 1.40  12 1.40   8 1.40
  10  0.083  0.917  0.336-   9 1.40  15 1.40  11 1.40
  11  0.250  0.750  0.336-   8 1.40  14 1.40  10 1.40
  12  0.583  0.417  0.336-   9 1.40  15 1.40  13 1.40
  13  0.750  0.250  0.336-   8 1.40  14 1.40  12 1.40
  14  0.583  0.917  0.336-  11 1.40  13 1.40  15 1.40
  15  0.750  0.750  0.336-  10 1.40  12 1.40  14 1.40
 
  LATTYP: Found a hexagonal cell.
 ALAT       =     4.8420000000
 C/A-ratio  =     3.0978934325
  
  Lattice vectors:
  
 A1 = (   4.1932950051,   2.4210000000,   0.0000000000)
 A2 = (  -4.1932950051,   2.4210000000,   0.0000000000)
 A3 = (   0.0000000000,   0.0000000000,  15.0000000000)


Analysis of symmetry for initial positions (statically):
=====================================================================
 Subroutine PRICEL returns:
 Original cell was already a primitive cell.
 

 Routine SETGRP: Setting up the symmetry group for a 
 hexagonal supercell.


 Subroutine GETGRP returns: Found  1 space group operations
 (whereof  1 operations were pure point group operations)
 out of a pool of 24 trial point group operations.


The static configuration has the point symmetry C_1 .


Analysis of symmetry for dynamics (positions and initial velocities):
=====================================================================
 Subroutine PRICEL returns:
 Original cell was already a primitive cell.
 

 Routine SETGRP: Setting up the symmetry group for a 
 hexagonal supercell.


 Subroutine GETGRP returns: Found  1 space group operations
 (whereof  1 operations were pure point group operations)
 out of a pool of 24 trial point group operations.


The dynamic configuration has the point symmetry C_1 .


Analysis of structural, dynamic, and magnetic symmetry:
=====================================================================
 Subroutine PRICEL returns:
 Original cell was already a primitive cell.
 

 Routine SETGRP: Setting up the symmetry group for a 
 hexagonal supercell.


 Subroutine GETGRP returns: Found  1 space group operations
 (whereof  1 operations were pure point group operations)
 out of a pool of 24 trial point group operations.


The overall configuration has the point symmetry C_1 .


 Subroutine INISYM returns: Found  1 space group operations
 (whereof  1 operations are pure point group operations),
 and found     1 'primitive' translations


----------------------------------------------------------------------------------------

                                     Primitive cell                                     

  volume of cell :     304.5590

  direct lattice vectors                    reciprocal lattice vectors
     4.193295005  2.421000000  0.000000000     0.119237974  0.206526229  0.000000000
    -4.193295005  2.421000000  0.000000000    -0.119237974  0.206526229  0.000000000
     0.000000000  0.000000000 15.000000000     0.000000000  0.000000000  0.066666667

  length of vectors
     4.842000000  4.842000000 15.000000000     0.238475948  0.238475948  0.066666667

  position of ions in fractional coordinates (direct lattice)
     0.004153607  0.002672102  0.120341338
     0.356953351  0.002855031  0.097488934
     0.004238577  0.355506992  0.097492564
     0.651422953  0.650065570  0.097476879
     0.328086463  0.326719375  0.100305078
     0.680277748  0.002780852  0.100275621
     0.004165300  0.678838078  0.100265587
     0.083332667  0.416666333  0.336466667
     0.249999667  0.249999333  0.336466667
     0.083332667  0.916666333  0.336466667
     0.249999667  0.749999333  0.336466667
     0.583332667  0.416666333  0.336466667
     0.749999667  0.249999333  0.336466667
     0.583332667  0.916666333  0.336466667
     0.749999667  0.749999333  0.336466667

  ion indices of the primitive-cell ions
   primitive index   ion index
                 1           1
                 2           2
                 3           3
                 4           4
                 5           5
                 6           6
                 7           7
                 8           8
                 9           9
                10          10
                11          11
                12          12
                13          13
                14          14
                15          15

----------------------------------------------------------------------------------------

 
 
 KPOINTS: k-points                                

Automatic generation of k-mesh.
 Grid dimensions read from file:
 generate k-points for:   12   12    1

 Generating k-lattice:

  Cartesian coordinates                     Fractional coordinates (reciprocal lattice)
     0.009936498  0.017210519  0.000000000     0.083333333  0.000000000  0.000000000
    -0.009936498  0.017210519  0.000000000     0.000000000  0.083333333  0.000000000
     0.000000000  0.000000000  0.066666667     0.000000000  0.000000000  1.000000000

  Length of vectors
     0.019872996  0.019872996  0.066666667

  Shift w.r.t. Gamma in fractional coordinates (k-lattice)
     0.000000000  0.000000000  0.000000000

 
 Subroutine IBZKPT returns following result:
 ===========================================
 
 Found     74 irreducible k-points:
 
 Following reciprocal coordinates:
            Coordinates               Weight
  0.000000  0.000000  0.000000      1.000000
  0.083333 -0.000000  0.000000      2.000000
  0.000000  0.083333  0.000000      2.000000
 -0.083333  0.083333  0.000000      2.000000
  0.166667  0.000000  0.000000      2.000000
  0.000000  0.166667  0.000000      2.000000
 -0.166667  0.166667  0.000000      2.000000
  0.250000  0.000000  0.000000      2.000000
  0.000000  0.250000  0.000000      2.000000
 -0.250000  0.250000  0.000000      2.000000
  0.333333 -0.000000  0.000000      2.000000
 -0.000000  0.333333  0.000000      2.000000
 -0.333333  0.333333  0.000000      2.000000
  0.416667 -0.000000  0.000000      2.000000
 -0.000000  0.416667  0.000000      2.000000
 -0.416667  0.416667  0.000000      2.000000
  0.500000  0.000000  0.000000      1.000000
  0.000000  0.500000  0.000000      1.000000
  0.500000  0.500000  0.000000      1.000000
  0.083333  0.083333  0.000000      2.000000
 -0.083333  0.166667  0.000000      2.000000
 -0.166667  0.083333  0.000000      2.000000
  0.166667  0.083333  0.000000      2.000000
 -0.083333  0.250000  0.000000      2.000000
 -0.250000  0.166667  0.000000      2.000000
 -0.166667  0.250000  0.000000      2.000000
  0.083333  0.166667  0.000000      2.000000
  0.250000 -0.083333  0.000000      2.000000
  0.250000  0.083333  0.000000      2.000000
 -0.083333  0.333333  0.000000      2.000000
 -0.333333  0.250000  0.000000      2.000000
 -0.250000  0.333333  0.000000      2.000000
  0.083333  0.250000  0.000000      2.000000
  0.333333 -0.083333  0.000000      2.000000
  0.333333  0.083333  0.000000      2.000000
 -0.083333  0.416667  0.000000      2.000000
 -0.416667  0.333333  0.000000      2.000000
 -0.333333  0.416667  0.000000      2.000000
  0.083333  0.333333  0.000000      2.000000
  0.416667 -0.083333  0.000000      2.000000
  0.416667  0.083333  0.000000      2.000000
 -0.083333  0.500000  0.000000      2.000000
  0.500000  0.416667  0.000000      2.000000
 -0.416667  0.500000  0.000000      2.000000
  0.083333  0.416667  0.000000      2.000000
  0.500000 -0.083333  0.000000      2.000000
  0.166667  0.166667  0.000000      2.000000
 -0.166667  0.333333  0.000000      2.000000
 -0.333333  0.166667  0.000000      2.000000
  0.250000  0.166667  0.000000      2.000000
 -0.166667  0.416667  0.000000      2.000000
 -0.416667  0.250000  0.000000      2.000000
 -0.250000  0.416667  0.000000      2.000000
  0.166667  0.250000  0.000000      2.000000
  0.416667 -0.166667  0.000000      2.000000
  0.333333  0.166667  0.000000      2.000000
 -0.166667  0.500000  0.000000      2.000000
  0.500000  0.333333  0.000000      2.000000
 -0.333333  0.500000  0.000000      2.000000
  0.166667  0.333333  0.000000      2.000000
  0.500000 -0.166667  0.000000      2.000000
  0.416667  0.166667  0.000000      2.000000
 -0.166667 -0.416667  0.000000      2.000000
  0.416667  0.416667  0.000000      2.000000
  0.250000  0.250000  0.000000      2.000000
 -0.250000  0.500000  0.000000      2.000000
  0.500000  0.250000  0.000000      2.000000
  0.333333  0.250000  0.000000      2.000000
 -0.250000 -0.416667  0.000000      2.000000
  0.416667  0.333333  0.000000      2.000000
 -0.333333 -0.416667  0.000000      2.000000
  0.250000  0.333333  0.000000      2.000000
 -0.416667 -0.250000  0.000000      2.000000
  0.333333  0.333333  0.000000      2.000000
 
 Following cartesian coordinates:
            Coordinates               Weight
  0.000000  0.000000  0.000000      1.000000
  0.009936  0.017211  0.000000      2.000000
 -0.009936  0.017211  0.000000      2.000000
 -0.019873  0.000000  0.000000      2.000000
  0.019873  0.034421  0.000000      2.000000
 -0.019873  0.034421  0.000000      2.000000
 -0.039746 -0.000000  0.000000      2.000000
  0.029809  0.051632  0.000000      2.000000
 -0.029809  0.051632  0.000000      2.000000
 -0.059619  0.000000  0.000000      2.000000
  0.039746  0.068842  0.000000      2.000000
 -0.039746  0.068842  0.000000      2.000000
 -0.079492 -0.000000  0.000000      2.000000
  0.049682  0.086053  0.000000      2.000000
 -0.049682  0.086053  0.000000      2.000000
 -0.099365 -0.000000  0.000000      2.000000
  0.059619  0.103263  0.000000      1.000000
 -0.059619  0.103263  0.000000      1.000000
  0.000000  0.206526  0.000000      1.000000
  0.000000  0.034421  0.000000      2.000000
 -0.029809  0.017211  0.000000      2.000000
 -0.029809 -0.017211  0.000000      2.000000
  0.009936  0.051632  0.000000      2.000000
 -0.039746  0.034421  0.000000      2.000000
 -0.049682 -0.017211  0.000000      2.000000
 -0.049682  0.017211  0.000000      2.000000
 -0.009936  0.051632  0.000000      2.000000
  0.039746  0.034421  0.000000      2.000000
  0.019873  0.068842  0.000000      2.000000
 -0.049682  0.051632  0.000000      2.000000
 -0.069555 -0.017211  0.000000      2.000000
 -0.069555  0.017211  0.000000      2.000000
 -0.019873  0.068842  0.000000      2.000000
  0.049682  0.051632  0.000000      2.000000
  0.029809  0.086053  0.000000      2.000000
 -0.059619  0.068842  0.000000      2.000000
 -0.089428 -0.017211  0.000000      2.000000
 -0.089428  0.017211  0.000000      2.000000
 -0.029809  0.086053  0.000000      2.000000
  0.059619  0.068842  0.000000      2.000000
  0.039746  0.103263  0.000000      2.000000
 -0.069555  0.086053  0.000000      2.000000
  0.009936  0.189316  0.000000      2.000000
 -0.109301  0.017211  0.000000      2.000000
 -0.039746  0.103263  0.000000      2.000000
  0.069555  0.086053  0.000000      2.000000
 -0.000000  0.068842  0.000000      2.000000
 -0.059619  0.034421  0.000000      2.000000
 -0.059619 -0.034421  0.000000      2.000000
  0.009936  0.086053  0.000000      2.000000
 -0.069555  0.051632  0.000000      2.000000
 -0.079492 -0.034421  0.000000      2.000000
 -0.079492  0.034421  0.000000      2.000000
 -0.009936  0.086053  0.000000      2.000000
  0.069555  0.051632  0.000000      2.000000
  0.019873  0.103263  0.000000      2.000000
 -0.079492  0.068842  0.000000      2.000000
  0.019873  0.172105  0.000000      2.000000
 -0.099365  0.034421  0.000000      2.000000
 -0.019873  0.103263  0.000000      2.000000
  0.079492  0.068842  0.000000      2.000000
  0.029809  0.120474  0.000000      2.000000
  0.029809 -0.120474  0.000000      2.000000
  0.000000  0.172105  0.000000      2.000000
  0.000000  0.103263  0.000000      2.000000
 -0.089428  0.051632  0.000000      2.000000
  0.029809  0.154895  0.000000      2.000000
  0.009936  0.120474  0.000000      2.000000
  0.019873 -0.137684  0.000000      2.000000
  0.009936  0.154895  0.000000      2.000000
  0.009936 -0.154895  0.000000      2.000000
 -0.009936  0.120474  0.000000      2.000000
 -0.019873 -0.137684  0.000000      2.000000
  0.000000  0.137684  0.000000      2.000000
 


--------------------------------------------------------------------------------------------------------




 Dimension of arrays:
   k-points           NKPTS =     74   k-points in BZ     NKDIM =     74   number of bands    NBANDS=     48
   number of dos      NEDOS =    301   number of ions     NIONS =     15
   non local maximal  LDIM  =      4   non local SUM 2l+1 LMDIM =      8
   total plane-waves  NPLWV = 139968
   max r-space proj   IRMAX =      1   max aug-charges    IRDMAX=   7365
   dimension x,y,z NGX =    36 NGY =   36 NGZ =  108
   dimension x,y,z NGXF=    72 NGYF=   72 NGZF=  216
   support grid    NGXF=    72 NGYF=   72 NGZF=  216
   ions per type =               4  11
   NGX,Y,Z   is equivalent  to a cutoff of  12.36, 12.36, 11.97 a.u.
   NGXF,Y,Z  is equivalent  to a cutoff of  24.72, 24.72, 23.94 a.u.

 SYSTEM =  Lattice                                 
 POSCAR =  Graphene-B4C3 Bridge with lattice parame

 Startparameter for this run:
   NWRITE =      2    write-flag & timer
   PREC   = accura    normal or accurate (medium, high low for compatibility)
   ISTART =      0    job   : 0-new  1-cont  2-samecut
   ICHARG =      2    charge: 1-file 2-atom 10-const
   ISPIN  =      2    spin polarized calculation?
   LNONCOLLINEAR =      F non collinear calculations
   LSORBIT =      F    spin-orbit coupling
   INIWAV =      1    electr: 0-lowe 1-rand  2-diag
   LASPH  =      F    aspherical Exc in radial PAW
 Electronic Relaxation 1
   ENCUT  =  450.0 eV  33.07 Ry    5.75 a.u.   8.38  8.38 25.95*2*pi/ulx,y,z
   ENINI  =  450.0     initial cutoff
   ENAUG  =  644.9 eV  augmentation charge cutoff
   NELM   =     64;   NELMIN=  2; NELMDL= -5     # of ELM steps 
   EDIFF  = 0.1E-05   stopping-criterion for ELM
   LREAL  =      F    real-space projection
   NLSPLINE    = F    spline interpolate recip. space projectors
   LCOMPAT=      F    compatible to vasp.4.4
   GGA_COMPAT  = T    GGA compatible to vasp.4.4-vasp.4.6
   LMAXPAW     = -100 max onsite density
   LMAXMIX     =    2 max onsite mixed and CHGCAR
   VOSKOWN=      0    Vosko Wilk Nusair interpolation
   ROPT   =    0.00000   0.00000
 Ionic relaxation
   EDIFFG = -.1E-02   stopping-criterion for IOM
   NSW    =    128    number of steps for IOM
   NBLOCK =      1;   KBLOCK =    128    inner block; outer block 
   IBRION =      2    ionic relax: 0-MD 1-quasi-New 2-CG
   NFREE  =      1    steps in history (QN), initial steepest desc. (CG)
   ISIF   =      2    stress and relaxation
   IWAVPR =     11    prediction:  0-non 1-charg 2-wave 3-comb
   ISYM   =      2    0-nonsym 1-usesym 2-fastsym
   LCORR  =      T    Harris-Foulkes like correction to forces

   POTIM  = 0.5000    time-step for ionic-motion
   TEIN   =    0.0    initial temperature
   TEBEG  =    0.0;   TEEND  =   0.0 temperature during run
   SMASS  =  -3.00    Nose mass-parameter (am)
   estimated Nose-frequenzy (Omega)   =  0.10E-29 period in steps = 0.13E+47 mass=  -0.536E-27a.u.
   SCALEE = 1.0000    scale energy and forces
   NPACO  =    256;   APACO  = 10.0  distance and # of slots for P.C.
   PSTRESS=    0.0 pullay stress

  Mass of Ions in am
   POMASS =  10.81 12.01
  Ionic Valenz
   ZVAL   =   3.00  4.00
  Atomic Wigner-Seitz radii
   RWIGS  =  -1.00 -1.00
  virtual crystal weights 
   VCA    =   1.00  1.00
   NELECT =      56.0000    total number of electrons
   NUPDOWN=      -1.0000    fix difference up-down

 DOS related values:
   EMIN   =  10.00;   EMAX   =-10.00  energy-range for DOS
   EFERMI =   0.00
   ISMEAR =     0;   SIGMA  =   0.10  broadening in eV -4-tet -1-fermi 0-gaus

 Electronic relaxation 2 (details)
   IALGO  =     38    algorithm
   LDIAG  =      T    sub-space diagonalisation (order eigenvalues)
   LSUBROT=      F    optimize rotation matrix (better conditioning)
   TURBO    =      0    0=normal 1=particle mesh
   IRESTART =      0    0=no restart 2=restart with 2 vectors
   NREBOOT  =      0    no. of reboots
   NMIN     =      0    reboot dimension
   EREF     =   0.00    reference energy to select bands
   IMIX   =      4    mixing-type and parameters
     AMIX     =   0.40;   BMIX     =  1.00
     AMIX_MAG =   1.60;   BMIX_MAG =  1.00
     AMIN     =   0.10
     WC   =   100.;   INIMIX=   1;  MIXPRE=   1;  MAXMIX= -45

 Intra band minimization:
   WEIMIN = 0.0010     energy-eigenvalue tresh-hold
   EBREAK =  0.52E-08  absolut break condition
   DEPER  =   0.30     relativ break condition  

   TIME   =   0.40     timestep for ELM

  volume/ion in A,a.u.               =      20.30       137.02
  Fermi-wavevector in a.u.,A,eV,Ry     =   0.930923  1.759189 11.791045  0.866617
  Thomas-Fermi vector in A             =   2.057362
 
 Write flags
   LWAVE        =      F    write WAVECAR
   LDOWNSAMPLE  =      F    k-point downsampling of WAVECAR
   LCHARG       =      F    write CHGCAR
   LVTOT        =      F    write LOCPOT, total local potential
   LVHAR        =      F    write LOCPOT, Hartree potential only
   LELF         =      F    write electronic localiz. function (ELF)
   LORBIT       =      0    0 simple, 1 ext, 2 COOP (PROOUT), +10 PAW based schemes


 Dipole corrections
   LMONO  =      F    monopole corrections only (constant potential shift)
   LDIPOL =      F    correct potential (dipole corrections)
   IDIPOL =      0    1-x, 2-y, 3-z, 4-all directions 
   EPSILON=  1.0000000 bulk dielectric constant

 Exchange correlation treatment:
   GGA     =    PE    GGA type
   LEXCH   =     8    internal setting for exchange type
   LIBXC   =     F    Libxc                    
   VOSKOWN =     0    Vosko Wilk Nusair interpolation
   LHFCALC =     F    Hartree Fock is set to
   LHFONE  =     F    Hartree Fock one center treatment
   AEXX    =    0.0000 exact exchange contribution

 Linear response parameters
   LEPSILON=     F    determine dielectric tensor
   LRPA    =     F    only Hartree local field effects (RPA)
   LNABLA  =     F    use nabla operator in PAW spheres
   LVEL    =     F    velocity operator in full k-point grid
   CSHIFT  =0.1000    complex shift for real part using Kramers Kronig
   OMEGAMAX=  -1.0    maximum frequency
   DEG_THRESHOLD= 0.2000000E-02 threshold for treating states as degnerate
   RTIME   =   -0.100 relaxation time in fs
  (WPLASMAI=    0.000 imaginary part of plasma frequency in eV, 0.658/RTIME)
   DFIELD  = 0.0000000 0.0000000 0.0000000 field for delta impulse in time
 
  Optional k-point grid parameters
   LKPOINTS_OPT  =     F    use optional k-point grid
   KPOINTS_OPT_MODE=     1    mode for optional k-point grid
 
 Orbital magnetization related:
   ORBITALMAG=     F  switch on orbital magnetization
   LCHIMAG   =     F  perturbation theory with respect to B field
   DQ        =  0.001000  dq finite difference perturbation B field
   LLRAUG    =     F  two centre corrections for induced B field



--------------------------------------------------------------------------------------------------------


 conjugate gradient relaxation of ions
 charge density and potential will be updated during run
 spin polarized calculation
 Variant of blocked Davidson
 Davidson routine will perform the subspace rotation
 perform sub-space diagonalisation
    after iterative eigenvector-optimisation
 modified Broyden-mixing scheme, WC =      100.0
 initial mixing is a Kerker type mixing with AMIX =  0.4000 and BMIX =      1.0000
 Hartree-type preconditioning will be used
 using additional bands           20
 reciprocal scheme for non local part
 use partial core corrections
 calculate Harris-corrections to forces 
   (improved forces if not selfconsistent)
 use gradient corrections 
 use of overlap-Matrix (Vanderbilt PP)
 Gauss-broadening in eV      SIGMA  =   0.10


--------------------------------------------------------------------------------------------------------


  energy-cutoff  :      450.00
  volume of cell :      304.56
      direct lattice vectors                 reciprocal lattice vectors
     4.193295005  2.421000000  0.000000000     0.119237974  0.206526229  0.000000000
    -4.193295005  2.421000000  0.000000000    -0.119237974  0.206526229  0.000000000
     0.000000000  0.000000000 15.000000000     0.000000000  0.000000000  0.066666667

  length of vectors
     4.842000000  4.842000000 15.000000000     0.238475948  0.238475948  0.066666667


 
 k-points in units of 2pi/SCALE and weight: k-points                                
   0.00000000  0.00000000  0.00000000       0.007
   0.00993650  0.01721052  0.00000000       0.014
  -0.00993650  0.01721052  0.00000000       0.014
  -0.01987300  0.00000000  0.00000000       0.014
   0.01987300  0.03442104  0.00000000       0.014
  -0.01987300  0.03442104  0.00000000       0.014
  -0.03974599 -0.00000000  0.00000000       0.014
   0.02980949  0.05163156  0.00000000       0.014
  -0.02980949  0.05163156  0.00000000       0.014
  -0.05961899  0.00000000  0.00000000       0.014
   0.03974599  0.06884208  0.00000000       0.014
  -0.03974599  0.06884208  0.00000000       0.014
  -0.07949198 -0.00000000  0.00000000       0.014
   0.04968249  0.08605260  0.00000000       0.014
  -0.04968249  0.08605260  0.00000000       0.014
  -0.09936498 -0.00000000  0.00000000       0.014
   0.05961899  0.10326311  0.00000000       0.007
  -0.05961899  0.10326311  0.00000000       0.007
   0.00000000  0.20652623  0.00000000       0.007
   0.00000000  0.03442104  0.00000000       0.014
  -0.02980949  0.01721052  0.00000000       0.014
  -0.02980949 -0.01721052  0.00000000       0.014
   0.00993650  0.05163156  0.00000000       0.014
  -0.03974599  0.03442104  0.00000000       0.014
  -0.04968249 -0.01721052  0.00000000       0.014
  -0.04968249  0.01721052  0.00000000       0.014
  -0.00993650  0.05163156  0.00000000       0.014
   0.03974599  0.03442104  0.00000000       0.014
   0.01987300  0.06884208  0.00000000       0.014
  -0.04968249  0.05163156  0.00000000       0.014
  -0.06955548 -0.01721052  0.00000000       0.014
  -0.06955548  0.01721052  0.00000000       0.014
  -0.01987300  0.06884208  0.00000000       0.014
   0.04968249  0.05163156  0.00000000       0.014
   0.02980949  0.08605260  0.00000000       0.014
  -0.05961899  0.06884208  0.00000000       0.014
  -0.08942848 -0.01721052  0.00000000       0.014
  -0.08942848  0.01721052  0.00000000       0.014
  -0.02980949  0.08605260  0.00000000       0.014
   0.05961899  0.06884208  0.00000000       0.014
   0.03974599  0.10326311  0.00000000       0.014
  -0.06955548  0.08605260  0.00000000       0.014
   0.00993650  0.18931571  0.00000000       0.014
  -0.10930148  0.01721052  0.00000000       0.014
  -0.03974599  0.10326311  0.00000000       0.014
   0.06955548  0.08605260  0.00000000       0.014
  -0.00000000  0.06884208  0.00000000       0.014
  -0.05961899  0.03442104  0.00000000       0.014
  -0.05961899 -0.03442104  0.00000000       0.014
   0.00993650  0.08605260  0.00000000       0.014
  -0.06955548  0.05163156  0.00000000       0.014
  -0.07949198 -0.03442104  0.00000000       0.014
  -0.07949198  0.03442104  0.00000000       0.014
  -0.00993650  0.08605260  0.00000000       0.014
   0.06955548  0.05163156  0.00000000       0.014
   0.01987300  0.10326311  0.00000000       0.014
  -0.07949198  0.06884208  0.00000000       0.014
   0.01987300  0.17210519  0.00000000       0.014
  -0.09936498  0.03442104  0.00000000       0.014
  -0.01987300  0.10326311  0.00000000       0.014
   0.07949198  0.06884208  0.00000000       0.014
   0.02980949  0.12047363  0.00000000       0.014
   0.02980949 -0.12047363  0.00000000       0.014
   0.00000000  0.17210519  0.00000000       0.014
   0.00000000  0.10326311  0.00000000       0.014
  -0.08942848  0.05163156  0.00000000       0.014
   0.02980949  0.15489467  0.00000000       0.014
   0.00993650  0.12047363  0.00000000       0.014
   0.01987300 -0.13768415  0.00000000       0.014
   0.00993650  0.15489467  0.00000000       0.014
   0.00993650 -0.15489467  0.00000000       0.014
  -0.00993650  0.12047363  0.00000000       0.014
  -0.01987300 -0.13768415  0.00000000       0.014
   0.00000000  0.13768415  0.00000000       0.014
 
 k-points in reciprocal lattice and weights: k-points                                
   0.00000000  0.00000000  0.00000000       0.007
   0.08333333 -0.00000000  0.00000000       0.014
   0.00000000  0.08333333  0.00000000       0.014
  -0.08333333  0.08333333  0.00000000       0.014
   0.16666667  0.00000000  0.00000000       0.014
   0.00000000  0.16666667  0.00000000       0.014
  -0.16666667  0.16666667  0.00000000       0.014
   0.25000000  0.00000000  0.00000000       0.014
   0.00000000  0.25000000  0.00000000       0.014
  -0.25000000  0.25000000  0.00000000       0.014
   0.33333333 -0.00000000  0.00000000       0.014
  -0.00000000  0.33333333  0.00000000       0.014
  -0.33333333  0.33333333  0.00000000       0.014
   0.41666667 -0.00000000  0.00000000       0.014
  -0.00000000  0.41666667  0.00000000       0.014
  -0.41666667  0.41666667  0.00000000       0.014
   0.50000000  0.00000000  0.00000000       0.007
   0.00000000  0.50000000  0.00000000       0.007
   0.50000000  0.50000000  0.00000000       0.007
   0.08333333  0.08333333  0.00000000       0.014
  -0.08333333  0.16666667  0.00000000       0.014
  -0.16666667  0.08333333  0.00000000       0.014
   0.16666667  0.08333333  0.00000000       0.014
  -0.08333333  0.25000000  0.00000000       0.014
  -0.25000000  0.16666667  0.00000000       0.014
  -0.16666667  0.25000000  0.00000000       0.014
   0.08333333  0.16666667  0.00000000       0.014
   0.25000000 -0.08333333  0.00000000       0.014
   0.25000000  0.08333333  0.00000000       0.014
  -0.08333333  0.33333333  0.00000000       0.014
  -0.33333333  0.25000000  0.00000000       0.014
  -0.25000000  0.33333333  0.00000000       0.014
   0.08333333  0.25000000  0.00000000       0.014
   0.33333333 -0.08333333  0.00000000       0.014
   0.33333333  0.08333333  0.00000000       0.014
  -0.08333333  0.41666667  0.00000000       0.014
  -0.41666667  0.33333333  0.00000000       0.014
  -0.33333333  0.41666667  0.00000000       0.014
   0.08333333  0.33333333  0.00000000       0.014
   0.41666667 -0.08333333  0.00000000       0.014
   0.41666667  0.08333333  0.00000000       0.014
  -0.08333333  0.50000000  0.00000000       0.014
   0.50000000  0.41666667  0.00000000       0.014
  -0.41666667  0.50000000  0.00000000       0.014
   0.08333333  0.41666667  0.00000000       0.014
   0.50000000 -0.08333333  0.00000000       0.014
   0.16666667  0.16666667  0.00000000       0.014
  -0.16666667  0.33333333  0.00000000       0.014
  -0.33333333  0.16666667  0.00000000       0.014
   0.25000000  0.16666667  0.00000000       0.014
  -0.16666667  0.41666667  0.00000000       0.014
  -0.41666667  0.25000000  0.00000000       0.014
  -0.25000000  0.41666667  0.00000000       0.014
   0.16666667  0.25000000  0.00000000       0.014
   0.41666667 -0.16666667  0.00000000       0.014
   0.33333333  0.16666667  0.00000000       0.014
  -0.16666667  0.50000000  0.00000000       0.014
   0.50000000  0.33333333  0.00000000       0.014
  -0.33333333  0.50000000  0.00000000       0.014
   0.16666667  0.33333333  0.00000000       0.014
   0.50000000 -0.16666667  0.00000000       0.014
   0.41666667  0.16666667  0.00000000       0.014
  -0.16666667 -0.41666667  0.00000000       0.014
   0.41666667  0.41666667  0.00000000       0.014
   0.25000000  0.25000000  0.00000000       0.014
  -0.25000000  0.50000000  0.00000000       0.014
   0.50000000  0.25000000  0.00000000       0.014
   0.33333333  0.25000000  0.00000000       0.014
  -0.25000000 -0.41666667  0.00000000       0.014
   0.41666667  0.33333333  0.00000000       0.014
  -0.33333333 -0.41666667  0.00000000       0.014
   0.25000000  0.33333333  0.00000000       0.014
  -0.41666667 -0.25000000  0.00000000       0.014
   0.33333333  0.33333333  0.00000000       0.014
 
 position of ions in fractional coordinates (direct lattice) 
   0.00415361  0.00267210  0.12034134
   0.35695335  0.00285503  0.09748893
   0.00423858  0.35550699  0.09749256
   0.65142295  0.65006557  0.09747688
   0.32808646  0.32671938  0.10030508
   0.68027775  0.00278085  0.10027562
   0.00416530  0.67883808  0.10026559
   0.08333267  0.41666633  0.33646667
   0.24999967  0.24999933  0.33646667
   0.08333267  0.91666633  0.33646667
   0.24999967  0.74999933  0.33646667
   0.58333267  0.41666633  0.33646667
   0.74999967  0.24999933  0.33646667
   0.58333267  0.91666633  0.33646667
   0.74999967  0.74999933  0.33646667
 
 position of ions in cartesian coordinates  (Angst):
   0.00621239  0.01652504  1.80512007
   1.48483872  0.87109609  1.46233401
  -1.47297209  0.87094402  1.46238846
   0.00569191  3.15090372  1.46215318
   0.00573260  1.58528493  1.50457617
   2.84094435  1.65368487  1.50413432
  -2.82910199  1.65355118  1.50398380
  -1.39776640  1.21049758  5.04700000
   0.00000140  1.21049758  5.04700000
  -3.49441390  2.42099758  5.04700000
  -2.09664610  2.42099758  5.04700000
   0.69888110  2.42099758  5.04700000
   2.09664890  2.42099758  5.04700000
  -1.39776640  3.63149758  5.04700000
   0.00000140  3.63149758  5.04700000
 


--------------------------------------------------------------------------------------------------------


 k-point   1 :   0.0000 0.0000 0.0000  plane waves:    6645
 k-point   2 :   0.0833-0.0000 0.0000  plane waves:    6615
 k-point   3 :   0.0000 0.0833 0.0000  plane waves:    6615
 k-point   4 :  -0.0833 0.0833 0.0000  plane waves:    6615
 k-point   5 :   0.1667 0.0000 0.0000  plane waves:    6635
 k-point   6 :   0.0000 0.1667 0.0000  plane waves:    6635
 k-point   7 :  -0.1667 0.1667 0.0000  plane waves:    6635
 k-point   8 :   0.2500 0.0000 0.0000  plane waves:    6599
 k-point   9 :   0.0000 0.2500 0.0000  plane waves:    6599
 k-point  10 :  -0.2500 0.2500 0.0000  plane waves:    6599
 k-point  11 :   0.3333-0.0000 0.0000  plane waves:    6600
 k-point  12 :  -0.0000 0.3333 0.0000  plane waves:    6600
 k-point  13 :  -0.3333 0.3333 0.0000  plane waves:    6600
 k-point  14 :   0.4167-0.0000 0.0000  plane waves:    6594
 k-point  15 :  -0.0000 0.4167 0.0000  plane waves:    6594
 k-point  16 :  -0.4167 0.4167 0.0000  plane waves:    6594
 k-point  17 :   0.5000 0.0000 0.0000  plane waves:    6594
 k-point  18 :   0.0000 0.5000 0.0000  plane waves:    6594
 k-point  19 :   0.5000 0.5000 0.0000  plane waves:    6594
 k-point  20 :   0.0833 0.0833 0.0000  plane waves:    6637
 k-point  21 :  -0.0833 0.1667 0.0000  plane waves:    6637
 k-point  22 :  -0.1667 0.0833 0.0000  plane waves:    6637
 k-point  23 :   0.1667 0.0833 0.0000  plane waves:    6618
 k-point  24 :  -0.0833 0.2500 0.0000  plane waves:    6618
 k-point  25 :  -0.2500 0.1667 0.0000  plane waves:    6618
 k-point  26 :  -0.1667 0.2500 0.0000  plane waves:    6618
 k-point  27 :   0.0833 0.1667 0.0000  plane waves:    6618
 k-point  28 :   0.2500-0.0833 0.0000  plane waves:    6618
 k-point  29 :   0.2500 0.0833 0.0000  plane waves:    6594
 k-point  30 :  -0.0833 0.3333 0.0000  plane waves:    6594
 k-point  31 :  -0.3333 0.2500 0.0000  plane waves:    6594
 k-point  32 :  -0.2500 0.3333 0.0000  plane waves:    6594
 k-point  33 :   0.0833 0.2500 0.0000  plane waves:    6594
 k-point  34 :   0.3333-0.0833 0.0000  plane waves:    6594
 k-point  35 :   0.3333 0.0833 0.0000  plane waves:    6580
 k-point  36 :  -0.0833 0.4167 0.0000  plane waves:    6580
 k-point  37 :  -0.4167 0.3333 0.0000  plane waves:    6580
 k-point  38 :  -0.3333 0.4167 0.0000  plane waves:    6580
 k-point  39 :   0.0833 0.3333 0.0000  plane waves:    6580
 k-point  40 :   0.4167-0.0833 0.0000  plane waves:    6580
 k-point  41 :   0.4167 0.0833 0.0000  plane waves:    6588
 k-point  42 :  -0.0833 0.5000 0.0000  plane waves:    6588
 k-point  43 :   0.5000 0.4167 0.0000  plane waves:    6588
 k-point  44 :  -0.4167 0.5000 0.0000  plane waves:    6588
 k-point  45 :   0.0833 0.4167 0.0000  plane waves:    6588
 k-point  46 :   0.5000-0.0833 0.0000  plane waves:    6588
 k-point  47 :   0.1667 0.1667 0.0000  plane waves:    6591
 k-point  48 :  -0.1667 0.3333 0.0000  plane waves:    6591
 k-point  49 :  -0.3333 0.1667 0.0000  plane waves:    6591
 k-point  50 :   0.2500 0.1667 0.0000  plane waves:    6586
 k-point  51 :  -0.1667 0.4167 0.0000  plane waves:    6586
 k-point  52 :  -0.4167 0.2500 0.0000  plane waves:    6586
 k-point  53 :  -0.2500 0.4167 0.0000  plane waves:    6586
 k-point  54 :   0.1667 0.2500 0.0000  plane waves:    6586
 k-point  55 :   0.4167-0.1667 0.0000  plane waves:    6586
 k-point  56 :   0.3333 0.1667 0.0000  plane waves:    6599
 k-point  57 :  -0.1667 0.5000 0.0000  plane waves:    6599
 k-point  58 :   0.5000 0.3333 0.0000  plane waves:    6599
 k-point  59 :  -0.3333 0.5000 0.0000  plane waves:    6599
 k-point  60 :   0.1667 0.3333 0.0000  plane waves:    6599
 k-point  61 :   0.5000-0.1667 0.0000  plane waves:    6599
 k-point  62 :   0.4167 0.1667 0.0000  plane waves:    6600
 k-point  63 :  -0.1667-0.4167 0.0000  plane waves:    6600
 k-point  64 :   0.4167 0.4167 0.0000  plane waves:    6600
 k-point  65 :   0.2500 0.2500 0.0000  plane waves:    6586
 k-point  66 :  -0.2500 0.5000 0.0000  plane waves:    6586
 k-point  67 :   0.5000 0.2500 0.0000  plane waves:    6586
 k-point  68 :   0.3333 0.2500 0.0000  plane waves:    6596
 k-point  69 :  -0.2500-0.4167 0.0000  plane waves:    6596
 k-point  70 :   0.4167 0.3333 0.0000  plane waves:    6596
 k-point  71 :  -0.3333-0.4167 0.0000  plane waves:    6596
 k-point  72 :   0.2500 0.3333 0.0000  plane waves:    6596
 k-point  73 :  -0.4167-0.2500 0.0000  plane waves:    6596
 k-point  74 :   0.3333 0.3333 0.0000  plane waves:    6606

 maximum and minimum number of plane-waves per node :      6645     6580

 maximum number of plane-waves:      6645
 maximum index in each direction: 
   IXMAX=    8   IYMAX=    8   IZMAX=   25
   IXMIN=   -8   IYMIN=   -8   IZMIN=  -25


 serial   3D FFT for wavefunctions
 parallel 3D FFT for charge:
    minimum data exchange during FFTs selected (reduces bandwidth)


 total amount of memory used by VASP MPI-rank0   126335. kBytes
=======================================================================

   base      :      30000. kBytes
   nonl-proj :      64798. kBytes
   fftplans  :       1560. kBytes
   grid      :      13745. kBytes
   one-center:         92. kBytes
   wavefun   :      16140. kBytes
 
     INWAV:  cpu time      0.0000: real time      0.0000
 Broyden mixing: mesh for mixing (old mesh)
   NGX = 17   NGY = 17   NGZ = 51
  (NGX  = 72   NGY  = 72   NGZ  =216)
  gives a total of  14739 points

 initial charge density was supplied:
 charge density of overlapping atoms calculated
 number of electron      56.0000000 magnetization      15.0000000
 keeping initial charge density in first step


--------------------------------------------------------------------------------------------------------


 Maximum index for augmentation-charges          395 (set IRDMAX)


--------------------------------------------------------------------------------------------------------


 First call to EWALD:  gamma=   0.263
 Maximum number of real-space cells 4x 4x 2
 Maximum number of reciprocal cells 2x 2x 6

    FEWALD:  cpu time      0.0017: real time      0.0023


--------------------------------------- Iteration      1(   1)  ---------------------------------------


    POTLOK:  cpu time      0.0407: real time      0.0426
    SETDIJ:  cpu time      0.0079: real time      0.0080
     EDDAV:  cpu time      5.4630: real time      5.5307
       DOS:  cpu time      0.0020: real time      0.0026
    --------------------------------------------
      LOOP:  cpu time      5.5137: real time      5.5839

 eigenvalue-minimisations  : 14208
 total energy-change (2. order) : 0.2036727E+03  (-0.2571277E+04)
 number of electron      56.0000000 magnetization      15.0000000
 augmentation part       56.0000000 magnetization      15.0000000

 Free energy of the ion-electron system (eV)
  ---------------------------------------------------
  alpha Z        PSCENC =        58.40344200
  Ewald energy   TEWEN  =      4718.32967836
  -Hartree energ DENC   =     -6274.00657371
  -exchange      EXHF   =         0.00000000
  -V(xc)+E(xc)   XCENC  =       175.17603176
  PAW double counting   =      1365.87943566    -1368.52100941
  entropy T*S    EENTRO =        -0.01825953
  eigenvalues    EBANDS =      -374.83348777
  atomic energy  EATOM  =      1903.26342058
  Solvation  Ediel_sol  =         0.00000000
  ---------------------------------------------------
  free energy    TOTEN  =       203.67267795 eV

  energy without entropy =      203.69093748  energy(sigma->0) =      203.68180771


--------------------------------------------------------------------------------------------------------




--------------------------------------- Iteration      1(   2)  ---------------------------------------


     EDDAV:  cpu time      7.9201: real time      7.9959
       DOS:  cpu time      0.0011: real time      0.0011
    --------------------------------------------
      LOOP:  cpu time      7.9212: real time      7.9970

 eigenvalue-minimisations  : 20304
 total energy-change (2. order) :-0.3200794E+03  (-0.3184894E+03)
 number of electron      56.0000000 magnetization      15.0000000
 augmentation part       56.0000000 magnetization      15.0000000

 Free energy of the ion-electron system (eV)
  ---------------------------------------------------
  alpha Z        PSCENC =        58.40344200
  Ewald energy   TEWEN  =      4718.32967836
  -Hartree energ DENC   =     -6274.00657371
  -exchange      EXHF   =         0.00000000
  -V(xc)+E(xc)   XCENC  =       175.17603176
  PAW double counting   =      1365.87943566    -1368.52100941
  entropy T*S    EENTRO =        -0.00113198
  eigenvalues    EBANDS =      -694.93006237
  atomic energy  EATOM  =      1903.26342058
  Solvation  Ediel_sol  =         0.00000000
  ---------------------------------------------------
  free energy    TOTEN  =      -116.40676911 eV

  energy without entropy =     -116.40563713  energy(sigma->0) =     -116.40620312


--------------------------------------------------------------------------------------------------------




--------------------------------------- Iteration      1(   3)  ---------------------------------------


     EDDAV:  cpu time     11.1309: real time     11.2246
       DOS:  cpu time      0.0011: real time      0.0012
    --------------------------------------------
      LOOP:  cpu time     11.1320: real time     11.2258

 eigenvalue-minimisations  : 26400
 total energy-change (2. order) :-0.1302735E+02  (-0.1300985E+02)
 number of electron      56.0000000 magnetization      15.0000000
 augmentation part       56.0000000 magnetization      15.0000000

 Free energy of the ion-electron system (eV)
  ---------------------------------------------------
  alpha Z        PSCENC =        58.40344200
  Ewald energy   TEWEN  =      4718.32967836
  -Hartree energ DENC   =     -6274.00657371
  -exchange      EXHF   =         0.00000000
  -V(xc)+E(xc)   XCENC  =       175.17603176
  PAW double counting   =      1365.87943566    -1368.52100941
  entropy T*S    EENTRO =        -0.00308133
  eigenvalues    EBANDS =      -707.95546651
  atomic energy  EATOM  =      1903.26342058
  Solvation  Ediel_sol  =         0.00000000
  ---------------------------------------------------
  free energy    TOTEN  =      -129.43412259 eV

  energy without entropy =     -129.43104126  energy(sigma->0) =     -129.43258193


--------------------------------------------------------------------------------------------------------




--------------------------------------- Iteration      1(   4)  ---------------------------------------


     EDDAV:  cpu time      8.0166: real time      8.0906
       DOS:  cpu time      0.0011: real time      0.0011
    --------------------------------------------
      LOOP:  cpu time      8.0177: real time      8.0917

 eigenvalue-minimisations  : 19968
 total energy-change (2. order) :-0.2689353E-01  (-0.2689197E-01)
 number of electron      56.0000000 magnetization      15.0000000
 augmentation part       56.0000000 magnetization      15.0000000

 Free energy of the ion-electron system (eV)
  ---------------------------------------------------
  alpha Z        PSCENC =        58.40344200
  Ewald energy   TEWEN  =      4718.32967836
  -Hartree energ DENC   =     -6274.00657371
  -exchange      EXHF   =         0.00000000
  -V(xc)+E(xc)   XCENC  =       175.17603176
  PAW double counting   =      1365.87943566    -1368.52100941
  entropy T*S    EENTRO =        -0.00311442
  eigenvalues    EBANDS =      -707.98232694
  atomic energy  EATOM  =      1903.26342058
  Solvation  Ediel_sol  =         0.00000000
  ---------------------------------------------------
  free energy    TOTEN  =      -129.46101612 eV

  energy without entropy =     -129.45790170  energy(sigma->0) =     -129.45945891


--------------------------------------------------------------------------------------------------------




--------------------------------------- Iteration      1(   5)  ---------------------------------------


     EDDAV:  cpu time     10.6404: real time     10.7159
       DOS:  cpu time      0.0011: real time      0.0011
    CHARGE:  cpu time      0.2575: real time      0.2665
    MIXING:  cpu time      0.0016: real time      0.0025
    --------------------------------------------
      LOOP:  cpu time     10.9006: real time     10.9859

 eigenvalue-minimisations  : 25584
 total energy-change (2. order) :-0.6470551E-04  (-0.6470574E-04)
 number of electron      55.9999999 magnetization      11.4640919
 augmentation part        1.2069717 magnetization      11.2823698

 Broyden mixing:
  rms(total) = 0.24457E+01    rms(broyden)= 0.24455E+01
  rms(prec ) = 0.26206E+01
  weight for this iteration     100.00

 Free energy of the ion-electron system (eV)
  ---------------------------------------------------
  alpha Z        PSCENC =        58.40344200
  Ewald energy   TEWEN  =      4718.32967836
  -Hartree energ DENC   =     -6274.00657371
  -exchange      EXHF   =         0.00000000
  -V(xc)+E(xc)   XCENC  =       175.17603176
  PAW double counting   =      1365.87943566    -1368.52100941
  entropy T*S    EENTRO =        -0.00311439
  eigenvalues    EBANDS =      -707.98239168
  atomic energy  EATOM  =      1903.26342058
  Solvation  Ediel_sol  =         0.00000000
  ---------------------------------------------------
  free energy    TOTEN  =      -129.46108083 eV

  energy without entropy =     -129.45796643  energy(sigma->0) =     -129.45952363


--------------------------------------------------------------------------------------------------------




--------------------------------------- Iteration      1(   6)  ---------------------------------------


    POTLOK:  cpu time      0.0357: real time      0.0387
    SETDIJ:  cpu time      0.0035: real time      0.0036
     EDDAV:  cpu time     10.6331: real time     10.7001
       DOS:  cpu time      0.0012: real time      0.0012
    CHARGE:  cpu time      0.2554: real time      0.2653
    MIXING:  cpu time      0.0011: real time      0.0021
    --------------------------------------------
      LOOP:  cpu time     10.9299: real time     11.0111

 eigenvalue-minimisations  : 25728
 total energy-change (2. order) : 0.3743272E+02  (-0.7230881E+01)
 number of electron      55.9999999 magnetization       7.8552409
 augmentation part        1.1537160 magnetization       7.4913140

 Broyden mixing:
  rms(total) = 0.13899E+01    rms(broyden)= 0.13898E+01
  rms(prec ) = 0.15022E+01
  weight for this iteration     100.00

 eigenvalues of (default mixing * dielectric matrix)
  average eigenvalue GAMMA=   1.0720
  1.0720

 Free energy of the ion-electron system (eV)
  ---------------------------------------------------
  alpha Z        PSCENC =        58.40344200
  Ewald energy   TEWEN  =      4718.32967836
  -Hartree energ DENC   =     -6348.87512641
  -exchange      EXHF   =         0.00000000
  -V(xc)+E(xc)   XCENC  =       199.34357062
  PAW double counting   =      2641.68860658    -2645.54326218
  entropy T*S    EENTRO =        -0.00628374
  eigenvalues    EBANDS =      -618.63240437
  atomic energy  EATOM  =      1903.26342058
  Solvation  Ediel_sol  =         0.00000000
  ---------------------------------------------------
  free energy    TOTEN  =       -92.02835857 eV

  energy without entropy =      -92.02207483  energy(sigma->0) =      -92.02521670


--------------------------------------------------------------------------------------------------------




--------------------------------------- Iteration      1(   7)  ---------------------------------------


    POTLOK:  cpu time      0.0331: real time      0.0361
    SETDIJ:  cpu time      0.0034: real time      0.0035
     EDDAV:  cpu time      9.0664: real time      9.1264
       DOS:  cpu time      0.0011: real time      0.0011
    CHARGE:  cpu time      0.2556: real time      0.2648
    MIXING:  cpu time      0.0010: real time      0.0011
    --------------------------------------------
      LOOP:  cpu time      9.3607: real time      9.4330

 eigenvalue-minimisations  : 22128
 total energy-change (2. order) :-0.8462612E+01  (-0.1001434E+01)
 number of electron      55.9999999 magnetization       4.2822209
 augmentation part        1.0932893 magnetization       4.0126863

 Broyden mixing:
  rms(total) = 0.81064E+00    rms(broyden)= 0.81055E+00
  rms(prec ) = 0.84376E+00
  weight for this iteration     100.00

 eigenvalues of (default mixing * dielectric matrix)
  average eigenvalue GAMMA=   1.3858
  0.8834  1.8883

 Free energy of the ion-electron system (eV)
  ---------------------------------------------------
  alpha Z        PSCENC =        58.40344200
  Ewald energy   TEWEN  =      4718.32967836
  -Hartree energ DENC   =     -6422.06573027
  -exchange      EXHF   =         0.00000000
  -V(xc)+E(xc)   XCENC  =       193.61083281
  PAW double counting   =      4169.72583336    -4174.26008007
  entropy T*S    EENTRO =        -0.00560413
  eigenvalues    EBANDS =      -547.49276358
  atomic energy  EATOM  =      1903.26342058
  Solvation  Ediel_sol  =         0.00000000
  ---------------------------------------------------
  free energy    TOTEN  =      -100.49097094 eV

  energy without entropy =     -100.48536681  energy(sigma->0) =     -100.48816888


--------------------------------------------------------------------------------------------------------




--------------------------------------- Iteration      1(   8)  ---------------------------------------


    POTLOK:  cpu time      0.0317: real time      0.0333
    SETDIJ:  cpu time      0.0034: real time      0.0034
     EDDAV:  cpu time     10.0463: real time     10.1179
       DOS:  cpu time      0.0009: real time      0.0009
    CHARGE:  cpu time      0.2565: real time      0.2653
    MIXING:  cpu time      0.0009: real time      0.0009
    --------------------------------------------
      LOOP:  cpu time     10.3397: real time     10.4218

 eigenvalue-minimisations  : 24336
 total energy-change (2. order) :-0.9922907E+01  (-0.8729001E+00)
 number of electron      56.0000000 magnetization       2.8183029
 augmentation part        1.0473179 magnetization       2.7211174

 Broyden mixing:
  rms(total) = 0.43435E+00    rms(broyden)= 0.43429E+00
  rms(prec ) = 0.44645E+00
  weight for this iteration     100.00

 eigenvalues of (default mixing * dielectric matrix)
  average eigenvalue GAMMA=   1.3747
  2.3996  1.0629  0.6615

 Free energy of the ion-electron system (eV)
  ---------------------------------------------------
  alpha Z        PSCENC =        58.40344200
  Ewald energy   TEWEN  =      4718.32967836
  -Hartree energ DENC   =     -6471.69877534
  -exchange      EXHF   =         0.00000000
  -V(xc)+E(xc)   XCENC  =       189.58520870
  PAW double counting   =      5632.26840664    -5637.02849614
  entropy T*S    EENTRO =        -0.00002479
  eigenvalues    EBANDS =      -503.53673787
  atomic energy  EATOM  =      1903.26342058
  Solvation  Ediel_sol  =         0.00000000
  ---------------------------------------------------
  free energy    TOTEN  =      -110.41387786 eV

  energy without entropy =     -110.41385307  energy(sigma->0) =     -110.41386547


--------------------------------------------------------------------------------------------------------




--------------------------------------- Iteration      1(   9)  ---------------------------------------


    POTLOK:  cpu time      0.0314: real time      0.0328
    SETDIJ:  cpu time      0.0032: real time      0.0035
     EDDAV:  cpu time      7.4768: real time      7.5328
       DOS:  cpu time      0.0010: real time      0.0010
    CHARGE:  cpu time      0.2543: real time      0.2610
    MIXING:  cpu time      0.0008: real time      0.0008
    --------------------------------------------
      LOOP:  cpu time      7.7674: real time      7.8319

 eigenvalue-minimisations  : 18864
 total energy-change (2. order) :-0.6778152E+01  (-0.3939776E+00)
 number of electron      56.0000000 magnetization       1.4975807
 augmentation part        1.0364571 magnetization       1.4169479

 Broyden mixing:
  rms(total) = 0.27734E+00    rms(broyden)= 0.27730E+00
  rms(prec ) = 0.29073E+00
  weight for this iteration     100.00

 eigenvalues of (default mixing * dielectric matrix)
  average eigenvalue GAMMA=   1.4502
  2.5917  1.7389  0.8600  0.6101

 Free energy of the ion-electron system (eV)
  ---------------------------------------------------
  alpha Z        PSCENC =        58.40344200
  Ewald energy   TEWEN  =      4718.32967836
  -Hartree energ DENC   =     -6477.88349592
  -exchange      EXHF   =         0.00000000
  -V(xc)+E(xc)   XCENC  =       185.70387174
  PAW double counting   =      5922.09393972    -5926.75369011
  entropy T*S    EENTRO =        -0.00000378
  eigenvalues    EBANDS =      -500.34919263
  atomic energy  EATOM  =      1903.26342058
  Solvation  Ediel_sol  =         0.00000000
  ---------------------------------------------------
  free energy    TOTEN  =      -117.19203004 eV

  energy without entropy =     -117.19202627  energy(sigma->0) =     -117.19202816


--------------------------------------------------------------------------------------------------------




--------------------------------------- Iteration      1(  10)  ---------------------------------------


    POTLOK:  cpu time      0.0299: real time      0.0302
    SETDIJ:  cpu time      0.0033: real time      0.0033
     EDDAV:  cpu time      9.7744: real time      9.8352
       DOS:  cpu time      0.0011: real time      0.0011
    CHARGE:  cpu time      0.2493: real time      0.2598
    MIXING:  cpu time      0.0010: real time      0.0013
    --------------------------------------------
      LOOP:  cpu time     10.0590: real time     10.1309

 eigenvalue-minimisations  : 23856
 total energy-change (2. order) :-0.6280683E+01  (-0.8027527E+00)
 number of electron      56.0000000 magnetization       0.8205600
 augmentation part        1.0275534 magnetization       0.7778017

 Broyden mixing:
  rms(total) = 0.15939E+00    rms(broyden)= 0.15924E+00
  rms(prec ) = 0.17691E+00
  weight for this iteration     100.00

 eigenvalues of (default mixing * dielectric matrix)
  average eigenvalue GAMMA=   1.4831
  2.5365  2.5365  0.8717  0.8717  0.5990

 Free energy of the ion-electron system (eV)
  ---------------------------------------------------
  alpha Z        PSCENC =        58.40344200
  Ewald energy   TEWEN  =      4718.32967836
  -Hartree energ DENC   =     -6476.09658260
  -exchange      EXHF   =         0.00000000
  -V(xc)+E(xc)   XCENC  =       182.21005744
  PAW double counting   =      5967.24423735    -5971.70491994
  entropy T*S    EENTRO =        -0.00060178
  eigenvalues    EBANDS =      -505.12144455
  atomic energy  EATOM  =      1903.26342058
  Solvation  Ediel_sol  =         0.00000000
  ---------------------------------------------------
  free energy    TOTEN  =      -123.47271316 eV

  energy without entropy =     -123.47211138  energy(sigma->0) =     -123.47241227


--------------------------------------------------------------------------------------------------------




--------------------------------------- Iteration      1(  11)  ---------------------------------------


    POTLOK:  cpu time      0.0352: real time      0.0408
    SETDIJ:  cpu time      0.0034: real time      0.0035
     EDDAV:  cpu time     10.3303: real time     10.3994
       DOS:  cpu time      0.0010: real time      0.0010
    CHARGE:  cpu time      0.2560: real time      0.2654
    MIXING:  cpu time      0.0009: real time      0.0009
    --------------------------------------------
      LOOP:  cpu time     10.6267: real time     10.7110

 eigenvalue-minimisations  : 25152
 total energy-change (2. order) :-0.1804202E+01  (-0.2833889E+00)
 number of electron      56.0000000 magnetization       0.3569162
 augmentation part        1.0269710 magnetization       0.3380923

 Broyden mixing:
  rms(total) = 0.99200E-01    rms(broyden)= 0.99083E-01
  rms(prec ) = 0.11209E+00
  weight for this iteration     100.00

 eigenvalues of (default mixing * dielectric matrix)
  average eigenvalue GAMMA=   1.5138
  2.9989  2.3582  1.4467  0.9380  0.7308  0.6105

 Free energy of the ion-electron system (eV)
  ---------------------------------------------------
  alpha Z        PSCENC =        58.40344200
  Ewald energy   TEWEN  =      4718.32967836
  -Hartree energ DENC   =     -6472.74972473
  -exchange      EXHF   =         0.00000000
  -V(xc)+E(xc)   XCENC  =       181.06417802
  PAW double counting   =      5872.23945207    -5876.61597829
  entropy T*S    EENTRO =        -0.00119420
  eigenvalues    EBANDS =      -509.21018890
  atomic energy  EATOM  =      1903.26342058
  Solvation  Ediel_sol  =         0.00000000
  ---------------------------------------------------
  free energy    TOTEN  =      -125.27691511 eV

  energy without entropy =     -125.27572090  energy(sigma->0) =     -125.27631800


--------------------------------------------------------------------------------------------------------




--------------------------------------- Iteration      1(  12)  ---------------------------------------


    POTLOK:  cpu time      0.0309: real time      0.0313
    SETDIJ:  cpu time      0.0034: real time      0.0034
     EDDAV:  cpu time      7.6672: real time      7.7186
       DOS:  cpu time      0.0010: real time      0.0010
    CHARGE:  cpu time      0.2512: real time      0.2601
    MIXING:  cpu time      0.0009: real time      0.0009
    --------------------------------------------
      LOOP:  cpu time      7.9547: real time      8.0153

 eigenvalue-minimisations  : 19440
 total energy-change (2. order) :-0.1627253E+00  (-0.2307612E-01)
 number of electron      56.0000000 magnetization       0.1171712
 augmentation part        1.0287162 magnetization       0.1085638

 Broyden mixing:
  rms(total) = 0.46387E-01    rms(broyden)= 0.46359E-01
  rms(prec ) = 0.51233E-01
  weight for this iteration     100.00

 eigenvalues of (default mixing * dielectric matrix)
  average eigenvalue GAMMA=   1.5637
  3.5861  2.1222  2.1222  0.8904  0.8904  0.6070  0.7276

 Free energy of the ion-electron system (eV)
  ---------------------------------------------------
  alpha Z        PSCENC =        58.40344200
  Ewald energy   TEWEN  =      4718.32967836
  -Hartree energ DENC   =     -6471.82526652
  -exchange      EXHF   =         0.00000000
  -V(xc)+E(xc)   XCENC  =       180.70949791
  PAW double counting   =      5807.17858906    -5811.56590809
  entropy T*S    EENTRO =        -0.00148313
  eigenvalues    EBANDS =      -509.93161059
  atomic energy  EATOM  =      1903.26342058
  Solvation  Ediel_sol  =         0.00000000
  ---------------------------------------------------
  free energy    TOTEN  =      -125.43964044 eV

  energy without entropy =     -125.43815730  energy(sigma->0) =     -125.43889887


--------------------------------------------------------------------------------------------------------




--------------------------------------- Iteration      1(  13)  ---------------------------------------


    POTLOK:  cpu time      0.0307: real time      0.0322
    SETDIJ:  cpu time      0.0033: real time      0.0033
     EDDAV:  cpu time      7.0394: real time      7.0891
       DOS:  cpu time      0.0010: real time      0.0010
    CHARGE:  cpu time      0.2522: real time      0.2605
    MIXING:  cpu time      0.0010: real time      0.0010
    --------------------------------------------
      LOOP:  cpu time      7.3275: real time      7.3871

 eigenvalue-minimisations  : 17808
 total energy-change (2. order) :-0.2692135E-01  (-0.2298177E-02)
 number of electron      56.0000000 magnetization       0.0343066
 augmentation part        1.0286594 magnetization       0.0316539

 Broyden mixing:
  rms(total) = 0.18731E-01    rms(broyden)= 0.18726E-01
  rms(prec ) = 0.22696E-01
  weight for this iteration     100.00

 eigenvalues of (default mixing * dielectric matrix)
  average eigenvalue GAMMA=   1.5859
  3.9491  2.3166  2.3166  0.9741  0.9121  0.9121  0.6131  0.6936

 Free energy of the ion-electron system (eV)
  ---------------------------------------------------
  alpha Z        PSCENC =        58.40344200
  Ewald energy   TEWEN  =      4718.32967836
  -Hartree energ DENC   =     -6472.61805106
  -exchange      EXHF   =         0.00000000
  -V(xc)+E(xc)   XCENC  =       180.64372670
  PAW double counting   =      5792.57489934    -5796.98629243
  entropy T*S    EENTRO =        -0.00155311
  eigenvalues    EBANDS =      -509.07583216
  atomic energy  EATOM  =      1903.26342058
  Solvation  Ediel_sol  =         0.00000000
  ---------------------------------------------------
  free energy    TOTEN  =      -125.46656179 eV

  energy without entropy =     -125.46500868  energy(sigma->0) =     -125.46578523


--------------------------------------------------------------------------------------------------------




--------------------------------------- Iteration      1(  14)  ---------------------------------------


    POTLOK:  cpu time      0.0310: real time      0.0330
    SETDIJ:  cpu time      0.0034: real time      0.0034
     EDDAV:  cpu time      8.3081: real time      8.3740
       DOS:  cpu time      0.0010: real time      0.0010
    CHARGE:  cpu time      0.2553: real time      0.2629
    MIXING:  cpu time      0.0011: real time      0.0011
    --------------------------------------------
      LOOP:  cpu time      8.5998: real time      8.6753

 eigenvalue-minimisations  : 20880
 total energy-change (2. order) :-0.2229648E-01  (-0.6055692E-03)
 number of electron      56.0000000 magnetization       0.0020638
 augmentation part        1.0287889 magnetization       0.0010013

 Broyden mixing:
  rms(total) = 0.83900E-02    rms(broyden)= 0.83881E-02
  rms(prec ) = 0.12219E-01
  weight for this iteration     100.00

 eigenvalues of (default mixing * dielectric matrix)
  average eigenvalue GAMMA=   1.5619
  4.1136  2.3233  2.3233  1.3571  0.9306  0.9306  0.7910  0.6168  0.6706

 Free energy of the ion-electron system (eV)
  ---------------------------------------------------
  alpha Z        PSCENC =        58.40344200
  Ewald energy   TEWEN  =      4718.32967836
  -Hartree energ DENC   =     -6472.90428594
  -exchange      EXHF   =         0.00000000
  -V(xc)+E(xc)   XCENC  =       180.58865806
  PAW double counting   =      5770.28594546    -5774.70472776
  entropy T*S    EENTRO =        -0.00155803
  eigenvalues    EBANDS =      -508.74943098
  atomic energy  EATOM  =      1903.26342058
  Solvation  Ediel_sol  =         0.00000000
  ---------------------------------------------------
  free energy    TOTEN  =      -125.48885827 eV

  energy without entropy =     -125.48730024  energy(sigma->0) =     -125.48807925


--------------------------------------------------------------------------------------------------------




--------------------------------------- Iteration      1(  15)  ---------------------------------------


    POTLOK:  cpu time      0.0298: real time      0.0303
    SETDIJ:  cpu time      0.0034: real time      0.0034
     EDDAV:  cpu time      7.7134: real time      7.7658
       DOS:  cpu time      0.0010: real time      0.0010
    CHARGE:  cpu time      0.2572: real time      0.2627
    MIXING:  cpu time      0.0010: real time      0.0011
    --------------------------------------------
      LOOP:  cpu time      8.0058: real time      8.0644

 eigenvalue-minimisations  : 19200
 total energy-change (2. order) :-0.7486575E-02  (-0.3138440E-03)
 number of electron      56.0000000 magnetization      -0.0052875
 augmentation part        1.0288561 magnetization      -0.0054348

 Broyden mixing:
  rms(total) = 0.43936E-02    rms(broyden)= 0.43928E-02
  rms(prec ) = 0.79383E-02
  weight for this iteration     100.00

 eigenvalues of (default mixing * dielectric matrix)
  average eigenvalue GAMMA=   1.5640
  4.1985  2.3191  2.3191  2.0163  0.9724  0.9123  0.9123  0.7365  0.6267  0.6267

 Free energy of the ion-electron system (eV)
  ---------------------------------------------------
  alpha Z        PSCENC =        58.40344200
  Ewald energy   TEWEN  =      4718.32967836
  -Hartree energ DENC   =     -6473.36191810
  -exchange      EXHF   =         0.00000000
  -V(xc)+E(xc)   XCENC  =       180.56968217
  PAW double counting   =      5759.95499212    -5764.37489509
  entropy T*S    EENTRO =        -0.00155875
  eigenvalues    EBANDS =      -508.27918813
  atomic energy  EATOM  =      1903.26342058
  Solvation  Ediel_sol  =         0.00000000
  ---------------------------------------------------
  free energy    TOTEN  =      -125.49634485 eV

  energy without entropy =     -125.49478609  energy(sigma->0) =     -125.49556547


--------------------------------------------------------------------------------------------------------




--------------------------------------- Iteration      1(  16)  ---------------------------------------


    POTLOK:  cpu time      0.0306: real time      0.0309
    SETDIJ:  cpu time      0.0034: real time      0.0034
     EDDAV:  cpu time      6.8550: real time      6.9128
       DOS:  cpu time      0.0010: real time      0.0010
    CHARGE:  cpu time      0.2531: real time      0.2605
    MIXING:  cpu time      0.0011: real time      0.0018
    --------------------------------------------
      LOOP:  cpu time      7.1441: real time      7.2104

 eigenvalue-minimisations  : 17088
 total energy-change (2. order) :-0.1970545E-02  (-0.6304002E-04)
 number of electron      56.0000000 magnetization      -0.0070166
 augmentation part        1.0287205 magnetization      -0.0069612

 Broyden mixing:
  rms(total) = 0.22304E-02    rms(broyden)= 0.22301E-02
  rms(prec ) = 0.54059E-02
  weight for this iteration     100.00

 eigenvalues of (default mixing * dielectric matrix)
  average eigenvalue GAMMA=   1.5577
  4.2341  2.4016  2.4016  2.2257  1.1692  0.9385  0.9385  0.8639  0.7107  0.6255
  0.6255

 Free energy of the ion-electron system (eV)
  ---------------------------------------------------
  alpha Z        PSCENC =        58.40344200
  Ewald energy   TEWEN  =      4718.32967836
  -Hartree energ DENC   =     -6474.02090109
  -exchange      EXHF   =         0.00000000
  -V(xc)+E(xc)   XCENC  =       180.57274174
  PAW double counting   =      5759.18424191    -5763.60513112
  entropy T*S    EENTRO =        -0.00155876
  eigenvalues    EBANDS =      -507.62424900
  atomic energy  EATOM  =      1903.26342058
  Solvation  Ediel_sol  =         0.00000000
  ---------------------------------------------------
  free energy    TOTEN  =      -125.49831539 eV

  energy without entropy =     -125.49675663  energy(sigma->0) =     -125.49753601


--------------------------------------------------------------------------------------------------------




--------------------------------------- Iteration      1(  17)  ---------------------------------------


    POTLOK:  cpu time      0.0307: real time      0.0310
    SETDIJ:  cpu time      0.0033: real time      0.0033
     EDDAV:  cpu time      5.6574: real time      5.7056
       DOS:  cpu time      0.0010: real time      0.0010
    CHARGE:  cpu time      0.2503: real time      0.2616
    MIXING:  cpu time      0.0011: real time      0.0011
    --------------------------------------------
      LOOP:  cpu time      5.9438: real time      6.0036

 eigenvalue-minimisations  : 14736
 total energy-change (2. order) :-0.1255359E-02  (-0.1720048E-04)
 number of electron      56.0000000 magnetization      -0.0065779
 augmentation part        1.0286272 magnetization      -0.0064643

 Broyden mixing:
  rms(total) = 0.17126E-02    rms(broyden)= 0.17125E-02
  rms(prec ) = 0.35861E-02
  weight for this iteration     100.00

 eigenvalues of (default mixing * dielectric matrix)
  average eigenvalue GAMMA=   1.5532
  4.2694  2.5190  2.3786  2.3786  1.5570  1.0317  0.9068  0.9068  0.7645  0.6753
  0.6171  0.6342

 Free energy of the ion-electron system (eV)
  ---------------------------------------------------
  alpha Z        PSCENC =        58.40344200
  Ewald energy   TEWEN  =      4718.32967836
  -Hartree energ DENC   =     -6474.77873357
  -exchange      EXHF   =         0.00000000
  -V(xc)+E(xc)   XCENC  =       180.57297049
  PAW double counting   =      5758.48940668    -5762.91079626
  entropy T*S    EENTRO =        -0.00155873
  eigenvalues    EBANDS =      -506.86740028
  atomic energy  EATOM  =      1903.26342058
  Solvation  Ediel_sol  =         0.00000000
  ---------------------------------------------------
  free energy    TOTEN  =      -125.49957075 eV

  energy without entropy =     -125.49801202  energy(sigma->0) =     -125.49879138


--------------------------------------------------------------------------------------------------------




--------------------------------------- Iteration      1(  18)  ---------------------------------------


    POTLOK:  cpu time      0.0296: real time      0.0300
    SETDIJ:  cpu time      0.0035: real time      0.0035
     EDDAV:  cpu time      6.3624: real time      6.4041
       DOS:  cpu time      0.0009: real time      0.0009
    CHARGE:  cpu time      0.2554: real time      0.2669
    MIXING:  cpu time      0.0012: real time      0.0013
    --------------------------------------------
      LOOP:  cpu time      6.6531: real time      6.7067

 eigenvalue-minimisations  : 16272
 total energy-change (2. order) :-0.7203382E-03  (-0.8426788E-05)
[...]
     11      -9.0409      1.00000
     12      -8.6940      1.00000
     13      -8.4674      1.00000
     14      -7.7880      1.00000
     15      -7.5584      1.00000
     16      -7.4919      1.00000
     17      -6.7401      1.00000
     18      -6.6300      1.00000
     19      -6.2105      1.00000
     20      -6.0501      1.00000
     21      -5.8011      1.00000
     22      -5.5107      1.00000
     23      -5.3135      1.00000
     24      -5.1292      1.00000
     25      -3.9105      1.00000
     26      -3.5318      1.00000
     27      -2.9852      1.00000
     28      -1.1044      1.00000
     29       0.2842      0.00000
     30       2.1721      0.00000
     31       3.6042      0.00000
     32       3.8284      0.00000
     33       4.5092      0.00000
     34       4.8249      0.00000
     35       4.9685      0.00000
     36       5.1582      0.00000
     37       5.3569      0.00000
     38       5.4992      0.00000
     39       5.8889      0.00000
     40       6.1702      0.00000
     41       6.2138      0.00000
     42       6.5221      0.00000
     43       6.6765      0.00000
     44       7.0626      0.00000
     45       7.2678      0.00000
     46       7.2986      0.00000
     47       7.7215      0.00000
     48       8.2815      0.00000

 k-point    72 :       0.2500    0.3333    0.0000
  band No.  band energies     occupation 
      1     -18.7826      1.00000
      2     -18.2843      1.00000
      3     -17.7900      1.00000
      4     -16.6300      1.00000
      5     -14.5681      1.00000
      6     -14.1873      1.00000
      7     -13.7190      1.00000
      8     -12.7576      1.00000
      9     -11.0247      1.00000
     10      -9.4121      1.00000
     11      -9.0436      1.00000
     12      -8.6953      1.00000
     13      -8.4654      1.00000
     14      -7.7879      1.00000
     15      -7.5553      1.00000
     16      -7.4881      1.00000
     17      -6.7425      1.00000
     18      -6.6299      1.00000
     19      -6.2148      1.00000
     20      -6.0496      1.00000
     21      -5.8020      1.00000
     22      -5.5115      1.00000
     23      -5.3134      1.00000
     24      -5.1293      1.00000
     25      -3.9106      1.00000
     26      -3.5303      1.00000
     27      -2.9857      1.00000
     28      -1.1090      1.00000
     29       0.2941      0.00000
     30       2.1723      0.00000
     31       3.5990      0.00000
     32       3.8235      0.00000
     33       4.5088      0.00000
     34       4.8268      0.00000
     35       4.9634      0.00000
     36       5.1942      0.00000
     37       5.3111      0.00000
     38       5.5086      0.00000
     39       5.8845      0.00000
     40       6.1450      0.00000
     41       6.2513      0.00000
     42       6.5289      0.00000
     43       6.6693      0.00000
     44       7.0663      0.00000
     45       7.2553      0.00000
     46       7.3135      0.00000
     47       7.7189      0.00000
     48       8.2805      0.00000

 k-point    73 :      -0.4167   -0.2500    0.0000
  band No.  band energies     occupation 
      1     -18.7827      1.00000
      2     -18.2841      1.00000
      3     -17.7901      1.00000
      4     -16.6299      1.00000
      5     -14.5703      1.00000
      6     -14.1850      1.00000
      7     -13.7196      1.00000
      8     -12.7558      1.00000
      9     -11.0260      1.00000
     10      -9.4141      1.00000
     11      -9.0440      1.00000
     12      -8.6954      1.00000
     13      -8.4642      1.00000
     14      -7.7858      1.00000
     15      -7.5551      1.00000
     16      -7.4909      1.00000
     17      -6.7438      1.00000
     18      -6.6307      1.00000
     19      -6.2113      1.00000
     20      -6.0480      1.00000
     21      -5.8002      1.00000
     22      -5.5128      1.00000
     23      -5.3146      1.00000
     24      -5.1286      1.00000
     25      -3.9111      1.00000
     26      -3.5317      1.00000
     27      -2.9849      1.00000
     28      -1.1061      1.00000
     29       0.2861      0.00000
     30       2.1777      0.00000
     31       3.5983      0.00000
     32       3.8238      0.00000
     33       4.5075      0.00000
     34       4.8266      0.00000
     35       4.9681      0.00000
     36       5.1945      0.00000
     37       5.3182      0.00000
     38       5.4993      0.00000
     39       5.8867      0.00000
     40       6.1425      0.00000
     41       6.2463      0.00000
     42       6.5258      0.00000
     43       6.6739      0.00000
     44       7.0720      0.00000
     45       7.2650      0.00000
     46       7.2992      0.00000
     47       7.7164      0.00000
     48       8.2806      0.00000

 k-point    74 :       0.3333    0.3333    0.0000
  band No.  band energies     occupation 
      1     -18.3395      1.00000
      2     -18.3216      1.00000
      3     -18.3163      1.00000
      4     -16.6015      1.00000
      5     -14.4244      1.00000
      6     -14.4208      1.00000
      7     -13.1284      1.00000
      8     -13.1263      1.00000
      9     -11.3306      1.00000
     10      -8.9446      1.00000
     11      -8.9436      1.00000
     12      -8.2125      1.00000
     13      -8.2057      1.00000
     14      -8.1955      1.00000
     15      -7.9873      1.00000
     16      -6.9455      1.00000
     17      -6.9346      1.00000
     18      -6.9300      1.00000
     19      -6.2382      1.00000
     20      -6.0165      1.00000
     21      -6.0127      1.00000
     22      -5.5577      1.00000
     23      -5.5549      1.00000
     24      -5.1141      1.00000
     25      -3.8132      1.00000
     26      -3.3530      1.00000
     27      -3.3483      1.00000
     28      -0.4039      0.53038
     29      -0.3931      0.46962
     30       2.4573      0.00000
     31       3.7302      0.00000
     32       3.9622      0.00000
     33       3.9829      0.00000
     34       4.8794      0.00000
     35       4.8911      0.00000
     36       5.1426      0.00000
     37       5.7669      0.00000
     38       5.7691      0.00000
     39       6.0972      0.00000
     40       6.3218      0.00000
     41       6.3323      0.00000
     42       6.3411      0.00000
     43       6.5259      0.00000
     44       6.5302      0.00000
     45       6.8300      0.00000
     46       7.4668      0.00000
     47       7.4698      0.00000
     48       8.0319      0.00000


--------------------------------------------------------------------------------------------------------


 soft charge-density along one line, spin component           1
         0         1         2         3         4         5         6         7         8         9
 total charge-density along one line
 
 soft charge-density along one line, spin component           2
         0         1         2         3         4         5         6         7         8         9
 total charge-density along one line
 
 pseudopotential strength for first ion, spin component:           1
  6.778  10.346   0.000  -0.004   0.000   0.000  -0.006   0.000
 10.346  15.788   0.000  -0.006   0.000   0.000  -0.010   0.000
  0.000   0.000  -2.349  -0.000  -0.000  -4.040  -0.000  -0.000
 -0.004  -0.006  -0.000  -2.344  -0.000  -0.000  -4.028  -0.000
  0.000   0.000  -0.000  -0.000  -2.349  -0.000  -0.000  -4.040
  0.000   0.000  -4.040  -0.000  -0.000  -6.750  -0.000  -0.000
 -0.006  -0.010  -0.000  -4.028  -0.000  -0.000  -6.725  -0.000
  0.000   0.000  -0.000  -0.000  -4.040  -0.000  -0.000  -6.750
 pseudopotential strength for first ion, spin component:           2
  6.778  10.346   0.000  -0.004   0.000   0.000  -0.006   0.000
 10.346  15.788   0.000  -0.006   0.000   0.000  -0.010   0.000
  0.000   0.000  -2.349  -0.000  -0.000  -4.040  -0.000  -0.000
 -0.004  -0.006  -0.000  -2.344  -0.000  -0.000  -4.028  -0.000
  0.000   0.000  -0.000  -0.000  -2.349  -0.000  -0.000  -4.040
  0.000   0.000  -4.040  -0.000  -0.000  -6.750  -0.000  -0.000
 -0.006  -0.010  -0.000  -4.028  -0.000  -0.000  -6.725  -0.000
  0.000   0.000  -0.000  -0.000  -4.040  -0.000  -0.000  -6.750
 total augmentation occupancy for first ion, spin component:           1
  3.736  -1.081  -0.002  -0.516  -0.002   0.001   0.212   0.001
 -1.081   0.337   0.001   0.238   0.001  -0.000  -0.082  -0.000
 -0.002   0.001   4.204   0.000   0.002  -1.241  -0.000  -0.001
 -0.516   0.238   0.000   1.826  -0.002  -0.000  -0.410   0.000
 -0.002   0.001   0.002  -0.002   4.206  -0.001   0.000  -1.242
  0.001  -0.000  -1.241  -0.000  -0.001   0.377   0.000   0.000
  0.212  -0.082  -0.000  -0.410   0.000   0.000   0.096  -0.000
  0.001  -0.000  -0.001   0.000  -1.242   0.000  -0.000   0.377
 total augmentation occupancy for first ion, spin component:           2
 -0.000   0.000   0.000   0.000  -0.000  -0.000  -0.000   0.000
  0.000  -0.000  -0.000  -0.000   0.000   0.000   0.000  -0.000
  0.000  -0.000  -0.000   0.000   0.000   0.000  -0.000  -0.000
  0.000  -0.000   0.000  -0.000  -0.000  -0.000   0.000   0.000
 -0.000   0.000   0.000  -0.000  -0.000  -0.000   0.000   0.000
 -0.000   0.000   0.000  -0.000  -0.000  -0.000   0.000   0.000
 -0.000   0.000  -0.000   0.000   0.000   0.000  -0.000  -0.000
  0.000  -0.000  -0.000   0.000   0.000   0.000  -0.000  -0.000


------------------------ aborting loop because EDIFF is reached ----------------------------------------


    CHARGE:  cpu time      0.2541: real time      0.2636
    FORLOC:  cpu time      0.0014: real time      0.0014
    FORNL :  cpu time      0.7044: real time      0.7070
    STRESS:  cpu time      3.2471: real time      3.2573
    FORCOR:  cpu time      0.0250: real time      0.0251
    FORHAR:  cpu time      0.0036: real time      0.0038
    MIXING:  cpu time      0.0007: real time      0.0007
    OFIELD:  cpu time      0.0000: real time      0.0000

 ---------------------------------------------------------------------------------------------

         DFTD3 V3.0 Rev 1        
 Edisp (eV)   -1.59117

 E6    (eV) :    -1.0988
 E8    (eV) :    -0.4924
 % E8        : 30.94
    FORVDW:  cpu time      0.0394: real time      0.0394

  FORCE on cell =-STRESS in cart. coord.  units (eV):
  Direction    XX          YY          ZZ          XY          YZ          ZX
  --------------------------------------------------------------------------------------
  Alpha Z    58.40344    58.40344    58.40344
  Ewald    6471.84794  6471.53392 -8223.01186    -0.09860    -0.00409     0.08506
  Hartree  6394.20374  6394.17865 -6310.48327    -0.03308    -0.00851     0.02384
  E(xc)    -201.76246  -201.76278  -208.71721    -0.00025    -0.00012     0.00274
  Local  -13459.11416-13458.86347 13825.50872     0.12933     0.01683    -0.09912
  n-local   -43.14959   -43.15226   -41.53539    -0.00112    -0.00020     0.00814
  augment    -4.09198    -4.09104    -3.65564     0.00007     0.00005    -0.00008
  Kinetic   783.84926   783.86887   904.20828     0.02218    -0.00703    -0.12826
  Fock        0.00000     0.00000     0.00000     0.00000     0.00000     0.00000
  vdW        -0.33970    -0.33917    -1.11157    -0.00001     0.00000     0.00040
  -------------------------------------------------------------------------------------
  Total      -0.15350    -0.22384    -0.39449     0.01850    -0.00307    -0.10728
  in kB      -0.80750    -1.17753    -2.07525     0.09734    -0.01616    -0.56436
  external pressure =       -1.35 kB  Pullay stress =        0.00 kB


 VOLUME and BASIS-vectors are now :
 -----------------------------------------------------------------------------
  energy-cutoff  :      450.00
  volume of cell :      304.56
      direct lattice vectors                 reciprocal lattice vectors
     4.193295005  2.421000000  0.000000000     0.119237974  0.206526229  0.000000000
    -4.193295005  2.421000000  0.000000000    -0.119237974  0.206526229  0.000000000
     0.000000000  0.000000000 15.000000000     0.000000000  0.000000000  0.066666667

  length of vectors
     4.842000000  4.842000000 15.000000000     0.238475948  0.238475948  0.066666667


 FORCES acting on ions
    electron-ion (+dipol)            ewald-force                    non-local-force                 convergence-correction
 -----------------------------------------------------------------------------------------------
   -.236E-02 -.527E-01 0.164E+03   -.177E-02 0.490E-01 -.163E+03   0.577E-02 0.538E-02 -.169E+01   -.101E-03 -.232E-04 -.257E-02
   -.215E+02 -.123E+02 0.240E+03   0.241E+02 0.138E+02 -.240E+03   -.249E+01 -.145E+01 0.379E+00   0.116E-03 0.345E-03 -.163E-03
   0.212E+02 -.124E+02 0.240E+03   -.238E+02 0.139E+02 -.240E+03   0.253E+01 -.145E+01 0.385E+00   -.449E-03 -.905E-04 -.255E-04
   0.149E+00 0.247E+02 0.240E+03   -.128E+00 -.276E+02 -.240E+03   -.150E-01 0.290E+01 0.382E+00   0.311E-03 -.319E-03 -.830E-04
   0.167E+00 -.379E+02 0.309E+03   -.155E+00 0.440E+02 -.311E+03   -.110E-01 -.598E+01 0.184E+01   0.728E-03 0.708E-03 -.348E-03
   0.329E+02 0.191E+02 0.309E+03   -.382E+02 -.222E+02 -.311E+03   0.518E+01 0.298E+01 0.185E+01   -.715E-03 0.199E-03 0.224E-03
   -.328E+02 0.189E+02 0.309E+03   0.381E+02 -.219E+02 -.311E+03   -.518E+01 0.299E+01 0.184E+01   0.590E-03 -.725E-03 -.237E-03
   0.663E+00 -.800E+00 -.226E+03   -.689E+00 0.829E+00 0.226E+03   -.544E-03 -.106E-01 0.417E-01   0.257E-04 -.195E-03 -.300E-02
   -.635E-01 -.141E+01 -.229E+03   0.657E-01 0.148E+01 0.229E+03   0.512E-02 -.260E-01 -.605E-02   -.498E-03 0.118E-03 -.239E-02
   -.106E+01 -.131E+00 -.228E+03   0.109E+01 0.163E+00 0.228E+03   -.290E-01 0.154E-01 -.271E-01   0.221E-03 -.859E-03 -.274E-02
   -.989E+00 -.125E+00 -.226E+03   0.106E+01 0.150E+00 0.226E+03   0.106E-01 0.108E-01 0.676E-01   -.760E-03 -.607E-03 -.330E-02
   -.185E+00 -.218E-01 -.225E+03   0.169E+00 0.111E-01 0.225E+03   -.628E-02 0.777E-02 0.797E-01   0.511E-03 -.149E-03 -.332E-02
   0.851E+00 -.978E-02 -.226E+03   -.862E+00 -.788E-03 0.226E+03   0.473E-02 0.806E-02 0.481E-01   0.985E-04 -.272E-03 -.316E-02
   0.673E+00 0.931E+00 -.227E+03   -.710E+00 -.975E+00 0.227E+03   -.368E-03 -.870E-02 0.417E-01   -.204E-04 0.104E-02 -.267E-02
   0.520E-01 0.156E+01 -.228E+03   -.837E-01 -.166E+01 0.228E+03   -.171E-02 0.348E-02 -.169E-02   0.182E-03 0.883E-03 -.282E-02
 -----------------------------------------------------------------------------------------------
   -.534E-02 -.612E-02 -.519E+01   0.883E-14 -.235E-13 0.171E-12   0.503E-02 0.616E-02 0.522E+01   0.240E-03 0.509E-04 -.266E-01
 
 
 POSITION                                       TOTAL-FORCE (eV/Angst)
 -----------------------------------------------------------------------------------
      0.00608      0.01657      1.78078         0.001442      0.001612     -0.243290
      1.48449      0.87067      1.46912         0.053753      0.027669      0.046495
     -1.47305      0.87060      1.47046        -0.035087      0.026605      0.054261
      0.00674      3.15123      1.46991         0.005979     -0.050823      0.052166
      0.00692      1.57770      1.50400         0.001231      0.094999      0.018425
      2.84795      1.65808      1.50473        -0.081884     -0.053665      0.026484
     -2.83531      1.65721      1.50375         0.084583     -0.045661      0.021101
     -1.39793      1.21036      5.04701        -0.026265      0.018187      0.003201
     -0.00041      1.21020      5.04878         0.006711      0.044510      0.002411
     -3.49480      2.42066      5.04685         0.003449      0.047576      0.006013
     -2.09759      2.42076      5.04641         0.086142      0.036256      0.001670
      0.69876      2.42099      5.04623        -0.022225     -0.003235      0.004406
      2.09639      2.42099      5.04688        -0.006210     -0.002968      0.000873
     -1.39785      3.63187      5.04842        -0.038107     -0.051896      0.003869
     -0.00012      3.63208      5.04736        -0.033511     -0.089164      0.001914
 -----------------------------------------------------------------------------------
    total drift:                               -0.000066      0.000089     -0.001406


--------------------------------------------------------------------------------------------------------



  FREE ENERGIE OF THE ION-ELECTRON SYSTEM (eV)
  ---------------------------------------------------
  free  energy   TOTEN  =      -127.10445586 eV

  energy  without entropy=     -127.10289321  energy(sigma->0) =     -127.10367454
 
 d Force = 0.5466565E-02[ 0.458E-02, 0.636E-02]  d Energy = 0.5462452E-02 0.411E-05
 d Force =-0.3416221E+00[-0.306E+00,-0.377E+00]  d Ewald  =-0.3416866E+00 0.645E-04


--------------------------------------------------------------------------------------------------------


    POTLOK:  cpu time      0.0356: real time      0.0357


--------------------------------------------------------------------------------------------------------


 stress matrix after NEB project (eV)
     -0.15350      0.01850     -0.10728
      0.01850     -0.22384     -0.00307
     -0.10728     -0.00307     -0.39449
  FORCES: max atom, RMS     0.243299    0.093983
  FORCE total and by dimension    0.363995    0.243290
  Stress total and by dimension    0.502996    0.394486
 Conjugate gradient step on ions:
 trial-energy change:   -0.005462  1 .order   -0.005467   -0.006356   -0.004577
  (g-gl).g = 0.699E-02      g.g   = 0.706E-02  gl.gl    = 0.273E-01
 g(Force)  = 0.706E-02   g(Stress)= 0.000E+00 ortho     = 0.740E-04
 gamma     =   0.25635
 trial     =   0.89725
 opt step  =   3.20609  (harmonic =   3.20609) maximal distance =0.01901483
 next E    =  -127.110349   (d E  =  -0.01136)


--------------------------------------------------------------------------------------------------------


    WAVPRE:  cpu time      0.0045: real time      0.0072
    FEWALD:  cpu time      0.0004: real time      0.0004
    ORTHCH:  cpu time      0.3285: real time      0.3296
     LOOP+:  cpu time     51.8934: real time     52.2828


--------------------------------------- Iteration      5(   1)  ---------------------------------------


    POTLOK:  cpu time      0.0301: real time      0.0303
    SETDIJ:  cpu time      0.0033: real time      0.0034
     EDDAV:  cpu time      5.4474: real time      5.4835
       DOS:  cpu time      0.0010: real time      0.0010
    CHARGE:  cpu time      0.2550: real time      0.2665
    MIXING:  cpu time      0.0006: real time      0.0006
    --------------------------------------------
      LOOP:  cpu time      5.7374: real time      5.7853

 eigenvalue-minimisations  : 14208
 total energy-change (2. order) :-0.6114428E-02  (-0.1826101E+00)
 number of electron      56.0000000 magnetization      -0.0000000
 augmentation part        1.0334534 magnetization       0.0000011

 Broyden mixing:
  rms(total) = 0.28352E-01    rms(broyden)= 0.28328E-01
  rms(prec ) = 0.30962E-01
  weight for this iteration     100.00

 Free energy of the ion-electron system (eV)
  ---------------------------------------------------
  alpha Z        PSCENC =        58.40344200
  Ewald energy   TEWEN  =      4720.92715826
  -Hartree energ DENC   =     -6477.92567719
  -exchange      EXHF   =         0.00000000
  -V(xc)+E(xc)   XCENC  =       180.68028557
  PAW double counting   =      5776.48779863    -5780.91344954
  entropy T*S    EENTRO =        -0.00156276
  eigenvalues    EBANDS =      -506.44081317
  atomic energy  EATOM  =      1903.26342058
  Solvation  Ediel_sol  =         0.00000000
  ---------------------------------------------------
  free energy    TOTEN  =      -125.51939763 eV

  energy without entropy =     -125.51783486  energy(sigma->0) =     -125.51861624


--------------------------------------------------------------------------------------------------------




--------------------------------------- Iteration      5(   2)  ---------------------------------------


    POTLOK:  cpu time      0.0295: real time      0.0298
    SETDIJ:  cpu time      0.0034: real time      0.0033
