 ----------------------------------------------------
    OOO  PPPP  EEEEE N   N M   M PPPP
   O   O P   P E     NN  N MM MM P   P
   O   O PPPP  EEEEE N N N M M M PPPP   -- VERSION
   O   O P     E     N  NN M   M P
    OOO  P     EEEEE N   N M   M P
 ----------------------------------------------------
 running   48 mpi-ranks, with    1 threads/rank
 distrk:  each k-point on   48 cores,    1 groups
 distr:  one band on    1 cores,   48 groups
 vasp.6.3.2 27Jun22 (build Dec 22 2022 13:13:19) complex                        
  
 POSCAR found type information on POSCAR B C 
 POSCAR found :  2 types and      16 ions
 Reading from existing POTCAR
 -----------------------------------------------------------------------------
|                                                                             |
|           W    W    AA    RRRRR   N    N  II  N    N   GGGG   !!!           |
|           W    W   A  A   R    R  NN   N  II  NN   N  G    G  !!!           |
|           W    W  A    A  R    R  N N  N  II  N N  N  G       !!!           |
|           W WW W  AAAAAA  RRRRR   N  N N  II  N  N N  G  GGG   !            |
|           WW  WW  A    A  R   R   N   NN  II  N   NN  G    G                |
|           W    W  A    A  R    R  N    N  II  N    N   GGGG   !!!           |
|                                                                             |
|     You use a magnetic or noncollinear calculation, but did not specify     |
|     the initial magnetic moment with the MAGMOM tag. Note that a            |
|     default of 1 will be used for all atoms. This ferromagnetic setup       |
|     may break the symmetry of the crystal, in particular it may rule        |
|     out finding an antiferromagnetic solution. Thence, we recommend         |
|     setting the initial magnetic moment manually or verifying carefully     |
|     that this magnetic setup is desired.                                    |
|                                                                             |
 -----------------------------------------------------------------------------

 scaLAPACK will be used
 Reading from existing POTCAR
 LDA part: xc-table for Pade appr. of Perdew
 POSCAR found type information on POSCAR B C 
 POSCAR found :  2 types and      16 ions
 POSCAR, INCAR and KPOINTS ok, starting setup
 FFT: planning ... GRIDC
 FFT: planning ... GRID_SOFT
 FFT: planning ... GRID
 WAVECAR not read
 entering main loop
       N       E                     dE             d eps       ncg     rms          rms(c)
DAV:   1     0.187315712651E+03    0.18732E+03   -0.25393E+04  8256   0.864E+02
DAV:   2    -0.118296312988E+03   -0.30561E+03   -0.30507E+03 12720   0.158E+02
DAV:   3    -0.127851858358E+03   -0.95555E+01   -0.95259E+01 14160   0.370E+01
DAV:   4    -0.127878395175E+03   -0.26537E-01   -0.26532E-01 12912   0.175E+00
DAV:   5    -0.127878431200E+03   -0.36025E-04   -0.36025E-04 12912   0.696E-02    0.227E+01
DAV:   6    -0.945368303832E+02    0.33342E+02   -0.57437E+01 10464   0.216E+01    0.124E+01
DAV:   7    -0.105670648519E+03   -0.11134E+02   -0.14037E+01 12480   0.111E+01    0.671E+00
DAV:   8    -0.111484534641E+03   -0.58139E+01   -0.51121E+00 12528   0.647E+00    0.375E+00
DAV:   9    -0.116758752601E+03   -0.52742E+01   -0.27827E+00 10320   0.470E+00    0.253E+00
DAV:  10    -0.120909988881E+03   -0.41512E+01   -0.32132E+00 12288   0.472E+00    0.135E+00
DAV:  11    -0.122765750537E+03   -0.18558E+01   -0.14411E+00 11904   0.282E+00    0.823E-01
DAV:  12    -0.123761109845E+03   -0.99536E+00   -0.80021E-01 13248   0.194E+00    0.402E-01
DAV:  13    -0.124066551422E+03   -0.30544E+00   -0.19013E-01 12336   0.962E-01    0.195E-01
DAV:  14    -0.124120484272E+03   -0.53933E-01   -0.29089E-02 10368   0.399E-01    0.108E-01
DAV:  15    -0.124143968083E+03   -0.23484E-01   -0.14761E-02  9984   0.295E-01    0.578E-02
DAV:  16    -0.124145430273E+03   -0.14622E-02   -0.22093E-03  9840   0.177E-01    0.370E-02
DAV:  17    -0.124146008584E+03   -0.57831E-03   -0.76450E-04  9168   0.961E-02    0.151E-02
DAV:  18    -0.124146043906E+03   -0.35322E-04   -0.16533E-04  8832   0.477E-02    0.852E-03
DAV:  19    -0.124146095300E+03   -0.51394E-04   -0.38803E-05  8448   0.279E-02    0.511E-03
DAV:  20    -0.124146123181E+03   -0.27881E-04   -0.20440E-05  8928   0.185E-02    0.363E-03
DAV:  21    -0.124146171956E+03   -0.48775E-04   -0.16757E-05  8544   0.161E-02    0.233E-03
DAV:  22    -0.124146196792E+03   -0.24836E-04   -0.53247E-06  9984   0.905E-03    0.136E-03
DAV:  23    -0.124146200870E+03   -0.40786E-05   -0.18206E-06 10944   0.515E-03    0.626E-04
DAV:  24    -0.124146203952E+03   -0.30814E-05   -0.34088E-07 12240   0.213E-03    0.338E-04
DAV:  25    -0.124146205360E+03   -0.14079E-05   -0.16575E-07  9792   0.142E-03    0.176E-04
DAV:  26    -0.124146205719E+03   -0.35973E-06   -0.77422E-08 12768   0.108E-03
   1 F= -.12563506E+03 E0= -.12563203E+03  d E =-.125635E+03  mag=     0.0000
 curvature:   0.00 expect dE= 0.000E+00 dE for cont linesearch  0.000E+00
 trial: gam= 0.00000 g(F)=  0.790E-02 g(S)=  0.000E+00 ort = 0.000E+00 (trialstep = 0.100E+01)
 search vector abs. value=  0.790E-02
 bond charge predicted
       N       E                     dE             d eps       ncg     rms          rms(c)
DAV:   1    -0.124149649256E+03   -0.34439E-02   -0.58818E-01  8544   0.190E+00    0.258E-01
DAV:   2    -0.124146735260E+03    0.29140E-02   -0.14131E-02 13200   0.285E-01    0.114E-01
DAV:   3    -0.124146270790E+03    0.46447E-03   -0.21766E-03 12144   0.996E-02    0.314E-02
DAV:   4    -0.124146254356E+03    0.16433E-04   -0.16713E-04 12000   0.310E-02    0.111E-02
DAV:   5    -0.124146254012E+03    0.34413E-06   -0.79567E-06 12624   0.733E-03
   2 F= -.12563534E+03 E0= -.12563231E+03  d E =-.280162E-03  mag=     0.0000
 trial-energy change:   -0.000280  1 .order   -0.000279   -0.007898    0.007339
 step:   0.5183(harm=  0.5183)  dis= 0.00412  next Energy=  -125.637103 (dE=-0.205E-02)
 bond charge predicted
       N       E                     dE             d eps       ncg     rms          rms(c)
DAV:   1    -0.124148906209E+03   -0.26519E-02   -0.13560E-01  8448   0.911E-01    0.124E-01
DAV:   2    -0.124148233996E+03    0.67221E-03   -0.33149E-03 12624   0.138E-01    0.548E-02
DAV:   3    -0.124148128251E+03    0.10574E-03   -0.53141E-04 10992   0.490E-02    0.149E-02
DAV:   4    -0.124148125432E+03    0.28190E-05   -0.42399E-05 12816   0.155E-02    0.546E-03
DAV:   5    -0.124148125450E+03   -0.18106E-07   -0.19398E-06 11904   0.357E-03
   3 F= -.12563710E+03 E0= -.12563408E+03  d E =-.204090E-02  mag=     0.0000
 curvature:  -0.26 expect dE=-0.144E-04 dE for cont linesearch -0.408E-07
 ZBRENT: interpolating
 opt :   0.5206  next Energy=  -125.637097 (dE=-0.204E-02)
 bond charge predicted
       N       E                     dE             d eps       ncg     rms          rms(c)
DAV:   1    -0.124148124869E+03    0.56233E-06   -0.22486E-06 12960   0.416E-03    0.116E-03
DAV:   2    -0.124148124811E+03    0.57956E-07   -0.22747E-07 12480   0.103E-03
   4 F= -.12563710E+03 E0= -.12563408E+03  d E =-.204079E-02  mag=     0.0000
 curvature:  -0.26 expect dE=-0.145E-04 dE for cont linesearch -0.199E-07
 ZBRENT: interpolating
 opt :   0.5197  next Energy=  -125.637097 (dE=-0.204E-02)
 bond charge predicted
       N       E                     dE             d eps       ncg     rms          rms(c)
DAV:   1    -0.124148125063E+03   -0.19396E-06   -0.71471E-07 10800   0.205E-03    0.347E-04
DAV:   2    -0.124148125073E+03   -0.99212E-08   -0.17742E-08 11472   0.420E-04
   5 F= -.12563710E+03 E0= -.12563408E+03  d E =-.204083E-02  mag=     0.0000
 curvature:  -0.15 expect dE=-0.852E-05 dE for cont linesearch -0.957E-08
 ZBRENT: bisectioning
 opt :   0.5190  next Energy=  -125.637097 (dE=-0.204E-02)
 bond charge predicted
       N       E                     dE             d eps       ncg     rms          rms(c)
DAV:   1    -0.124148125250E+03   -0.18644E-06   -0.25931E-07 10224   0.129E-03    0.237E-04
DAV:   2    -0.124148125256E+03   -0.62591E-08   -0.75971E-09 10944   0.232E-04
   6 F= -.12563710E+03 E0= -.12563408E+03  d E =-.204086E-02  mag=     0.0000
 curvature:  -0.23 expect dE=-0.129E-04 dE for cont linesearch -0.461E-08
 ZBRENT: bisectioning
 opt :   0.5187  next Energy=  -125.637097 (dE=-0.204E-02)
 bond charge predicted
       N       E                     dE             d eps       ncg     rms          rms(c)
DAV:   1    -0.124148125345E+03   -0.95672E-07   -0.56686E-08  9696   0.624E-04    0.125E-04
DAV:   2    -0.124148125349E+03   -0.39727E-08   -0.16349E-09  9312   0.128E-04
   7 F= -.12563710E+03 E0= -.12563408E+03  d E =-.204087E-02  mag=     0.0000
 curvature:  -0.17 expect dE=-0.959E-05 dE for cont linesearch -0.907E-09
 trial: gam= 0.00789 g(F)=  0.559E-04 g(S)=  0.000E+00 ort =-0.646E-05 (trialstep = 0.904E+00)
 search vector abs. value=  0.562E-04
 bond charge predicted
       N       E                     dE             d eps       ncg     rms          rms(c)
DAV:   1    -0.124148132137E+03   -0.67914E-05   -0.45431E-03  8544   0.249E-01    0.120E-02
DAV:   2    -0.124148131024E+03    0.11131E-05   -0.51854E-05  9120   0.282E-02    0.734E-03
DAV:   3    -0.124148130397E+03    0.62666E-06   -0.67282E-06  9408   0.892E-03
   8 F= -.12563715E+03 E0= -.12563413E+03  d E =-.503330E-04  mag=     0.0000
 ZBRENT: can't locate minimum, use default step
 trial-energy change:   -0.000050  1 .order   -0.000049   -0.000050   -0.000048
 step:   3.6149(harm= 23.5572)  dis= 0.00173  next Energy=  -125.637754 (dE=-0.657E-03)
 bond charge predicted
       N       E                     dE             d eps       ncg     rms          rms(c)
DAV:   1    -0.124148159089E+03   -0.28065E-04   -0.41031E-02  8256   0.747E-01    0.365E-02
DAV:   2    -0.124148150210E+03    0.88784E-05   -0.47098E-04  9600   0.854E-02    0.224E-02
DAV:   3    -0.124148143916E+03    0.62947E-05   -0.61601E-05 11472   0.268E-02    0.540E-03
DAV:   4    -0.124148144375E+03   -0.45927E-06   -0.71292E-06  9360   0.934E-03
   9 F= -.12563730E+03 E0= -.12563428E+03  d E =-.200385E-03  mag=    -0.0000
 curvature:  -2.67 expect dE=-0.172E-03 dE for cont linesearch -0.145E-03
 ZBRENT: increasing intervall
 opt :   9.0374  next Energy=  -125.637605 (dE=-0.508E-03)
 bond charge predicted
       N       E                     dE             d eps       ncg     rms          rms(c)
DAV:   1    -0.124148225959E+03   -0.82043E-04   -0.16364E-01  8256   0.149E+00    0.717E-02
DAV:   2    -0.124148194109E+03    0.31850E-04   -0.18899E-03  9600   0.171E-01    0.440E-02
DAV:   3    -0.124148165761E+03    0.28348E-04   -0.24121E-04 10848   0.531E-02    0.108E-02
DAV:   4    -0.124148167069E+03   -0.13075E-05   -0.28726E-05 11232   0.186E-02    0.462E-03
DAV:   5    -0.124148167757E+03   -0.68824E-06   -0.13428E-06  8736   0.395E-03
  10 F= -.12563759E+03 E0= -.12563458E+03  d E =-.496795E-03  mag=    -0.0000
 curvature:  -5.68 expect dE=-0.638E-03 dE for cont linesearch -0.290E-03
 ZBRENT: increasing intervall
 opt :  19.8822  next Energy=  -125.638157 (dE=-0.106E-02)
 bond charge predicted
       N       E                     dE             d eps       ncg     rms          rms(c)
DAV:   1    -0.124148425331E+03   -0.25826E-03   -0.65437E-01  8256   0.298E+00    0.143E-01
DAV:   2    -0.124148312238E+03    0.11309E-03   -0.75744E-03  9504   0.341E-01    0.881E-02
DAV:   3    -0.124148191373E+03    0.12086E-03   -0.96937E-04 11232   0.106E-01    0.218E-02
DAV:   4    -0.124148194305E+03   -0.29320E-05   -0.11213E-04 12816   0.365E-02    0.926E-03
DAV:   5    -0.124148193286E+03    0.10191E-05   -0.49935E-06  9984   0.728E-03    0.204E-03
DAV:   6    -0.124148193409E+03   -0.12281E-06   -0.82713E-07 10992   0.306E-03
  11 F= -.12563817E+03 E0= -.12563515E+03  d E =-.107195E-02  mag=     0.0000
 curvature: -11.03 expect dE=-0.380E-02 dE for cont linesearch -0.540E-03
 ZBRENT: increasing intervall
 opt :  41.5718  next Energy=  -125.639282 (dE=-0.219E-02)
 bond charge predicted
       N       E                     dE             d eps       ncg     rms          rms(c)
DAV:   1    -0.124149134955E+03   -0.94167E-03   -0.26171E+00  8256   0.597E+00    0.287E-01
DAV:   2    -0.124148655117E+03    0.47984E-03   -0.30290E-02  9840   0.682E-01    0.176E-01
DAV:   3    -0.124148179317E+03    0.47580E-03   -0.38817E-03 10560   0.212E-01    0.428E-02
DAV:   4    -0.124148185798E+03   -0.64805E-05   -0.43898E-04 13392   0.735E-02    0.185E-02
DAV:   5    -0.124148180559E+03    0.52389E-05   -0.19669E-05 10704   0.142E-02    0.358E-03
DAV:   6    -0.124148180790E+03   -0.23162E-06   -0.42660E-06 10656   0.643E-03
  12 F= -.12563927E+03 E0= -.12563625E+03  d E =-.217322E-02  mag=     0.0000
 curvature: -22.76 expect dE=-0.304E-01 dE for cont linesearch -0.986E-03
 ZBRENT: increasing intervall
 opt :  84.9511  next Energy=  -125.641277 (dE=-0.418E-02)
 bond charge predicted
       N       E                     dE             d eps       ncg     rms          rms(c)
DAV:   1    -0.124151633020E+03   -0.34525E-02   -0.10462E+01  8256   0.119E+01    0.574E-01
DAV:   2    -0.124149830909E+03    0.18021E-02   -0.12131E-01 10368   0.137E+00    0.352E-01
DAV:   3    -0.124147887056E+03    0.19439E-02   -0.15617E-02 11952   0.421E-01    0.847E-02
DAV:   4    -0.124147899069E+03   -0.12012E-04   -0.16183E-03 13056   0.144E-01    0.379E-02
DAV:   5    -0.124147866072E+03    0.32997E-04   -0.79154E-05 11040   0.292E-02    0.751E-03
DAV:   6    -0.124147864516E+03    0.15552E-05   -0.17014E-05 10560   0.137E-02    0.467E-03
DAV:   7    -0.124147870028E+03   -0.55122E-05   -0.45078E-06 11232   0.820E-03    0.241E-03
DAV:   8    -0.124147885324E+03   -0.15296E-04   -0.41414E-06 11088   0.619E-03    0.189E-03
DAV:   9    -0.124147895351E+03   -0.10027E-04   -0.22368E-06 11184   0.563E-03    0.958E-04
DAV:  10    -0.124147908488E+03   -0.13137E-04   -0.63221E-06 10656   0.102E-02    0.620E-04
DAV:  11    -0.124147910572E+03   -0.20831E-05   -0.45572E-06 10560   0.914E-03    0.552E-04
DAV:  12    -0.124147914701E+03   -0.41290E-05   -0.10856E-06  9888   0.354E-03    0.183E-04
DAV:  13    -0.124147914983E+03   -0.28211E-06   -0.14440E-07 13824   0.151E-03
  13 F= -.12564129E+03 E0= -.12563828E+03  d E =-.419447E-02  mag=    -0.0000
 curvature: -46.32 expect dE=-0.251E+00 dE for cont linesearch -0.151E-02
 ZBRENT: increasing intervall
 opt : 171.7097  next Energy=  -125.644445 (dE=-0.735E-02)
 bond charge predicted
       N       E                     dE             d eps       ncg     rms          rms(c)
DAV:   1    -0.124160148837E+03   -0.12234E-01   -0.41777E+01  8256   0.238E+01    0.114E+00
DAV:   2    -0.124153956858E+03    0.61920E-02   -0.49183E-01  8928   0.275E+00    0.707E-01
DAV:   3    -0.124146252886E+03    0.77040E-02   -0.63022E-02 14160   0.850E-01    0.173E-01
DAV:   4    -0.124146299537E+03   -0.46651E-04   -0.56335E-03 12768   0.269E-01    0.776E-02
DAV:   5    -0.124146197138E+03    0.10240E-03   -0.30913E-04 11616   0.542E-02    0.149E-02
DAV:   6    -0.124146184403E+03    0.12735E-04   -0.67010E-05 12816   0.217E-02    0.709E-03
DAV:   7    -0.124146204474E+03   -0.20071E-04   -0.10627E-05 11232   0.889E-03    0.405E-03
DAV:   8    -0.124146223160E+03   -0.18686E-04   -0.24249E-06 11136   0.366E-03    0.354E-03
DAV:   9    -0.124146243882E+03   -0.20722E-04   -0.19218E-06 11088   0.280E-03    0.157E-03
DAV:  10    -0.124146264909E+03   -0.21027E-04   -0.24537E-06 11088   0.299E-03    0.105E-03
DAV:  11    -0.124146273980E+03   -0.90717E-05   -0.91318E-07 10464   0.229E-03    0.685E-04
DAV:  12    -0.124146280389E+03   -0.64089E-05   -0.84076E-07 10272   0.217E-03    0.250E-04
DAV:  13    -0.124146281953E+03   -0.15633E-05   -0.23384E-07 11088   0.148E-03    0.899E-05
DAV:  14    -0.124146282044E+03   -0.91035E-07   -0.63301E-08 13248   0.109E-03
  14 F= -.12564448E+03 E0= -.12564149E+03  d E =-.738181E-02  mag=    -0.0000
 curvature: -96.58 expect dE=-0.213E+01 dE for cont linesearch -0.162E-02
 ZBRENT: increasing intervall
 opt : 345.2269  next Energy=  -125.647701 (dE=-0.106E-01)
 bond charge predicted
       N       E                     dE             d eps       ncg     rms          rms(c)
DAV:   1    -0.124186056732E+03   -0.39775E-01   -0.16613E+02  8256   0.475E+01    0.227E+00
DAV:   2    -0.124169168457E+03    0.16888E-01   -0.20321E+00  9120   0.566E+00    0.142E+00
DAV:   3    -0.124138775728E+03    0.30393E-01   -0.24357E-01 13920   0.167E+00    0.367E-01
DAV:   4    -0.124139030517E+03   -0.25479E-03   -0.21491E-02 12960   0.523E-01    0.160E-01
DAV:   5    -0.124138543943E+03    0.48657E-03   -0.13598E-03 13248   0.105E-01    0.322E-02
DAV:   6    -0.124138492445E+03    0.51498E-04   -0.23679E-04 12144   0.410E-02    0.147E-02
DAV:   7    -0.124138553699E+03   -0.61254E-04   -0.54541E-05  9984   0.202E-02    0.853E-03
DAV:   8    -0.124138600796E+03   -0.47098E-04   -0.90675E-06 11088   0.777E-03    0.703E-03
DAV:   9    -0.124138648348E+03   -0.47551E-04   -0.62853E-06 11664   0.600E-03    0.292E-03
DAV:  10    -0.124138690584E+03   -0.42236E-04   -0.59053E-06 10896   0.520E-03    0.195E-03
DAV:  11    -0.124138713631E+03   -0.23047E-04   -0.33097E-06 11280   0.447E-03    0.125E-03
DAV:  12    -0.124138722764E+03   -0.91333E-05   -0.16732E-06 10656   0.421E-03    0.489E-04
DAV:  13    -0.124138726946E+03   -0.41821E-05   -0.73591E-07 10992   0.293E-03    0.190E-04
DAV:  14    -0.124138728240E+03   -0.12933E-05   -0.24264E-07 10512   0.185E-03    0.964E-05
DAV:  15    -0.124138728414E+03   -0.17482E-06   -0.65755E-08 13872   0.109E-03
  15 F= -.12564764E+03 E0= -.12564472E+03  d E =-.105415E-01  mag=     0.0000
 curvature: ****** expect dE=-0.171E+02 dE for cont linesearch -0.132E-03
 trial: gam=******** g(F)=  0.890E-01 g(S)=  0.000E+00 ort = 0.621E-05 (trialstep = 0.275E-04)
 search vector abs. value=  0.143E+03
 bond charge predicted
       N       E                     dE             d eps       ncg     rms          rms(c)
DAV:   1    -0.124138728275E+03   -0.35533E-07   -0.10711E-05 11952   0.121E-02    0.580E-04
DAV:   2    -0.124138728274E+03    0.68849E-09   -0.11756E-07 14592   0.134E-03
  16 F= -.12564764E+03 E0= -.12564473E+03  d E =-.276484E-05  mag=     0.0000
 ZBRENT: can't locate minimum, use default step
 trial-energy change:   -0.000003  1 .order   -0.000003   -0.000003   -0.000003
 step:   0.0001(harm=  0.0001)  dis= 0.00008  next Energy=  -125.647649 (dE=-0.109E-04)
 bond charge predicted
       N       E                     dE             d eps       ncg     rms          rms(c)
DAV:   1    -0.124138727752E+03    0.52266E-06   -0.94436E-05  9936   0.359E-02    0.179E-03
DAV:   2    -0.124138727723E+03    0.28891E-07   -0.10104E-06 13056   0.391E-03
  17 F= -.12564765E+03 E0= -.12564474E+03  d E =-.109271E-04  mag=     0.0000
 curvature:  -0.12 expect dE=-0.106E-01 dE for cont linesearch -0.830E-05
 ZBRENT: increasing intervall
 opt :   0.0003  next Energy=  -125.647666 (dE=-0.274E-04)
 bond charge predicted
       N       E                     dE             d eps       ncg     rms          rms(c)
DAV:   1    -0.124138726707E+03    0.10450E-05   -0.37476E-04  8352   0.717E-02    0.363E-03
DAV:   2    -0.124138726617E+03    0.90015E-07   -0.41685E-06  9888   0.809E-03
  18 F= -.12564767E+03 E0= -.12564475E+03  d E =-.272540E-04  mag=    -0.0000
 curvature:  -0.24 expect dE=-0.211E-01 dE for cont linesearch -0.166E-04
 ZBRENT: increasing intervall
 opt :   0.0006  next Energy=  -125.647699 (dE=-0.604E-04)
 bond charge predicted
       N       E                     dE             d eps       ncg     rms          rms(c)
DAV:   1    -0.124138724813E+03    0.18948E-05   -0.15009E-03  8352   0.144E-01    0.728E-03
DAV:   2    -0.124138724423E+03    0.38967E-06   -0.16709E-05  8448   0.163E-02    0.451E-03
DAV:   3    -0.124138724280E+03    0.14286E-06   -0.22405E-06  9024   0.523E-03
  19 F= -.12564770E+03 E0= -.12564478E+03  d E =-.597937E-04  mag=     0.0000
 curvature:  -0.47 expect dE=-0.421E-01 dE for cont linesearch -0.311E-04
 ZBRENT: increasing intervall
 opt :   0.0013  next Energy=  -125.647760 (dE=-0.122E-03)
 bond charge predicted
       N       E                     dE             d eps       ncg     rms          rms(c)
DAV:   1    -0.124138721860E+03    0.25628E-05   -0.61751E-03  8256   0.290E-01    0.142E-02
DAV:   2    -0.124138720358E+03    0.15017E-05   -0.70346E-05  8352   0.332E-02    0.879E-03
DAV:   3    -0.124138719572E+03    0.78665E-06   -0.93782E-06 11376   0.106E-02
  20 F= -.12564776E+03 E0= -.12564485E+03  d E =-.124887E-03  mag=    -0.0000
 curvature:  -0.94 expect dE=-0.838E-01 dE for cont linesearch -0.600E-04
 ZBRENT: increasing intervall
 opt :   0.0026  next Energy=  -125.647887 (dE=-0.249E-03)
 bond charge predicted
       N       E                     dE             d eps       ncg     rms          rms(c)
DAV:   1    -0.124138718996E+03    0.13623E-05   -0.24686E-02  8256   0.579E-01    0.285E-02
DAV:   2    -0.124138712983E+03    0.60129E-05   -0.28165E-04  8736   0.664E-02    0.176E-02
DAV:   3    -0.124138709805E+03    0.31779E-05   -0.36890E-05 10080   0.211E-02    0.433E-03
DAV:   4    -0.124138710199E+03   -0.39356E-06   -0.52468E-06  9120   0.830E-03
  21 F= -.12564789E+03 E0= -.12564498E+03  d E =-.255287E-03  mag=     0.0000
 curvature:  -1.94 expect dE=-0.173E+00 dE for cont linesearch -0.133E-03
 ZBRENT: increasing intervall
 opt :   0.0052  next Energy=  -125.648164 (dE=-0.525E-03)
 bond charge predicted
       N       E                     dE             d eps       ncg     rms          rms(c)
DAV:   1    -0.124138725918E+03   -0.16113E-04   -0.98277E-02  8256   0.116E+00    0.558E-02
DAV:   2    -0.124138704993E+03    0.20925E-04   -0.11331E-03  9024   0.133E-01    0.343E-02
DAV:   3    -0.124138689026E+03    0.15967E-04   -0.14788E-04 12288   0.418E-02    0.844E-03
DAV:   4    -0.124138690539E+03   -0.15136E-05   -0.17767E-05  8544   0.164E-02    0.372E-03
DAV:   5    -0.124138691594E+03   -0.10550E-05   -0.38916E-06  9072   0.875E-03    0.150E-03
DAV:   6    -0.124138690490E+03    0.11044E-05   -0.15554E-06  9312   0.538E-03    0.501E-04
DAV:   7    -0.124138690861E+03   -0.37054E-06   -0.27165E-07 10416   0.204E-03
  22 F= -.12564815E+03 E0= -.12564524E+03  d E =-.516225E-03  mag=    -0.0000
 curvature:  -3.94 expect dE=-0.353E+00 dE for cont linesearch -0.275E-03
 ZBRENT: increasing intervall
 opt :   0.0105  next Energy=  -125.648685 (dE=-0.105E-02)
 bond charge predicted
       N       E                     dE             d eps       ncg     rms          rms(c)
DAV:   1    -0.124138798147E+03   -0.10766E-03   -0.39281E-01  8256   0.231E+00    0.111E-01
DAV:   2    -0.124138718972E+03    0.79175E-04   -0.45098E-03  8736   0.264E-01    0.684E-02
DAV:   3    -0.124138648369E+03    0.70603E-04   -0.59673E-04 11904   0.836E-02    0.166E-02
DAV:   4    -0.124138650951E+03   -0.25819E-05   -0.65941E-05 10416   0.289E-02    0.718E-03
DAV:   5    -0.124138652091E+03   -0.11398E-05   -0.53344E-06  8928   0.967E-03    0.201E-03
DAV:   6    -0.124138650989E+03    0.11014E-05   -0.19257E-06  9888   0.597E-03    0.960E-04
DAV:   7    -0.124138651394E+03   -0.40420E-06   -0.49969E-07  9264   0.259E-03
  23 F= -.12564868E+03 E0= -.12564576E+03  d E =-.104016E-02  mag=     0.0000
 curvature:  -7.62 expect dE=-0.687E+00 dE for cont linesearch -0.539E-03
 ZBRENT: increasing intervall
 opt :   0.0210  next Energy=  -125.649748 (dE=-0.211E-02)
 bond charge predicted
       N       E                     dE             d eps       ncg     rms          rms(c)
DAV:   1    -0.124139148021E+03   -0.49703E-03   -0.15711E+00  8256   0.462E+00    0.223E-01
DAV:   2    -0.124138839865E+03    0.30816E-03   -0.18049E-02  8352   0.529E-01    0.137E-01
DAV:   3    -0.124138564906E+03    0.27496E-03   -0.23688E-03 10320   0.167E-01    0.335E-02
DAV:   4    -0.124138572493E+03   -0.75871E-05   -0.28928E-04 14016   0.586E-02    0.142E-02
DAV:   5    -0.124138570804E+03    0.16888E-05   -0.12786E-05  9840   0.135E-02    0.422E-03
DAV:   6    -0.124138569208E+03    0.15963E-05   -0.34056E-06 10608   0.749E-03    0.194E-03
DAV:   7    -0.124138569913E+03   -0.70498E-06   -0.14100E-06 10944   0.378E-03
  24 F= -.12564974E+03 E0= -.12564682E+03  d E =-.209697E-02  mag=    -0.0000
 curvature: -15.10 expect dE=-0.138E+01 dE for cont linesearch -0.110E-02
 ZBRENT: increasing intervall
 opt :   0.0421  next Energy=  -125.651919 (dE=-0.428E-02)
 bond charge predicted
       N       E                     dE             d eps       ncg     rms          rms(c)
DAV:   1    -0.124140674451E+03   -0.21052E-02   -0.62828E+00  8256   0.924E+00    0.445E-01
DAV:   2    -0.124139486289E+03    0.11882E-02   -0.72409E-02  9408   0.106E+00    0.273E-01
DAV:   3    -0.124138389998E+03    0.10963E-02   -0.95178E-03 11952   0.331E-01    0.658E-02
DAV:   4    -0.124138399385E+03   -0.93874E-05   -0.98662E-04 14016   0.111E-01    0.291E-02
DAV:   5    -0.124138386255E+03    0.13130E-04   -0.48958E-05 10752   0.244E-02    0.580E-03
DAV:   6    -0.124138384960E+03    0.12954E-05   -0.18130E-05 10656   0.167E-02    0.344E-03
DAV:   7    -0.124138385878E+03   -0.91772E-06   -0.71031E-06  9984   0.113E-02
  25 F= -.12565188E+03 E0= -.12564896E+03  d E =-.423705E-02  mag=     0.0000
 curvature: -29.95 expect dE=-0.281E+01 dE for cont linesearch -0.230E-02
 ZBRENT: increasing intervall
 opt :   0.0843  next Energy=  -125.656398 (dE=-0.876E-02)
 bond charge predicted
       N       E                     dE             d eps       ncg     rms          rms(c)
DAV:   1    -0.124146859226E+03   -0.84743E-02   -0.25109E+01  8256   0.185E+01    0.889E-01
DAV:   2    -0.124142609383E+03    0.42498E-02   -0.29131E-01  9504   0.213E+00    0.547E-01
DAV:   3    -0.124137981689E+03    0.46277E-02   -0.37903E-02 12912   0.658E-01    0.132E-01
DAV:   4    -0.124138018627E+03   -0.36938E-04   -0.36005E-03 13152   0.213E-01    0.592E-02
DAV:   5    -0.124137967245E+03    0.51383E-04   -0.18680E-04 12768   0.442E-02    0.116E-02
DAV:   6    -0.124137965065E+03    0.21796E-05   -0.53495E-05 11088   0.255E-02    0.599E-03
DAV:   7    -0.124137976659E+03   -0.11594E-04   -0.24740E-05  9312   0.212E-02    0.350E-03
DAV:   8    -0.124137991363E+03   -0.14704E-04   -0.13968E-05 10992   0.152E-02    0.290E-03
DAV:   9    -0.124138012254E+03   -0.20891E-04   -0.74935E-06 11520   0.108E-02    0.110E-03
DAV:  10    -0.124138021080E+03   -0.88255E-05   -0.75608E-06 12336   0.119E-02    0.913E-04
DAV:  11    -0.124138028237E+03   -0.71574E-05   -0.26749E-06 10752   0.634E-03    0.729E-04
DAV:  12    -0.124138032240E+03   -0.40028E-05   -0.41812E-07 11472   0.181E-03    0.257E-04
DAV:  13    -0.124138034335E+03   -0.20947E-05   -0.20661E-07 10656   0.988E-04    0.868E-05
DAV:  14    -0.124138034632E+03   -0.29759E-06   -0.22370E-08 12912   0.398E-04
  26 F= -.12565637E+03 E0= -.12565345E+03  d E =-.872951E-02  mag=     0.0000
 curvature: -59.02 expect dE=-0.583E+01 dE for cont linesearch -0.489E-02
 ZBRENT: increasing intervall
 opt :   0.1687  next Energy=  -125.665890 (dE=-0.183E-01)
 bond charge predicted
       N       E                     dE             d eps       ncg     rms          rms(c)
DAV:   1    -0.124167858292E+03   -0.29824E-01   -0.10006E+02  8256   0.369E+01    0.177E+00
DAV:   2    -0.124154701918E+03    0.13156E-01   -0.12011E+00  8928   0.433E+00    0.110E+00
DAV:   3    -0.124137129667E+03    0.17572E-01   -0.15046E-01 13632   0.131E+00    0.275E-01
DAV:   4    -0.124137269495E+03   -0.13983E-03   -0.13434E-02 13296   0.411E-01    0.123E-01
DAV:   5    -0.124137007281E+03    0.26221E-03   -0.78306E-04 12576   0.823E-02    0.252E-02
DAV:   6    -0.124136982498E+03    0.24782E-04   -0.15131E-04 12624   0.329E-02    0.110E-02
DAV:   7    -0.124137027342E+03   -0.44843E-04   -0.30490E-05  9600   0.153E-02    0.697E-03
DAV:   8    -0.124137063892E+03   -0.36550E-04   -0.47018E-06 11472   0.527E-03    0.479E-03
DAV:   9    -0.124137100066E+03   -0.36174E-04   -0.46878E-06 10560   0.461E-03    0.172E-03
DAV:  10    -0.124137124143E+03   -0.24077E-04   -0.28414E-06 11664   0.331E-03    0.150E-03
DAV:  11    -0.124137138760E+03   -0.14617E-04   -0.18139E-06 10320   0.249E-03    0.828E-04
DAV:  12    -0.124137145106E+03   -0.63463E-05   -0.65433E-07 11328   0.157E-03    0.227E-04
DAV:  13    -0.124137146680E+03   -0.15731E-05   -0.95850E-08 10896   0.811E-04    0.129E-04
DAV:  14    -0.124137147552E+03   -0.87237E-06   -0.56222E-08 11136   0.524E-04
  27 F= -.12566600E+03 E0= -.12566308E+03  d E =-.183614E-01  mag=    -0.0000
 curvature: ****** expect dE=-0.126E+02 dE for cont linesearch -0.115E-01
 ZBRENT: increasing intervall
 opt :   0.3374  next Energy=  -125.687900 (dE=-0.403E-01)
 bond charge predicted
       N       E                     dE             d eps       ncg     rms          rms(c)
DAV:   1    -0.124217385913E+03   -0.80239E-01   -0.39469E+02  8256   0.731E+01    0.348E+00
DAV:   2    -0.124207475718E+03    0.99102E-02   -0.51248E+00  8832   0.913E+00    0.221E+00
DAV:   3    -0.124133793411E+03    0.73682E-01   -0.54976E-01 14304   0.252E+00    0.639E-01
DAV:   4    -0.124135267917E+03   -0.14745E-02   -0.43811E-02 13008   0.756E-01    0.255E-01
DAV:   5    -0.124134209626E+03    0.10583E-02   -0.40166E-03 13680   0.162E-01    0.484E-02
DAV:   6    -0.124134131280E+03    0.78346E-04   -0.42889E-04 11472   0.587E-02    0.225E-02
DAV:   7    -0.124134263596E+03   -0.13232E-03   -0.16608E-04  9696   0.372E-02    0.149E-02
DAV:   8    -0.124134348807E+03   -0.85212E-04   -0.17307E-05 11040   0.114E-02    0.104E-02
DAV:   9    -0.124134426279E+03   -0.77472E-04   -0.14104E-05 10560   0.918E-03    0.386E-03
DAV:  10    -0.124134474616E+03   -0.48337E-04   -0.75353E-06 11376   0.587E-03    0.320E-03
DAV:  11    -0.124134508069E+03   -0.33453E-04   -0.61345E-06 12000   0.494E-03    0.211E-03
DAV:  12    -0.124134518597E+03   -0.10528E-04   -0.13251E-06 11568   0.287E-03    0.547E-04
DAV:  13    -0.124134521541E+03   -0.29442E-05   -0.22228E-07 11088   0.168E-03    0.298E-04
DAV:  14    -0.124134523498E+03   -0.19570E-05   -0.11795E-07 11040   0.103E-03    0.148E-04
DAV:  15    -0.124134524699E+03   -0.12003E-05   -0.87017E-08 10368   0.725E-04    0.679E-05
DAV:  16    -0.124134524923E+03   -0.22452E-06   -0.16964E-08 12192   0.399E-04
  28 F= -.12568820E+03 E0= -.12568527E+03  d E =-.405605E-01  mag=     0.0000
 curvature: ****** expect dE=-0.294E+02 dE for cont linesearch -0.321E-01
 ZBRENT: increasing intervall
 opt :   0.6749  next Energy=  -125.745345 (dE=-0.977E-01)
 bond charge predicted
       N       E                     dE             d eps       ncg     rms          rms(c)
DAV:   1    -0.123993528897E+03    0.14100E+00   -0.14925E+03  8256   0.140E+02    0.675E+00
DAV:   2    -0.124434192689E+03   -0.44066E+00   -0.24180E+01  9120   0.204E+01    0.441E+00
DAV:   3    -0.124138674220E+03    0.29552E+00   -0.16598E+00 14112   0.449E+00    0.178E+00
DAV:   4    -0.124126881376E+03    0.11793E-01   -0.18729E-01 14208   0.160E+00    0.483E-01
DAV:   5    -0.124123105723E+03    0.37757E-02   -0.22265E-02 13248   0.403E-01    0.862E-02
DAV:   6    -0.124122858475E+03    0.24725E-03   -0.10482E-03 14304   0.100E-01    0.436E-02
DAV:   7    -0.124123129445E+03   -0.27097E-03   -0.62835E-04 10464   0.727E-02    0.252E-02
DAV:   8    -0.124123325356E+03   -0.19591E-03   -0.93378E-05  9024   0.243E-02    0.155E-02
DAV:   9    -0.124123479249E+03   -0.15389E-03   -0.54226E-05 11568   0.190E-02    0.101E-02
DAV:  10    -0.124123560563E+03   -0.81314E-04   -0.20068E-05 10704   0.101E-02    0.830E-03
DAV:  11    -0.124123607574E+03   -0.47011E-04   -0.19151E-05 11616   0.101E-02    0.266E-03
DAV:  12    -0.124123625728E+03   -0.18154E-04   -0.26633E-06 13248   0.442E-03    0.148E-03
DAV:  13    -0.124123633231E+03   -0.75024E-05   -0.67167E-07 13872   0.202E-03    0.104E-03
DAV:  14    -0.124123636388E+03   -0.31574E-05   -0.14566E-07 12192   0.898E-04    0.485E-04
DAV:  15    -0.124123638542E+03   -0.21542E-05   -0.12432E-07 10944   0.735E-04    0.138E-04
DAV:  16    -0.124123638981E+03   -0.43875E-06   -0.10715E-08 13872   0.208E-04
  29 F= -.12574636E+03 E0= -.12574339E+03  d E =-.987196E-01  mag=    -0.0000
 curvature: ****** expect dE=-0.753E+02 dE for cont linesearch -0.110E+00
 ZBRENT: increasing intervall
 opt :   1.3500  next Energy=  -125.919199 (dE=-0.272E+00)
 bond charge predicted
       N       E                     dE             d eps       ncg     rms          rms(c)
DAV:   1    -0.119969693093E+03    0.41539E+01   -0.48140E+03  8256   0.233E+02    0.145E+01
DAV:   2    -0.125346164673E+03   -0.53765E+01   -0.11621E+02  8352   0.457E+01    0.875E+00
DAV:   3    -0.124399697130E+03    0.94647E+00   -0.38110E+00 15072   0.742E+00    0.574E+00
DAV:   4    -0.123976558416E+03    0.42314E+00   -0.21600E+00 13824   0.471E+00    0.818E-01
DAV:   5    -0.123979143814E+03   -0.25854E-02   -0.77593E-02 11328   0.105E+00    0.445E-01
DAV:   6    -0.123973604178E+03    0.55396E-02   -0.25303E-02 13680   0.459E-01    0.964E-02
DAV:   7    -0.123972861067E+03    0.74311E-03   -0.22449E-03 13872   0.155E-01    0.460E-02
DAV:   8    -0.123973104729E+03   -0.24366E-03   -0.11445E-03 12096   0.879E-02    0.332E-02
DAV:   9    -0.123973278568E+03   -0.17384E-03   -0.21615E-04 12912   0.409E-02    0.146E-02
DAV:  10    -0.123973385669E+03   -0.10710E-03   -0.82369E-05 11424   0.228E-02    0.172E-02
DAV:  11    -0.123973417157E+03   -0.31488E-04   -0.15136E-05 12576   0.948E-03    0.874E-03
DAV:  12    -0.123973438660E+03   -0.21503E-04   -0.16219E-05 11424   0.104E-02    0.672E-03
DAV:  13    -0.123973449104E+03   -0.10444E-04   -0.24078E-06 13392   0.452E-03    0.241E-03
DAV:  14    -0.123973455274E+03   -0.61700E-05   -0.10989E-06 12432   0.288E-03    0.922E-04
DAV:  15    -0.123973457582E+03   -0.23078E-05   -0.22936E-07 12624   0.126E-03    0.537E-04
DAV:  16    -0.123973458661E+03   -0.10789E-05   -0.80590E-08 11856   0.665E-04    0.214E-04
DAV:  17    -0.123973459287E+03   -0.62662E-06   -0.35493E-08 11856   0.371E-04
  30 F= -.12584583E+03 E0= -.12584294E+03  d E =-.198194E+00  mag=    -0.0000
 curvature: ****** expect dE=-0.220E+03 dE for cont linesearch -0.104E+00
 ZBRENT: bracketing found
 ZBRENT: interpolating
 opt :   1.0554  next Energy=  -125.868648 (dE=-0.221E+00)
 bond charge predicted
       N       E                     dE             d eps       ncg     rms          rms(c)
DAV:   1    -0.124101258804E+03   -0.12780E+00   -0.11577E+03  8256   0.125E+02    0.604E+00
DAV:   2    -0.124306369082E+03   -0.20511E+00   -0.17678E+01  8832   0.177E+01    0.387E+00
DAV:   3    -0.124092070627E+03    0.21430E+00   -0.12643E+00 14688   0.392E+00    0.156E+00
DAV:   4    -0.124085462808E+03    0.66078E-02   -0.13445E-01 11520   0.138E+00    0.425E-01
DAV:   5    -0.124083393170E+03    0.20696E-02   -0.20386E-02 13056   0.398E-01    0.824E-02
DAV:   6    -0.124083267086E+03    0.12608E-03   -0.65732E-04 13344   0.882E-02    0.410E-02
DAV:   7    -0.124083257905E+03    0.91805E-05   -0.31490E-04 10464   0.594E-02    0.226E-02
DAV:   8    -0.124083304495E+03   -0.46589E-04   -0.33748E-05 10800   0.152E-02    0.140E-02
DAV:   9    -0.124083413371E+03   -0.10888E-03   -0.36743E-05 10800   0.156E-02    0.767E-03
DAV:  10    -0.124083527735E+03   -0.11436E-03   -0.11579E-05 12480   0.802E-03    0.673E-03
DAV:  11    -0.124083627665E+03   -0.99930E-04   -0.81517E-06 13488   0.698E-03    0.301E-03
DAV:  12    -0.124083669629E+03   -0.41964E-04   -0.93429E-07 11712   0.331E-03    0.116E-03
DAV:  13    -0.124083691161E+03   -0.21533E-04   -0.36286E-07 13200   0.206E-03    0.107E-03
DAV:  14    -0.124083698311E+03   -0.71502E-05   -0.99070E-08 12576   0.935E-04    0.651E-04
DAV:  15    -0.124083701377E+03   -0.30659E-05   -0.66671E-08 13152   0.631E-04    0.163E-04
DAV:  16    -0.124083702129E+03   -0.75177E-06   -0.15384E-08 12528   0.310E-04
  31 F= -.12582655E+03 E0= -.12582359E+03  d E =-.178909E+00  mag=     0.0000
 curvature: ****** expect dE=-0.376E+02 dE for cont linesearch -0.342E-01
 ZBRENT: interpolating
 opt :   1.2176  next Energy=  -125.856088 (dE=-0.208E+00)
 bond charge predicted
       N       E                     dE             d eps       ncg     rms          rms(c)
DAV:   1    -0.124126145311E+03   -0.42444E-01   -0.36478E+02  8256   0.705E+01    0.336E+00
DAV:   2    -0.124105614663E+03    0.20531E-01   -0.47365E+00 10368   0.875E+00    0.212E+00
DAV:   3    -0.124038721071E+03    0.66894E-01   -0.46229E-01 14016   0.231E+00    0.633E-01
DAV:   4    -0.124039856274E+03   -0.11352E-02   -0.43699E-02 13728   0.743E-01    0.238E-01
DAV:   5    -0.124039009671E+03    0.84660E-03   -0.34298E-03 15168   0.155E-01    0.467E-02
DAV:   6    -0.124038931282E+03    0.78389E-04   -0.36479E-04 12144   0.560E-02    0.203E-02
DAV:   7    -0.124039029790E+03   -0.98508E-04   -0.12924E-04 11856   0.333E-02    0.128E-02
DAV:   8    -0.124039101078E+03   -0.71288E-04   -0.18026E-05  9888   0.113E-02    0.111E-02
DAV:   9    -0.124039163116E+03   -0.62039E-04   -0.11121E-05 11472   0.819E-03    0.493E-03
DAV:  10    -0.124039210098E+03   -0.46981E-04   -0.10014E-05 11088   0.679E-03    0.308E-03
DAV:  11    -0.124039228625E+03   -0.18527E-04   -0.29612E-06 12432   0.342E-03    0.243E-03
DAV:  12    -0.124039238168E+03   -0.95437E-05   -0.16059E-06 12672   0.271E-03    0.119E-03
DAV:  13    -0.124039242584E+03   -0.44159E-05   -0.45094E-07 13248   0.154E-03    0.510E-04
DAV:  14    -0.124039244308E+03   -0.17238E-05   -0.10174E-07 13344   0.737E-04    0.300E-04
DAV:  15    -0.124039244995E+03   -0.68680E-06   -0.29855E-08 12144   0.390E-04
  32 F= -.12584953E+03 E0= -.12584670E+03  d E =-.201888E+00  mag=     0.0000
 curvature: -40.70 expect dE=-0.130E+02 dE for cont linesearch -0.150E-02
 ZBRENT: interpolating
 opt :   1.2598  next Energy=  -125.851058 (dE=-0.203E+00)
 bond charge predicted
       N       E                     dE             d eps       ncg     rms          rms(c)
DAV:   1    -0.124031109826E+03    0.81345E-02   -0.25150E+01  8256   0.186E+01    0.891E-01
DAV:   2    -0.124026403881E+03    0.47059E-02   -0.29465E-01 11232   0.214E+00    0.544E-01
DAV:   3    -0.124022022632E+03    0.43812E-02   -0.35214E-02 13920   0.632E-01    0.139E-01
DAV:   4    -0.124022038570E+03   -0.15938E-04   -0.36706E-03 14448   0.212E-01    0.575E-02
DAV:   5    -0.124021987670E+03    0.50899E-04   -0.16766E-04 14688   0.427E-02    0.111E-02
DAV:   6    -0.124021981726E+03    0.59444E-05   -0.26716E-05 11472   0.150E-02    0.561E-03
DAV:   7    -0.124021989841E+03   -0.81154E-05   -0.45519E-06 12432   0.666E-03    0.307E-03
DAV:   8    -0.124022001136E+03   -0.11295E-04   -0.29284E-06 10752   0.474E-03    0.264E-03
DAV:   9    -0.124022012423E+03   -0.11287E-04   -0.13518E-06 12240   0.260E-03    0.133E-03
DAV:  10    -0.124022024483E+03   -0.12060E-04   -0.17863E-06 12384   0.255E-03    0.773E-04
DAV:  11    -0.124022028490E+03   -0.40069E-05   -0.36585E-07 14064   0.123E-03    0.437E-04
DAV:  12    -0.124022030498E+03   -0.20079E-05   -0.15882E-07 13248   0.774E-04    0.224E-04
DAV:  13    -0.124022031199E+03   -0.70129E-06   -0.33920E-08 13824   0.372E-04
  33 F= -.12585146E+03 E0= -.12584863E+03  d E =-.203826E+00  mag=    -0.0000
 curvature: -41.57 expect dE=-0.138E+02 dE for cont linesearch -0.834E-04
 trial: gam= 1.91374 g(F)=  0.331E+00 g(S)=  0.000E+00 ort = 0.169E-01 (trialstep = 0.687E-01)
 search vector abs. value=  0.524E+03
 bond charge predicted
       N       E                     dE             d eps       ncg     rms          rms(c)
DAV:   1    -0.124033210763E+03   -0.11180E-01   -0.24199E+02  8256   0.576E+01    0.275E+00
DAV:   2    -0.124008788306E+03    0.24422E-01   -0.30453E+00 11328   0.699E+00    0.171E+00
DAV:   3    -0.123965602154E+03    0.43186E-01   -0.30771E-01 14496   0.188E+00    0.489E-01
DAV:   4    -0.123965836162E+03   -0.23401E-03   -0.29917E-02 13536   0.611E-01    0.185E-01
DAV:   5    -0.123965195408E+03    0.64075E-03   -0.20933E-03 15456   0.132E-01    0.377E-02
DAV:   6    -0.123965132965E+03    0.62442E-04   -0.28292E-04 10992   0.508E-02    0.166E-02
DAV:   7    -0.123965205518E+03   -0.72553E-04   -0.10043E-04 12864   0.309E-02    0.997E-03
DAV:   8    -0.123965267510E+03   -0.61992E-04   -0.19670E-05 10416   0.120E-02    0.758E-03
DAV:   9    -0.123965308362E+03   -0.40852E-04   -0.65448E-06 13632   0.640E-03    0.395E-03
DAV:  10    -0.123965346918E+03   -0.38556E-04   -0.83904E-06 10944   0.594E-03    0.238E-03
DAV:  11    -0.123965363570E+03   -0.16652E-04   -0.36998E-06 13824   0.399E-03    0.142E-03
DAV:  12    -0.123965368422E+03   -0.48527E-05   -0.71928E-07 12720   0.188E-03    0.670E-04
DAV:  13    -0.123965370326E+03   -0.19037E-05   -0.16057E-07 13920   0.103E-03    0.340E-04
DAV:  14    -0.123965371156E+03   -0.82953E-06   -0.57769E-08 13392   0.644E-04
  34 F= -.12585845E+03 E0= -.12585556E+03  d E =-.698638E-02  mag=    -0.0000
 trial-energy change:   -0.006986  1 .order   -0.005025   -0.025010    0.014959
 step:   0.0474(harm=  0.0430)  dis= 0.06850  next Energy=  -125.860720 (dE=-0.925E-02)
 bond charge predicted
       N       E                     dE             d eps       ncg     rms          rms(c)
DAV:   1    -0.123997174411E+03   -0.31804E-01   -0.23688E+01  8256   0.181E+01    0.868E-01
DAV:   2    -0.123991738925E+03    0.54355E-02   -0.27207E-01 11616   0.207E+00    0.527E-01
DAV:   3    -0.123987979400E+03    0.37595E-02   -0.33038E-02 12960   0.611E-01    0.135E-01
DAV:   4    -0.123987980296E+03   -0.89631E-06   -0.34189E-03 11856   0.208E-01    0.564E-02
DAV:   5    -0.123987974440E+03    0.58555E-05   -0.17542E-04 11520   0.453E-02    0.111E-02
DAV:   6    -0.123987969558E+03    0.48824E-05   -0.33588E-05 11520   0.175E-02    0.475E-03
DAV:   7    -0.123987973818E+03   -0.42602E-05   -0.60739E-06  9456   0.865E-03    0.267E-03
DAV:   8    -0.123987979969E+03   -0.61511E-05   -0.16870E-06  9264   0.393E-03    0.250E-03
DAV:   9    -0.123987986930E+03   -0.69606E-05   -0.50348E-07 11184   0.191E-03    0.136E-03
DAV:  10    -0.123987997655E+03   -0.10725E-04   -0.73768E-07 14304   0.184E-03    0.643E-04
DAV:  11    -0.123988003794E+03   -0.61389E-05   -0.22064E-07 13584   0.106E-03    0.500E-04
DAV:  12    -0.123988007710E+03   -0.39165E-05   -0.11831E-07 13536   0.931E-04    0.218E-04
DAV:  13    -0.123988008992E+03   -0.12813E-05   -0.32413E-08 13920   0.695E-04    0.106E-04
DAV:  14    -0.123988009654E+03   -0.66206E-06   -0.16237E-08 13200   0.434E-04
  35 F= -.12586070E+03 E0= -.12585780E+03  d E =-.923227E-02  mag=     0.0000
 curvature: -30.08 expect dE=-0.750E+01 dE for cont linesearch -0.506E-07
 trial: gam=-0.11313 g(F)=  0.249E+00 g(S)=  0.000E+00 ort = 0.939E-03 (trialstep = 0.645E-01)
 search vector abs. value=  0.695E+01
 bond charge predicted
       N       E                     dE             d eps       ncg     rms          rms(c)
DAV:   1    -0.124010210603E+03   -0.22202E-01   -0.28744E+00  8256   0.633E+00    0.303E-01
DAV:   2    -0.124009597240E+03    0.61336E-03   -0.33670E-02 11328   0.730E-01    0.186E-01
DAV:   3    -0.124009124147E+03    0.47309E-03   -0.43220E-03 14784   0.225E-01    0.504E-02
DAV:   4    -0.124009134894E+03   -0.10747E-04   -0.51725E-04 10512   0.814E-02    0.246E-02
DAV:   5    -0.124009136472E+03   -0.15786E-05   -0.20945E-05 12240   0.188E-02    0.623E-03
DAV:   6    -0.124009135496E+03    0.97662E-06   -0.61195E-06 11904   0.756E-03
  36 F= -.12587504E+03 E0= -.12587215E+03  d E =-.143387E-01  mag=    -0.0000
 ZBRENT: can't locate minimum, use default step
 trial-energy change:   -0.014339  1 .order   -0.014350   -0.016067   -0.012633
 step:   0.2579(harm=  0.3016)  dis= 0.03920  next Energy=  -125.898285 (dE=-0.376E-01)
 bond charge predicted
       N       E                     dE             d eps       ncg     rms          rms(c)
DAV:   1    -0.124061315152E+03   -0.52179E-01   -0.25845E+01  8256   0.190E+01    0.908E-01
DAV:   2    -0.124056198306E+03    0.51168E-02   -0.30636E-01 14208   0.220E+00    0.555E-01
DAV:   3    -0.124051856284E+03    0.43420E-02   -0.36793E-02 14304   0.644E-01    0.149E-01
DAV:   4    -0.124051786082E+03    0.70202E-04   -0.42969E-03 11520   0.237E-01    0.723E-02
DAV:   5    -0.124051789911E+03   -0.38286E-05   -0.17430E-04 10944   0.526E-02    0.194E-02
DAV:   6    -0.124051781858E+03    0.80525E-05   -0.56479E-05 11952   0.228E-02    0.717E-03
DAV:   7    -0.124051784825E+03   -0.29672E-05   -0.49022E-06  9600   0.868E-03    0.380E-03
DAV:   8    -0.124051795575E+03   -0.10750E-04   -0.61698E-06  9792   0.820E-03    0.302E-03
DAV:   9    -0.124051801393E+03   -0.58176E-05   -0.90874E-07  9408   0.381E-03    0.261E-03
DAV:  10    -0.124051816173E+03   -0.14780E-04   -0.16381E-06 14496   0.382E-03    0.804E-04
DAV:  11    -0.124051823374E+03   -0.72019E-05   -0.32386E-07 13296   0.166E-03    0.659E-04
DAV:  12    -0.124051830742E+03   -0.73677E-05   -0.27075E-07 12576   0.164E-03    0.363E-04
DAV:  13    -0.124051833249E+03   -0.25067E-05   -0.10754E-07 14592   0.130E-03    0.181E-04
DAV:  14    -0.124051834161E+03   -0.91232E-06   -0.27018E-08 13296   0.668E-04
  37 F= -.12589764E+03 E0= -.12589477E+03  d E =-.369448E-01  mag=     0.0000
 curvature:  -4.06 expect dE=-0.515E-01 dE for cont linesearch -0.854E-03
 ZBRENT: extrapolating
 opt :   0.3048  next Energy=  -125.898538 (dE=-0.378E-01)
 bond charge predicted
       N       E                     dE             d eps       ncg     rms          rms(c)
DAV:   1    -0.124058103879E+03   -0.62706E-02   -0.15190E+00  8256   0.460E+00    0.220E-01
DAV:   2    -0.124057763977E+03    0.33990E-03   -0.17793E-02 10080   0.530E-01    0.135E-01
DAV:   3    -0.124057534268E+03    0.22971E-03   -0.23511E-03 15936   0.166E-01    0.367E-02
DAV:   4    -0.124057538447E+03   -0.41784E-05   -0.27096E-04  8880   0.591E-02    0.183E-02
DAV:   5    -0.124057540513E+03   -0.20663E-05   -0.12199E-05 12384   0.144E-02    0.471E-03
DAV:   6    -0.124057540083E+03    0.43020E-06   -0.34116E-06 12336   0.562E-03
  38 F= -.12589854E+03 E0= -.12589568E+03  d E =-.378457E-01  mag=     0.0000
 curvature:  -4.26 expect dE=-0.328E-01 dE for cont linesearch -0.139E-06
 trial: gam= 0.01220 g(F)=  0.770E-02 g(S)=  0.000E+00 ort = 0.476E-03 (trialstep = 0.113E+00)
 search vector abs. value=  0.875E-02
 bond charge predicted
       N       E                     dE             d eps       ncg     rms          rms(c)
DAV:   1    -0.124058463805E+03   -0.92329E-03   -0.10579E-02  9792   0.407E-01    0.200E-02
DAV:   2    -0.124058462790E+03    0.10156E-05   -0.10593E-04 15168   0.418E-02    0.120E-02
DAV:   3    -0.124058460856E+03    0.19341E-05   -0.11404E-05  9024   0.126E-02    0.260E-03
DAV:   4    -0.124058461528E+03   -0.67202E-06   -0.15484E-06 14880   0.456E-03
  39 F= -.12589933E+03 E0= -.12589647E+03  d E =-.790276E-03  mag=    -0.0000
 ZBRENT: can't locate minimum, use default step
 trial-energy change:   -0.000790  1 .order   -0.000789   -0.000867   -0.000710
 step:   0.4501(harm=  0.6200)  dis= 0.00384  next Energy=  -125.900932 (dE=-0.239E-02)
 bond charge predicted
       N       E                     dE             d eps       ncg     rms          rms(c)
DAV:   1    -0.124060313699E+03   -0.18528E-02   -0.95175E-02  9984   0.122E+00    0.604E-02
DAV:   2    -0.124060300107E+03    0.13592E-04   -0.92609E-04 15600   0.123E-01    0.360E-02
DAV:   3    -0.124060278470E+03    0.21637E-04   -0.10117E-04 10608   0.374E-02    0.771E-03
DAV:   4    -0.124060279632E+03   -0.11626E-05   -0.12246E-05 13200   0.129E-02    0.344E-03
DAV:   5    -0.124060280268E+03   -0.63605E-06   -0.44297E-07 12144   0.274E-03
  40 F= -.12590076E+03 E0= -.12589789E+03  d E =-.221631E-02  mag=     0.0000
 curvature:  -0.31 expect dE=-0.203E-02 dE for cont linesearch -0.161E-03
 ZBRENT: increasing intervall
 opt :   1.1253  next Energy=  -125.899366 (dE=-0.823E-03)
 bond charge predicted
       N       E                     dE             d eps       ncg     rms          rms(c)
DAV:   1    -0.124059833035E+03    0.44660E-03   -0.38063E-01 10176   0.244E+00    0.121E-01
DAV:   2    -0.124059771735E+03    0.61301E-04   -0.36248E-03 15360   0.244E-01    0.715E-02
DAV:   3    -0.124059681771E+03    0.89964E-04   -0.41538E-04 12864   0.752E-02    0.152E-02
DAV:   4    -0.124059683787E+03   -0.20153E-05   -0.44465E-05 12960   0.250E-02    0.684E-03
DAV:   5    -0.124059684839E+03   -0.10528E-05   -0.16638E-06 10800   0.544E-03    0.254E-03
DAV:   6    -0.124059685176E+03   -0.33671E-06   -0.58040E-07 13008   0.344E-03
  41 F= -.12589938E+03 E0= -.12589650E+03  d E =-.839429E-03  mag=     0.0000
 curvature:   2.70 expect dE= 0.113E+00 dE for cont linesearch  0.119E-01
 ZBRENT: bracketing found
 ZBRENT: interpolating
 opt :   0.6223  next Energy=  -125.900942 (dE=-0.240E-02)
 bond charge predicted
       N       E                     dE             d eps       ncg     rms          rms(c)
DAV:   1    -0.124060742629E+03   -0.10578E-02   -0.21102E-01  9792   0.182E+00    0.899E-02
DAV:   2    -0.124060714576E+03    0.28053E-04   -0.20507E-03 15552   0.184E-01    0.534E-02
DAV:   3    -0.124060663276E+03    0.51300E-04   -0.22614E-04 12288   0.557E-02    0.114E-02
DAV:   4    -0.124060664772E+03   -0.14953E-05   -0.25160E-05 13728   0.187E-02    0.504E-03
DAV:   5    -0.124060665436E+03   -0.66435E-06   -0.80597E-07 12000   0.361E-03
  42 F= -.12590094E+03 E0= -.12589807E+03  d E =-.240162E-02  mag=     0.0000
 curvature:  -0.04 expect dE=-0.469E-03 dE for cont linesearch -0.292E-09
 trial: gam= 1.46316 g(F)=  0.113E-01 g(S)=  0.000E+00 ort = 0.784E-05 (trialstep = 0.625E-01)
 search vector abs. value=  0.300E-01
 bond charge predicted
       N       E                     dE             d eps       ncg     rms          rms(c)
DAV:   1    -0.124061444428E+03   -0.77966E-03   -0.91437E-03  8640   0.377E-01    0.165E-02
DAV:   2    -0.124061444047E+03    0.38121E-06   -0.66695E-05 15456   0.339E-02    0.982E-03
DAV:   3    -0.124061443728E+03    0.31860E-06   -0.74983E-06  8928   0.947E-03
  43 F= -.12590163E+03 E0= -.12589875E+03  d E =-.681912E-03  mag=    -0.0000
 ZBRENT: can't locate minimum, use default step
 trial-energy change:   -0.000682  1 .order   -0.000681   -0.000705   -0.000657
 step:   0.2500(harm=  0.9179)  dis= 0.00427  next Energy=  -125.906123 (dE=-0.518E-02)
 bond charge predicted
       N       E                     dE             d eps       ncg     rms          rms(c)
DAV:   1    -0.124063504344E+03   -0.20603E-02   -0.82602E-02  8256   0.113E+00    0.500E-02
DAV:   2    -0.124063505703E+03   -0.13585E-05   -0.59522E-04 14544   0.102E-01    0.298E-02
DAV:   3    -0.124063498732E+03    0.69708E-05   -0.68386E-05  9936   0.285E-02    0.535E-03
DAV:   4    -0.124063499423E+03   -0.69082E-06   -0.64494E-06 15696   0.983E-03
  44 F= -.12590339E+03 E0= -.12590052E+03  d E =-.244944E-02  mag=     0.0000
 curvature:  -0.48 expect dE=-0.310E-02 dE for cont linesearch -0.110E-02
 ZBRENT: increasing intervall
 opt :   0.6249  next Energy=  -125.905683 (dE=-0.474E-02)
 bond charge predicted
       N       E                     dE             d eps       ncg     rms          rms(c)
DAV:   1    -0.124066378534E+03   -0.28798E-02   -0.33027E-01  8256   0.227E+00    0.995E-02
DAV:   2    -0.124066390593E+03   -0.12060E-04   -0.23879E-03 15264   0.204E-01    0.592E-02
DAV:   3    -0.124066353970E+03    0.36623E-04   -0.27442E-04 11616   0.566E-02    0.106E-02
DAV:   4    -0.124066355737E+03   -0.17667E-05   -0.23493E-05 14496   0.193E-02    0.488E-03
DAV:   5    -0.124066356990E+03   -0.12535E-05   -0.23696E-06 10080   0.730E-03    0.182E-03
DAV:   6    -0.124066356316E+03    0.67450E-06   -0.11871E-06 11040   0.541E-03
  45 F= -.12590568E+03 E0= -.12590281E+03  d E =-.473411E-02  mag=     0.0000
 curvature:  -1.00 expect dE=-0.357E-02 dE for cont linesearch -0.506E-03
 ZBRENT: increasing intervall
 opt :   1.3749  next Energy=  -125.905306 (dE=-0.436E-02)
 bond charge predicted
       N       E                     dE             d eps       ncg     rms          rms(c)
DAV:   1    -0.124067243455E+03   -0.88646E-03   -0.13196E+00  8256   0.453E+00    0.199E-01
DAV:   2    -0.124067296734E+03   -0.53279E-04   -0.94102E-03 16272   0.404E-01    0.118E-01
DAV:   3    -0.124067127969E+03    0.16876E-03   -0.10895E-03 11328   0.111E-01    0.207E-02
DAV:   4    -0.124067134513E+03   -0.65440E-05   -0.88615E-05 14880   0.357E-02    0.954E-03
DAV:   5    -0.124067136067E+03   -0.15546E-05   -0.46486E-06 12576   0.762E-03    0.229E-03
DAV:   6    -0.124067136410E+03   -0.34287E-06   -0.71495E-07 12480   0.359E-03
  46 F= -.12590533E+03 E0= -.12590247E+03  d E =-.438617E-02  mag=     0.0000
 curvature:   0.73 expect dE= 0.956E-02 dE for cont linesearch  0.566E-03
 ZBRENT: bracketing found
 ZBRENT: interpolating
 opt :   0.9608  next Energy=  -125.906334 (dE=-0.539E-02)
 bond charge predicted
       N       E                     dE             d eps       ncg     rms          rms(c)
DAV:   1    -0.124067550090E+03   -0.41402E-03   -0.40235E-01  8256   0.250E+00    0.110E-01
DAV:   2    -0.124067565433E+03   -0.15344E-04   -0.28700E-03 16128   0.223E-01    0.652E-02
DAV:   3    -0.124067519415E+03    0.46019E-04   -0.33218E-04 11568   0.617E-02    0.113E-02
DAV:   4    -0.124067521917E+03   -0.25022E-05   -0.26700E-05 15120   0.202E-02    0.528E-03
DAV:   5    -0.124067523310E+03   -0.13927E-05   -0.18264E-06 11760   0.592E-03    0.144E-03
DAV:   6    -0.124067523295E+03    0.14731E-07   -0.84789E-07 12672   0.464E-03
  47 F= -.12590634E+03 E0= -.12590347E+03  d E =-.539313E-02  mag=     0.0000
 curvature:  -0.85 expect dE=-0.451E-02 dE for cont linesearch -0.158E-07
 trial: gam= 0.47977 g(F)=  0.532E-02 g(S)=  0.000E+00 ort =-0.236E-04 (trialstep = 0.242E+00)
 search vector abs. value=  0.122E-01
 bond charge predicted
       N       E                     dE             d eps       ncg     rms          rms(c)
DAV:   1    -0.124068748102E+03   -0.12248E-02   -0.40956E-02  8256   0.796E-01    0.462E-02
DAV:   2    -0.124068712974E+03    0.35128E-04   -0.52480E-04 16416   0.884E-02    0.248E-02
DAV:   3    -0.124068701427E+03    0.11547E-04   -0.58555E-05 10704   0.254E-02    0.708E-03
DAV:   4    -0.124068701704E+03   -0.27740E-06   -0.67174E-06 12048   0.955E-03
  48 F= -.12590741E+03 E0= -.12590455E+03  d E =-.107123E-02  mag=    -0.0000
 trial-energy change:   -0.001071  1 .order   -0.001072   -0.001285   -0.000858
 step:   0.7280(harm=  0.7280)  dis= 0.00416  next Energy=  -125.908270 (dE=-0.193E-02)
 bond charge predicted
       N       E                     dE             d eps       ncg     rms          rms(c)
DAV:   1    -0.124069954140E+03   -0.12527E-02   -0.16499E-01  8256   0.160E+00    0.929E-02
DAV:   2    -0.124069815836E+03    0.13830E-03   -0.21045E-03 16512   0.177E-01    0.499E-02
DAV:   3    -0.124069769657E+03    0.46178E-04   -0.23194E-04 11472   0.505E-02    0.144E-02
DAV:   4    -0.124069769997E+03   -0.33916E-06   -0.26430E-05 12192   0.188E-02    0.574E-03
DAV:   5    -0.124069770591E+03   -0.59458E-06   -0.10450E-06 11376   0.427E-03
  49 F= -.12590826E+03 E0= -.12590544E+03  d E =-.192415E-02  mag=    -0.0000
 curvature:  -0.84 expect dE=-0.286E-02 dE for cont linesearch -0.144E-06
 trial: gam= 0.64964 g(F)=  0.342E-02 g(S)=  0.000E+00 ort =-0.459E-04 (trialstep = 0.339E+00)
 search vector abs. value=  0.851E-02
 bond charge predicted
       N       E                     dE             d eps       ncg     rms          rms(c)
DAV:   1    -0.124070774067E+03   -0.10041E-02   -0.44883E-02  8256   0.808E-01    0.462E-02
DAV:   2    -0.124070753720E+03    0.20348E-04   -0.45141E-04 16176   0.853E-02    0.257E-02
DAV:   3    -0.124070742684E+03    0.11035E-04   -0.58722E-05  9552   0.261E-02    0.698E-03
DAV:   4    -0.124070742702E+03   -0.17099E-07   -0.78152E-06 12000   0.107E-02
  50 F= -.12590919E+03 E0= -.12590639E+03  d E =-.929052E-03  mag=    -0.0000
 trial-energy change:   -0.000929  1 .order   -0.000929   -0.001150   -0.000709
 step:   0.8858(harm=  0.8858)  dis= 0.00349  next Energy=  -125.909762 (dE=-0.150E-02)
 bond charge predicted
       N       E                     dE             d eps       ncg     rms          rms(c)
DAV:   1    -0.124071457429E+03   -0.71474E-03   -0.11639E-01  8256   0.130E+00    0.747E-02
DAV:   2    -0.124071406265E+03    0.51164E-04   -0.11676E-03 16272   0.137E-01    0.415E-02
DAV:   3    -0.124071378555E+03    0.27710E-04   -0.14936E-04 10320   0.416E-02    0.114E-02
DAV:   4    -0.124071378434E+03    0.12007E-06   -0.19697E-05 12816   0.167E-02    0.510E-03
DAV:   5    -0.124071378715E+03   -0.28020E-06   -0.10383E-06 11088   0.498E-03
  51 F= -.12590976E+03 E0= -.12590699E+03  d E =-.149419E-02  mag=     0.0000
 curvature:  -1.11 expect dE=-0.498E-02 dE for cont linesearch -0.921E-07
 trial: gam= 1.29430 g(F)=  0.448E-02 g(S)=  0.000E+00 ort =-0.265E-04 (trialstep = 0.205E+00)
 search vector abs. value=  0.187E-01
 bond charge predicted
       N       E                     dE             d eps       ncg     rms          rms(c)
DAV:   1    -0.124072229021E+03   -0.85059E-03   -0.34249E-02  8256   0.698E-01    0.348E-02
DAV:   2    -0.124072224182E+03    0.48389E-05   -0.23168E-04 14736   0.595E-02    0.204E-02
DAV:   3    -0.124072220756E+03    0.34259E-05   -0.26035E-05  9552   0.171E-02    0.460E-03
DAV:   4    -0.124072221248E+03   -0.49197E-06   -0.43827E-06  9504   0.968E-03
  52 F= -.12591058E+03 E0= -.12590782E+03  d E =-.828290E-03  mag=     0.0000
 ZBRENT: can't locate minimum, use default step
 trial-energy change:   -0.000828  1 .order   -0.000828   -0.000908   -0.000747
 step:   0.8183(harm=  1.1508)  dis= 0.00514  next Energy=  -125.912311 (dE=-0.256E-02)
 bond charge predicted
       N       E                     dE             d eps       ncg     rms          rms(c)
DAV:   1    -0.124073859691E+03   -0.16389E-02   -0.30815E-01  8256   0.210E+00    0.105E-01
DAV:   2    -0.124073821928E+03    0.37763E-04   -0.20528E-03 15072   0.177E-01    0.613E-02
DAV:   3    -0.124073784202E+03    0.37726E-04   -0.22504E-04 10800   0.478E-02    0.135E-02
DAV:   4    -0.124073786643E+03   -0.24413E-05   -0.23714E-05 11568   0.204E-02    0.479E-03
DAV:   5    -0.124073789353E+03   -0.27095E-05   -0.83670E-06 11232   0.140E-02    0.201E-03
DAV:   6    -0.124073786497E+03    0.28561E-05   -0.66266E-06 11280   0.121E-02    0.838E-04
DAV:   7    -0.124073785306E+03    0.11908E-05   -0.10570E-06 12192   0.482E-03    0.281E-04
DAV:   8    -0.124073785590E+03   -0.28399E-06   -0.78600E-08 11664   0.105E-03
  53 F= -.12591211E+03 E0= -.12590934E+03  d E =-.235175E-02  mag=    -0.0000
 curvature:  -2.12 expect dE=-0.498E-02 dE for cont linesearch -0.198E-03
 ZBRENT: increasing intervall
 opt :   2.0457  next Energy=  -125.910866 (dE=-0.111E-02)
 bond charge predicted
       N       E                     dE             d eps       ncg     rms          rms(c)
DAV:   1    -0.124072944198E+03    0.84111E-03   -0.12315E+00  8256   0.419E+00    0.209E-01
DAV:   2    -0.124072798730E+03    0.14547E-03   -0.80810E-03 15552   0.349E-01    0.122E-01
DAV:   3    -0.124072632130E+03    0.16660E-03   -0.88278E-04 11184   0.924E-02    0.264E-02
DAV:   4    -0.124072640302E+03   -0.81719E-05   -0.72889E-05 13968   0.303E-02    0.931E-03
DAV:   5    -0.124072641196E+03   -0.89444E-06   -0.28250E-06 11616   0.677E-03
  54 F= -.12591089E+03 E0= -.12590810E+03  d E =-.113323E-02  mag=    -0.0000
 curvature:  13.30 expect dE= 0.195E+00 dE for cont linesearch  0.770E-02
 ZBRENT: bracketing found
 ZBRENT: interpolating
 opt :   1.1699  next Energy=  -125.912340 (dE=-0.258E-02)
 bond charge predicted
       N       E                     dE             d eps       ncg     rms          rms(c)
DAV:   1    -0.124074185970E+03   -0.15457E-02   -0.62669E-01  8256   0.299E+00    0.149E-01
DAV:   2    -0.124074111357E+03    0.74613E-04   -0.41099E-03 14496   0.249E-01    0.872E-02
DAV:   3    -0.124074030867E+03    0.80490E-04   -0.45668E-04 11616   0.669E-02    0.187E-02
DAV:   4    -0.124074036263E+03   -0.53958E-05   -0.37814E-05 13152   0.220E-02    0.666E-03
DAV:   5    -0.124074037542E+03   -0.12792E-05   -0.18312E-06 11040   0.611E-03    0.215E-03
DAV:   6    -0.124074037656E+03   -0.11396E-06   -0.96843E-07 11808   0.480E-03
  55 F= -.12591234E+03 E0= -.12590956E+03  d E =-.258156E-02  mag=    -0.0000
 curvature:  -0.40 expect dE=-0.160E-02 dE for cont linesearch -0.209E-08
 trial: gam= 0.88303 g(F)=  0.398E-02 g(S)=  0.000E+00 ort =-0.987E-05 (trialstep = 0.398E+00)
 search vector abs. value=  0.185E-01
 bond charge predicted
       N       E                     dE             d eps       ncg     rms          rms(c)
DAV:   1    -0.124074769293E+03   -0.73175E-03   -0.15826E-01  8448   0.159E+00    0.849E-02
DAV:   2    -0.124074698475E+03    0.70818E-04   -0.15885E-03 16128   0.157E-01    0.478E-02
DAV:   3    -0.124074659276E+03    0.39200E-04   -0.17058E-04 10512   0.446E-02    0.125E-02
DAV:   4    -0.124074660018E+03   -0.74288E-06   -0.18462E-05 12096   0.160E-02    0.438E-03
DAV:   5    -0.124074660467E+03   -0.44865E-06   -0.88992E-07 11424   0.445E-03
  56 F= -.12591299E+03 E0= -.12591020E+03  d E =-.653419E-03  mag=     0.0000
 trial-energy change:   -0.000653  1 .order   -0.000655   -0.001579    0.000270
 step:   0.3396(harm=  0.3396)  dis= 0.00201  next Energy=  -125.913012 (dE=-0.674E-03)
 bond charge predicted
       N       E                     dE             d eps       ncg     rms          rms(c)
DAV:   1    -0.124074687688E+03   -0.27670E-04   -0.33503E-03  8880   0.232E-01    0.123E-02
DAV:   2    -0.124074685792E+03    0.18964E-05   -0.33631E-05 13488   0.232E-02    0.694E-03
DAV:   3    -0.124074685226E+03    0.56552E-06   -0.42141E-06  8688   0.806E-03
  57 F= -.12591301E+03 E0= -.12591022E+03  d E =-.673653E-03  mag=    -0.0000
 curvature:  -0.79 expect dE=-0.375E-03 dE for cont linesearch -0.664E-08
 trial: gam= 0.12226 g(F)=  0.473E-03 g(S)=  0.000E+00 ort = 0.125E-04 (trialstep = 0.386E+00)
 search vector abs. value=  0.753E-03
 bond charge predicted
       N       E                     dE             d eps       ncg     rms          rms(c)
DAV:   1    -0.124074727624E+03   -0.41832E-04   -0.81602E-03  9888   0.356E-01    0.268E-02
DAV:   2    -0.124074704808E+03    0.22816E-04   -0.19125E-04 13104   0.497E-02    0.125E-02
DAV:   3    -0.124074701587E+03    0.32209E-05   -0.16706E-05  9600   0.147E-02    0.444E-03
DAV:   4    -0.124074701734E+03   -0.14771E-06   -0.33602E-06  8352   0.814E-03
  58 F= -.12591310E+03 E0= -.12591030E+03  d E =-.841704E-04  mag=    -0.0000
 trial-energy change:   -0.000084  1 .order   -0.000085   -0.000183    0.000013
 step:   0.3611(harm=  0.3611)  dis= 0.00058  next Energy=  -125.913097 (dE=-0.857E-04)
 bond charge predicted
       N       E                     dE             d eps       ncg     rms          rms(c)
DAV:   1    -0.124074706703E+03   -0.51161E-05   -0.36559E-05  8256   0.247E-02    0.175E-03
DAV:   2    -0.124074706371E+03    0.33182E-06   -0.19415E-06  8544   0.664E-03
  59 F= -.12591310E+03 E0= -.12591030E+03  d E =-.844342E-04  mag=    -0.0000
 curvature:  -0.29 expect dE=-0.189E-04 dE for cont linesearch -0.710E-08
 trial: gam= 0.15068 g(F)=  0.659E-04 g(S)=  0.000E+00 ort =-0.432E-05 (trialstep = 0.381E+00)
 search vector abs. value=  0.817E-04
 bond charge predicted
       N       E                     dE             d eps       ncg     rms          rms(c)
DAV:   1    -0.124074650602E+03    0.56101E-04   -0.76586E-04  8256   0.112E-01    0.512E-03
DAV:   2    -0.124074650327E+03    0.27454E-06   -0.93373E-06  9216   0.131E-02
  60 F= -.12591312E+03 E0= -.12591032E+03  d E =-.210573E-04  mag=    -0.0000
 trial-energy change:   -0.000021  1 .order   -0.000021   -0.000025   -0.000018
 step:   1.3246(harm=  1.3246)  dis= 0.00107  next Energy=  -125.913139 (dE=-0.432E-04)
 bond charge predicted
       N       E                     dE             d eps       ncg     rms          rms(c)
DAV:   1    -0.124074481177E+03    0.16942E-03   -0.46351E-03  8448   0.276E-01    0.134E-02
DAV:   2    -0.124074479816E+03    0.13610E-05   -0.52588E-05 12240   0.296E-02    0.809E-03
DAV:   3    -0.124074479493E+03    0.32274E-06   -0.59006E-06 11328   0.985E-03
  61 F= -.12591314E+03 E0= -.12591034E+03  d E =-.411807E-04  mag=     0.0000
 curvature:  -0.83 expect dE=-0.580E-04 dE for cont linesearch -0.163E-06
 trial: gam= 1.10934 g(F)=  0.700E-04 g(S)=  0.000E+00 ort =-0.400E-05 (trialstep = 0.288E+00)
 search vector abs. value=  0.162E-03
 bond charge predicted
       N       E                     dE             d eps       ncg     rms          rms(c)
DAV:   1    -0.124074381707E+03    0.98109E-04   -0.12281E-03  8448   0.137E-01    0.691E-03
DAV:   2    -0.124074381160E+03    0.54703E-06   -0.18099E-05  8640   0.188E-02    0.438E-03
DAV:   3    -0.124074381441E+03   -0.28154E-06   -0.35799E-06 10944   0.899E-03
  62 F= -.12591315E+03 E0= -.12591036E+03  d E =-.156007E-04  mag=    -0.0000
 trial-energy change:   -0.000016  1 .order   -0.000015   -0.000019   -0.000011
 step:   0.6672(harm=  0.6672)  dis= 0.00051  next Energy=  -125.913159 (dE=-0.219E-04)
 bond charge predicted
       N       E                     dE             d eps       ncg     rms          rms(c)
DAV:   1    -0.124074240539E+03    0.14062E-03   -0.21266E-03  8304   0.180E-01    0.918E-03
DAV:   2    -0.124074239591E+03    0.94850E-06   -0.30929E-05  8832   0.243E-02    0.582E-03
DAV:   3    -0.124074239922E+03   -0.33093E-06   -0.59644E-06 11568   0.113E-02
  63 F= -.12591316E+03 E0= -.12591036E+03  d E =-.236723E-04  mag=     0.0000
 curvature:  -0.82 expect dE=-0.680E-04 dE for cont linesearch -0.103E-12
 trial: gam= 1.10446 g(F)=  0.827E-04 g(S)=  0.000E+00 ort = 0.449E-08 (trialstep = 0.210E+00)
 search vector abs. value=  0.280E-03
 bond charge predicted
       N       E                     dE             d eps       ncg     rms          rms(c)
DAV:   1    -0.124074132197E+03    0.10739E-03   -0.11548E-03  8352   0.129E-01    0.661E-03
DAV:   2    -0.124074131353E+03    0.84404E-06   -0.16614E-05  8736   0.185E-02    0.418E-03
DAV:   3    -0.124074132150E+03   -0.79665E-06   -0.41731E-06  8640   0.989E-03
  64 F= -.12591318E+03 E0= -.12591038E+03  d E =-.177323E-04  mag=    -0.0000
 ZBRENT: can't locate minimum, use default step
 trial-energy change:   -0.000018  1 .order   -0.000017   -0.000017   -0.000016
 step:   0.8407(harm=  4.1113)  dis= 0.00092  next Energy=  -125.913330 (dE=-0.170E-03)
 bond charge predicted
       N       E                     dE             d eps       ncg     rms          rms(c)
DAV:   1    -0.124073804761E+03    0.32659E-03   -0.10262E-02  8448   0.384E-01    0.186E-02
DAV:   2    -0.124073801764E+03    0.29970E-05   -0.12644E-04  8736   0.465E-02    0.115E-02
DAV:   3    -0.124073801480E+03    0.28330E-06   -0.17542E-05 11904   0.172E-02    0.321E-03
DAV:   4    -0.124073802302E+03   -0.82195E-06   -0.70194E-06  8352   0.132E-02
  65 F= -.12591322E+03 E0= -.12591043E+03  d E =-.645425E-04  mag=    -0.0000
 curvature:  -2.07 expect dE=-0.156E-03 dE for cont linesearch -0.324E-04
 ZBRENT: increasing intervall
 opt :   2.1017  next Energy=  -125.913293 (dE=-0.133E-03)
 bond charge predicted
       N       E                     dE             d eps       ncg     rms          rms(c)
DAV:   1    -0.124073126522E+03    0.67496E-03   -0.40966E-02  8256   0.767E-01    0.371E-02
DAV:   2    -0.124073117575E+03    0.89466E-05   -0.49989E-04  9696   0.897E-02    0.228E-02
DAV:   3    -0.124073111965E+03    0.56107E-05   -0.57794E-05  9936   0.275E-02    0.626E-03
DAV:   4    -0.124073112861E+03   -0.89609E-06   -0.10708E-05 11280   0.144E-02    0.246E-03
DAV:   5    -0.124073113472E+03   -0.61149E-06   -0.47265E-06 10704   0.105E-02
  66 F= -.12591329E+03 E0= -.12591049E+03  d E =-.129732E-03  mag=     0.0000
 curvature:  -4.35 expect dE=-0.102E-02 dE for cont linesearch -0.221E-04
 ZBRENT: increasing intervall
 opt :   4.6238  next Energy=  -125.913313 (dE=-0.153E-03)
 bond charge predicted
       N       E                     dE             d eps       ncg     rms          rms(c)
DAV:   1    -0.124071684459E+03    0.14284E-02   -0.16381E-01  8256   0.153E+00    0.734E-02
DAV:   2    -0.124071649015E+03    0.35445E-04   -0.19774E-03 10320   0.176E-01    0.448E-02
DAV:   3    -0.124071623425E+03    0.25589E-04   -0.22198E-04 10848   0.513E-02    0.122E-02
DAV:   4    -0.124071624775E+03   -0.13494E-05   -0.29032E-05 13104   0.187E-02    0.464E-03
DAV:   5    -0.124071625053E+03   -0.27861E-06   -0.15083E-06 11904   0.516E-03
  67 F= -.12591331E+03 E0= -.12591050E+03  d E =-.152001E-03  mag=    -0.0000
 curvature:  -4.56 expect dE=-0.530E-02 dE for cont linesearch -0.643E-05
 ZBRENT: bracketing found
 ZBRENT: interpolating
 opt :   3.7533  next Energy=  -125.913321 (dE=-0.161E-03)
 bond charge predicted
       N       E                     dE             d eps       ncg     rms          rms(c)
DAV:   1    -0.124072161195E+03   -0.53642E-03   -0.19445E-02  8256   0.529E-01    0.254E-02
DAV:   2    -0.124072157326E+03    0.38689E-05   -0.24121E-04 11232   0.612E-02    0.157E-02
DAV:   3    -0.124072155000E+03    0.23256E-05   -0.27160E-05 11136   0.180E-02    0.426E-03
DAV:   4    -0.124072155542E+03   -0.54249E-06   -0.39028E-06  9792   0.849E-03
  68 F= -.12591332E+03 E0= -.12591051E+03  d E =-.160662E-03  mag=    -0.0000
 curvature:  -6.13 expect dE=-0.460E-02 dE for cont linesearch -0.189E-07
 trial: gam= 9.47237 g(F)=  0.750E-03 g(S)=  0.000E+00 ort = 0.929E-06 (trialstep = 0.994E-02)
 search vector abs. value=  0.259E-01
 bond charge predicted
       N       E                     dE             d eps       ncg     rms          rms(c)
DAV:   1    -0.124072105561E+03    0.49439E-04   -0.23410E-04  8544   0.583E-02    0.247E-03
DAV:   2    -0.124072105496E+03    0.64514E-07   -0.36689E-06  9888   0.858E-03
  69 F= -.12591333E+03 E0= -.12591052E+03  d E =-.762149E-05  mag=    -0.0000
 ZBRENT: can't locate minimum, use default step
 trial-energy change:   -0.000008  1 .order   -0.000008   -0.000008   -0.000008
 step:   0.0397(harm= 24.9194)  dis= 0.00042  next Energy=  -125.922776 (dE=-0.945E-02)
 bond charge predicted
       N       E                     dE             d eps       ncg     rms          rms(c)
DAV:   1    -0.124071955217E+03    0.15034E-03   -0.20971E-03  8304   0.174E-01    0.857E-03
DAV:   2    -0.124071954730E+03    0.48704E-06   -0.26419E-05 11184   0.209E-02    0.537E-03
DAV:   3    -0.124071954661E+03    0.69142E-07   -0.32664E-06  9216   0.725E-03
  70 F= -.12591335E+03 E0= -.12591054E+03  d E =-.298546E-04  mag=     0.0000
 curvature:  -1.02 expect dE=-0.703E-03 dE for cont linesearch -0.195E-04
 ZBRENT: increasing intervall
 opt :   0.0994  next Energy=  -125.913390 (dE=-0.686E-04)
 bond charge predicted
       N       E                     dE             d eps       ncg     rms          rms(c)
DAV:   1    -0.124071652720E+03    0.30201E-03   -0.85257E-03  8256   0.349E-01    0.168E-02
DAV:   2    -0.124071651054E+03    0.16655E-05   -0.10251E-04  8592   0.411E-02    0.105E-02
DAV:   3    -0.124071650358E+03    0.69592E-06   -0.12540E-05  9072   0.136E-02    0.298E-03
DAV:   4    -0.124071650781E+03   -0.42265E-06   -0.33800E-06  8256   0.874E-03
  71 F= -.12591339E+03 E0= -.12591058E+03  d E =-.722095E-04  mag=     0.0000
 curvature:  -2.02 expect dE=-0.125E-02 dE for cont linesearch -0.357E-04
 ZBRENT: increasing intervall
 opt :   0.2186  next Energy=  -125.913470 (dE=-0.149E-03)
 bond charge predicted
       N       E                     dE             d eps       ncg     rms          rms(c)
DAV:   1    -0.124071042654E+03    0.60770E-03   -0.33988E-02  8256   0.697E-01    0.332E-02
DAV:   2    -0.124071036263E+03    0.63910E-05   -0.40167E-04  8592   0.802E-02    0.205E-02
DAV:   3    -0.124071032028E+03    0.42351E-05   -0.47154E-05 10320   0.245E-02    0.565E-03
DAV:   4    -0.124071032563E+03   -0.53477E-06   -0.72652E-06  9792   0.108E-02
  72 F= -.12591347E+03 E0= -.12591065E+03  d E =-.146891E-03  mag=     0.0000
 curvature:  -4.37 expect dE=-0.226E-02 dE for cont linesearch -0.575E-04
 ZBRENT: increasing intervall
 opt :   0.4571  next Energy=  -125.913585 (dE=-0.264E-03)
 bond charge predicted
       N       E                     dE             d eps       ncg     rms          rms(c)
DAV:   1    -0.124069799436E+03    0.12326E-02   -0.13591E-01  8256   0.139E+00    0.659E-02
DAV:   2    -0.124069778420E+03    0.21016E-04   -0.16257E-03  9312   0.160E-01    0.407E-02
DAV:   3    -0.124069759712E+03    0.18708E-04   -0.18253E-04 11040   0.476E-02    0.112E-02
DAV:   4    -0.124069761431E+03   -0.17195E-05   -0.26727E-05 12096   0.207E-02    0.455E-03
DAV:   5    -0.124069761432E+03   -0.58117E-09   -0.45527E-06 11856   0.104E-02
  73 F= -.12591358E+03 E0= -.12591076E+03  d E =-.263858E-03  mag=     0.0000
 curvature:  -8.90 expect dE=-0.426E-02 dE for cont linesearch -0.523E-04
 ZBRENT: increasing intervall
 opt :   0.9340  next Energy=  -125.913679 (dE=-0.358E-03)
 bond charge predicted
       N       E                     dE             d eps       ncg     rms          rms(c)
DAV:   1    -0.124067240450E+03    0.25210E-02   -0.54363E-01  8256   0.279E+00    0.132E-01
DAV:   2    -0.124067158777E+03    0.81673E-04   -0.64298E-03 11424   0.315E-01    0.807E-02
DAV:   3    -0.124067067994E+03    0.90782E-04   -0.70134E-04 12576   0.900E-02    0.216E-02
DAV:   4    -0.124067069844E+03   -0.18493E-05   -0.82376E-05 14400   0.316E-02    0.836E-03
DAV:   5    -0.124067069788E+03    0.55303E-07   -0.39272E-06 12000   0.719E-03
  74 F= -.12591368E+03 E0= -.12591083E+03  d E =-.356937E-03  mag=    -0.0000
 curvature: -15.95 expect dE=-0.173E-01 dE for cont linesearch -0.516E-07
 trial: gam= 1.38617 g(F)=  0.109E-02 g(S)=  0.000E+00 ort =-0.915E-05 (trialstep = 0.992E-01)
 search vector abs. value=  0.508E-01
 bond charge predicted
       N       E                     dE             d eps       ncg     rms          rms(c)
DAV:   1    -0.124066373768E+03    0.69608E-03   -0.46307E-02  8256   0.814E-01    0.385E-02
DAV:   2    -0.124066366036E+03    0.77312E-05   -0.56280E-04 11472   0.934E-02    0.235E-02
DAV:   3    -0.124066359516E+03    0.65205E-05   -0.58672E-05  9840   0.267E-02    0.670E-03
DAV:   4    -0.124066360377E+03   -0.86081E-06   -0.89078E-06 10512   0.114E-02
  75 F= -.12591378E+03 E0= -.12591092E+03  d E =-.101487E-03  mag=     0.0000
 ZBRENT: can't locate minimum, use default step
 trial-energy change:   -0.000101  1 .order   -0.000100   -0.000107   -0.000093
 step:   0.3970(harm=  0.7702)  dis= 0.00608  next Energy=  -125.914092 (dE=-0.414E-03)
 bond charge predicted
       N       E                     dE             d eps       ncg     rms          rms(c)
DAV:   1    -0.124064270352E+03    0.20892E-02   -0.41588E-01  8256   0.244E+00    0.117E-01
DAV:   2    -0.124064192672E+03    0.77680E-04   -0.49727E-03 12144   0.277E-01    0.711E-02
DAV:   3    -0.124064123235E+03    0.69437E-04   -0.52506E-04 11088   0.782E-02    0.196E-02
DAV:   4    -0.124064125016E+03   -0.17809E-05   -0.70803E-05 14112   0.295E-02    0.738E-03
DAV:   5    -0.124064125425E+03   -0.40973E-06   -0.33542E-06 11424   0.780E-03
  76 F= -.12591398E+03 E0= -.12591111E+03  d E =-.304948E-03  mag=     0.0000
 curvature: -12.58 expect dE=-0.310E-02 dE for cont linesearch -0.437E-04
 ZBRENT: increasing intervall
 opt :   0.9924  next Energy=  -125.913926 (dE=-0.248E-03)
 bond charge predicted
       N       E                     dE             d eps       ncg     rms          rms(c)
DAV:   1    -0.124059762854E+03    0.43622E-02   -0.16634E+00  8256   0.488E+00    0.232E-01
DAV:   2    -0.124059477230E+03    0.28562E-03   -0.20085E-02 13680   0.553E-01    0.141E-01
DAV:   3    -0.124059186811E+03    0.29042E-03   -0.20513E-03 11904   0.152E-01    0.386E-02
DAV:   4    -0.124059187000E+03   -0.18968E-06   -0.25227E-04 15312   0.555E-02    0.147E-02
DAV:   5    -0.124059184854E+03    0.21462E-05   -0.95354E-06 14160   0.106E-02    0.437E-03
DAV:   6    -0.124059184738E+03    0.11619E-06   -0.11808E-06 10656   0.400E-03
  77 F= -.12591395E+03 E0= -.12591105E+03  d E =-.267422E-03  mag=     0.0000
 curvature:  16.31 expect dE= 0.116E-01 dE for cont linesearch  0.103E-03
 ZBRENT: bracketing found
 ZBRENT: interpolating
 opt :   0.6506  next Energy=  -125.914036 (dE=-0.358E-03)
 bond charge predicted
       N       E                     dE             d eps       ncg     rms          rms(c)
DAV:   1    -0.124062279280E+03   -0.30944E-02   -0.54743E-01  8256   0.280E+00    0.133E-01
DAV:   2    -0.124062175697E+03    0.10358E-03   -0.66537E-03 12288   0.318E-01    0.814E-02
DAV:   3    -0.124062096208E+03    0.79490E-04   -0.70067E-04 11712   0.890E-02    0.224E-02
DAV:   4    -0.124062100246E+03   -0.40384E-05   -0.80644E-05 10080   0.318E-02    0.847E-03
DAV:   5    -0.124062101858E+03   -0.16116E-05   -0.38220E-06 10992   0.685E-03    0.161E-03
DAV:   6    -0.124062102223E+03   -0.36494E-06   -0.41506E-07 12960   0.229E-03
  78 F= -.12591404E+03 E0= -.12591116E+03  d E =-.366149E-03  mag=     0.0000
 curvature:  -8.44 expect dE=-0.160E-02 dE for cont linesearch -0.477E-07
 trial: gam= 0.15045 g(F)=  0.190E-03 g(S)=  0.000E+00 ort = 0.169E-04 (trialstep = 0.210E+00)
 search vector abs. value=  0.134E-02
 bond charge predicted
       N       E                     dE             d eps       ncg     rms          rms(c)
DAV:   1    -0.124061877854E+03    0.22400E-03   -0.52067E-03  8256   0.277E-01    0.131E-02
DAV:   2    -0.124061876813E+03    0.10410E-05   -0.68498E-05 13440   0.324E-02    0.814E-03
DAV:   3    -0.124061876260E+03    0.55318E-06   -0.67093E-06 10608   0.876E-03
  79 F= -.12591408E+03 E0= -.12591119E+03  d E =-.360688E-04  mag=     0.0000
 trial-energy change:   -0.000036  1 .order   -0.000035   -0.000040   -0.000030
 step:   0.8153(harm=  0.8153)  dis= 0.00261  next Energy=  -125.914123 (dE=-0.784E-04)
 bond charge predicted
       N       E                     dE             d eps       ncg     rms          rms(c)
DAV:   1    -0.124061185046E+03    0.69177E-03   -0.43700E-02  8256   0.802E-01    0.389E-02
DAV:   2    -0.124061173176E+03    0.11869E-04   -0.53791E-04  8256   0.915E-02    0.237E-02
DAV:   3    -0.124061167162E+03    0.60147E-05   -0.62262E-05 10080   0.276E-02    0.678E-03
DAV:   4    -0.124061167799E+03   -0.63765E-06   -0.83280E-06  9360   0.989E-03
  80 F= -.12591413E+03 E0= -.12591124E+03  d E =-.859358E-04  mag=     0.0000
 curvature:  -2.85 expect dE=-0.315E-03 dE for cont linesearch -0.996E-06
 trial: gam= 0.48118 g(F)=  0.111E-03 g(S)=  0.000E+00 ort = 0.217E-04 (trialstep = 0.331E+00)
 search vector abs. value=  0.443E-03
 bond charge predicted
       N       E                     dE             d eps       ncg     rms          rms(c)
DAV:   1    -0.124060997537E+03    0.16963E-03   -0.39253E-03  8256   0.246E-01    0.117E-02
DAV:   2    -0.124060996864E+03    0.67210E-06   -0.50612E-05  8256   0.289E-02    0.717E-03
DAV:   3    -0.124060996233E+03    0.63142E-06   -0.52490E-06 12240   0.863E-03
  81 F= -.12591416E+03 E0= -.12591127E+03  d E =-.318373E-04  mag=    -0.0000
 trial-energy change:   -0.000032  1 .order   -0.000031   -0.000040   -0.000023
 step:   0.7578(harm=  0.7578)  dis= 0.00183  next Energy=  -125.914176 (dE=-0.459E-04)
 bond charge predicted
       N       E                     dE             d eps       ncg     rms          rms(c)
DAV:   1    -0.124060752620E+03    0.24424E-03   -0.65584E-03  8256   0.318E-01    0.158E-02
DAV:   2    -0.124060751031E+03    0.15895E-05   -0.82291E-05  9024   0.368E-02    0.966E-03
DAV:   3    -0.124060749992E+03    0.10382E-05   -0.90011E-06 10848   0.113E-02    0.276E-03
DAV:   4    -0.124060750114E+03   -0.12182E-06   -0.14523E-06  8928   0.504E-03
  82 F= -.12591418E+03 E0= -.12591129E+03  d E =-.485330E-04  mag=    -0.0000
 curvature:  -1.38 expect dE=-0.106E-03 dE for cont linesearch -0.109E-06
 trial: gam= 0.76756 g(F)=  0.763E-04 g(S)=  0.000E+00 ort = 0.590E-05 (trialstep = 0.416E+00)
 search vector abs. value=  0.346E-03
 bond charge predicted
       N       E                     dE             d eps       ncg     rms          rms(c)
DAV:   1    -0.124060579262E+03    0.17073E-03   -0.43859E-03  8256   0.261E-01    0.122E-02
DAV:   2    -0.124060579120E+03    0.14195E-06   -0.52190E-05  9264   0.296E-02    0.758E-03
DAV:   3    -0.124060578495E+03    0.62534E-06   -0.51092E-06 10080   0.891E-03
  83 F= -.12591421E+03 E0= -.12591131E+03  d E =-.264430E-04  mag=     0.0000
 trial-energy change:   -0.000026  1 .order   -0.000026   -0.000034   -0.000019
 step:   0.9322(harm=  0.9322)  dis= 0.00252  next Energy=  -125.914216 (dE=-0.377E-04)
 bond charge predicted
       N       E                     dE             d eps       ncg     rms          rms(c)
DAV:   1    -0.124060347249E+03    0.23187E-03   -0.67668E-03  8256   0.324E-01    0.155E-02
DAV:   2    -0.124060347048E+03    0.20088E-06   -0.79761E-05 10416   0.367E-02    0.965E-03
DAV:   3    -0.124060346130E+03    0.91783E-06   -0.79800E-06 10800   0.112E-02
  84 F= -.12591422E+03 E0= -.12591132E+03  d E =-.398200E-04  mag=    -0.0000
 curvature:  -2.00 expect dE=-0.213E-03 dE for cont linesearch -0.334E-07
 trial: gam= 1.35034 g(F)=  0.107E-03 g(S)=  0.000E+00 ort = 0.241E-05 (trialstep = 0.241E+00)
 search vector abs. value=  0.745E-03
 bond charge predicted
       N       E                     dE             d eps       ncg     rms          rms(c)
DAV:   1    -0.124060220950E+03    0.12610E-03   -0.28405E-03  8256   0.210E-01    0.978E-03
DAV:   2    -0.124060221425E+03   -0.47482E-06   -0.32214E-05 10176   0.239E-02    0.620E-03
DAV:   3    -0.124060221422E+03    0.31214E-08   -0.33221E-06 10080   0.822E-03
  85 F= -.12591424E+03 E0= -.12591135E+03  d E =-.260896E-04  mag=     0.0000
 ZBRENT: can't locate minimum, use default step
 trial-energy change:   -0.000026  1 .order   -0.000025   -0.000027   -0.000024
 step:   0.9658(harm=  2.5080)  dis= 0.00424  next Energy=  -125.914356 (dE=-0.138E-03)
 bond charge predicted
       N       E                     dE             d eps       ncg     rms          rms(c)
DAV:   1    -0.124059827991E+03    0.39343E-03   -0.25420E-02  8256   0.627E-01    0.281E-02
DAV:   2    -0.124059831737E+03   -0.37457E-05   -0.27672E-04 10944   0.681E-02    0.175E-02
DAV:   3    -0.124059829515E+03    0.22218E-05   -0.22168E-05 10656   0.184E-02    0.511E-03
DAV:   4    -0.124059830071E+03   -0.55585E-06   -0.57133E-06 10512   0.115E-02
  86 F= -.12591431E+03 E0= -.12591141E+03  d E =-.873189E-04  mag=     0.0000
 curvature:  -4.56 expect dE=-0.311E-03 dE for cont linesearch -0.266E-04
 ZBRENT: increasing intervall
 opt :   2.4145  next Energy=  -125.914353 (dE=-0.134E-03)
 bond charge predicted
       N       E                     dE             d eps       ncg     rms          rms(c)
DAV:   1    -0.124058964814E+03    0.86470E-03   -0.10165E-01  8256   0.125E+00    0.560E-02
DAV:   2    -0.124058979765E+03   -0.14951E-04   -0.10967E-03 11952   0.134E-01    0.347E-02
DAV:   3    -0.124058968469E+03    0.11296E-04   -0.82853E-05 11088   0.332E-02    0.999E-03
DAV:   4    -0.124058969232E+03   -0.76282E-06   -0.13550E-05 13152   0.157E-02    0.318E-03
DAV:   5    -0.124058969463E+03   -0.23174E-06   -0.43878E-06 10704   0.100E-02
  87 F= -.12591435E+03 E0= -.12591145E+03  d E =-.132653E-03  mag=    -0.0000
 curvature:  -8.04 expect dE=-0.176E-02 dE for cont linesearch -0.177E-06
 trial: gam= 2.14798 g(F)=  0.219E-03 g(S)=  0.000E+00 ort =-0.404E-05 (trialstep = 0.138E+00)
 search vector abs. value=  0.364E-02
 bond charge predicted
       N       E                     dE             d eps       ncg     rms          rms(c)
DAV:   1    -0.124058812776E+03    0.15646E-03   -0.44302E-03  8544   0.263E-01    0.117E-02
DAV:   2    -0.124058813697E+03   -0.92049E-06   -0.50958E-05 13632   0.289E-02    0.729E-03
DAV:   3    -0.124058813252E+03    0.44448E-06   -0.34774E-06  9600   0.734E-03
  88 F= -.12591438E+03 E0= -.12591147E+03  d E =-.253843E-04  mag=     0.0000
 ZBRENT: can't locate minimum, use default step
 trial-energy change:   -0.000025  1 .order   -0.000026   -0.000029   -0.000023
 step:   0.5536(harm=  0.6499)  dis= 0.00533  next Energy=  -125.914420 (dE=-0.685E-04)
 bond charge predicted
       N       E                     dE             d eps       ncg     rms          rms(c)
DAV:   1    -0.124058310976E+03    0.50272E-03   -0.39782E-02  8256   0.788E-01    0.358E-02
DAV:   2    -0.124058316243E+03   -0.52670E-05   -0.43541E-04 12000   0.846E-02    0.222E-02
DAV:   3    -0.124058311730E+03    0.45137E-05   -0.31318E-05 10512   0.207E-02    0.653E-03
DAV:   4    -0.124058312055E+03   -0.32542E-06   -0.56009E-06 11040   0.103E-02
  89 F= -.12591442E+03 E0= -.12591151E+03  d E =-.690760E-04  mag=     0.0000
 curvature:  -5.41 expect dE=-0.361E-03 dE for cont linesearch -0.221E-05
 ZBRENT: extrapolating
 opt :   0.6791  next Energy=  -125.914423 (dE=-0.715E-04)
 bond charge predicted
       N       E                     dE             d eps       ncg     rms          rms(c)
DAV:   1    -0.124058149161E+03    0.16257E-03   -0.36486E-03  8256   0.239E-01    0.109E-02
DAV:   2    -0.124058150033E+03   -0.87148E-06   -0.42970E-05 12576   0.274E-02    0.689E-03
DAV:   3    -0.124058149865E+03    0.16735E-06   -0.35835E-06  9888   0.848E-03
  90 F= -.12591442E+03 E0= -.12591152E+03  d E =-.716874E-04  mag=    -0.0000
 curvature:  -5.93 expect dE=-0.467E-03 dE for cont linesearch -0.953E-09
 trial: gam= 0.25746 g(F)=  0.788E-04 g(S)=  0.000E+00 ort =-0.765E-06 (trialstep = 0.247E+00)
 search vector abs. value=  0.320E-03
 bond charge predicted
       N       E                     dE             d eps       ncg     rms          rms(c)
DAV:   1    -0.124058090823E+03    0.59210E-04   -0.13568E-03  8448   0.150E-01    0.746E-03
DAV:   2    -0.124058090821E+03    0.17380E-08   -0.16062E-05 10656   0.183E-02    0.464E-03
DAV:   3    -0.124058091125E+03   -0.30358E-06   -0.29472E-06  8832   0.858E-03
  91 F= -.12591444E+03 E0= -.12591153E+03  d E =-.153552E-04  mag=     0.0000
 trial-energy change:   -0.000015  1 .order   -0.000015   -0.000019   -0.000010
 step:   0.5058(harm=  0.5058)  dis= 0.00129  next Energy=  -125.914443 (dE=-0.199E-04)
 bond charge predicted
       N       E                     dE             d eps       ncg     rms          rms(c)
DAV:   1    -0.124058018443E+03    0.72378E-04   -0.14987E-03  8880   0.158E-01    0.771E-03
DAV:   2    -0.124058018466E+03   -0.23608E-07   -0.16751E-05 12528   0.182E-02    0.478E-03
DAV:   3    -0.124058018628E+03   -0.16208E-06   -0.26006E-06  8880   0.783E-03
  92 F= -.12591444E+03 E0= -.12591154E+03  d E =-.207933E-04  mag=    -0.0000
 curvature:  -1.03 expect dE=-0.651E-04 dE for cont linesearch -0.247E-12
 trial: gam= 0.80935 g(F)=  0.633E-04 g(S)=  0.000E+00 ort = 0.877E-08 (trialstep = 0.298E+00)
 search vector abs. value=  0.273E-03
 bond charge predicted
       N       E                     dE             d eps       ncg     rms          rms(c)
DAV:   1    -0.124057972541E+03    0.45925E-04   -0.16791E-03  8256   0.167E-01    0.774E-03
DAV:   2    -0.124057972534E+03    0.77271E-08   -0.16968E-05 12240   0.183E-02    0.486E-03
DAV:   3    -0.124057972931E+03   -0.39787E-06   -0.28477E-06  8784   0.798E-03
  93 F= -.12591446E+03 E0= -.12591156E+03  d E =-.164505E-04  mag=     0.0000
 trial-energy change:   -0.000016  1 .order   -0.000016   -0.000019   -0.000013
 step:   0.9430(harm=  0.9430)  dis= 0.00201  next Energy=  -125.914473 (dE=-0.299E-04)
 bond charge predicted
       N       E                     dE             d eps       ncg     rms          rms(c)
DAV:   1    -0.124057853557E+03    0.11898E-03   -0.78300E-03  8256   0.360E-01    0.165E-02
DAV:   2    -0.124057853687E+03   -0.13067E-06   -0.74189E-05 11232   0.369E-02    0.103E-02
DAV:   3    -0.124057853405E+03    0.28221E-06   -0.88801E-06  9696   0.125E-02
  94 F= -.12591447E+03 E0= -.12591157E+03  d E =-.312361E-04  mag=    -0.0000
 curvature:  -2.03 expect dE=-0.153E-03 dE for cont linesearch -0.179E-08
 trial: gam= 1.19650 g(F)=  0.755E-04 g(S)=  0.000E+00 ort =-0.490E-06 (trialstep = 0.251E+00)
 search vector abs. value=  0.465E-03
 bond charge predicted
       N       E                     dE             d eps       ncg     rms          rms(c)
