Lattice                                 
           1
     4.321467    2.495000    0.000000
    -4.321467    2.495000    0.000000
     0.000000    0.000000   15.000000
   B    C 
     2    14
Direct configuration=     1
   0.33833034  0.66916432  0.10000000
   0.67165522  0.33584146  0.10000000
   0.16373946  0.31999962  0.10000000
   0.32250218  0.16126397  0.10000000
   0.16376430  0.84376384  0.10000000
   0.84623863  0.16123684  0.10000000
   0.68749850  0.84373000  0.10000000
   0.84626736  0.68499594  0.10000000
   0.24999933  0.24999967  0.32633333
   0.41666633  0.08333267  0.32633333
   0.24999933  0.74999967  0.32633333
   0.41666633  0.58333267  0.32633333
   0.74999933  0.24999967  0.32633333
   0.91666633  0.08333267  0.32633333
   0.74999933  0.74999967  0.32633333
   0.91666633  0.58333267  0.32633333
Direct configuration=     2
   0.33843753  0.66906129  0.10013654
   0.67179053  0.33570571  0.10008004
   0.16866670  0.32980817  0.09995006
   0.33201118  0.16604747  0.09998125
   0.16850419  0.83901706  0.09996268
   0.84130854  0.16614644  0.09996351
   0.67770525  0.83882656  0.09995064
   0.84145858  0.67550116  0.09998149
   0.24987001  0.24960982  0.32640026
   0.41630793  0.08328027  0.32639018
   0.24982123  0.75018906  0.32626868
   0.41677441  0.58322135  0.32622890
   0.75003494  0.24995521  0.32620924
   0.91686200  0.08312975  0.32637638
   0.75039013  0.75013613  0.32640168
   0.91671552  0.58368988  0.32638513
Direct configuration=     3
   0.33835706  0.66913864  0.10003403
   0.67168894  0.33580763  0.10001995
   0.16496747  0.32244420  0.09998755
   0.32487210  0.16245615  0.09999533
   0.16494562  0.84258081  0.09999070
   0.84500991  0.16246045  0.09999090
   0.68505774  0.84250792  0.09998770
   0.84506887  0.68262957  0.09999539
   0.24996710  0.24990250  0.32635001
   0.41657701  0.08331961  0.32634750
   0.24995495  0.75004687  0.32631722
   0.41669327  0.58330492  0.32630731
   0.75000821  0.24998859  0.32630241
   0.91671510  0.08328209  0.32634406
   0.75009673  0.75003368  0.32635037
   0.91667859  0.58342169  0.32634624
Direct configuration=     4
   0.33835703  0.66913867  0.10003399
   0.67168890  0.33580767  0.10001992
   0.16496599  0.32244125  0.09998757
   0.32486924  0.16245472  0.09999533
   0.16494419  0.84258223  0.09999071
   0.84501139  0.16245898  0.09999092
   0.68506069  0.84250940  0.09998771
   0.84507031  0.68263242  0.09999539
   0.24996714  0.24990262  0.32634999
   0.41657712  0.08331962  0.32634749
   0.24995500  0.75004681  0.32631724
   0.41669324  0.58330496  0.32630734
   0.75000820  0.24998860  0.32630244
   0.91671504  0.08328215  0.32634405
   0.75009661  0.75003364  0.32635035
   0.91667858  0.58342159  0.32634623
Direct configuration=     5
   0.33835665  0.66914426  0.10012187
   0.67168694  0.33581103  0.10007005
   0.16491886  0.32244827  0.09995647
   0.32487589  0.16249231  0.09998130
   0.16492705  0.84258509  0.09997096
   0.84503644  0.16245035  0.09996474
   0.68504709  0.84256221  0.09995691
   0.84502617  0.68262808  0.09998170
   0.24996038  0.24985620  0.32639571
   0.41655704  0.08329626  0.32638275
   0.24994239  0.75005884  0.32627601
   0.41671488  0.58328398  0.32623809
   0.75001329  0.24998163  0.32622325
   0.91675191  0.08324530  0.32637174
   0.75014146  0.75003932  0.32639694
   0.91670222  0.58344221  0.32637818
Direct configuration=     6
   0.33835650  0.66914637  0.10015500
   0.67168620  0.33581230  0.10008895
   0.16490109  0.32245091  0.09994475
   0.32487840  0.16250648  0.09997601
   0.16492059  0.84258617  0.09996351
   0.84504588  0.16244709  0.09995487
   0.68504197  0.84258212  0.09994530
   0.84500953  0.68262645  0.09997654
   0.24995783  0.24983870  0.32641295
   0.41654947  0.08328746  0.32639605
   0.24993764  0.75006337  0.32626047
   0.41672304  0.58327607  0.32621198
   0.75001521  0.24997900  0.32619339
   0.91676581  0.08323141  0.32638217
   0.75015836  0.75004146  0.32641450
   0.91671113  0.58344999  0.32639022
Direct configuration=     7
   0.33829867  0.66918568  0.10023589
   0.67169172  0.33581253  0.10014121
   0.16504268  0.32249392  0.09992139
   0.32479210  0.16246045  0.09995741
   0.16488196  0.84263577  0.09995785
   0.84494255  0.16253358  0.09991792
   0.68502510  0.84247473  0.09992242
   0.84502660  0.68270517  0.09995843
   0.25001975  0.24989201  0.32645028
   0.41663247  0.08329923  0.32640684
   0.25001042  0.74999127  0.32622910
   0.41671342  0.58328156  0.32616350
   0.75005187  0.24994588  0.32615027
   0.91672558  0.08326903  0.32640373
   0.75010751  0.74998105  0.32645190
   0.91669626  0.58336348  0.32639854
Direct configuration=     8
   0.33833313  0.66916226  0.10018770
   0.67168843  0.33581239  0.10011008
   0.16495832  0.32246830  0.09993531
   0.32484352  0.16248788  0.09996849
   0.16490498  0.84260621  0.09996122
   0.84500412  0.16248205  0.09993994
   0.68503515  0.84253871  0.09993606
   0.84501643  0.68265827  0.09996922
   0.24998286  0.24986025  0.32642804
   0.41658302  0.08329222  0.32640041
   0.24996706  0.75003423  0.32624779
   0.41671915  0.58327829  0.32619239
   0.75003003  0.24996561  0.32617596
   0.91674955  0.08324661  0.32639089
   0.75013781  0.75001704  0.32642962
   0.91670512  0.58341502  0.32639358
Direct configuration=     9
   0.33831210  0.66918661  0.10021409
   0.67165192  0.33584391  0.10013002
   0.16492938  0.32248361  0.09993019
   0.32485463  0.16247361  0.09996026
   0.16487536  0.84262162  0.09996913
   0.84501429  0.16248932  0.09991814
   0.68501254  0.84256307  0.09993132
   0.84503688  0.68265478  0.09996133
   0.25000618  0.24987583  0.32643507
   0.41662215  0.08328644  0.32638861
   0.24999389  0.75000645  0.32624093
   0.41672644  0.58327023  0.32618997
   0.75004445  0.24995130  0.32618344
   0.91674588  0.08325004  0.32639666
   0.75012197  0.74999317  0.32643609
   0.91671058  0.58337537  0.32638141
Direct configuration=    10
   0.33831917  0.66917843  0.10020523
   0.67166418  0.33583332  0.10012332
   0.16493910  0.32247846  0.09993191
   0.32485090  0.16247840  0.09996302
   0.16488531  0.84261645  0.09996647
   0.84501088  0.16248688  0.09992546
   0.68502014  0.84255489  0.09993291
   0.84503001  0.68265595  0.09996398
   0.24999835  0.24987060  0.32643271
   0.41660901  0.08328838  0.32639257
   0.24998488  0.75001578  0.32624323
   0.41672399  0.58327293  0.32619078
   0.75003961  0.24995611  0.32618093
   0.91674712  0.08324889  0.32639472
   0.75012729  0.75000119  0.32643392
   0.91670875  0.58338869  0.32638550
Direct configuration=    11
   0.33829965  0.66919738  0.10022516
   0.67165054  0.33584924  0.10013767
   0.16492870  0.32248413  0.09992739
   0.32483853  0.16250466  0.09995845
   0.16488216  0.84262098  0.09997588
   0.84500076  0.16249794  0.09990637
   0.68501614  0.84257204  0.09992882
   0.84499783  0.68266552  0.09995977
   0.25000824  0.24985351  0.32643441
   0.41661909  0.08327235  0.32637964
   0.24999396  0.75000600  0.32623806
   0.41673967  0.58325718  0.32619519
   0.75005086  0.24994395  0.32619281
   0.91676439  0.08323143  0.32639957
   0.75014353  0.74999051  0.32643501
   0.91672462  0.58337850  0.32637247
Direct configuration=    12
   0.33828699  0.66920967  0.10023809
   0.67164169  0.33585957  0.10014697
   0.16492195  0.32248781  0.09992446
   0.32483051  0.16252170  0.09995548
   0.16488013  0.84262392  0.09998198
   0.84499421  0.16250511  0.09989400
   0.68501355  0.84258316  0.09992617
   0.84497696  0.68267172  0.09995704
   0.25001465  0.24984243  0.32643551
   0.41662563  0.08326196  0.32637126
   0.24999984  0.74999966  0.32623471
   0.41674983  0.58324696  0.32619805
   0.75005815  0.24993606  0.32620052
   0.91677559  0.08322011  0.32640272
   0.75015407  0.74998359  0.32643571
   0.91673492  0.58337190  0.32636401
Direct configuration=    13
   0.33828601  0.66921232  0.10025372
   0.67163591  0.33586478  0.10015426
   0.16490957  0.32251737  0.09991716
   0.32480726  0.16252475  0.09995797
   0.16484874  0.84264956  0.09999246
   0.84497376  0.16252922  0.09987807
   0.68498439  0.84259624  0.09991943
   0.84497416  0.68269893  0.09996000
   0.25002777  0.24981318  0.32643270
   0.41662868  0.08324472  0.32636302
   0.25001191  0.74998769  0.32622812
   0.41676548  0.58323043  0.32620530
   0.75007503  0.24991892  0.32620794
   0.91679571  0.08319892  0.32640836
   0.75018315  0.74997043  0.32643241
   0.91675114  0.58336788  0.32635575
Direct configuration=    14
   0.33828569  0.66921318  0.10025878
   0.67163403  0.33586647  0.10015662
   0.16490556  0.32252695  0.09991480
   0.32479972  0.16252574  0.09995877
   0.16483858  0.84265787  0.09999585
   0.84496714  0.16253702  0.09987291
   0.68497495  0.84260047  0.09991725
   0.84497326  0.68270775  0.09996096
   0.25003202  0.24980371  0.32643179
   0.41662967  0.08323913  0.32636035
   0.25001582  0.74998381  0.32622599
   0.41677055  0.58322508  0.32620764
   0.75008049  0.24991336  0.32621035
   0.91680223  0.08319206  0.32641019
   0.75019256  0.74996616  0.32643134
   0.91675639  0.58336657  0.32635308
Direct configuration=    15
   0.33826722  0.66923228  0.10026756
   0.67161693  0.33588495  0.10015612
   0.16488287  0.32254414  0.09990516
   0.32478048  0.16254864  0.09996906
   0.16482093  0.84267560  0.10000884
   0.84494817  0.16255737  0.09986027
   0.68495860  0.84262514  0.09990829
   0.84494944  0.68272693  0.09997186
   0.25005329  0.24978830  0.32642641
   0.41665342  0.08322051  0.32635848
   0.25003776  0.74996112  0.32621916
   0.41678894  0.58320596  0.32621353
   0.75010019  0.24989310  0.32621040
   0.91681870  0.08317495  0.32641459
   0.75020738  0.74994423  0.32642574
   0.91677434  0.58334211  0.32635121
Direct configuration=    16
   0.33821180  0.66928956  0.10029389
   0.67156562  0.33594041  0.10015461
   0.16481482  0.32259571  0.09987624
   0.32472276  0.16261736  0.09999994
   0.16476799  0.84272879  0.10004779
   0.84489128  0.16261842  0.09982235
   0.68490955  0.84269914  0.09988141
   0.84487800  0.68278449  0.10000456
   0.25011709  0.24974207  0.32641027
   0.41672468  0.08316466  0.32635287
   0.25010357  0.74989304  0.32619866
   0.41684411  0.58314859  0.32623121
   0.75015927  0.24983232  0.32621056
   0.91686812  0.08312365  0.32642779
   0.75025183  0.74987842  0.32640893
   0.91682818  0.58326870  0.32634559
Direct configuration=    17
   0.33810097  0.66940412  0.10034654
   0.67146301  0.33605131  0.10015160
   0.16467872  0.32269886  0.09981840
   0.32460731  0.16275480  0.10006170
   0.16466212  0.84283518  0.10012570
   0.84477749  0.16274053  0.09974650
   0.68481145  0.84284714  0.09982766
   0.84473511  0.68289960  0.10006996
   0.25024469  0.24964960  0.32637799
   0.41686718  0.08305295  0.32634165
   0.25023518  0.74975690  0.32615766
   0.41695445  0.58303387  0.32626656
   0.75027745  0.24971074  0.32621089
   0.91696695  0.08302104  0.32645420
   0.75034073  0.74974682  0.32637531
   0.91693586  0.58312189  0.32633436
Direct configuration=    18
   0.33817843  0.66932406  0.10030974
   0.67153472  0.33597380  0.10015370
   0.16477383  0.32262678  0.09985882
   0.32468799  0.16265875  0.10001854
   0.16473611  0.84276083  0.10007125
   0.84485701  0.16265520  0.09979951
   0.68488001  0.84274371  0.09986522
   0.84483497  0.68281915  0.10002425
   0.25015552  0.24971422  0.32640054
   0.41676759  0.08313101  0.32634949
   0.25014320  0.74985204  0.32618631
   0.41687734  0.58311404  0.32624185
   0.75019486  0.24979570  0.32621066
   0.91689788  0.08309275  0.32643575
   0.75027860  0.74983879  0.32639880
   0.91686061  0.58322449  0.32634221
Direct configuration=    19
   0.33816794  0.66933495  0.10031159
   0.67152276  0.33598568  0.10015346
   0.16476533  0.32263733  0.09985525
   0.32467882  0.16266710  0.10002325
   0.16472593  0.84277087  0.10007935
   0.84484795  0.16266516  0.09979255
   0.68486956  0.84275256  0.09986199
   0.84482711  0.68282898  0.10002928
   0.25016460  0.24970351  0.32639952
   0.41677669  0.08312048  0.32634859
   0.25015208  0.74984280  0.32618476
   0.41688759  0.58310354  0.32624200
   0.75020418  0.24978596  0.32621024
   0.91690838  0.08308197  0.32643580
   0.75028891  0.74982932  0.32639775
   0.91687086  0.58321512  0.32634130
Direct configuration=    20
   0.33813649  0.66936760  0.10031712
   0.67148686  0.33602131  0.10015272
   0.16473982  0.32266899  0.09984453
   0.32465131  0.16269214  0.10003737
   0.16469540  0.84280098  0.10010364
   0.84482077  0.16269504  0.09977167
   0.68483824  0.84277912  0.09985231
   0.84480353  0.68285848  0.10004435
   0.25019184  0.24967139  0.32639646
   0.41680397  0.08308889  0.32634587
   0.25017870  0.74981505  0.32618009
   0.41691832  0.58307205  0.32624245
   0.75023213  0.24975674  0.32620898
   0.91693986  0.08304962  0.32643597
   0.75031983  0.74980092  0.32639459
   0.91690162  0.58318702  0.32633855
Direct configuration=    21
   0.33807358  0.66943292  0.10032818
   0.67141508  0.33609256  0.10015125
   0.16468880  0.32273230  0.09982310
   0.32459628  0.16274223  0.10006561
   0.16463433  0.84286121  0.10015223
   0.84476640  0.16275480  0.09972992
   0.68477558  0.84283224  0.09983294
   0.84475638  0.68291746  0.10007450
   0.25024632  0.24960714  0.32639034
   0.41685853  0.08302570  0.32634044
   0.25023194  0.74975956  0.32617075
   0.41697979  0.58300906  0.32624333
   0.75028802  0.24969829  0.32620645
   0.91700283  0.08298494  0.32643631
   0.75038168  0.74974412  0.32638826
   0.91696313  0.58313082  0.32633306
Direct configuration=    22
   0.33794777  0.66956355  0.10035031
   0.67127150  0.33623506  0.10014832
   0.16458675  0.32285893  0.09978024
   0.32448624  0.16284240  0.10012209
   0.16451219  0.84298166  0.10024939
   0.84465767  0.16287432  0.09964643
   0.68465027  0.84293847  0.09979420
   0.84466209  0.68303543  0.10013479
   0.25035527  0.24947864  0.32637808
   0.41696766  0.08289931  0.32632958
   0.25033842  0.74964858  0.32615207
   0.41710272  0.58288309  0.32624511
   0.75039981  0.24958138  0.32620140
   0.91712876  0.08285556  0.32643698
   0.75050537  0.74963053  0.32637561
   0.91708616  0.58301842  0.32632208
Direct configuration=    23
   0.33769614  0.66982480  0.10039457
   0.67098435  0.33652006  0.10014244
   0.16438267  0.32311219  0.09969451
   0.32426615  0.16304274  0.10023506
   0.16426792  0.84322257  0.10044372
   0.84444021  0.16311336  0.09947943
   0.68439964  0.84315093  0.09971672
   0.84447349  0.68327138  0.10025538
   0.25057319  0.24922164  0.32635358
   0.41718592  0.08264655  0.32630786
   0.25055139  0.74942663  0.32611471
   0.41734860  0.58263115  0.32624866
   0.75062339  0.24934758  0.32619129
   0.91738063  0.08259681  0.32643831
   0.75075275  0.74940333  0.32635031
   0.91733222  0.58279361  0.32630011
Direct configuration=    24
   0.33719288  0.67034731  0.10048308
   0.67041006  0.33709007  0.10013068
   0.16397450  0.32361870  0.09952306
   0.32382597  0.16344343  0.10046100
   0.16377937  0.84370438  0.10083239
   0.84400530  0.16359144  0.09914544
   0.68389840  0.84357586  0.09956176
   0.84409629  0.68374326  0.10049655
   0.25100902  0.24870764  0.32630458
   0.41762242  0.08214102  0.32626443
   0.25097732  0.74898272  0.32603999
   0.41784034  0.58212726  0.32625577
   0.75107055  0.24887998  0.32617107
   0.91788437  0.08207932  0.32644099
   0.75124751  0.74894894  0.32629971
   0.91782434  0.58234400  0.32625618
Direct configuration=    25
   0.33745417  0.67007603  0.10043713
   0.67070823  0.33679413  0.10013679
   0.16418642  0.32335572  0.09961207
   0.32405451  0.16323540  0.10034369
   0.16403302  0.84345423  0.10063059
   0.84423110  0.16334322  0.09931885
   0.68415864  0.84335524  0.09964221
   0.84429213  0.68349826  0.10037133
   0.25078274  0.24897451  0.32633002
   0.41739579  0.08240349  0.32628698
   0.25075618  0.74921319  0.32607878
   0.41758503  0.58238888  0.32625208
   0.75083839  0.24912276  0.32618157
   0.91762283  0.08234800  0.32643960
   0.75099064  0.74918486  0.32632598
   0.91756884  0.58257744  0.32627899
Direct configuration=    26
   0.33744343  0.67008702  0.10043869
   0.67069736  0.33680535  0.10013672
   0.16417700  0.32336633  0.09960849
   0.32404387  0.16324566  0.10034853
   0.16402291  0.84346472  0.10063952
   0.84422058  0.16335413  0.09931123
   0.68414850  0.84336536  0.09963900
   0.84428192  0.68350916  0.10037651
   0.25079301  0.24896349  0.32632922
   0.41740578  0.08239276  0.32628599
   0.25076638  0.74920265  0.32607747
   0.41759541  0.58237814  0.32625178
   0.75084871  0.24911208  0.32618109
   0.91763329  0.08233718  0.32643930
   0.75100131  0.74917424  0.32632515
   0.91757920  0.58256708  0.32627799
Direct configuration=    27
   0.33741123  0.67012000  0.10044338
   0.67066475  0.33683901  0.10013651
   0.16414872  0.32339817  0.09959775
   0.32401195  0.16327644  0.10036302
   0.16399257  0.84349618  0.10066632
   0.84418902  0.16338687  0.09928837
   0.68411808  0.84339572  0.09962935
   0.84425130  0.68354186  0.10039203
   0.25082383  0.24893043  0.32632680
   0.41743576  0.08236057  0.32628303
   0.25079699  0.74917101  0.32607354
   0.41762655  0.58234594  0.32625087
   0.75087966  0.24908004  0.32617963
   0.91766464  0.08230472  0.32643838
   0.75103333  0.74914238  0.32632267
   0.91761029  0.58253601  0.32627500
Direct configuration=    28
   0.33734682  0.67018595  0.10045276
   0.67059952  0.33690633  0.10013610
   0.16409217  0.32346186  0.09957627
   0.32394811  0.16333800  0.10039201
   0.16393189  0.84355910  0.10071990
   0.84412588  0.16345234  0.09924267
   0.68405723  0.84345644  0.09961006
   0.84419006  0.68360725  0.10042307
   0.25088547  0.24886431  0.32632197
   0.41749572  0.08229619  0.32627712
   0.25085820  0.74910775  0.32606568
   0.41768884  0.58228153  0.32624907
   0.75094158  0.24901596  0.32617673
   0.91772736  0.08223980  0.32643654
   0.75109736  0.74907867  0.32631770
   0.91767246  0.58247386  0.32626901
Direct configuration=    29
   0.33721801  0.67031786  0.10047153
   0.67046908  0.33704097  0.10013528
   0.16397907  0.32358922  0.09953331
   0.32382043  0.16346113  0.10044999
   0.16381052  0.84368494  0.10082706
   0.84399962  0.16358329  0.09915125
   0.68393554  0.84357789  0.09957149
   0.84406758  0.68373803  0.10048516
   0.25100874  0.24873206  0.32631231
   0.41761563  0.08216744  0.32626528
   0.25098061  0.74898121  0.32604996
   0.41781341  0.58215272  0.32624545
   0.75106540  0.24888780  0.32617092
   0.91785279  0.08210996  0.32643287
   0.75122543  0.74895125  0.32630776
   0.91779681  0.58234957  0.32625704
Direct configuration=    30
   0.33696038  0.67058167  0.10050906
   0.67020818  0.33731026  0.10013364
   0.16375286  0.32384395  0.09944739
   0.32356506  0.16370738  0.10056595
   0.16356779  0.84393662  0.10104138
   0.84374710  0.16384518  0.09896843
   0.68369215  0.84382077  0.09949434
   0.84382261  0.68399960  0.10060935
   0.25125528  0.24846758  0.32629299
   0.41785546  0.08190994  0.32624161
   0.25122545  0.74872814  0.32601851
   0.41806254  0.58189509  0.32623821
   0.75131305  0.24863149  0.32615930
   0.91810366  0.08185028  0.32642552
   0.75148157  0.74869641  0.32628789
   0.91804552  0.58210098  0.32623309
Direct configuration=    31
   0.33644513  0.67110930  0.10058412
   0.66968640  0.33784884  0.10013036
   0.16330045  0.32435341  0.09927555
   0.32305434  0.16419989  0.10079788
   0.16308233  0.84443998  0.10147003
   0.84324205  0.16436896  0.09860277
   0.68320537  0.84430655  0.09934003
   0.84333267  0.68452274  0.10085771
   0.25174836  0.24793861  0.32625436
   0.41833511  0.08139493  0.32619427
   0.25171513  0.74822199  0.32595561
   0.41856081  0.58137983  0.32622375
   0.75180835  0.24811886  0.32613606
   0.91860539  0.08133092  0.32641083
   0.75199384  0.74818673  0.32624815
   0.91854292  0.58160381  0.32618520
Direct configuration=    32
   0.33541462  0.67216456  0.10073424
   0.66864283  0.33892599  0.10012379
   0.16239563  0.32537232  0.09893186
   0.32203289  0.16518490  0.10126173
   0.16211141  0.84544670  0.10232733
   0.84223196  0.16541653  0.09787147
   0.68223181  0.84527809  0.09903143
   0.84235280  0.68556901  0.10135443
   0.25273453  0.24688066  0.32617709
   0.41929442  0.08036491  0.32609959
   0.25269448  0.74720970  0.32582981
   0.41955735  0.58034932  0.32619481
   0.75279895  0.24709361  0.32608958
   0.91960886  0.08029220  0.32638145
   0.75301839  0.74716736  0.32616866
   0.91953774  0.58060947  0.32608942
Direct configuration=    33
   0.33335360  0.67427507  0.10103447
   0.66655569  0.34108030  0.10011066
   0.16058600  0.32741015  0.09824449
   0.31998998  0.16715493  0.10218942
   0.16016956  0.84746014  0.10404192
   0.84021178  0.16751167  0.09640886
   0.68028470  0.84722119  0.09841421
   0.84039306  0.68766155  0.10234787
   0.25470687  0.24476478  0.32602255
   0.42121303  0.07830488  0.32591023
   0.25465318  0.74518511  0.32557821
   0.42155044  0.57828829  0.32613693
   0.75478014  0.24504310  0.32599662
   0.92161579  0.07821476  0.32632269
   0.75506749  0.74512863  0.32600968
   0.92152736  0.57862079  0.32589786
Direct configuration=    34
   0.32923157  0.67849609  0.10163495
   0.66238141  0.34538890  0.10008439
   0.15696672  0.33148580  0.09686974
   0.31590417  0.17109498  0.10404481
   0.15628587  0.85148703  0.10747110
   0.83617141  0.17170195  0.09348363
   0.67639048  0.85110738  0.09717979
   0.83647357  0.69184664  0.10433476
   0.25865154  0.24053301  0.32571347
   0.42505025  0.07418481  0.32553151
   0.25857058  0.74113594  0.32507501
   0.42553660  0.57416624  0.32602118
   0.75874254  0.24094209  0.32581070
   0.92562966  0.07405988  0.32620516
   0.75916569  0.74105116  0.32569172
   0.92550661  0.57464343  0.32551474
Direct configuration=    35
   0.33284258  0.67479837  0.10110892
   0.66603818  0.34161445  0.10010740
   0.16013730  0.32791543  0.09807405
   0.31948344  0.16764339  0.10241944
   0.15968808  0.84795938  0.10446705
   0.83971087  0.16803116  0.09604620
   0.67980191  0.84770298  0.09826118
   0.83990714  0.68818040  0.10259419
   0.25519591  0.24424015  0.32598423
   0.42168875  0.07779409  0.32586328
   0.25513884  0.74468311  0.32551582
   0.42204462  0.57777726  0.32612258
   0.75527138  0.24453468  0.32597357
   0.92211341  0.07769966  0.32630812
   0.75557557  0.74462313  0.32597026
   0.92202069  0.57812770  0.32585037
Direct configuration=    36
   0.33271617  0.67492931  0.10112619
   0.66590808  0.34174908  0.10010838
   0.16000714  0.32804863  0.09803025
   0.31935407  0.16777458  0.10247876
   0.15955831  0.84809152  0.10457992
   0.83958272  0.16816584  0.09595004
   0.67967310  0.84783941  0.09822192
   0.83977858  0.68831412  0.10265782
   0.25532607  0.24410730  0.32597528
   0.42181802  0.07766166  0.32585125
   0.25526896  0.74454861  0.32550132
   0.42217297  0.57764436  0.32611671
   0.75540072  0.24440101  0.32596703
   0.92224107  0.07756743  0.32630250
   0.75570415  0.74448866  0.32596109
   0.92214854  0.57799382  0.32583820
Direct configuration=    37
   0.33233696  0.67532212  0.10117803
   0.66551776  0.34215296  0.10011131
   0.15961666  0.32844823  0.09789885
   0.31896594  0.16816813  0.10265673
   0.15916900  0.84848795  0.10491853
   0.83919828  0.16856990  0.09566156
   0.67928666  0.84824872  0.09810415
   0.83939290  0.68871527  0.10284869
   0.25571655  0.24370874  0.32594843
   0.42220583  0.07726438  0.32581516
   0.25565934  0.74414511  0.32545781
   0.42255803  0.57724565  0.32609908
   0.75578872  0.24400000  0.32594740
   0.92262406  0.07717075  0.32628565
   0.75608990  0.74408526  0.32593359
   0.92253210  0.57759217  0.32580172
Direct configuration=    38
   0.33157853  0.67610775  0.10128169
   0.66473713  0.34296071  0.10011716
   0.15883571  0.32924743  0.09763605
   0.31818969  0.16895524  0.10301265
   0.15839039  0.84928080  0.10559575
   0.83842938  0.16937800  0.09508459
   0.67851377  0.84906732  0.09786862
   0.83862153  0.68951757  0.10323043
   0.25649751  0.24291162  0.32589472
   0.42298146  0.07646982  0.32574298
   0.25644008  0.74333811  0.32537078
   0.42332813  0.57644825  0.32606383
   0.75656472  0.24319799  0.32590815
   0.92339003  0.07637739  0.32625195
   0.75686139  0.74327845  0.32587857
   0.92329922  0.57678888  0.32572874
Direct configuration=    39
   0.33006168  0.67767902  0.10148902
   0.66317586  0.34457621  0.10012888
   0.15727380  0.33084583  0.09711045
   0.31663719  0.17052945  0.10372450
   0.15683315  0.85086651  0.10695019
   0.83689159  0.17099420  0.09393065
   0.67696800  0.85070454  0.09739755
   0.83707879  0.69112218  0.10399391
   0.25805943  0.24131739  0.32578731
   0.42453271  0.07488070  0.32559861
   0.25800157  0.74172410  0.32519673
   0.42486835  0.57485343  0.32599333
   0.75811673  0.24159396  0.32582963
   0.92492197  0.07479067  0.32618455
   0.75840438  0.74166485  0.32576855
   0.92483346  0.57518230  0.32558280
Direct configuration=    40
   0.33057781  0.67714437  0.10141847
   0.66370710  0.34402651  0.10012489
   0.15780526  0.33030195  0.09728930
   0.31716546  0.16999380  0.10348229
   0.15736302  0.85032695  0.10648932
   0.83741485  0.17044427  0.09432329
   0.67749397  0.85014745  0.09755784
   0.83760373  0.69057619  0.10373412
   0.25752797  0.24185985  0.32582386
   0.42400487  0.07542143  0.32564774
   0.25747025  0.74227329  0.32525596
   0.42434427  0.57539609  0.32601732
   0.75758864  0.24213975  0.32585635
   0.92440071  0.07533057  0.32620748
   0.75787936  0.74221390  0.32580598
   0.92431141  0.57572897  0.32563246
Direct configuration=    41
   0.33058786  0.67714088  0.10140940
   0.66370515  0.34402956  0.10013539
   0.15773058  0.33033201  0.09728621
   0.31715815  0.17003242  0.10348742
   0.15732323  0.85035789  0.10651526
   0.83740550  0.17046104  0.09430188
   0.67745821  0.85021265  0.09755542
   0.83757476  0.69058944  0.10374013
   0.25755847  0.24185628  0.32582744
   0.42404892  0.07540219  0.32564785
   0.25750405  0.74223797  0.32526316
   0.42436431  0.57537492  0.32600558
   0.75761324  0.24211478  0.32585189
   0.92441400  0.07531680  0.32619712
   0.75788212  0.74218236  0.32580992
   0.92433014  0.57568414  0.32563262
Direct configuration=    42
   0.33061800  0.67713041  0.10138218
   0.66369928  0.34403869  0.10016690
   0.15750652  0.33042221  0.09727694
   0.31713624  0.17014828  0.10350281
   0.15720384  0.85045072  0.10659305
   0.83737743  0.17051136  0.09423765
   0.67735094  0.85040823  0.09754816
   0.83748786  0.69062918  0.10375814
   0.25764996  0.24184558  0.32583819
   0.42418105  0.07534448  0.32564818
   0.25760547  0.74213203  0.32528476
   0.42442443  0.57531141  0.32597035
   0.75768703  0.24203986  0.32583850
   0.92445388  0.07527546  0.32616603
   0.75789040  0.74208775  0.32582171
   0.92438634  0.57554967  0.32563311
Direct configuration=    43
   0.33067828  0.67710948  0.10132775
   0.66368755  0.34405696  0.10022991
   0.15705840  0.33060261  0.09725841
   0.31709241  0.17038001  0.10353360
   0.15696505  0.85063638  0.10674865
   0.83732130  0.17061200  0.09410918
   0.67713640  0.85079940  0.09753365
   0.83731406  0.69070865  0.10379415
   0.25783296  0.24182416  0.32585968
   0.42444532  0.07522906  0.32564884
   0.25780829  0.74192015  0.32532796
   0.42454468  0.57518439  0.32589990
   0.75783462  0.24189002  0.32581172
   0.92453365  0.07519280  0.32610386
   0.75790697  0.74189851  0.32584531
   0.92449873  0.57528073  0.32563410
Direct configuration=    44
   0.33068928  0.67710565  0.10131780
   0.66368541  0.34406029  0.10024142
   0.15697657  0.33063555  0.09725503
   0.31708440  0.17042233  0.10353923
   0.15692145  0.85067029  0.10677707
   0.83731105  0.17063038  0.09408571
   0.67709722  0.85087084  0.09753100
   0.83728232  0.69072317  0.10380073
   0.25786637  0.24182025  0.32586361
   0.42449358  0.07520799  0.32564896
   0.25784533  0.74188146  0.32533585
   0.42456663  0.57516119  0.32588704
   0.75786157  0.24186266  0.32580683
   0.92454822  0.07517771  0.32609250
   0.75791000  0.74186396  0.32584962
   0.92451925  0.57523162  0.32563428
Direct configuration=    45
   0.33066294  0.67712641  0.10128383
   0.66370847  0.34404853  0.10027425
   0.15697643  0.33065450  0.09725810
   0.31703386  0.17049690  0.10353541
   0.15692274  0.85069599  0.10681165
   0.83724854  0.17066509  0.09405819
   0.67709199  0.85088018  0.09753443
   0.83719878  0.69076250  0.10379817
   0.25789537  0.24180140  0.32587431
   0.42452604  0.07518385  0.32565841
   0.25787406  0.74185176  0.32536368
   0.42459025  0.57513631  0.32585572
   0.75788861  0.24183500  0.32579200
   0.92457033  0.07515468  0.32606286
   0.75792778  0.74183388  0.32586163
   0.92454249  0.57519835  0.32564404
Direct configuration=    46
   0.33058389  0.67718866  0.10118190
   0.66377764  0.34401324  0.10037273
   0.15697602  0.33071135  0.09726734
   0.31688224  0.17072064  0.10352395
   0.15692662  0.85077310  0.10691541
   0.83706101  0.17076921  0.09397563
   0.67707630  0.85090822  0.09754470
   0.83694816  0.69088051  0.10379047
   0.25798235  0.24174484  0.32590644
   0.42462341  0.07511143  0.32568675
   0.25796024  0.74176266  0.32544717
   0.42466111  0.57506165  0.32576176
   0.75796970  0.24175200  0.32574750
   0.92463665  0.07508559  0.32597392
   0.75798113  0.74174365  0.32589767
   0.92461221  0.57509857  0.32567333
Direct configuration=    47
   0.33052463  0.67725031  0.10113561
   0.66372629  0.34405609  0.10041635
   0.15696766  0.33073953  0.09726347
   0.31687519  0.17070033  0.10352296
   0.15689690  0.85080835  0.10693328
   0.83705623  0.17077470  0.09396401
   0.67704124  0.85089793  0.09754053
   0.83699011  0.69089788  0.10379060
   0.25799143  0.24169357  0.32591234
   0.42461114  0.07508406  0.32570885
   0.25796190  0.74176130  0.32548360
   0.42468467  0.57503735  0.32573084
   0.75798840  0.24173212  0.32572385