       N       E                     dE             d eps       ncg     rms          rms(c)
DAV:   1     0.187400846819E+03    0.18740E+03   -0.25374E+04  3648   0.862E+02
DAV:   2    -0.119068139278E+03   -0.30647E+03   -0.30581E+03  5808   0.158E+02
DAV:   3    -0.128142923345E+03   -0.90748E+01   -0.90512E+01  5664   0.363E+01
DAV:   4    -0.128180003122E+03   -0.37080E-01   -0.37079E-01  6144   0.208E+00
DAV:   5    -0.128180030073E+03   -0.26951E-04   -0.26951E-04  5184   0.639E-02    0.229E+01
DAV:   6    -0.946447054320E+02    0.33535E+02   -0.56978E+01  4752   0.216E+01    0.125E+01
DAV:   7    -0.105693726820E+03   -0.11049E+02   -0.14316E+01  5520   0.112E+01    0.675E+00
DAV:   8    -0.111457847709E+03   -0.57641E+01   -0.50391E+00  5280   0.645E+00    0.378E+00
DAV:   9    -0.116725757012E+03   -0.52679E+01   -0.27319E+00  4608   0.467E+00    0.254E+00
DAV:  10    -0.120916951241E+03   -0.41912E+01   -0.32804E+00  5616   0.477E+00    0.135E+00
DAV:  11    -0.122749151401E+03   -0.18322E+01   -0.14239E+00  5472   0.281E+00    0.824E-01
DAV:  12    -0.123746266913E+03   -0.99712E+00   -0.80431E-01  5664   0.195E+00    0.401E-01
DAV:  13    -0.124047867826E+03   -0.30160E+00   -0.18566E-01  5328   0.954E-01    0.196E-01
DAV:  14    -0.124099808950E+03   -0.51941E-01   -0.27021E-02  4656   0.393E-01    0.108E-01
DAV:  15    -0.124123280914E+03   -0.23472E-01   -0.15404E-02  4032   0.298E-01    0.579E-02
DAV:  16    -0.124124836356E+03   -0.15554E-02   -0.21632E-03  4272   0.176E-01    0.372E-02
DAV:  17    -0.124125337802E+03   -0.50145E-03   -0.77796E-04  3936   0.962E-02    0.148E-02
DAV:  18    -0.124125406889E+03   -0.69086E-04   -0.15923E-04  3936   0.470E-02    0.862E-03
DAV:  19    -0.124125466692E+03   -0.59803E-04   -0.34246E-05  3936   0.266E-02    0.523E-03
DAV:  20    -0.124125498744E+03   -0.32052E-04   -0.18020E-05  4032   0.170E-02    0.370E-03
DAV:  21    -0.124125543151E+03   -0.44407E-04   -0.14127E-05  3840   0.143E-02    0.238E-03
DAV:  22    -0.124125567062E+03   -0.23910E-04   -0.44764E-06  4464   0.789E-03    0.138E-03
DAV:  23    -0.124125571934E+03   -0.48724E-05   -0.16052E-06  5232   0.466E-03    0.622E-04
DAV:  24    -0.124125575066E+03   -0.31324E-05   -0.26983E-07  4992   0.179E-03    0.344E-04
DAV:  25    -0.124125576644E+03   -0.15779E-05   -0.14773E-07  4704   0.122E-03    0.179E-04
DAV:  26    -0.124125577043E+03   -0.39854E-06   -0.64219E-08  5424   0.917E-04
   1 F= -.12562349E+03 E0= -.12562047E+03  d E =-.125623E+03  mag=     0.0000
       N       E                     dE             d eps       ncg     rms          rms(c)
DAV:   1    -0.124131090120E+03   -0.55135E-02   -0.97802E-01  3744   0.241E+00    0.336E-01
DAV:   2    -0.124126124837E+03    0.49653E-02   -0.23621E-02  5568   0.364E-01    0.147E-01
DAV:   3    -0.124125352538E+03    0.77230E-03   -0.37456E-03  4944   0.130E-01    0.409E-02
DAV:   4    -0.124125323797E+03    0.28741E-04   -0.29376E-04  5472   0.407E-02    0.145E-02
DAV:   5    -0.124125323474E+03    0.32230E-06   -0.16263E-05  5184   0.100E-02    0.457E-03
DAV:   6    -0.124125325028E+03   -0.15541E-05   -0.41803E-06  4224   0.465E-03    0.163E-03
DAV:   7    -0.124125326726E+03   -0.16977E-05   -0.28668E-07  4512   0.142E-03    0.827E-04
DAV:   8    -0.124125329574E+03   -0.28474E-05   -0.17374E-07  4128   0.770E-04    0.411E-04
DAV:   9    -0.124125332092E+03   -0.25181E-05   -0.18133E-07  4032   0.705E-04    0.251E-04
DAV:  10    -0.124125333279E+03   -0.11872E-05   -0.90901E-08  4320   0.579E-04    0.172E-04
DAV:  11    -0.124125333657E+03   -0.37806E-06   -0.33442E-08  4608   0.435E-04
   2 F= -.12562353E+03 E0= -.12562052E+03  d E =-.403927E-04  mag=    -0.0000
       N       E                     dE             d eps       ncg     rms          rms(c)
DAV:   1    -0.124130107079E+03   -0.47738E-02   -0.24375E-01  3744   0.120E+00    0.167E-01
DAV:   2    -0.124128886150E+03    0.12209E-02   -0.59222E-03  5568   0.183E-01    0.735E-02
DAV:   3    -0.124128694531E+03    0.19162E-03   -0.95277E-04  5904   0.650E-02    0.201E-02
DAV:   4    -0.124128687913E+03    0.66173E-05   -0.67314E-05  4944   0.195E-02    0.734E-03
DAV:   5    -0.124128688025E+03   -0.11134E-06   -0.40325E-06  6144   0.505E-03
   3 F= -.12562675E+03 E0= -.12562373E+03  d E =-.325453E-02  mag=     0.0000
       N       E                     dE             d eps       ncg     rms          rms(c)
DAV:   1    -0.124128687277E+03    0.63626E-06   -0.57592E-06  4272   0.652E-03    0.131E-03
DAV:   2    -0.124128687402E+03   -0.12465E-06   -0.28642E-07  4896   0.116E-03
   4 F= -.12562675E+03 E0= -.12562373E+03  d E =-.325477E-02  mag=     0.0000
       N       E                     dE             d eps       ncg     rms          rms(c)
DAV:   1    -0.124128688031E+03   -0.75351E-06   -0.18828E-06  4224   0.325E-03    0.486E-04
DAV:   2    -0.124128688155E+03   -0.12479E-06   -0.51571E-08  5136   0.609E-04
   5 F= -.12562675E+03 E0= -.12562373E+03  d E =-.325518E-02  mag=     0.0000
       N       E                     dE             d eps       ncg     rms          rms(c)
DAV:   1    -0.124128688556E+03   -0.52509E-06   -0.73763E-07  4224   0.214E-03    0.387E-04
DAV:   2    -0.124128688629E+03   -0.73338E-07   -0.21877E-08  5568   0.378E-04
   6 F= -.12562675E+03 E0= -.12562373E+03  d E =-.325539E-02  mag=     0.0000
       N       E                     dE             d eps       ncg     rms          rms(c)
DAV:   1    -0.124128688846E+03   -0.28992E-06   -0.16825E-07  4224   0.105E-03    0.217E-04
DAV:   2    -0.124128688886E+03   -0.39993E-07   -0.53370E-09  5280   0.209E-04
   7 F= -.12562675E+03 E0= -.12562373E+03  d E =-.325552E-02  mag=     0.0000
       N       E                     dE             d eps       ncg     rms          rms(c)
DAV:   1    -0.124128696293E+03   -0.74474E-05   -0.47047E-03  3744   0.253E-01    0.124E-02
DAV:   2    -0.124128694979E+03    0.13142E-05   -0.54125E-05  4032   0.288E-02    0.755E-03
DAV:   3    -0.124128694346E+03    0.63304E-06   -0.71041E-06  4320   0.915E-03
   8 F= -.12562680E+03 E0= -.12562379E+03  d E =-.524989E-04  mag=    -0.0000
       N       E                     dE             d eps       ncg     rms          rms(c)
DAV:   1    -0.124128727026E+03   -0.32047E-04   -0.42494E-02  3648   0.760E-01    0.377E-02
DAV:   2    -0.124128715925E+03    0.11100E-04   -0.48815E-04  4032   0.868E-02    0.230E-02
DAV:   3    -0.124128709191E+03    0.67342E-05   -0.65123E-05  5136   0.276E-02    0.556E-03
DAV:   4    -0.124128709599E+03   -0.40769E-06   -0.76264E-06  4032   0.958E-03
   9 F= -.12562696E+03 E0= -.12562394E+03  d E =-.208969E-03  mag=    -0.0000
       N       E                     dE             d eps       ncg     rms          rms(c)
DAV:   1    -0.124128807436E+03   -0.98244E-04   -0.16948E-01  3648   0.152E+00    0.741E-02
DAV:   2    -0.124128766064E+03    0.41371E-04   -0.19548E-03  3840   0.174E-01    0.453E-02
DAV:   3    -0.124128736482E+03    0.29582E-04   -0.25873E-04  5184   0.550E-02    0.110E-02
DAV:   4    -0.124128737701E+03   -0.12189E-05   -0.28961E-05  4560   0.187E-02    0.476E-03
DAV:   5    -0.124128738210E+03   -0.50919E-06   -0.15116E-06  3840   0.440E-03
  10 F= -.12562727E+03 E0= -.12562425E+03  d E =-.521160E-03  mag=    -0.0000
       N       E                     dE             d eps       ncg     rms          rms(c)
DAV:   1    -0.124129050328E+03   -0.31263E-03   -0.67773E-01  3648   0.304E+00    0.148E-01
DAV:   2    -0.124128901950E+03    0.14838E-03   -0.78367E-03  4128   0.347E-01    0.907E-02
DAV:   3    -0.124128773036E+03    0.12891E-03   -0.10286E-03  4512   0.110E-01    0.223E-02
DAV:   4    -0.124128775974E+03   -0.29384E-05   -0.11853E-04  5472   0.378E-02    0.945E-03
DAV:   5    -0.124128775050E+03    0.92421E-06   -0.53651E-06  4032   0.764E-03
  11 F= -.12562788E+03 E0= -.12562486E+03  d E =-.112890E-02  mag=    -0.0000
       N       E                     dE             d eps       ncg     rms          rms(c)
DAV:   1    -0.124129917308E+03   -0.11413E-02   -0.27109E+00  3648   0.607E+00    0.296E-01
DAV:   2    -0.124129310492E+03    0.60682E-03   -0.31403E-02  4128   0.695E-01    0.181E-01
DAV:   3    -0.124128813912E+03    0.49658E-03   -0.41178E-03  4800   0.219E-01    0.438E-02
DAV:   4    -0.124128818859E+03   -0.49468E-05   -0.45787E-04  5808   0.751E-02    0.191E-02
DAV:   5    -0.124128812598E+03    0.62608E-05   -0.20607E-05  4368   0.149E-02    0.439E-03
DAV:   6    -0.124128812379E+03    0.21855E-06   -0.36721E-06  4704   0.664E-03
  12 F= -.12562907E+03 E0= -.12562606E+03  d E =-.232324E-02  mag=    -0.0000
       N       E                     dE             d eps       ncg     rms          rms(c)
DAV:   1    -0.124133177129E+03   -0.43645E-02   -0.10838E+01  3648   0.121E+01    0.593E-01
DAV:   2    -0.124130830558E+03    0.23466E-02   -0.12598E-01  4608   0.139E+00    0.361E-01
DAV:   3    -0.124128741373E+03    0.20892E-02   -0.16334E-02  5376   0.431E-01    0.871E-02
DAV:   4    -0.124128756986E+03   -0.15613E-04   -0.17058E-03  5568   0.148E-01    0.385E-02
DAV:   5    -0.124128723337E+03    0.33649E-04   -0.83198E-05  5184   0.294E-02    0.742E-03
DAV:   6    -0.124128722688E+03    0.64892E-06   -0.17054E-05  4704   0.127E-02    0.448E-03
DAV:   7    -0.124128728716E+03   -0.60275E-05   -0.38358E-06  4656   0.750E-03    0.246E-03
DAV:   8    -0.124128744625E+03   -0.15909E-04   -0.38520E-06  4560   0.586E-03    0.189E-03
DAV:   9    -0.124128754453E+03   -0.98277E-05   -0.15717E-06  5040   0.426E-03    0.103E-03
DAV:  10    -0.124128767444E+03   -0.12991E-04   -0.41284E-06  4416   0.778E-03    0.593E-04
DAV:  11    -0.124128770934E+03   -0.34902E-05   -0.32568E-06  4608   0.752E-03    0.557E-04
DAV:  12    -0.124128775139E+03   -0.42052E-05   -0.13794E-06  4128   0.434E-03    0.209E-04
DAV:  13    -0.124128775378E+03   -0.23897E-06   -0.38328E-07  6000   0.257E-03
  13 F= -.12563141E+03 E0= -.12562839E+03  d E =-.466182E-02  mag=     0.0000
       N       E                     dE             d eps       ncg     rms          rms(c)
DAV:   1    -0.124144602611E+03   -0.15827E-01   -0.43263E+01  3648   0.243E+01    0.118E+00
DAV:   2    -0.124136226186E+03    0.83764E-02   -0.50993E-01  3936   0.280E+00    0.727E-01
DAV:   3    -0.124128002445E+03    0.82237E-02   -0.66847E-02  6048   0.877E-01    0.178E-01
DAV:   4    -0.124128046914E+03   -0.44469E-04   -0.60947E-03  5856   0.279E-01    0.794E-02
DAV:   5    -0.124127942273E+03    0.10464E-03   -0.31557E-04  5280   0.544E-02    0.155E-02
DAV:   6    -0.124127928411E+03    0.13862E-04   -0.72843E-05  5040   0.226E-02    0.719E-03
DAV:   7    -0.124127951289E+03   -0.22878E-04   -0.12178E-05  4416   0.965E-03    0.398E-03
DAV:   8    -0.124127972873E+03   -0.21584E-04   -0.35813E-06  5040   0.528E-03    0.335E-03
DAV:   9    -0.124127990443E+03   -0.17571E-04   -0.18611E-06  4848   0.392E-03    0.164E-03
DAV:  10    -0.124128012379E+03   -0.21936E-04   -0.29241E-06  4752   0.388E-03    0.111E-03
DAV:  11    -0.124128021835E+03   -0.94560E-05   -0.15135E-06  4416   0.402E-03    0.619E-04
DAV:  12    -0.124128027921E+03   -0.60860E-05   -0.18029E-06  4224   0.487E-03    0.248E-04
DAV:  13    -0.124128028959E+03   -0.10384E-05   -0.63650E-07  5136   0.326E-03    0.104E-04
DAV:  14    -0.124128029062E+03   -0.10278E-06   -0.89964E-08  5472   0.127E-03
  14 F= -.12563567E+03 E0= -.12563265E+03  d E =-.892612E-02  mag=     0.0000
       N       E                     dE             d eps       ncg     rms          rms(c)
DAV:   1    -0.124181059228E+03   -0.53030E-01   -0.17199E+02  3648   0.483E+01    0.235E+00
DAV:   2    -0.124156501021E+03    0.24558E-01   -0.21138E+00  4224   0.577E+00    0.146E+00
DAV:   3    -0.124123980526E+03    0.32520E-01   -0.25651E-01  6048   0.171E+00    0.376E-01
DAV:   4    -0.124124229392E+03   -0.24887E-03   -0.22372E-02  5472   0.535E-01    0.164E-01
DAV:   5    -0.124123702428E+03    0.52696E-03   -0.14241E-03  5568   0.107E-01    0.331E-02
DAV:   6    -0.124123648966E+03    0.53462E-04   -0.25178E-04  4896   0.422E-02    0.149E-02
DAV:   7    -0.124123711109E+03   -0.62143E-04   -0.50920E-05  4224   0.198E-02    0.812E-03
DAV:   8    -0.124123765582E+03   -0.54473E-04   -0.12232E-05  4608   0.818E-03    0.678E-03
DAV:   9    -0.124123806473E+03   -0.40891E-04   -0.48581E-06  5232   0.512E-03    0.332E-03
DAV:  10    -0.124123853871E+03   -0.47398E-04   -0.69337E-06  4608   0.554E-03    0.189E-03
DAV:  11    -0.124123876587E+03   -0.22716E-04   -0.31288E-06  4992   0.396E-03    0.122E-03
DAV:  12    -0.124123887012E+03   -0.10425E-04   -0.18908E-06  4512   0.407E-03    0.401E-04
DAV:  13    -0.124123889664E+03   -0.26524E-05   -0.69675E-07  5328   0.333E-03    0.199E-04
DAV:  14    -0.124123891043E+03   -0.13790E-05   -0.24488E-07  4368   0.180E-03    0.873E-05
DAV:  15    -0.124123891287E+03   -0.24323E-06   -0.51431E-08  5856   0.907E-04
  15 F= -.12564268E+03 E0= -.12563965E+03  d E =-.159350E-01  mag=    -0.0000
       N       E                     dE             d eps       ncg     rms          rms(c)
DAV:   1    -0.124227182285E+03   -0.10329E+00   -0.67134E+02  3648   0.951E+01    0.460E+00
DAV:   2    -0.124237271241E+03   -0.10089E-01   -0.92942E+00  4032   0.124E+01    0.293E+00
DAV:   3    -0.124104539587E+03    0.13273E+00   -0.89758E-01  6432   0.324E+00    0.929E-01
DAV:   4    -0.124106154164E+03   -0.16146E-02   -0.72044E-02  5760   0.985E-01    0.334E-01
DAV:   5    -0.124104305822E+03    0.18483E-02   -0.76409E-03  5760   0.219E-01    0.583E-02
DAV:   6    -0.124104103392E+03    0.20243E-03   -0.70551E-04  6192   0.741E-02    0.290E-02
DAV:   7    -0.124104276102E+03   -0.17271E-03   -0.23240E-04  4128   0.439E-02    0.152E-02
DAV:   8    -0.124104407387E+03   -0.13129E-03   -0.48407E-05  4224   0.162E-02    0.136E-02
DAV:   9    -0.124104496484E+03   -0.89097E-04   -0.15570E-05  5472   0.949E-03    0.717E-03
DAV:  10    -0.124104578879E+03   -0.82395E-04   -0.15990E-05  4272   0.947E-03    0.405E-03
DAV:  11    -0.124104632487E+03   -0.53609E-04   -0.11632E-05  5328   0.690E-03    0.247E-03
DAV:  12    -0.124104646579E+03   -0.14092E-04   -0.17932E-06  5424   0.306E-03    0.911E-04
DAV:  13    -0.124104651494E+03   -0.49149E-05   -0.32775E-07  4944   0.145E-03    0.432E-04
DAV:  14    -0.124104654321E+03   -0.28265E-05   -0.14454E-07  4752   0.876E-04    0.211E-04
DAV:  15    -0.124104656477E+03   -0.21563E-05   -0.17378E-07  4464   0.714E-04    0.801E-05
DAV:  16    -0.124104656749E+03   -0.27227E-06   -0.14219E-08  5616   0.295E-04
  16 F= -.12565110E+03 E0= -.12564794E+03  d E =-.243521E-01  mag=     0.0000
       N       E                     dE             d eps       ncg     rms          rms(c)
DAV:   1    -0.123389942397E+03    0.71471E+00   -0.24342E+03  3648   0.176E+02    0.890E+00
DAV:   2    -0.124579216413E+03   -0.11893E+01   -0.45323E+01  3840   0.283E+01    0.580E+00
DAV:   3    -0.124084559264E+03    0.49466E+00   -0.25147E+00  6432   0.566E+00    0.278E+00
DAV:   4    -0.124021910716E+03    0.62649E-01   -0.42891E-01  5808   0.233E+00    0.635E-01
DAV:   5    -0.124017199368E+03    0.47113E-02   -0.35997E-02  5904   0.585E-01    0.136E-01
DAV:   6    -0.124016010959E+03    0.11884E-02   -0.31582E-03  7008   0.158E-01    0.697E-02
DAV:   7    -0.124015995852E+03    0.15107E-04   -0.12306E-03  4656   0.103E-01    0.295E-02
DAV:   8    -0.124016339320E+03   -0.34347E-03   -0.26477E-04  4320   0.423E-02    0.228E-02
DAV:   9    -0.124016543723E+03   -0.20440E-03   -0.91948E-05  4656   0.231E-02    0.152E-02
DAV:  10    -0.124016648948E+03   -0.10522E-03   -0.33255E-05  4704   0.150E-02    0.101E-02
DAV:  11    -0.124016727053E+03   -0.78106E-04   -0.31451E-05  4800   0.120E-02    0.452E-03
DAV:  12    -0.124016754714E+03   -0.27661E-04   -0.54857E-06  5760   0.603E-03    0.237E-03
DAV:  13    -0.124016765432E+03   -0.10718E-04   -0.11656E-06  6096   0.294E-03    0.175E-03
DAV:  14    -0.124016770160E+03   -0.47286E-05   -0.27670E-07  5376   0.138E-03    0.827E-04
DAV:  15    -0.124016773473E+03   -0.33124E-05   -0.20040E-07  4800   0.103E-03    0.208E-04
DAV:  16    -0.124016774463E+03   -0.98969E-06   -0.43955E-08  5184   0.429E-04
  17 F= -.12564864E+03 E0= -.12564467E+03  d E =-.218894E-01  mag=    -0.0000
       N       E                     dE             d eps       ncg     rms          rms(c)
DAV:   1    -0.124194292894E+03   -0.17752E+00   -0.94343E+02  3648   0.113E+02    0.551E+00
DAV:   2    -0.124265736630E+03   -0.71444E-01   -0.13860E+01  3648   0.155E+01    0.352E+00
DAV:   3    -0.124080324480E+03    0.18541E+00   -0.11129E+00  6528   0.369E+00    0.130E+00
DAV:   4    -0.124079443460E+03    0.88102E-03   -0.10523E-01  5376   0.122E+00    0.389E-01
DAV:   5    -0.124077661505E+03    0.17820E-02   -0.15111E-02  5952   0.328E-01    0.664E-02
DAV:   6    -0.124077426358E+03    0.23515E-03   -0.69042E-04  5088   0.797E-02    0.340E-02
DAV:   7    -0.124077340208E+03    0.86150E-04   -0.29607E-04  4320   0.492E-02    0.174E-02
DAV:   8    -0.124077409499E+03   -0.69291E-04   -0.39573E-05  3648   0.161E-02    0.101E-02
DAV:   9    -0.124077544038E+03   -0.13454E-03   -0.29025E-05  3648   0.151E-02    0.691E-03
DAV:  10    -0.124077627192E+03   -0.83153E-04   -0.54185E-06  4176   0.729E-03    0.586E-03
DAV:  11    -0.124077705435E+03   -0.78244E-04   -0.51281E-06  5184   0.671E-03    0.160E-03
DAV:  12    -0.124077728108E+03   -0.22673E-04   -0.73053E-07  5616   0.282E-03    0.999E-04
DAV:  13    -0.124077738602E+03   -0.10494E-04   -0.26829E-07  5280   0.158E-03    0.502E-04
DAV:  14    -0.124077741613E+03   -0.30103E-05   -0.88395E-08  5664   0.100E-03    0.210E-04
DAV:  15    -0.124077742663E+03   -0.10505E-05   -0.33292E-08  5472   0.521E-04    0.881E-05
DAV:  16    -0.124077742865E+03   -0.20217E-06   -0.47567E-09  5568   0.199E-04
  18 F= -.12565295E+03 E0= -.12564954E+03  d E =-.261993E-01  mag=     0.0000
       N       E                     dE             d eps       ncg     rms          rms(c)
DAV:   1    -0.124077741427E+03    0.12364E-05   -0.41706E-06  5184   0.754E-03    0.368E-04
DAV:   2    -0.124077741427E+03   -0.43883E-09   -0.44781E-08  6528   0.829E-04
  19 F= -.12565295E+03 E0= -.12564954E+03  d E =-.166983E-05  mag=     0.0000
       N       E                     dE             d eps       ncg     rms          rms(c)
DAV:   1    -0.124077736777E+03    0.46497E-05   -0.36916E-05  4704   0.225E-02    0.114E-03
DAV:   2    -0.124077736761E+03    0.15757E-07   -0.38845E-07  5856   0.242E-03
  20 F= -.12565295E+03 E0= -.12564954E+03  d E =-.632832E-05  mag=     0.0000
       N       E                     dE             d eps       ncg     rms          rms(c)
DAV:   1    -0.124077727475E+03    0.93020E-05   -0.14640E-04  3840   0.449E-02    0.231E-03
DAV:   2    -0.124077727413E+03    0.62293E-07   -0.16237E-06  5280   0.503E-03
  21 F= -.12565296E+03 E0= -.12564955E+03  d E =-.156304E-04  mag=     0.0000
       N       E                     dE             d eps       ncg     rms          rms(c)
DAV:   1    -0.124077709976E+03    0.17499E-04   -0.58578E-04  3648   0.898E-02    0.461E-03
DAV:   2    -0.124077709736E+03    0.24041E-06   -0.65929E-06  4560   0.102E-02
  22 F= -.12565298E+03 E0= -.12564957E+03  d E =-.352621E-04  mag=    -0.0000
       N       E                     dE             d eps       ncg     rms          rms(c)
DAV:   1    -0.124077673222E+03    0.36754E-04   -0.23444E-03  3648   0.180E-01    0.924E-03
DAV:   2    -0.124077672407E+03    0.81496E-06   -0.26422E-05  5040   0.204E-02    0.567E-03
DAV:   3    -0.124077672200E+03    0.20713E-06   -0.33868E-06  4704   0.623E-03
  23 F= -.12565302E+03 E0= -.12564961E+03  d E =-.723729E-04  mag=    -0.0000
       N       E                     dE             d eps       ncg     rms          rms(c)
DAV:   1    -0.124077601201E+03    0.71206E-04   -0.96512E-03  3648   0.363E-01    0.181E-02
DAV:   2    -0.124077598015E+03    0.31859E-05   -0.11094E-04  4512   0.415E-02    0.111E-02
DAV:   3    -0.124077596841E+03    0.11741E-05   -0.14411E-05  5232   0.128E-02    0.267E-03
DAV:   4    -0.124077597074E+03   -0.23378E-06   -0.16872E-06  4272   0.452E-03
  24 F= -.12565309E+03 E0= -.12564968E+03  d E =-.146659E-03  mag=    -0.0000
       N       E                     dE             d eps       ncg     rms          rms(c)
DAV:   1    -0.124077462530E+03    0.13431E-03   -0.38408E-02  3648   0.723E-01    0.353E-02
DAV:   2    -0.124077451770E+03    0.10759E-04   -0.44526E-04  4512   0.831E-02    0.215E-02
DAV:   3    -0.124077445688E+03    0.60822E-05   -0.56544E-05  5088   0.254E-02    0.529E-03
DAV:   4    -0.124077446274E+03   -0.58619E-06   -0.66346E-06  3744   0.897E-03
  25 F= -.12565324E+03 E0= -.12564983E+03  d E =-.295157E-03  mag=    -0.0000
       N       E                     dE             d eps       ncg     rms          rms(c)
DAV:   1    -0.124077205123E+03    0.24057E-03   -0.15361E-01  3648   0.145E+00    0.706E-02
DAV:   2    -0.124077166829E+03    0.38293E-04   -0.17777E-03  3648   0.166E-01    0.434E-02
DAV:   3    -0.124077142191E+03    0.24639E-04   -0.24447E-04  5280   0.536E-02    0.106E-02
DAV:   4    -0.124077143356E+03   -0.11656E-05   -0.25528E-05  4368   0.177E-02    0.463E-03
DAV:   5    -0.124077143798E+03   -0.44190E-06   -0.15224E-06  4080   0.482E-03
  26 F= -.12565354E+03 E0= -.12565012E+03  d E =-.593168E-03  mag=    -0.0000
       N       E                     dE             d eps       ncg     rms          rms(c)
DAV:   1    -0.124076782503E+03    0.36085E-03   -0.61424E-01  3648   0.289E+00    0.141E-01
DAV:   2    -0.124076641502E+03    0.14100E-03   -0.70950E-03  3744   0.332E-01    0.866E-02
DAV:   3    -0.124076529898E+03    0.11160E-03   -0.96510E-04  4800   0.107E-01    0.212E-02
DAV:   4    -0.124076532745E+03   -0.28469E-05   -0.10955E-04  5712   0.357E-02    0.925E-03
DAV:   5    -0.124076532655E+03    0.89803E-07   -0.39360E-06  4080   0.655E-03
  27 F= -.12565414E+03 E0= -.12565070E+03  d E =-.119058E-02  mag=     0.0000
       N       E                     dE             d eps       ncg     rms          rms(c)
DAV:   1    -0.124076285232E+03    0.24751E-03   -0.24567E+00  3648   0.579E+00    0.282E-01
DAV:   2    -0.124075727515E+03    0.55772E-03   -0.28555E-02  4416   0.664E-01    0.172E-01
DAV:   3    -0.124075293316E+03    0.43420E-03   -0.36499E-03  4512   0.205E-01    0.422E-02
DAV:   4    -0.124075297172E+03   -0.38561E-05   -0.44224E-04  6144   0.722E-02    0.179E-02
DAV:   5    -0.124075291995E+03    0.51771E-05   -0.17427E-05  4704   0.130E-02    0.346E-03
DAV:   6    -0.124075292582E+03   -0.58697E-06   -0.41546E-06  5664   0.545E-03
  28 F= -.12565535E+03 E0= -.12565189E+03  d E =-.239854E-02  mag=     0.0000
       N       E                     dE             d eps       ncg     rms          rms(c)
DAV:   1    -0.124076786779E+03   -0.14948E-02   -0.98193E+00  3648   0.116E+01    0.565E-01
DAV:   2    -0.124074610873E+03    0.21759E-02   -0.11468E-01  5088   0.133E+00    0.344E-01
DAV:   3    -0.124072760884E+03    0.18500E-02   -0.14532E-02  5664   0.401E-01    0.831E-02
DAV:   4    -0.124072754080E+03    0.68044E-05   -0.14136E-03  6048   0.134E-01    0.369E-02
DAV:   5    -0.124072728765E+03    0.25315E-04   -0.72688E-05  5088   0.269E-02    0.692E-03
DAV:   6    -0.124072728903E+03   -0.13854E-06   -0.13244E-05  5472   0.100E-02    0.377E-03
DAV:   7    -0.124072735401E+03   -0.64973E-05   -0.15945E-06  4416   0.433E-03    0.213E-03
DAV:   8    -0.124072745558E+03   -0.10158E-04   -0.15238E-06  4608   0.344E-03    0.170E-03
DAV:   9    -0.124072754564E+03   -0.90057E-05   -0.87678E-07  5424   0.190E-03    0.655E-04
DAV:  10    -0.124072762567E+03   -0.80033E-05   -0.92063E-07  5184   0.219E-03    0.557E-04
DAV:  11    -0.124072765345E+03   -0.27779E-05   -0.36443E-07  5712   0.233E-03    0.365E-04
DAV:  12    -0.124072767533E+03   -0.21872E-05   -0.24004E-07  4464   0.154E-03    0.124E-04
DAV:  13    -0.124072768233E+03   -0.70031E-06   -0.33118E-08  5760   0.396E-04
  29 F= -.12565784E+03 E0= -.12565433E+03  d E =-.489611E-02  mag=    -0.0000
       N       E                     dE             d eps       ncg     rms          rms(c)
DAV:   1    -0.124082293713E+03   -0.95262E-02   -0.39203E+01  3648   0.231E+01    0.113E+00
DAV:   2    -0.124074656721E+03    0.76370E-02   -0.46611E-01  4416   0.268E+00    0.692E-01
DAV:   3    -0.124067384520E+03    0.72722E-02   -0.59357E-02  5856   0.819E-01    0.171E-01
DAV:   4    -0.124067401763E+03   -0.17242E-04   -0.56529E-03  6048   0.264E-01    0.752E-02
DAV:   5    -0.124067331826E+03    0.69937E-04   -0.29028E-04  5664   0.521E-02    0.150E-02
DAV:   6    -0.124067324679E+03    0.71466E-05   -0.60282E-05  5760   0.210E-02    0.653E-03
DAV:   7    -0.124067347301E+03   -0.22622E-04   -0.78924E-06  4320   0.876E-03    0.357E-03
DAV:   8    -0.124067365229E+03   -0.17928E-04   -0.20023E-06  4848   0.316E-03    0.274E-03
DAV:   9    -0.124067380437E+03   -0.15208E-04   -0.14316E-06  4752   0.236E-03    0.126E-03
DAV:  10    -0.124067394188E+03   -0.13751E-04   -0.15950E-06  5568   0.226E-03    0.904E-04
DAV:  11    -0.124067401886E+03   -0.76981E-05   -0.79491E-07  5472   0.165E-03    0.457E-04
DAV:  12    -0.124067405453E+03   -0.35669E-05   -0.28075E-07  5376   0.984E-04    0.178E-04
DAV:  13    -0.124067406347E+03   -0.89412E-06   -0.33946E-08  5232   0.380E-04
  30 F= -.12566305E+03 E0= -.12565942E+03  d E =-.100987E-01  mag=    -0.0000
       N       E                     dE             d eps       ncg     rms          rms(c)
DAV:   1    -0.124108223459E+03   -0.40818E-01   -0.15589E+02  3648   0.461E+01    0.224E+00
DAV:   2    -0.124084428642E+03    0.23795E-01   -0.19222E+00  4608   0.549E+00    0.139E+00
DAV:   3    -0.124055301482E+03    0.29127E-01   -0.22564E-01  5952   0.160E+00    0.366E-01
DAV:   4    -0.124055595085E+03   -0.29360E-03   -0.20775E-02  5856   0.507E-01    0.154E-01
DAV:   5    -0.124055187243E+03    0.40784E-03   -0.12811E-03  6048   0.101E-01    0.321E-02
DAV:   6    -0.124055155714E+03    0.31529E-04   -0.21534E-04  5664   0.401E-02    0.138E-02
DAV:   7    -0.124055220526E+03   -0.64811E-04   -0.40532E-05  4224   0.193E-02    0.762E-03
DAV:   8    -0.124055274589E+03   -0.54064E-04   -0.10199E-05  4608   0.756E-03    0.517E-03
DAV:   9    -0.124055312947E+03   -0.38357E-04   -0.52860E-06  4848   0.495E-03    0.258E-03
DAV:  10    -0.124055338080E+03   -0.25133E-04   -0.32996E-06  5184   0.352E-03    0.173E-03
DAV:  11    -0.124055354582E+03   -0.16503E-04   -0.23413E-06  5904   0.291E-03    0.101E-03
DAV:  12    -0.124055361317E+03   -0.67342E-05   -0.73956E-07  5664   0.171E-03    0.329E-04
DAV:  13    -0.124055362880E+03   -0.15634E-05   -0.62528E-08  5280   0.685E-04    0.175E-04
DAV:  14    -0.124055363965E+03   -0.10847E-05   -0.48856E-08  4992   0.520E-04    0.819E-05
DAV:  15    -0.124055364677E+03   -0.71202E-06   -0.44395E-08  5040   0.369E-04
  31 F= -.12567437E+03 E0= -.12567051E+03  d E =-.214203E-01  mag=     0.0000
       N       E                     dE             d eps       ncg     rms          rms(c)
DAV:   1    -0.124154922201E+03   -0.99558E-01   -0.60955E+02  3648   0.908E+01    0.441E+00
DAV:   2    -0.124144257481E+03    0.10665E-01   -0.84017E+00  4608   0.117E+01    0.280E+00
DAV:   3    -0.124023968372E+03    0.12029E+00   -0.76397E-01  6144   0.297E+00    0.893E-01
DAV:   4    -0.124025449487E+03   -0.14811E-02   -0.69359E-02  5760   0.953E-01    0.314E-01
DAV:   5    -0.124023907567E+03    0.15419E-02   -0.67451E-03  6240   0.208E-01    0.566E-02
DAV:   6    -0.124023746057E+03    0.16151E-03   -0.58649E-04  6336   0.695E-02    0.266E-02
DAV:   7    -0.124023913465E+03   -0.16741E-03   -0.20877E-04  4224   0.419E-02    0.141E-02
DAV:   8    -0.124024040798E+03   -0.12733E-03   -0.43970E-05  4752   0.160E-02    0.108E-02
DAV:   9    -0.124024138818E+03   -0.98020E-04   -0.26788E-05  4512   0.126E-02    0.419E-03
DAV:  10    -0.124024192219E+03   -0.53401E-04   -0.12239E-05  5472   0.842E-03    0.379E-03
DAV:  11    -0.124024209180E+03   -0.16962E-04   -0.33439E-06  5424   0.535E-03    0.222E-03
DAV:  12    -0.124024219983E+03   -0.10803E-04   -0.16627E-06  6000   0.342E-03    0.789E-04
DAV:  13    -0.124024223345E+03   -0.33625E-05   -0.26424E-07  5664   0.178E-03    0.446E-04
DAV:  14    -0.124024225050E+03   -0.17049E-05   -0.14782E-07  5616   0.149E-03    0.199E-04
DAV:  15    -0.124024225842E+03   -0.79200E-06   -0.60283E-08  5232   0.854E-04
  32 F= -.12570009E+03 E0= -.12569606E+03  d E =-.471394E-01  mag=     0.0000
       N       E                     dE             d eps       ncg     rms          rms(c)
DAV:   1    -0.123459032383E+03    0.56519E+00   -0.22283E+03  3648   0.169E+02    0.854E+00
DAV:   2    -0.124386967355E+03   -0.92793E+00   -0.40909E+01  4032   0.269E+01    0.556E+00
DAV:   3    -0.123947189222E+03    0.43978E+00   -0.22378E+00  6624   0.531E+00    0.260E+00
DAV:   4    -0.123895204430E+03    0.51985E-01   -0.36202E-01  5376   0.216E+00    0.596E-01
DAV:   5    -0.123891865218E+03    0.33392E-02   -0.32679E-02  5808   0.559E-01    0.128E-01
DAV:   6    -0.123890856187E+03    0.10090E-02   -0.24964E-03  6336   0.146E-01    0.644E-02
DAV:   7    -0.123890837741E+03    0.18446E-04   -0.11287E-03  5088   0.962E-02    0.292E-02
DAV:   8    -0.123891121229E+03   -0.28349E-03   -0.20368E-04  5088   0.355E-02    0.190E-02
DAV:   9    -0.123891321478E+03   -0.20025E-03   -0.11704E-04  5184   0.282E-02    0.145E-02
DAV:  10    -0.123891384351E+03   -0.62874E-04   -0.18347E-05  5424   0.107E-02    0.112E-02
DAV:  11    -0.123891431272E+03   -0.46921E-04   -0.27934E-05  4800   0.124E-02    0.349E-03
DAV:  12    -0.123891443217E+03   -0.11945E-04   -0.22918E-06  5856   0.452E-03    0.271E-03
DAV:  13    -0.123891452326E+03   -0.91085E-05   -0.15826E-06  5760   0.365E-03    0.163E-03
DAV:  14    -0.123891455228E+03   -0.29027E-05   -0.26605E-07  6288   0.199E-03    0.777E-04
DAV:  15    -0.123891457990E+03   -0.27611E-05   -0.26420E-07  5808   0.153E-03    0.301E-04
DAV:  16    -0.123891458526E+03   -0.53686E-06   -0.47823E-08  5808   0.888E-04
  33 F= -.12572838E+03 E0= -.12572669E+03  d E =-.754274E-01  mag=    -0.0000
       N       E                     dE             d eps       ncg     rms          rms(c)
DAV:   1    -0.124096462891E+03   -0.20500E+00   -0.44571E+02  3648   0.780E+01    0.383E+00
DAV:   2    -0.124047149409E+03    0.49313E-01   -0.58505E+00  4512   0.992E+00    0.238E+00
DAV:   3    -0.123966766629E+03    0.80383E-01   -0.57602E-01  6720   0.257E+00    0.743E-01
DAV:   4    -0.123967408973E+03   -0.64234E-03   -0.43408E-02  5088   0.775E-01    0.264E-01
DAV:   5    -0.123966853346E+03    0.55563E-03   -0.48898E-03  5760   0.186E-01    0.486E-02
DAV:   6    -0.123966772276E+03    0.81070E-04   -0.40089E-04  6144   0.614E-02    0.231E-02
DAV:   7    -0.123966815128E+03   -0.42852E-04   -0.80246E-05  4224   0.307E-02    0.113E-02
DAV:   8    -0.123966848539E+03   -0.33411E-04   -0.18523E-05  4032   0.109E-02    0.962E-03
DAV:   9    -0.123966903453E+03   -0.54914E-04   -0.88944E-06  4224   0.857E-03    0.493E-03
DAV:  10    -0.123966957435E+03   -0.53983E-04   -0.58210E-06  4656   0.656E-03    0.310E-03
DAV:  11    -0.123967005443E+03   -0.48008E-04   -0.35995E-06  5952   0.465E-03    0.225E-03
DAV:  12    -0.123967030397E+03   -0.24954E-04   -0.59983E-07  5760   0.273E-03    0.730E-04
DAV:  13    -0.123967038166E+03   -0.77690E-05   -0.27250E-07  6096   0.227E-03    0.458E-04
DAV:  14    -0.123967041910E+03   -0.37441E-05   -0.13901E-07  5952   0.148E-03    0.383E-04
DAV:  15    -0.123967043003E+03   -0.10923E-05   -0.40474E-08  6000   0.734E-04    0.123E-04
DAV:  16    -0.123967043198E+03   -0.19580E-06   -0.52117E-09  6240   0.256E-04
  34 F= -.12572728E+03 E0= -.12572450E+03  d E =-.743301E-01  mag=     0.0000
       N       E                     dE             d eps       ncg     rms          rms(c)
DAV:   1    -0.123971725418E+03   -0.46824E-02   -0.91068E+01  3648   0.354E+01    0.173E+00
DAV:   2    -0.123954472563E+03    0.17253E-01   -0.11260E+00  5088   0.417E+00    0.106E+00
DAV:   3    -0.123938367394E+03    0.16105E-01   -0.12534E-01  6336   0.118E+00    0.280E-01
DAV:   4    -0.123938347932E+03    0.19462E-04   -0.12685E-02  5904   0.397E-01    0.114E-01
DAV:   5    -0.123938168714E+03    0.17922E-03   -0.66225E-04  6720   0.800E-02    0.236E-02
DAV:   6    -0.123938150703E+03    0.18011E-04   -0.99072E-05  4416   0.281E-02    0.109E-02
DAV:   7    -0.123938189310E+03   -0.38607E-04   -0.24176E-05  5184   0.141E-02    0.522E-03
DAV:   8    -0.123938218249E+03   -0.28939E-04   -0.40031E-06  4704   0.486E-03    0.438E-03
DAV:   9    -0.123938244680E+03   -0.26431E-04   -0.36768E-06  5280   0.409E-03    0.199E-03
DAV:  10    -0.123938265602E+03   -0.20922E-04   -0.34796E-06  5184   0.350E-03    0.132E-03
DAV:  11    -0.123938274961E+03   -0.93589E-05   -0.13355E-06  5856   0.226E-03    0.698E-04
DAV:  12    -0.123938279277E+03   -0.43160E-05   -0.43459E-07  6240   0.141E-03    0.300E-04
DAV:  13    -0.123938280376E+03   -0.10986E-05   -0.52653E-08  6336   0.695E-04    0.177E-04
DAV:  14    -0.123938281075E+03   -0.69933E-06   -0.31330E-08  5616   0.494E-04
  35 F= -.12573145E+03 E0= -.12572924E+03  d E =-.785039E-01  mag=    -0.0000
       N       E                     dE             d eps       ncg     rms          rms(c)
DAV:   1    -0.123988465307E+03   -0.50185E-01   -0.27545E+02  3648   0.614E+01    0.300E+00
DAV:   2    -0.123950500096E+03    0.37965E-01   -0.35662E+00  5184   0.752E+00    0.185E+00
DAV:   3    -0.123899988131E+03    0.50512E-01   -0.34759E-01  6624   0.198E+00    0.542E-01
DAV:   4    -0.123900208100E+03   -0.21997E-03   -0.33023E-02  6144   0.646E-01    0.202E-01
DAV:   5    -0.123899585279E+03    0.62282E-03   -0.22943E-03  6528   0.135E-01    0.408E-02
DAV:   6    -0.123899524148E+03    0.61131E-04   -0.27487E-04  5088   0.484E-02    0.191E-02
DAV:   7    -0.123899610653E+03   -0.86505E-04   -0.10390E-04  5664   0.289E-02    0.107E-02
DAV:   8    -0.123899674421E+03   -0.63768E-04   -0.12506E-05  4224   0.942E-03    0.713E-03
DAV:   9    -0.123899731256E+03   -0.56835E-04   -0.11011E-05  5568   0.798E-03    0.353E-03
DAV:  10    -0.123899764804E+03   -0.33547E-04   -0.65849E-06  5184   0.518E-03    0.235E-03
DAV:  11    -0.123899783125E+03   -0.18322E-04   -0.42512E-06  5184   0.416E-03    0.138E-03
DAV:  12    -0.123899788611E+03   -0.54853E-05   -0.79551E-07  6528   0.263E-03    0.560E-04
DAV:  13    -0.123899790681E+03   -0.20706E-05   -0.35873E-07  5952   0.255E-03    0.355E-04
DAV:  14    -0.123899791590E+03   -0.90912E-06   -0.16270E-07  6144   0.172E-03
  36 F= -.12575635E+03 E0= -.12575481E+03  d E =-.248931E-01  mag=    -0.0000
       N       E                     dE             d eps       ncg     rms          rms(c)
DAV:   1    -0.123891683444E+03    0.81072E-02   -0.22852E+01  3648   0.178E+01    0.872E-01
DAV:   2    -0.123886022620E+03    0.56608E-02   -0.27164E-01  5568   0.205E+00    0.525E-01
DAV:   3    -0.123881968473E+03    0.40541E-02   -0.31064E-02  6336   0.588E-01    0.136E-01
DAV:   4    -0.123881948879E+03    0.19594E-04   -0.33743E-03  6336   0.203E-01    0.554E-02
DAV:   5    -0.123881901727E+03    0.47152E-04   -0.15122E-04  6528   0.419E-02    0.109E-02
DAV:   6    -0.123881896554E+03    0.51734E-05   -0.22198E-05  4320   0.140E-02    0.551E-03
DAV:   7    -0.123881907525E+03   -0.10971E-04   -0.72043E-06  5760   0.778E-03    0.246E-03
DAV:   8    -0.123881917299E+03   -0.97734E-05   -0.13547E-06  4704   0.364E-03    0.217E-03
DAV:   9    -0.123881926781E+03   -0.94824E-05   -0.10425E-06  5424   0.295E-03    0.113E-03
DAV:  10    -0.123881936430E+03   -0.96488E-05   -0.13077E-06  5328   0.243E-03    0.675E-04
DAV:  11    -0.123881940894E+03   -0.44647E-05   -0.49906E-07  6240   0.164E-03    0.424E-04
DAV:  12    -0.123881942784E+03   -0.18892E-05   -0.22367E-07  6096   0.163E-03    0.216E-04
DAV:  13    -0.123881943415E+03   -0.63168E-06   -0.85785E-08  6672   0.119E-03
  37 F= -.12575787E+03 E0= -.12575643E+03  d E =-.264137E-01  mag=    -0.0000
       N       E                     dE             d eps       ncg     rms          rms(c)
DAV:   1    -0.123914668802E+03   -0.32726E-01   -0.51718E-01  3648   0.272E+00    0.141E-01
DAV:   2    -0.123914526061E+03    0.14274E-03   -0.74150E-03  6000   0.343E-01    0.882E-02
DAV:   3    -0.123914432003E+03    0.94057E-04   -0.95645E-04  5760   0.108E-01    0.316E-02
DAV:   4    -0.123914430911E+03    0.10927E-05   -0.20181E-04  5856   0.473E-02    0.189E-02
DAV:   5    -0.123914431367E+03   -0.45674E-06   -0.10283E-05  5472   0.131E-02    0.558E-03
DAV:   6    -0.123914431353E+03    0.14185E-07   -0.31011E-06  6096   0.604E-03
  38 F= -.12578805E+03 E0= -.12578661E+03  d E =-.301821E-01  mag=    -0.0000
       N       E                     dE             d eps       ncg     rms          rms(c)
DAV:   1    -0.123993217747E+03   -0.78786E-01   -0.46579E+00  3648   0.817E+00    0.426E-01
DAV:   2    -0.123991777243E+03    0.14405E-02   -0.65109E-02  6720   0.102E+00    0.263E-01
DAV:   3    -0.123990857758E+03    0.91948E-03   -0.80674E-03  5664   0.315E-01    0.929E-02
DAV:   4    -0.123990849582E+03    0.81757E-05   -0.16980E-03  5376   0.137E-01    0.541E-02
DAV:   5    -0.123990843132E+03    0.64500E-05   -0.80446E-05  4992   0.370E-02    0.174E-02
DAV:   6    -0.123990843159E+03   -0.26990E-07   -0.29850E-05  5568   0.184E-02    0.695E-03
DAV:   7    -0.123990843870E+03   -0.71031E-06   -0.18288E-06  4704   0.502E-03
  39 F= -.12585742E+03 E0= -.12585596E+03  d E =-.995559E-01  mag=     0.0000
       N       E                     dE             d eps       ncg     rms          rms(c)
DAV:   1    -0.124059001935E+03   -0.68159E-01   -0.18634E+01  3648   0.163E+01    0.853E-01
DAV:   2    -0.124053331825E+03    0.56701E-02   -0.26316E-01  6432   0.205E+00    0.526E-01
DAV:   3    -0.124049760999E+03    0.35708E-02   -0.33134E-02  5664   0.637E-01    0.188E-01
DAV:   4    -0.124049656618E+03    0.10438E-03   -0.68790E-03  5088   0.275E-01    0.109E-01
DAV:   5    -0.124049626696E+03    0.29923E-04   -0.36390E-04  5376   0.778E-02    0.339E-02
DAV:   6    -0.124049626367E+03    0.32863E-06   -0.11562E-04  5280   0.365E-02    0.139E-02
DAV:   7    -0.124049628811E+03   -0.24441E-05   -0.74188E-06  4128   0.100E-02    0.769E-03
DAV:   8    -0.124049634732E+03   -0.59205E-05   -0.48579E-06  4080   0.712E-03    0.175E-03
DAV:   9    -0.124049639868E+03   -0.51363E-05   -0.75414E-07  4800   0.345E-03    0.216E-03
DAV:  10    -0.124049647573E+03   -0.77050E-05   -0.45014E-07  6048   0.172E-03    0.160E-03
DAV:  11    -0.124049658533E+03   -0.10960E-04   -0.95223E-07  5808   0.209E-03    0.557E-04
DAV:  12    -0.124049663077E+03   -0.45444E-05   -0.13134E-07  5712   0.128E-03    0.248E-04
DAV:  13    -0.124049665424E+03   -0.23472E-05   -0.96591E-08  6336   0.119E-03    0.139E-04
DAV:  14    -0.124049666069E+03   -0.64483E-06   -0.15524E-08  6000   0.495E-04
  40 F= -.12590166E+03 E0= -.12590014E+03  d E =-.143796E+00  mag=    -0.0000
       N       E                     dE             d eps       ncg     rms          rms(c)
DAV:   1    -0.124049027221E+03    0.63820E-03   -0.40497E-01  3648   0.241E+00    0.125E-01
DAV:   2    -0.124048922738E+03    0.10448E-03   -0.59088E-03  6576   0.304E-01    0.780E-02
DAV:   3    -0.124048846080E+03    0.76658E-04   -0.72342E-04  6144   0.942E-02    0.276E-02
DAV:   4    -0.124048843540E+03    0.25394E-05   -0.15479E-04  5040   0.412E-02    0.161E-02
DAV:   5    -0.124048843389E+03    0.15088E-06   -0.88751E-06  5664   0.121E-02
  41 F= -.12590303E+03 E0= -.12590152E+03  d E =-.145162E+00  mag=    -0.0000
       N       E                     dE             d eps       ncg     rms          rms(c)
DAV:   1    -0.124049536973E+03   -0.69343E-03   -0.33181E-03  4032   0.177E-01    0.180E-02
DAV:   2    -0.124049526111E+03    0.10861E-04   -0.75584E-05  6816   0.247E-02    0.840E-03
DAV:   3    -0.124049524540E+03    0.15718E-05   -0.85813E-06  4896   0.732E-03    0.265E-03
DAV:   4    -0.124049524789E+03   -0.24894E-06   -0.75271E-07  6480   0.244E-03
  42 F= -.12590369E+03 E0= -.12590218E+03  d E =-.666305E-03  mag=     0.0000
       N       E                     dE             d eps       ncg     rms          rms(c)
DAV:   1    -0.124051279205E+03   -0.17547E-02   -0.29940E-02  3648   0.534E-01    0.538E-02
DAV:   2    -0.124051179054E+03    0.10015E-03   -0.67860E-04  7200   0.758E-02    0.248E-02
DAV:   3    -0.124051162415E+03    0.16639E-04   -0.76948E-05  5328   0.226E-02    0.770E-03
DAV:   4    -0.124051162316E+03    0.99563E-07   -0.62962E-06  6288   0.741E-03
  43 F= -.12590529E+03 E0= -.12590377E+03  d E =-.225830E-02  mag=     0.0000
       N       E                     dE             d eps       ncg     rms          rms(c)
DAV:   1    -0.124053088020E+03   -0.19256E-02   -0.11975E-01  3648   0.107E+00    0.108E-01
DAV:   2    -0.124052684498E+03    0.40352E-03   -0.26800E-03  7008   0.151E-01    0.498E-02
DAV:   3    -0.124052616001E+03    0.68498E-04   -0.31417E-04  5808   0.455E-02    0.153E-02
DAV:   4    -0.124052614841E+03    0.11600E-05   -0.24223E-05  6432   0.146E-02    0.498E-03
DAV:   5    -0.124052615203E+03   -0.36221E-06   -0.75803E-07  5568   0.308E-03
  44 F= -.12590665E+03 E0= -.12590512E+03  d E =-.361894E-02  mag=     0.0000
       N       E                     dE             d eps       ncg     rms          rms(c)
DAV:   1    -0.124053774645E+03   -0.11598E-02   -0.16900E-02  3648   0.436E-01    0.279E-02
DAV:   2    -0.124053765377E+03    0.92675E-05   -0.11062E-04  6528   0.368E-02    0.156E-02
DAV:   3    -0.124053762425E+03    0.29523E-05   -0.20596E-05  5808   0.125E-02    0.336E-03
DAV:   4    -0.124053762489E+03   -0.64135E-07   -0.17654E-06  5904   0.495E-03
  45 F= -.12590785E+03 E0= -.12590632E+03  d E =-.119910E-02  mag=     0.0000
       N       E                     dE             d eps       ncg     rms          rms(c)
DAV:   1    -0.124056767018E+03   -0.30046E-02   -0.15229E-01  3648   0.131E+00    0.841E-02
DAV:   2    -0.124056681662E+03    0.85357E-04   -0.96993E-04  6864   0.109E-01    0.468E-02
DAV:   3    -0.124056652108E+03    0.29554E-04   -0.18087E-04  5712   0.368E-02    0.990E-03
DAV:   4    -0.124056652304E+03   -0.19649E-06   -0.15234E-05  5376   0.140E-02    0.400E-03
DAV:   5    -0.124056652427E+03   -0.12266E-06   -0.76552E-07  6144   0.365E-03
  46 F= -.12591089E+03 E0= -.12590935E+03  d E =-.424357E-02  mag=    -0.0000
       N       E                     dE             d eps       ncg     rms          rms(c)
DAV:   1    -0.124060464723E+03   -0.38124E-02   -0.61089E-01  3648   0.261E+00    0.168E-01
DAV:   2    -0.124060130131E+03    0.33459E-03   -0.39256E-03  6864   0.220E-01    0.930E-02
DAV:   3    -0.124060009381E+03    0.12075E-03   -0.72072E-04  5856   0.733E-02    0.197E-02
DAV:   4    -0.124060009492E+03   -0.11108E-06   -0.58918E-05  5424   0.277E-02    0.794E-03
DAV:   5    -0.124060009867E+03   -0.37471E-06   -0.30381E-06  6240   0.734E-03
  47 F= -.12591455E+03 E0= -.12591299E+03  d E =-.790577E-02  mag=     0.0000
       N       E                     dE             d eps       ncg     rms          rms(c)
DAV:   1    -0.124059156250E+03    0.85324E-03   -0.24547E+00  3648   0.523E+00    0.334E-01
DAV:   2    -0.124057868004E+03    0.12882E-02   -0.16311E-02  7104   0.445E-01    0.185E-01
DAV:   3    -0.124057382809E+03    0.48519E-03   -0.27807E-03  6000   0.144E-01    0.401E-02
DAV:   4    -0.124057383989E+03   -0.11798E-05   -0.22088E-04  5472   0.540E-02    0.158E-02
DAV:   5    -0.124057384844E+03   -0.85441E-06   -0.12007E-05  5856   0.149E-02    0.679E-03
DAV:   6    -0.124057386290E+03   -0.14469E-05   -0.54523E-06  5376   0.106E-02    0.230E-03
DAV:   7    -0.124057385785E+03    0.50530E-06   -0.26690E-06  5712   0.772E-03
  48 F= -.12591252E+03 E0= -.12591083E+03  d E =-.587747E-02  mag=     0.0000
       N       E                     dE             d eps       ncg     rms          rms(c)
DAV:   1    -0.124061289527E+03   -0.39032E-02   -0.10757E+00  3648   0.347E+00    0.221E-01
DAV:   2    -0.124060699068E+03    0.59046E-03   -0.72288E-03  6816   0.297E-01    0.123E-01
DAV:   3    -0.124060497254E+03    0.20181E-03   -0.12076E-03  5712   0.959E-02    0.271E-02
DAV:   4    -0.124060501806E+03   -0.45515E-05   -0.10389E-04  5280   0.361E-02    0.105E-02
DAV:   5    -0.124060503513E+03   -0.17072E-05   -0.46044E-06  5712   0.858E-03    0.442E-03
DAV:   6    -0.124060503593E+03   -0.80432E-07   -0.14360E-06  4992   0.492E-03
  49 F= -.12591525E+03 E0= -.12591365E+03  d E =-.860315E-02  mag=    -0.0000
       N       E                     dE             d eps       ncg     rms          rms(c)
DAV:   1    -0.124061644040E+03   -0.11405E-02   -0.36741E-02  3648   0.711E-01    0.447E-02
DAV:   2    -0.124061615426E+03    0.28614E-04   -0.48420E-04  6240   0.847E-02    0.237E-02
DAV:   3    -0.124061608807E+03    0.66194E-05   -0.45716E-05  5520   0.244E-02    0.887E-03
DAV:   4    -0.124061609106E+03   -0.29983E-06   -0.80706E-06  4272   0.113E-02
  50 F= -.12591646E+03 E0= -.12591485E+03  d E =-.121007E-02  mag=    -0.0000
       N       E                     dE             d eps       ncg     rms          rms(c)
DAV:   1    -0.124063222299E+03   -0.16135E-02   -0.33049E-01  3648   0.213E+00    0.134E-01
DAV:   2    -0.124062967280E+03    0.25502E-03   -0.42447E-03  6672   0.250E-01    0.707E-02
DAV:   3    -0.124062905356E+03    0.61924E-04   -0.38204E-04  5808   0.691E-02    0.264E-02
DAV:   4    -0.124062903829E+03    0.15270E-05   -0.60691E-05  5520   0.276E-02    0.921E-03
DAV:   5    -0.124062904553E+03   -0.72368E-06   -0.41584E-06  4464   0.979E-03
  51 F= -.12591806E+03 E0= -.12591639E+03  d E =-.281265E-02  mag=     0.0000
       N       E                     dE             d eps       ncg     rms          rms(c)
DAV:   1    -0.124062898224E+03    0.56052E-05   -0.30243E-04  5136   0.649E-02    0.431E-03
DAV:   2    -0.124062897268E+03    0.95608E-06   -0.61931E-06  4224   0.118E-02
  52 F= -.12591806E+03 E0= -.12591639E+03  d E =-.281433E-02  mag=     0.0000
       N       E                     dE             d eps       ncg     rms          rms(c)
DAV:   1    -0.124062983988E+03   -0.85764E-04   -0.40361E-03  4032   0.255E-01    0.183E-02
DAV:   2    -0.124062974544E+03    0.94448E-05   -0.10303E-04  4416   0.398E-02    0.876E-03
DAV:   3    -0.124062974028E+03    0.51573E-06   -0.11420E-05  4224   0.144E-02    0.387E-03
DAV:   4    -0.124062974476E+03   -0.44862E-06   -0.39597E-06  3648   0.971E-03
  53 F= -.12591820E+03 E0= -.12591652E+03  d E =-.137806E-03  mag=     0.0000
       N       E                     dE             d eps       ncg     rms          rms(c)
DAV:   1    -0.124062974365E+03   -0.33720E-06   -0.61320E-03  3840   0.314E-01    0.225E-02
DAV:   2    -0.124062960744E+03    0.13621E-04   -0.15774E-04  5568   0.483E-02    0.108E-02
DAV:   3    -0.124062959617E+03    0.11266E-05   -0.14090E-05  4512   0.154E-02    0.475E-03
DAV:   4    -0.124062960088E+03   -0.47086E-06   -0.39320E-06  3744   0.939E-03
  54 F= -.12591826E+03 E0= -.12591658E+03  d E =-.197801E-03  mag=     0.0000
       N       E                     dE             d eps       ncg     rms          rms(c)
DAV:   1    -0.124062932054E+03    0.27563E-04   -0.16000E-03  3840   0.155E-01    0.800E-03
DAV:   2    -0.124062930605E+03    0.14489E-05   -0.17795E-05  3936   0.186E-02    0.459E-03
DAV:   3    -0.124062931317E+03   -0.71171E-06   -0.42278E-06  3840   0.931E-03
  55 F= -.12591831E+03 E0= -.12591663E+03  d E =-.482604E-04  mag=    -0.0000
       N       E                     dE             d eps       ncg     rms          rms(c)
DAV:   1    -0.124062795367E+03    0.13524E-03   -0.14423E-02  3648   0.466E-01    0.242E-02
DAV:   2    -0.124062786476E+03    0.88917E-05   -0.14719E-04  4320   0.502E-02    0.138E-02
DAV:   3    -0.124062785551E+03    0.92487E-06   -0.23972E-05  5040   0.182E-02    0.335E-03
DAV:   4    -0.124062786220E+03   -0.66910E-06   -0.62913E-06  3744   0.122E-02
  56 F= -.12591840E+03 E0= -.12591672E+03  d E =-.134475E-03  mag=    -0.0000
       N       E                     dE             d eps       ncg     rms          rms(c)
DAV:   1    -0.124062684808E+03    0.10074E-03   -0.34282E-03  3648   0.227E-01    0.119E-02
DAV:   2    -0.124062682361E+03    0.24465E-05   -0.36904E-05  4128   0.259E-02    0.684E-03
DAV:   3    -0.124062682972E+03   -0.61139E-06   -0.68342E-06  3792   0.110E-02
  57 F= -.12591841E+03 E0= -.12591673E+03  d E =-.144155E-03  mag=     0.0000
       N       E                     dE             d eps       ncg     rms          rms(c)
DAV:   1    -0.124062536432E+03    0.14593E-03   -0.51752E-03  3648   0.276E-01    0.142E-02
DAV:   2    -0.124062533358E+03    0.30735E-05   -0.64617E-05  3648   0.343E-02    0.860E-03
DAV:   3    -0.124062533841E+03   -0.48214E-06   -0.12352E-05  5088   0.153E-02    0.289E-03
DAV:   4    -0.124062533986E+03   -0.14495E-06   -0.58275E-06  3648   0.122E-02
  58 F= -.12591846E+03 E0= -.12591678E+03  d E =-.510811E-04  mag=     0.0000
       N       E                     dE             d eps       ncg     rms          rms(c)
DAV:   1    -0.124062317694E+03    0.21615E-03   -0.74954E-03  3648   0.332E-01    0.172E-02
DAV:   2    -0.124062313822E+03    0.38721E-05   -0.91514E-05  3648   0.395E-02    0.104E-02
DAV:   3    -0.124062313265E+03    0.55696E-06   -0.15298E-05  4992   0.152E-02    0.341E-03
DAV:   4    -0.124062313486E+03   -0.22131E-06   -0.40357E-06  3648   0.961E-03
  59 F= -.12591848E+03 E0= -.12591680E+03  d E =-.716849E-04  mag=     0.0000
       N       E                     dE             d eps       ncg     rms          rms(c)
DAV:   1    -0.124062110826E+03    0.20244E-03   -0.54458E-03  3648   0.280E-01    0.147E-02
DAV:   2    -0.124062107348E+03    0.34779E-05   -0.68725E-05  3648   0.341E-02    0.864E-03
DAV:   3    -0.124062106850E+03    0.49752E-06   -0.10716E-05  5184   0.129E-02    0.272E-03
DAV:   4    -0.124062107133E+03   -0.28246E-06   -0.30130E-06  3744   0.849E-03
  60 F= -.12591852E+03 E0= -.12591684E+03  d E =-.459142E-04  mag=     0.0000
       N       E                     dE             d eps       ncg     rms          rms(c)
DAV:   1    -0.124061742484E+03    0.36437E-03   -0.13761E-02  3648   0.445E-01    0.236E-02
DAV:   2    -0.124061733826E+03    0.86583E-05   -0.17046E-04  3648   0.529E-02    0.138E-02
DAV:   3    -0.124061732041E+03    0.17851E-05   -0.25909E-05  5136   0.189E-02    0.433E-03
DAV:   4    -0.124061732373E+03   -0.33272E-06   -0.50890E-06  3696   0.102E-02
  61 F= -.12591855E+03 E0= -.12591686E+03  d E =-.722385E-04  mag=     0.0000
       N       E                     dE             d eps       ncg     rms          rms(c)
DAV:   1    -0.124061485982E+03    0.24606E-03   -0.62364E-03  3648   0.294E-01    0.149E-02
DAV:   2    -0.124061483460E+03    0.25226E-05   -0.74298E-05  3792   0.354E-02    0.903E-03
DAV:   3    -0.124061483071E+03    0.38893E-06   -0.11339E-05  4416   0.132E-02    0.239E-03
DAV:   4    -0.124061483456E+03   -0.38546E-06   -0.35981E-06  3648   0.928E-03
  62 F= -.12591860E+03 E0= -.12591692E+03  d E =-.519676E-04  mag=     0.0000
       N       E                     dE             d eps       ncg     rms          rms(c)
DAV:   1    -0.124060735097E+03    0.74797E-03   -0.56170E-02  3648   0.882E-01    0.448E-02
DAV:   2    -0.124060711064E+03    0.24033E-04   -0.64181E-04  4080   0.101E-01    0.267E-02
DAV:   3    -0.124060702858E+03    0.82058E-05   -0.90792E-05  4416   0.329E-02    0.673E-03
DAV:   4    -0.124060703687E+03   -0.82874E-06   -0.13537E-05  4368   0.139E-02    0.282E-03
DAV:   5    -0.124060704013E+03   -0.32648E-06   -0.17770E-06  4272   0.666E-03
  63 F= -.12591873E+03 E0= -.12591705E+03  d E =-.176050E-03  mag=    -0.0000
       N       E                     dE             d eps       ncg     rms          rms(c)
DAV:   1    -0.124059131902E+03    0.15718E-02   -0.22467E-01  3648   0.176E+00    0.890E-02
DAV:   2    -0.124059038606E+03    0.93296E-04   -0.25542E-03  4464   0.199E-01    0.526E-02
DAV:   3    -0.124059001490E+03    0.37116E-04   -0.35171E-04  5280   0.630E-02    0.131E-02
DAV:   4    -0.124059002984E+03   -0.14942E-05   -0.44443E-05  5904   0.226E-02    0.536E-03
DAV:   5    -0.124059003539E+03   -0.55499E-06   -0.13866E-06  5088   0.465E-03
  64 F= -.12591884E+03 E0= -.12591718E+03  d E =-.286490E-03  mag=     0.0000
       N       E                     dE             d eps       ncg     rms          rms(c)
DAV:   1    -0.124058697427E+03    0.30556E-03   -0.89223E-03  3648   0.352E-01    0.174E-02
DAV:   2    -0.124058694448E+03    0.29786E-05   -0.11145E-04  4608   0.418E-02    0.105E-02
DAV:   3    -0.124058693462E+03    0.98571E-06   -0.13349E-05  4272   0.129E-02    0.309E-03
DAV:   4    -0.124058693685E+03   -0.22287E-06   -0.22491E-06  4128   0.564E-03
  65 F= -.12591890E+03 E0= -.12591724E+03  d E =-.611521E-04  mag=     0.0000
       N       E                     dE             d eps       ncg     rms          rms(c)
DAV:   1    -0.124057751239E+03    0.94222E-03   -0.79930E-02  3648   0.105E+00    0.531E-02
DAV:   2    -0.124057719599E+03    0.31641E-04   -0.97443E-04  4560   0.123E-01    0.319E-02
DAV:   3    -0.124057707989E+03    0.11610E-04   -0.12137E-04  4704   0.384E-02    0.920E-03
DAV:   4    -0.124057708823E+03   -0.83390E-06   -0.18962E-05  4704   0.153E-02    0.401E-03
DAV:   5    -0.124057709087E+03   -0.26358E-06   -0.10110E-06  4800   0.499E-03
  66 F= -.12591903E+03 E0= -.12591737E+03  d E =-.190803E-03  mag=    -0.0000
       N       E                     dE             d eps       ncg     rms          rms(c)
DAV:   1    -0.124055663035E+03    0.20458E-02   -0.31991E-01  3648   0.211E+00    0.106E-01
DAV:   2    -0.124055547267E+03    0.11577E-03   -0.39281E-03  4944   0.247E-01    0.634E-02
DAV:   3    -0.124055493380E+03    0.53887E-04   -0.48294E-04  5808   0.754E-02    0.181E-02
DAV:   4    -0.124055494252E+03   -0.87245E-06   -0.64549E-05  5616   0.290E-02    0.806E-03
DAV:   5    -0.124055494653E+03   -0.40040E-06   -0.33434E-06  5376   0.901E-03
  67 F= -.12591904E+03 E0= -.12591740E+03  d E =-.208485E-03  mag=     0.0000
       N       E                     dE             d eps       ncg     rms          rms(c)
DAV:   1    -0.124056592747E+03   -0.10985E-02   -0.67843E-02  3648   0.972E-01    0.487E-02
DAV:   2    -0.124056567510E+03    0.25237E-04   -0.85102E-04  5376   0.115E-01    0.294E-02
DAV:   3    -0.124056557344E+03    0.10166E-04   -0.10162E-04  4128   0.353E-02    0.865E-03
DAV:   4    -0.124056558836E+03   -0.14922E-05   -0.17195E-05  4992   0.171E-02    0.419E-03
DAV:   5    -0.124056558709E+03    0.12689E-06   -0.19151E-06  4272   0.701E-03
  68 F= -.12591908E+03 E0= -.12591743E+03  d E =-.242052E-03  mag=     0.0000
       N       E                     dE             d eps       ncg     rms          rms(c)
DAV:   1    -0.124056223002E+03    0.33583E-03   -0.10084E-02  3648   0.373E-01    0.186E-02
DAV:   2    -0.124056219031E+03    0.39711E-05   -0.12300E-04  4992   0.440E-02    0.112E-02
DAV:   3    -0.124056217793E+03    0.12378E-05   -0.15134E-05  4416   0.133E-02    0.305E-03
DAV:   4    -0.124056218117E+03   -0.32391E-06   -0.22023E-06  4608   0.568E-03
  69 F= -.12591914E+03 E0= -.12591749E+03  d E =-.608833E-04  mag=    -0.0000
       N       E                     dE             d eps       ncg     rms          rms(c)
DAV:   1    -0.124055220334E+03    0.99746E-03   -0.90899E-02  3648   0.112E+00    0.558E-02
DAV:   2    -0.124055184919E+03    0.35414E-04   -0.10523E-03  3696   0.129E-01    0.336E-02
DAV:   3    -0.124055173018E+03    0.11901E-04   -0.14429E-04  4464   0.417E-02    0.881E-03
DAV:   4    -0.124055174103E+03   -0.10842E-05   -0.20782E-05  4656   0.163E-02    0.360E-03
DAV:   5    -0.124055174514E+03   -0.41112E-06   -0.19517E-06  5328   0.693E-03
  70 F= -.12591930E+03 E0= -.12591766E+03  d E =-.223080E-03  mag=    -0.0000
       N       E                     dE             d eps       ncg     rms          rms(c)
DAV:   1    -0.124053174156E+03    0.19999E-02   -0.36375E-01  3648   0.224E+00    0.111E-01
DAV:   2    -0.124053050230E+03    0.12393E-03   -0.42620E-03  4704   0.257E-01    0.665E-02
DAV:   3    -0.124052988883E+03    0.61347E-04   -0.52809E-04  5328   0.778E-02    0.174E-02
DAV:   4    -0.124052990520E+03   -0.16371E-05   -0.67701E-05  6336   0.287E-02    0.704E-03
DAV:   5    -0.124052991118E+03   -0.59800E-06   -0.34419E-06  5520   0.840E-03
  71 F= -.12591954E+03 E0= -.12591790E+03  d E =-.457539E-03  mag=    -0.0000
       N       E                     dE             d eps       ncg     rms          rms(c)
DAV:   1    -0.124048969037E+03    0.40215E-02   -0.14549E+00  3648   0.448E+00    0.222E-01
DAV:   2    -0.124048493093E+03    0.47594E-03   -0.17136E-02  5280   0.514E-01    0.133E-01
DAV:   3    -0.124048242734E+03    0.25036E-03   -0.20725E-03  5232   0.153E-01    0.348E-02
DAV:   4    -0.124048242023E+03    0.71024E-06   -0.26782E-04  6768   0.563E-02    0.142E-02
DAV:   5    -0.124048241329E+03    0.69406E-06   -0.91502E-06  6144   0.125E-02
  72 F= -.12591965E+03 E0= -.12591801E+03  d E =-.568246E-03  mag=    -0.0000
       N       E                     dE             d eps       ncg     rms          rms(c)
DAV:   1    -0.124049854857E+03   -0.16128E-02   -0.14212E-01  3648   0.140E+00    0.701E-02
DAV:   2    -0.124049805416E+03    0.49442E-04   -0.17186E-03  5616   0.162E-01    0.422E-02
DAV:   3    -0.124049783978E+03    0.21438E-04   -0.20996E-04  4368   0.484E-02    0.111E-02
DAV:   4    -0.124049786485E+03   -0.25066E-05   -0.27887E-05  5328   0.189E-02    0.443E-03
DAV:   5    -0.124049788368E+03   -0.18831E-05   -0.14446E-06  4512   0.573E-03    0.116E-03
DAV:   6    -0.124049788733E+03   -0.36502E-06   -0.52821E-07  5952   0.346E-03
  73 F= -.12591967E+03 E0= -.12591804E+03  d E =-.590233E-03  mag=    -0.0000
       N       E                     dE             d eps       ncg     rms          rms(c)
DAV:   1    -0.124048721117E+03    0.10673E-02   -0.11312E-01  3648   0.125E+00    0.650E-02
DAV:   2    -0.124048659250E+03    0.61867E-04   -0.13698E-03  5376   0.145E-01    0.376E-02
DAV:   3    -0.124048640217E+03    0.19034E-04   -0.17805E-04  4800   0.447E-02    0.982E-03
DAV:   4    -0.124048641328E+03   -0.11110E-05   -0.21735E-05  5184   0.162E-02    0.383E-03
DAV:   5    -0.124048641576E+03   -0.24884E-06   -0.83310E-07  4176   0.339E-03
  74 F= -.12591985E+03 E0= -.12591823E+03  d E =-.178863E-03  mag=    -0.0000
       N       E                     dE             d eps       ncg     rms          rms(c)
DAV:   1    -0.124047805959E+03    0.83537E-03   -0.53347E-02  3648   0.859E-01    0.445E-02
DAV:   2    -0.124047776765E+03    0.29194E-04   -0.64423E-04  4320   0.998E-02    0.258E-02
DAV:   3    -0.124047768280E+03    0.84855E-05   -0.86583E-05  3984   0.318E-02    0.679E-03
DAV:   4    -0.124047769035E+03   -0.75483E-06   -0.12304E-05  5232   0.121E-02    0.267E-03
DAV:   5    -0.124047769221E+03   -0.18664E-06   -0.57670E-07  4416   0.338E-03
  75 F= -.12591989E+03 E0= -.12591827E+03  d E =-.217485E-03  mag=     0.0000
       N       E                     dE             d eps       ncg     rms          rms(c)
DAV:   1    -0.124047457932E+03    0.31110E-03   -0.95022E-03  3648   0.370E-01    0.186E-02
DAV:   2    -0.124047454429E+03    0.35031E-05   -0.12412E-04  5088   0.445E-02    0.112E-02
DAV:   3    -0.124047453025E+03    0.14032E-05   -0.14867E-05  3984   0.139E-02    0.352E-03
DAV:   4    -0.124047453175E+03   -0.14931E-06   -0.26888E-06  5088   0.592E-03
  76 F= -.12591993E+03 E0= -.12591833E+03  d E =-.442584E-04  mag=     0.0000
       N       E                     dE             d eps       ncg     rms          rms(c)
DAV:   1    -0.124047189354E+03    0.26367E-03   -0.55739E-03  3648   0.283E-01    0.146E-02
DAV:   2    -0.124047187276E+03    0.20779E-05   -0.72818E-05  5184   0.342E-02    0.880E-03
DAV:   3    -0.124047186512E+03    0.76421E-06   -0.87927E-06  4224   0.107E-02
  77 F= -.12591994E+03 E0= -.12591834E+03  d E =-.540055E-04  mag=    -0.0000
       N       E                     dE             d eps       ncg     rms          rms(c)
DAV:   1    -0.124046866126E+03    0.32115E-03   -0.94694E-03  3648   0.368E-01    0.188E-02
DAV:   2    -0.124046862942E+03    0.31843E-05   -0.11703E-04  4848   0.431E-02    0.112E-02
DAV:   3    -0.124046861976E+03    0.96589E-06   -0.11729E-05  4512   0.126E-02    0.342E-03
DAV:   4    -0.124046862120E+03   -0.14372E-06   -0.20860E-06  4656   0.553E-03
  78 F= -.12591998E+03 E0= -.12591839E+03  d E =-.421130E-04  mag=    -0.0000
       N       E                     dE             d eps       ncg     rms          rms(c)
DAV:   1    -0.124046169934E+03    0.69204E-03   -0.37859E-02  3648   0.736E-01    0.365E-02
DAV:   2    -0.124046158734E+03    0.11200E-04   -0.46761E-04  4224   0.861E-02    0.218E-02
DAV:   3    -0.124046153490E+03    0.52439E-05   -0.47889E-05  4992   0.253E-02    0.675E-03
DAV:   4    -0.124046153822E+03   -0.33223E-06   -0.78127E-06  5856   0.996E-03
  79 F= -.12592001E+03 E0= -.12591843E+03  d E =-.694805E-04  mag=    -0.0000
       N       E                     dE             d eps       ncg     rms          rms(c)
DAV:   1    -0.124045950775E+03    0.20271E-03   -0.37122E-03  3648   0.229E-01    0.110E-02
DAV:   2    -0.124045950656E+03    0.11955E-06   -0.41917E-05  4272   0.263E-02    0.677E-03
DAV:   3    -0.124045950238E+03    0.41739E-06   -0.49531E-06  4656   0.865E-03
  80 F= -.12592004E+03 E0= -.12591846E+03  d E =-.293546E-04  mag=     0.0000
       N       E                     dE             d eps       ncg     rms          rms(c)
DAV:   1    -0.124045331010E+03    0.61965E-03   -0.33467E-02  3648   0.688E-01    0.332E-02
DAV:   2    -0.124045325379E+03    0.56318E-05   -0.36115E-04  4704   0.765E-02    0.202E-02
DAV:   3    -0.124045321454E+03    0.39241E-05   -0.42169E-05  4704   0.234E-02    0.512E-03
DAV:   4    -0.124045321725E+03   -0.27046E-06   -0.73010E-06  5424   0.110E-02
  81 F= -.12592011E+03 E0= -.12591854E+03  d E =-.100321E-03  mag=     0.0000
       N       E                     dE             d eps       ncg     rms          rms(c)
DAV:   1    -0.124044020034E+03    0.13014E-02   -0.13354E-01  3648   0.137E+00    0.658E-02
DAV:   2    -0.124043999780E+03    0.20254E-04   -0.14561E-03  4944   0.153E-01    0.398E-02
DAV:   3    -0.124043981976E+03    0.17804E-04   -0.16610E-04  5424   0.452E-02    0.996E-03
DAV:   4    -0.124043982471E+03   -0.49521E-06   -0.23566E-05  6000   0.188E-02    0.405E-03
DAV:   5    -0.124043982818E+03   -0.34642E-06   -0.38879E-06  5568   0.939E-03
  82 F= -.12592017E+03 E0= -.12591862E+03  d E =-.162738E-03  mag=     0.0000
       N       E                     dE             d eps       ncg     rms          rms(c)
DAV:   1    -0.124043844786E+03    0.13769E-03   -0.35127E-03  3648   0.232E-01    0.119E-02
DAV:   2    -0.124043844688E+03    0.97429E-07   -0.54697E-05  6432   0.303E-02    0.745E-03
DAV:   3    -0.124043844322E+03    0.36637E-06   -0.59991E-06  4128   0.928E-03
  83 F= -.12592020E+03 E0= -.12591865E+03  d E =-.232218E-04  mag=     0.0000
       N       E                     dE             d eps       ncg     rms          rms(c)
DAV:   1    -0.124043838391E+03    0.62979E-05   -0.92987E-06  4896   0.119E-02    0.218E-03
DAV:   2    -0.124043838500E+03   -0.10972E-06   -0.43043E-07  5136   0.341E-03
  84 F= -.12592020E+03 E0= -.12591865E+03  d E =-.237576E-04  mag=     0.0000
       N       E                     dE             d eps       ncg     rms          rms(c)
DAV:   1    -0.124043826161E+03    0.12229E-04   -0.21289E-05  5136   0.184E-02    0.140E-03
DAV:   2    -0.124043826270E+03   -0.10872E-06   -0.47920E-07  5232   0.362E-03
  85 F= -.12592020E+03 E0= -.12591865E+03  d E =-.242419E-04  mag=     0.0000
       N       E                     dE             d eps       ncg     rms          rms(c)
DAV:   1    -0.124043785513E+03    0.40648E-04   -0.49021E-04  3648   0.867E-02    0.438E-03
DAV:   2    -0.124043785466E+03    0.47755E-07   -0.46380E-06  5904   0.914E-03
  86 F= -.12592020E+03 E0= -.12591866E+03  d E =-.720421E-05  mag=    -0.0000
       N       E                     dE             d eps       ncg     rms          rms(c)
DAV:   1    -0.124043711961E+03    0.73553E-04   -0.12488E-03  3648   0.139E-01    0.725E-03
DAV:   2    -0.124043711521E+03    0.43988E-06   -0.11118E-05  5376   0.140E-02    0.425E-03
DAV:   3    -0.124043711657E+03   -0.13619E-06   -0.16830E-06  4176   0.527E-03
  87 F= -.12592021E+03 E0= -.12591867E+03  d E =-.107687E-04  mag=    -0.0000
       N       E                     dE             d eps       ncg     rms          rms(c)
DAV:   1    -0.124043726692E+03   -0.15171E-04   -0.45484E-05  5232   0.268E-02    0.122E-03
DAV:   2    -0.124043726717E+03   -0.24581E-07   -0.71510E-07  5232   0.414E-03
  88 F= -.12592021E+03 E0= -.12591866E+03  d E =-.111435E-04  mag=    -0.0000
       N       E                     dE             d eps       ncg     rms          rms(c)
DAV:   1    -0.124043705233E+03    0.21459E-04   -0.28176E-04  4608   0.663E-02    0.337E-03
DAV:   2    -0.124043705098E+03    0.13553E-06   -0.33673E-06  4992   0.797E-03
  89 F= -.12592021E+03 E0= -.12591867E+03  d E =-.355976E-05  mag=    -0.0000
       N       E                     dE             d eps       ncg     rms          rms(c)
DAV:   1    -0.124043681548E+03    0.23685E-04   -0.25679E-04  4032   0.638E-02    0.370E-03
DAV:   2    -0.124043681380E+03    0.16818E-06   -0.30326E-06  4752   0.769E-03
  90 F= -.12592021E+03 E0= -.12591867E+03  d E =-.436013E-05  mag=    -0.0000
       N       E                     dE             d eps       ncg     rms          rms(c)
DAV:   1    -0.124043658682E+03    0.22866E-04   -0.28683E-04  3936   0.675E-02    0.358E-03
DAV:   2    -0.124043658540E+03    0.14198E-06   -0.40474E-06  4368   0.906E-03
  91 F= -.12592021E+03 E0= -.12591867E+03  d E =-.189863E-05  mag=    -0.0000
       N       E                     dE             d eps       ncg     rms          rms(c)
DAV:   1    -0.124043652735E+03    0.59479E-05   -0.15330E-05  3696   0.166E-02    0.140E-03
DAV:   2    -0.124043652668E+03    0.66259E-07   -0.53250E-07  4416   0.383E-03
  92 F= -.12592021E+03 E0= -.12591867E+03  d E =-.197773E-05  mag=    -0.0000
       N       E                     dE             d eps       ncg     rms          rms(c)
DAV:   1    -0.124043644203E+03    0.85318E-05   -0.54809E-05  3648   0.288E-02    0.180E-03
DAV:   2    -0.124043644060E+03    0.14238E-06   -0.12354E-06  4224   0.518E-03
  93 F= -.12592022E+03 E0= -.12591867E+03  d E =-.112201E-05  mag=    -0.0000
       N       E                     dE             d eps       ncg     rms          rms(c)
DAV:   1    -0.124043630228E+03    0.13974E-04   -0.11866E-04  3648   0.425E-02    0.275E-03
DAV:   2    -0.124043630003E+03    0.22571E-06   -0.20542E-06  5184   0.633E-03
  94 F= -.12592022E+03 E0= -.12591868E+03  d E =-.157153E-05  mag=    -0.0000
       N       E                     dE             d eps       ncg     rms          rms(c)
DAV:   1    -0.124043618852E+03    0.11376E-04   -0.69644E-05  3648   0.341E-02    0.199E-03
DAV:   2    -0.124043618703E+03    0.14901E-06   -0.15188E-06  4224   0.642E-03
  95 F= -.12592022E+03 E0= -.12591868E+03  d E =-.745579E-06  mag=    -0.0000
       N       E                     dE             d eps       ncg     rms          rms(c)
DAV:   1    -0.124043613119E+03    0.57329E-05   -0.15566E-05  3840   0.168E-02    0.120E-03
DAV:   2    -0.124043613000E+03    0.11907E-06   -0.64154E-07  4752   0.425E-03
  96 F= -.12592022E+03 E0= -.12591868E+03  d E =-.809544E-06  mag=    -0.0000
       N       E                     dE             d eps       ncg     rms          rms(c)
DAV:   1    -0.124043599281E+03    0.13838E-04   -0.66049E-05  3840   0.293E-02    0.203E-03
DAV:   2    -0.124043599074E+03    0.20692E-06   -0.13195E-06  3744   0.499E-03
  97 F= -.12592022E+03 E0= -.12591868E+03  d E =-.860816E-06  mag=    -0.0000
       N       E                     dE             d eps       ncg     rms          rms(c)
DAV:   1    -0.124043575494E+03    0.23787E-04   -0.17343E-04  3744   0.475E-02    0.334E-03
DAV:   2    -0.124043575124E+03    0.37024E-06   -0.27403E-06  3792   0.671E-03
  98 F= -.12592022E+03 E0= -.12591868E+03  d E =-.114147E-05  mag=    -0.0000
       N       E                     dE             d eps       ncg     rms          rms(c)
DAV:   1    -0.124043557855E+03    0.17639E-04   -0.10928E-04  3744   0.413E-02    0.252E-03
DAV:   2    -0.124043557646E+03    0.20829E-06   -0.19605E-06  3744   0.678E-03
  99 F= -.12592022E+03 E0= -.12591868E+03  d E =-.611125E-06  mag=    -0.0000
       N       E                     dE             d eps       ncg     rms          rms(c)
DAV:   1    -0.124043552389E+03    0.54656E-05   -0.93591E-06  3744   0.130E-02    0.112E-03
DAV:   2    -0.124043552258E+03    0.13079E-06   -0.58926E-07  3840   0.394E-03
 100 F= -.12592022E+03 E0= -.12591868E+03  d E =-.611917E-06  mag=    -0.0000
       N       E                     dE             d eps       ncg     rms          rms(c)
DAV:   1    -0.124043534962E+03    0.17428E-04   -0.11897E-04  3744   0.416E-02    0.250E-03
DAV:   2    -0.124043534732E+03    0.22952E-06   -0.19005E-06  3744   0.613E-03
 101 F= -.12592022E+03 E0= -.12591868E+03  d E =-.697340E-06  mag=    -0.0000
       N       E                     dE             d eps       ncg     rms          rms(c)
DAV:   1    -0.124043528581E+03    0.63807E-05   -0.13306E-05  3648   0.147E-02    0.117E-03
DAV:   2    -0.124043528449E+03    0.13215E-06   -0.62349E-07  3936   0.393E-03
 102 F= -.12592022E+03 E0= -.12591869E+03  d E =-.702360E-06  mag=    -0.0000
       N       E                     dE             d eps       ncg     rms          rms(c)
DAV:   1    -0.124043530384E+03   -0.18033E-05   -0.17742E-06  3648   0.582E-03    0.329E-04
DAV:   2    -0.124043530266E+03    0.11852E-06   -0.46928E-07  4224   0.333E-03
 103 F= -.12592022E+03 E0= -.12591869E+03  d E =-.724237E-06  mag=     0.0000
       N       E                     dE             d eps       ncg     rms          rms(c)
DAV:   1    -0.124043521651E+03    0.87326E-05   -0.32740E-05  5376   0.223E-02    0.169E-03
DAV:   2    -0.124043521546E+03    0.10510E-06   -0.85626E-07  5088   0.342E-03
 104 F= -.12592022E+03 E0= -.12591869E+03  d E =-.122142E-06  mag=     0.0000
       N       E                     dE             d eps       ncg     rms          rms(c)
DAV:   1    -0.124043522866E+03   -0.12149E-05   -0.97487E-07  5136   0.370E-03    0.312E-04
DAV:   2    -0.124043522866E+03    0.44201E-09   -0.42985E-08  5424   0.837E-04
 105 F= -.12592022E+03 E0= -.12591869E+03  d E =-.135293E-06  mag=     0.0000
