Lattice                                 
           1
     4.309342    2.488000    0.000000
    -4.309342    2.488000    0.000000
     0.000000    0.000000   15.000000
   B    C 
     8     8
Direct configuration=     1
   0.66888689  0.00000000  0.10000000
   0.33111211  0.00000000  0.10000000
   0.00000000  0.33111211  0.10000000
   0.00000000  0.66888689  0.10000000
   0.33111211  0.33111211  0.10000000
   0.66888689  0.66888689  0.10000000
   0.66666600  0.33333300  0.09922189
   0.33333300  0.66666600  0.10077811
   0.16666600  0.33333300  0.46773333
   0.33333300  0.16666600  0.46773333
   0.16666600  0.83333300  0.46773333
   0.33333300  0.66666600  0.46773333
   0.66666600  0.33333300  0.46773333
   0.83333300  0.16666600  0.46773333
   0.66666600  0.83333300  0.46773333
   0.83333300  0.66666600  0.46773333
Direct configuration=     2
   0.67065912  0.00000003  0.10002699
   0.32933991  0.00000003  0.10002699
  -0.00000003  0.32933988  0.10002699
  -0.00000003  0.67065909  0.10002699
   0.32933991  0.32933988  0.10002699
   0.67065912  0.67065909  0.10002699
   0.66666600  0.33333300  0.09924432
   0.33333300  0.66666600  0.10081568
   0.16666367  0.33332835  0.46770558
   0.33332847  0.16666373  0.46770560
   0.16666367  0.83333533  0.46770558
   0.33333300  0.66666600  0.46770556
   0.66666600  0.33333300  0.46770565
   0.83333527  0.16666373  0.46770560
   0.66667065  0.83333533  0.46770558
   0.83333527  0.66667053  0.46770560
Direct configuration=     3
   0.66979207  0.00000001  0.10001378
   0.33020694  0.00000001  0.10001378
  -0.00000001  0.33020693  0.10001378
  -0.00000001  0.66979206  0.10001378
   0.33020694  0.33020693  0.10001378
   0.66979207  0.66979206  0.10001378
   0.66666600  0.33333300  0.09923334
   0.33333300  0.66666600  0.10079730
   0.16666481  0.33333062  0.46771916
   0.33333069  0.16666484  0.46771917
   0.16666481  0.83333419  0.46771916
   0.33333300  0.66666600  0.46771915
   0.66666600  0.33333300  0.46771919
   0.83333416  0.16666484  0.46771917
   0.66666838  0.83333419  0.46771916
   0.83333416  0.66666831  0.46771917
Direct configuration=     4
   0.66979770  0.00000001  0.10001387
   0.33020132  0.00000001  0.10001387
  -0.00000001  0.33020130  0.10001387
  -0.00000001  0.66979768  0.10001387
   0.33020132  0.33020130  0.10001387
   0.66979770  0.66979768  0.10001387
   0.66666600  0.33333300  0.09923342
   0.33333300  0.66666600  0.10079742
   0.16666480  0.33333061  0.46771907
   0.33333067  0.16666484  0.46771908
   0.16666480  0.83333420  0.46771907
   0.33333300  0.66666600  0.46771906
   0.66666600  0.33333300  0.46771911
   0.83333416  0.16666484  0.46771908
   0.66666839  0.83333420  0.46771907
   0.83333416  0.66666833  0.46771908
Direct configuration=     5
   0.66979551  0.00000001  0.10001384
   0.33020350  0.00000001  0.10001384
  -0.00000001  0.33020349  0.10001384
  -0.00000001  0.66979550  0.10001384
   0.33020350  0.33020349  0.10001384
   0.66979551  0.66979550  0.10001384
   0.66666600  0.33333300  0.09923339
   0.33333300  0.66666600  0.10079738
   0.16666481  0.33333061  0.46771910
   0.33333068  0.16666484  0.46771911
   0.16666481  0.83333419  0.46771910
   0.33333300  0.66666600  0.46771910
   0.66666600  0.33333300  0.46771914
   0.83333416  0.16666484  0.46771911
   0.66666839  0.83333419  0.46771910
   0.83333416  0.66666832  0.46771911
Direct configuration=     6
   0.66979379  0.00000001  0.10001381
   0.33020522  0.00000001  0.10001381
  -0.00000001  0.33020521  0.10001381
  -0.00000001  0.66979378  0.10001381
   0.33020522  0.33020521  0.10001381
   0.66979379  0.66979378  0.10001381
   0.66666600  0.33333300  0.09923337
   0.33333300  0.66666600  0.10079734
   0.16666481  0.33333062  0.46771913
   0.33333068  0.16666484  0.46771914
   0.16666481  0.83333419  0.46771913
   0.33333300  0.66666600  0.46771912
   0.66666600  0.33333300  0.46771917
   0.83333416  0.16666484  0.46771914
   0.66666838  0.83333419  0.46771913
   0.83333416  0.66666832  0.46771914
Direct configuration=     7
   0.66979377 -0.00000002  0.10003843
   0.33020521 -0.00000002  0.10003843
   0.00000002  0.33020523  0.10003843
   0.00000002  0.66979379  0.10003843
   0.33020521  0.33020523  0.10003843
   0.66979377  0.66979379  0.10003843
   0.66666600  0.33333300  0.09925667
   0.33333300  0.66666600  0.10082782
   0.16666654  0.33333407  0.46769392
   0.33333404  0.16666652  0.46769395
   0.16666654  0.83333246  0.46769392
   0.33333300  0.66666600  0.46769392
   0.66666600  0.33333300  0.46769402
   0.83333248  0.16666652  0.46769395
   0.66666493  0.83333246  0.46769392
   0.83333248  0.66666496  0.46769395
Direct configuration=     8
   0.66979371 -0.00000010  0.10011230
   0.33020519 -0.00000010  0.10011230
   0.00000010  0.33020529  0.10011230
   0.00000010  0.66979381  0.10011230
   0.33020519  0.33020529  0.10011230
   0.66979371  0.66979381  0.10011230
   0.66666600  0.33333300  0.09932660
   0.33333300  0.66666600  0.10091924
   0.16667172  0.33334444  0.46761831
   0.33334411  0.16667155  0.46761839
   0.16667172  0.83332728  0.46761831
   0.33333300  0.66666600  0.46761831
   0.66666600  0.33333300  0.46761858
   0.83332745  0.16667155  0.46761839
   0.66665456  0.83332728  0.46761831
   0.83332745  0.66665489  0.46761839
Direct configuration=     9
   0.66979358 -0.00000028  0.10026005
   0.33020513 -0.00000028  0.10026005
   0.00000028  0.33020542  0.10026005
   0.00000028  0.66979387  0.10026005
   0.33020513  0.33020542  0.10026005
   0.66979358  0.66979387  0.10026005
   0.66666600  0.33333300  0.09946644
   0.33333300  0.66666600  0.10110210
   0.16668209  0.33336517  0.46746708
   0.33336425  0.16668163  0.46746727
   0.16668209  0.83331691  0.46746708
   0.33333300  0.66666600  0.46746710
   0.66666600  0.33333300  0.46746771
   0.83331737  0.16668163  0.46746727
   0.66663383  0.83331691  0.46746708
   0.83331737  0.66663475  0.46746727
Direct configuration=    10
   0.66979334 -0.00000064  0.10055553
   0.33020502 -0.00000064  0.10055553
   0.00000064  0.33020566  0.10055553
   0.00000064  0.66979398  0.10055553
   0.33020502  0.33020566  0.10055553
   0.66979334  0.66979398  0.10055553
   0.66666600  0.33333300  0.09974614
   0.33333300  0.66666600  0.10146782
   0.16670282  0.33340664  0.46716461
   0.33340454  0.16670177  0.46716501
   0.16670282  0.83329618  0.46716461
   0.33333300  0.66666600  0.46716468
   0.66666600  0.33333300  0.46716596
   0.83329723  0.16670177  0.46716501
   0.66659236  0.83329618  0.46716461
   0.83329723  0.66659446  0.46716501
Direct configuration=    11
   0.66979284 -0.00000136  0.10114650
   0.33020479 -0.00000136  0.10114650
   0.00000136  0.33020616  0.10114650
   0.00000136  0.66979421  0.10114650
   0.33020479  0.33020616  0.10114650
   0.66979284  0.66979421  0.10114650
   0.66666600  0.33333300  0.10030552
   0.33333300  0.66666600  0.10219925
   0.16674429  0.33348958  0.46655969
   0.33348512  0.16674206  0.46656051
   0.16674429  0.83325471  0.46655969
   0.33333300  0.66666600  0.46655983
   0.66666600  0.33333300  0.46656247
   0.83325694  0.16674206  0.46656051
   0.66650942  0.83325471  0.46655969
   0.83325694  0.66651388  0.46656051
Direct configuration=    12
   0.66979185 -0.00000280  0.10232844
   0.33020435 -0.00000280  0.10232844
   0.00000280  0.33020715  0.10232844
   0.00000280  0.66979465  0.10232844
   0.33020435  0.33020715  0.10232844
   0.66979185  0.66979465  0.10232844
   0.66666600  0.33333300  0.10142429
   0.33333300  0.66666600  0.10366212
   0.16682722  0.33365545  0.46534983
   0.33364627  0.16682263  0.46535151
   0.16682722  0.83317178  0.46534983
   0.33333300  0.66666600  0.46535013
   0.66666600  0.33333300  0.46535548
   0.83317637  0.16682263  0.46535151
   0.66634355  0.83317178  0.46534983
   0.83317637  0.66635273  0.46535151
Direct configuration=    13
   0.66978988 -0.00000567  0.10469232
   0.33020345 -0.00000567  0.10469232
   0.00000567  0.33020912  0.10469232
   0.00000567  0.66979555  0.10469232
   0.33020345  0.33020912  0.10469232
   0.66978988  0.66979555  0.10469232
   0.66666600  0.33333300  0.10366183
   0.33333300  0.66666600  0.10658784
   0.16699309  0.33398718  0.46293012
   0.33396857  0.16698378  0.46293350
   0.16699309  0.83300591  0.46293012
   0.33333300  0.66666600  0.46293072
   0.66666600  0.33333300  0.46294150
   0.83301522  0.16698378  0.46293350
   0.66601182  0.83300591  0.46293012
   0.83301522  0.66603043  0.46293350
Direct configuration=    14
   0.66978592 -0.00001142  0.10942007
   0.33020166 -0.00001142  0.10942007
   0.00001142  0.33021308  0.10942007
   0.00001142  0.66979734  0.10942007
   0.33020166  0.33021308  0.10942007
   0.66978592  0.66979734  0.10942007
   0.66666600  0.33333300  0.10813692
   0.33333300  0.66666600  0.11243930
   0.16732483  0.33465066  0.45809070
   0.33461317  0.16730609  0.45809748
   0.16732483  0.83267417  0.45809070
   0.33333300  0.66666600  0.45809192
   0.66666600  0.33333300  0.45811354
   0.83269291  0.16730609  0.45809748
   0.66534834  0.83267417  0.45809070
   0.83269291  0.66538583  0.45809748
Direct configuration=    15
   0.66977801 -0.00002292  0.11887558
   0.33019807 -0.00002292  0.11887558
   0.00002292  0.33022099  0.11887558
   0.00002292  0.66980093  0.11887558
   0.33019807  0.33022099  0.11887558
   0.66977801  0.66980093  0.11887558
   0.66666600  0.33333300  0.11708708
   0.33333300  0.66666600  0.12414222
   0.16798831  0.33597761  0.44841186
   0.33590238  0.16795069  0.44842545
   0.16798831  0.83201069  0.44841186
   0.33333300  0.66666600  0.44841431
   0.66666600  0.33333300  0.44845763
   0.83204831  0.16795069  0.44842545
   0.66402139  0.83201069  0.44841186
   0.83204831  0.66409662  0.44842545
Direct configuration=    16
   0.66976219 -0.00004591  0.13778660
   0.33019090 -0.00004591  0.13778660
   0.00004591  0.33023681  0.13778660
   0.00004591  0.66980810  0.13778660
   0.33019090  0.33023681  0.13778660
   0.66976219  0.66980810  0.13778660
   0.66666600  0.33333300  0.13498742
   0.33333300  0.66666600  0.14754805
   0.16931526  0.33863152  0.42905418
   0.33848079  0.16923990  0.42908139
   0.16931526  0.83068374  0.42905418
   0.33333300  0.66666600  0.42905909
   0.66666600  0.33333300  0.42914580
   0.83075910  0.16923990  0.42908139
   0.66136748  0.83068374  0.42905418
   0.83075910  0.66151821  0.42908139
Direct configuration=    17
   0.66977089 -0.00003327  0.12738563
   0.33019484 -0.00003327  0.12738563
   0.00003327  0.33022811  0.12738563
   0.00003327  0.66980416  0.12738563
   0.33019484  0.33022811  0.12738563
   0.66977089  0.66980416  0.12738563
   0.66666600  0.33333300  0.12514232
   0.33333300  0.66666600  0.13467496
   0.16858544  0.33717188  0.43970081
   0.33706268  0.16853084  0.43972053
   0.16858544  0.83141356  0.43970081
   0.33333300  0.66666600  0.43970437
   0.66666600  0.33333300  0.43976721
   0.83146816  0.16853084  0.43972053
   0.66282712  0.83141356  0.43970081
   0.83146816  0.66293632  0.43972053
Direct configuration=    18
   0.66977089 -0.00003327  0.12738636
   0.33019484 -0.00003327  0.12738636
   0.00003327  0.33022811  0.12738636
   0.00003327  0.66980416  0.12738636
   0.33019484  0.33022811  0.12738636
   0.66977089  0.66980416  0.12738636
   0.66666600  0.33333300  0.12514301
   0.33333300  0.66666600  0.13467586
   0.16858547  0.33717194  0.43970006
   0.33706273  0.16853086  0.43971978
   0.16858547  0.83141353  0.43970006
   0.33333300  0.66666600  0.43970362
   0.66666600  0.33333300  0.43976647
   0.83146814  0.16853086  0.43971978
   0.66282706  0.83141353  0.43970006
   0.83146814  0.66293627  0.43971978
Direct configuration=    19
   0.66977088 -0.00003327  0.12738856
   0.33019484 -0.00003327  0.12738856
   0.00003327  0.33022812  0.12738856
   0.00003327  0.66980416  0.12738856
   0.33019484  0.33022812  0.12738856
   0.66977088  0.66980416  0.12738856
   0.66666600  0.33333300  0.12514508
   0.33333300  0.66666600  0.13467857
   0.16858555  0.33717210  0.43969782
   0.33706288  0.16853094  0.43971754
   0.16858555  0.83141345  0.43969782
   0.33333300  0.66666600  0.43970138
   0.66666600  0.33333300  0.43976423
   0.83146806  0.16853094  0.43971754
   0.66282690  0.83141345  0.43969782
   0.83146806  0.66293612  0.43971754
Direct configuration=    20
   0.66977087 -0.00003328  0.12739295
   0.33019484 -0.00003328  0.12739295
   0.00003328  0.33022813  0.12739295
   0.00003328  0.66980416  0.12739295
   0.33019484  0.33022813  0.12739295
   0.66977087  0.66980416  0.12739295
   0.66666600  0.33333300  0.12514923
   0.33333300  0.66666600  0.13468400
   0.16858571  0.33717241  0.43969332
   0.33706319  0.16853110  0.43971305
   0.16858571  0.83141329  0.43969332
   0.33333300  0.66666600  0.43969689
   0.66666600  0.33333300  0.43975974
   0.83146790  0.16853110  0.43971305
   0.66282659  0.83141329  0.43969332
   0.83146790  0.66293581  0.43971305
Direct configuration=    21
   0.66977085 -0.00003331  0.12740172
   0.33019484 -0.00003331  0.12740172
   0.00003331  0.33022815  0.12740172
   0.00003331  0.66980416  0.12740172
   0.33019484  0.33022815  0.12740172
   0.66977085  0.66980416  0.12740172
   0.66666600  0.33333300  0.12515753
   0.33333300  0.66666600  0.13469486
   0.16858602  0.33717305  0.43968434
   0.33706381  0.16853140  0.43970407
   0.16858602  0.83141298  0.43968434
   0.33333300  0.66666600  0.43968790
   0.66666600  0.33333300  0.43975078
   0.83146760  0.16853140  0.43970407
   0.66282595  0.83141298  0.43968434
   0.83146760  0.66293519  0.43970407
Direct configuration=    22
   0.66977080 -0.00003335  0.12741928
   0.33019485 -0.00003335  0.12741928
   0.00003335  0.33022820  0.12741928
   0.00003335  0.66980415  0.12741928
   0.33019485  0.33022820  0.12741928
   0.66977080  0.66980415  0.12741928
   0.66666600  0.33333300  0.12517413
   0.33333300  0.66666600  0.13471656
   0.16858666  0.33717432  0.43966637
   0.33706504  0.16853202  0.43968612
   0.16858666  0.83141234  0.43966637
   0.33333300  0.66666600  0.43966994
   0.66666600  0.33333300  0.43973285
   0.83146698  0.16853202  0.43968612
   0.66282468  0.83141234  0.43966637
   0.83146698  0.66293396  0.43968612
Direct configuration=    23
   0.66977070 -0.00003345  0.12745440
   0.33019485 -0.00003345  0.12745440
   0.00003345  0.33022830  0.12745440
   0.00003345  0.66980415  0.12745440
   0.33019485  0.33022830  0.12745440
   0.66977070  0.66980415  0.12745440
   0.66666600  0.33333300  0.12520733
   0.33333300  0.66666600  0.13475998
   0.16858793  0.33717686  0.43963044
   0.33706752  0.16853326  0.43965021
   0.16858793  0.83141107  0.43963044
   0.33333300  0.66666600  0.43963401
   0.66666600  0.33333300  0.43969700
   0.83146574  0.16853326  0.43965021
   0.66282214  0.83141107  0.43963044
   0.83146574  0.66293148  0.43965021
Direct configuration=    24
   0.66977051 -0.00003363  0.12752463
   0.33019486 -0.00003363  0.12752463
   0.00003363  0.33022849  0.12752463
   0.00003363  0.66980414  0.12752463
   0.33019486  0.33022849  0.12752463
   0.66977051  0.66980414  0.12752463
   0.66666600  0.33333300  0.12527373
   0.33333300  0.66666600  0.13484682
   0.16859047  0.33718194  0.43955857
   0.33707246  0.16853573  0.43957839
   0.16859047  0.83140853  0.43955857
   0.33333300  0.66666600  0.43956215
   0.66666600  0.33333300  0.43962529
   0.83146327  0.16853573  0.43957839
   0.66281706  0.83140853  0.43955857
   0.83146327  0.66292654  0.43957839
Direct configuration=    25
   0.66977013 -0.00003400  0.12766510
   0.33019488 -0.00003400  0.12766510
   0.00003400  0.33022887  0.12766510
   0.00003400  0.66980412  0.12766510
   0.33019488  0.33022887  0.12766510
   0.66977013  0.66980412  0.12766510
   0.66666600  0.33333300  0.12540654
   0.33333300  0.66666600  0.13502049
   0.16859555  0.33719210  0.43941484
   0.33708235  0.16854067  0.43943475
   0.16859555  0.83140345  0.43941484
   0.33333300  0.66666600  0.43941842
   0.66666600  0.33333300  0.43948186
   0.83145833  0.16854067  0.43943475
   0.66280690  0.83140345  0.43941484
   0.83145833  0.66291665  0.43943475
Direct configuration=    26
   0.66976935 -0.00003473  0.12794603
   0.33019491 -0.00003473  0.12794603
   0.00003473  0.33022965  0.12794603
   0.00003473  0.66980409  0.12794603
   0.33019491  0.33022965  0.12794603
   0.66976935  0.66980409  0.12794603
   0.66666600  0.33333300  0.12567214
   0.33333300  0.66666600  0.13536783
   0.16860571  0.33721242  0.43912737
   0.33710212  0.16855056  0.43914747
   0.16860571  0.83139329  0.43912737
   0.33333300  0.66666600  0.43913097
   0.66666600  0.33333300  0.43919502
   0.83144844  0.16855056  0.43914747
   0.66278658  0.83139329  0.43912737
   0.83144844  0.66289688  0.43914747
Direct configuration=    27
   0.66976781 -0.00003621  0.12850790
   0.33019498 -0.00003621  0.12850790
   0.00003621  0.33023119  0.12850790
   0.00003621  0.66980402  0.12850790
   0.33019498  0.33023119  0.12850790
   0.66976781  0.66980402  0.12850790
   0.66666600  0.33333300  0.12620334
   0.33333300  0.66666600  0.13606252
   0.16862603  0.33725307  0.43855243
   0.33714167  0.16857033  0.43857291
   0.16862603  0.83137297  0.43855243
   0.33333300  0.66666600  0.43855608
   0.66666600  0.33333300  0.43862133
   0.83142867  0.16857033  0.43857291
   0.66274593  0.83137297  0.43855243
   0.83142867  0.66285733  0.43857291
Direct configuration=    28
   0.66976473 -0.00003915  0.12963163
   0.33019512 -0.00003915  0.12963163
   0.00003915  0.33023427  0.12963163
   0.00003915  0.66980388  0.12963163
   0.33019512  0.33023427  0.12963163
   0.66976473  0.66980388  0.12963163
   0.66666600  0.33333300  0.12726574
   0.33333300  0.66666600  0.13745189
   0.16866668  0.33733436  0.43740255
   0.33722076  0.16860988  0.43742379
   0.16866668  0.83133232  0.43740255
   0.33333300  0.66666600  0.43740629
   0.66666600  0.33333300  0.43747396
   0.83138912  0.16860988  0.43742379
   0.66266464  0.83133232  0.43740255
   0.83138912  0.66277824  0.43742379
Direct configuration=    29
   0.66975857 -0.00004504  0.13187909
   0.33019540 -0.00004504  0.13187909
   0.00004504  0.33024043  0.13187909
   0.00004504  0.66980360  0.13187909
   0.33019540  0.33024043  0.13187909
   0.66975857  0.66980360  0.13187909
   0.66666600  0.33333300  0.12939055
   0.33333300  0.66666600  0.14023063
   0.16874797  0.33749693  0.43510279
   0.33737895  0.16868897  0.43512554
   0.16874797  0.83125103  0.43510279
   0.33333300  0.66666600  0.43510671
   0.66666600  0.33333300  0.43517921
   0.83131003  0.16868897  0.43512554
   0.66250207  0.83125103  0.43510279
   0.83131003  0.66262005  0.43512554
Direct configuration=    30
   0.66974624 -0.00005681  0.13637402
   0.33019595 -0.00005681  0.13637402
   0.00005681  0.33025276  0.13637402
   0.00005681  0.66980305  0.13637402
   0.33019595  0.33025276  0.13637402
   0.66974624  0.66980305  0.13637402
   0.66666600  0.33333300  0.13364016
   0.33333300  0.66666600  0.14578811
   0.16891054  0.33782209  0.43050328
   0.33769532  0.16884716  0.43052906
   0.16891054  0.83108846  0.43050328
   0.33333300  0.66666600  0.43050755
   0.66666600  0.33333300  0.43058971
   0.83115184  0.16884716  0.43052906
   0.66217691  0.83108846  0.43050328
   0.83115184  0.66230368  0.43052906
Direct configuration=    31
   0.66972157 -0.00008037  0.14536388
   0.33019706 -0.00008037  0.14536388
   0.00008037  0.33027743  0.14536388
   0.00008037  0.66980194  0.14536388
   0.33019706  0.33027743  0.14536388
   0.66972157  0.66980194  0.14536388
   0.66666600  0.33333300  0.14213939
   0.33333300  0.66666600  0.15690308
   0.16923570  0.33847239  0.42130425
   0.33832807  0.16916353  0.42133608
   0.16923570  0.83076330  0.42130425
   0.33333300  0.66666600  0.42130924
   0.66666600  0.33333300  0.42141072
   0.83083547  0.16916353  0.42133608
   0.66152661  0.83076330  0.42130425
   0.83083547  0.66167093  0.42133608
Direct configuration=    32
   0.66967225 -0.00012748  0.16334359
   0.33019927 -0.00012748  0.16334359
   0.00012748  0.33032675  0.16334359
   0.00012748  0.66979973  0.16334359
   0.33019927  0.33032675  0.16334359
   0.66967225  0.66979973  0.16334359
   0.66666600  0.33333300  0.15913785
   0.33333300  0.66666600  0.17913301
   0.16988600  0.33977301  0.40290619
   0.33959357  0.16979628  0.40295013
   0.16988600  0.83011300  0.40290619
   0.33333300  0.66666600  0.40291260
   0.66666600  0.33333300  0.40305272
   0.83020272  0.16979628  0.40295013
   0.66022599  0.83011300  0.40290619
   0.83020272  0.66040543  0.40295013
Direct configuration=    33
   0.66969469 -0.00010604  0.15516308
   0.33019826 -0.00010604  0.15516308
   0.00010604  0.33030431  0.15516308
   0.00010604  0.66980074  0.15516308
   0.33019826  0.33030431  0.15516308
   0.66969469  0.66980074  0.15516308
   0.66666600  0.33333300  0.15140380
   0.33333300  0.66666600  0.16901871
   0.16959012  0.33918125  0.41127703
   0.33901778  0.16950839  0.41131547
   0.16959012  0.83040888  0.41127703
   0.33333300  0.66666600  0.41128280
   0.66666600  0.33333300  0.41140534
   0.83049061  0.16950839  0.41131547
   0.66081775  0.83040888  0.41127703
   0.83049061  0.66098122  0.41131547
Direct configuration=    34
   0.66968524 -0.00011508  0.15861103
   0.33019869 -0.00011508  0.15861103
   0.00011508  0.33031376  0.15861103
   0.00011508  0.66980031  0.15861103
   0.33019869  0.33031376  0.15861103
   0.66968524  0.66980031  0.15861103
   0.66666600  0.33333300  0.15466357
   0.33333300  0.66666600  0.17328172
   0.16971483  0.33943067  0.40774886
   0.33926047  0.16962973  0.40778963
   0.16971483  0.83028417  0.40774886
   0.33333300  0.66666600  0.40775490
   0.66666600  0.33333300  0.40788486
   0.83036927  0.16962973  0.40778963
   0.66056833  0.83028417  0.40774886
   0.83036927  0.66073853  0.40778963
Direct configuration=    35
   0.66960823 -0.00016945  0.16468842
   0.33022132 -0.00016945  0.16468842
   0.00016945  0.33039077  0.16468842
   0.00016945  0.66977768  0.16468842
   0.33022132  0.33039077  0.16468842
   0.66960823  0.66977768  0.16468842
   0.66666600  0.33333300  0.16039194
   0.33333300  0.66666600  0.18077317
   0.16959523  0.33919146  0.40153597
   0.33903172  0.16951536  0.40157940
   0.16959523  0.83040377  0.40153597
   0.33333300  0.66666600  0.40154215
   0.66666600  0.33333300  0.40168277
   0.83048364  0.16951536  0.40157940
   0.66080754  0.83040377  0.40153597
   0.83048364  0.66096728  0.40157940
Direct configuration=    36
   0.66958142 -0.00018838  0.16680405
   0.33022919 -0.00018838  0.16680405
   0.00018838  0.33041758  0.16680405
   0.00018838  0.66976981  0.16680405
   0.33022919  0.33041758  0.16680405
   0.66958142  0.66976981  0.16680405
   0.66666600  0.33333300  0.16238606
   0.33333300  0.66666600  0.18338105
   0.16955360  0.33910820  0.39937318
   0.33895210  0.16947555  0.39941753
   0.16955360  0.83044540  0.39937318
   0.33333300  0.66666600  0.39937941
   0.66666600  0.33333300  0.39952374
   0.83052345  0.16947555  0.39941753
   0.66089080  0.83044540  0.39937318
   0.83052345  0.66104690  0.39941753
