 vasp.6.3.2 27Jun22 (build Dec 22 2022 13:13:19) complex                        
  
 executed on             LinuxIFC date 2023.08.22  02:14:25
 running   48 mpi-ranks, with    1 threads/rank
 distrk:  each k-point on   48 cores,    1 groups
 distr:  one band on NCORE=   1 cores,   48 groups


--------------------------------------------------------------------------------------------------------


 INCAR:
   SYSTEM = Lattice
   ISTART = 0
   ICHARG = 2
   PREC = Accurate
   ENCUT = 450
   LCHARG = .FALSE.
   LWAVE = .FALSE.
   ALGO = Normal
   NELM = 64
   EDIFF = 1E-6
   EDIFFG = -1E-3
   SIGMA = 0.1
   ISMEAR = 0
   ISPIN = 2
   NSW = 128
   IBRION = 2
   POTIM = .5
   ISIF = 2
   GGA = PE
   IVDW = 12

 POTCAR:    PAW_PBE B 06Sep2000                   
 POTCAR:    PAW_PBE C 08Apr2002                   
 -----------------------------------------------------------------------------
|                                                                             |
|           W    W    AA    RRRRR   N    N  II  N    N   GGGG   !!!           |
|           W    W   A  A   R    R  NN   N  II  NN   N  G    G  !!!           |
|           W    W  A    A  R    R  N N  N  II  N N  N  G       !!!           |
|           W WW W  AAAAAA  RRRRR   N  N N  II  N  N N  G  GGG   !            |
|           WW  WW  A    A  R   R   N   NN  II  N   NN  G    G                |
|           W    W  A    A  R    R  N    N  II  N    N   GGGG   !!!           |
|                                                                             |
|     You use a magnetic or noncollinear calculation, but did not specify     |
|     the initial magnetic moment with the MAGMOM tag. Note that a            |
|     default of 1 will be used for all atoms. This ferromagnetic setup       |
|     may break the symmetry of the crystal, in particular it may rule        |
|     out finding an antiferromagnetic solution. Thence, we recommend         |
|     setting the initial magnetic moment manually or verifying carefully     |
|     that this magnetic setup is desired.                                    |
|                                                                             |
 -----------------------------------------------------------------------------

 POTCAR:    PAW_PBE B 06Sep2000                   
   SHA256 =  a32ced30f5ae56fd4d10b4325ff17eb3e4e38ee0f4288bc219fb012fddfa6e97 B/POTCAR              
   COPYR  = (c) Copyright 06Sep2000 Georg Kresse                                                    
   COPYR  = This file is part of the software VASP. Any use, copying, and all other rights are regul
   COPYR  = If you do not have a valid VASP license, you may not use, copy or distribute this file. 
   VRHFIN =B: s2p1                                                                                  
   LEXCH  = PE                                                                                      
   EATOM  =    71.1703 eV,    5.2309 Ry                                                             
                                                                                                    
   TITEL  = PAW_PBE B 06Sep2000                                                                     
   LULTRA =        F    use ultrasoft PP ?                                                          
   IUNSCR =        1    unscreen: 0-lin 1-nonlin 2-no                                               
   RPACOR =    1.200    partial core radius                                                         
   POMASS =   10.811; ZVAL   =    3.000    mass and valenz                                          
   RCORE  =    1.700    outmost cutoff radius                                                       
   RWIGS  =    1.710; RWIGS  =    0.905    wigner-seitz radius (au A)                               
   ENMAX  =  318.614; ENMIN  =  238.960 eV                                                          
   ICORE  =        2    local potential                                                             
   LCOR   =        T    correct aug charges                                                         
   LPAW   =        T    paw PP                                                                      
   EAUG   =  535.514                                                                                
   DEXC   =    0.000                                                                                
   RMAX   =    1.732    core radius for proj-oper                                                   
   RAUG   =    1.300    factor for augmentation sphere                                              
   RDEP   =    1.757    radius for radial grids                                                     
   RDEPT  =    1.436    core radius for aug-charge                                                  
                                                                                                    
   Atomic configuration                                                                             
    4 entries                                                                                       
     n  l   j            E        occ.                                                              
     1  0  0.50      -180.5896   2.0000                                                             
     2  0  0.50        -9.4431   2.0000                                                             
     2  1  0.50        -3.6068   1.0000                                                             
     3  2  1.50        -4.0817   0.0000                                                             
   Description                                                                                      
     l       E           TYP  RCUT    TYP  RCUT                                                     
     0     -9.4430752     23  1.500                                                                 
     0      0.8675899     23  1.500                                                                 
     1     -3.6067955     23  1.700                                                                 
     1      6.1086146     23  1.700                                                                 
     2     -4.0817478      7  1.700                                                                 
  local pseudopotential read in
  partial core-charges read in
  partial kinetic energy density read in
  atomic valenz-charges read in
  non local Contribution for L=           0  read in
    real space projection operators read in
  non local Contribution for L=           0  read in
    real space projection operators read in
  non local Contribution for L=           1  read in
    real space projection operators read in
  non local Contribution for L=           1  read in
    real space projection operators read in
    PAW grid and wavefunctions read in
 
   number of l-projection  operators is LMAX  =           4
   number of lm-projection operators is LMMAX =           8
 
 POTCAR:    PAW_PBE C 08Apr2002                   
   SHA256 =  253f7b50bb8d59471dbedb8285d89021f4a42ed1a2c5d38a03a736e69125dd95 C/POTCAR              
   COPYR  = (c) Copyright 08Apr2002 Georg Kresse                                                    
   COPYR  = This file is part of the software VASP. Any use, copying, and all other rights are regul
   COPYR  = If you do not have a valid VASP license, you may not use, copy or distribute this file. 
   VRHFIN =C: s2p2                                                                                  
   LEXCH  = PE                                                                                      
   EATOM  =   147.1560 eV,   10.8157 Ry                                                             
                                                                                                    
   TITEL  = PAW_PBE C 08Apr2002                                                                     
   LULTRA =        F    use ultrasoft PP ?                                                          
   IUNSCR =        1    unscreen: 0-lin 1-nonlin 2-no                                               
   RPACOR =    1.200    partial core radius                                                         
   POMASS =   12.011; ZVAL   =    4.000    mass and valenz                                          
   RCORE  =    1.500    outmost cutoff radius                                                       
   RWIGS  =    1.630; RWIGS  =    0.863    wigner-seitz radius (au A)                               
   ENMAX  =  400.000; ENMIN  =  300.000 eV                                                          
   ICORE  =        2    local potential                                                             
   LCOR   =        T    correct aug charges                                                         
   LPAW   =        T    paw PP                                                                      
   EAUG   =  644.873                                                                                
   DEXC   =    0.000                                                                                
   RMAX   =    1.529    core radius for proj-oper                                                   
   RAUG   =    1.300    factor for augmentation sphere                                              
   RDEP   =    1.501    radius for radial grids                                                     
   RDEPT  =    1.300    core radius for aug-charge                                                  
                                                                                                    
   Atomic configuration                                                                             
    4 entries                                                                                       
     n  l   j            E        occ.                                                              
     1  0  0.50      -273.3789   2.0000                                                             
     2  0  0.50       -13.7508   2.0000                                                             
     2  1  0.50        -5.2854   2.0000                                                             
     3  2  1.50        -5.4423   0.0000                                                             
   Description                                                                                      
     l       E           TYP  RCUT    TYP  RCUT                                                     
     0    -13.7508458     23  1.200                                                                 
     0     -8.2022199     23  1.200                                                                 
     1     -5.2854383     23  1.500                                                                 
     1     34.0145650     23  1.500                                                                 
     2     -5.4423304      7  1.500                                                                 
  local pseudopotential read in
  partial core-charges read in
  partial kinetic energy density read in
  atomic valenz-charges read in
  non local Contribution for L=           0  read in
    real space projection operators read in
  non local Contribution for L=           0  read in
    real space projection operators read in
  non local Contribution for L=           1  read in
    real space projection operators read in
  non local Contribution for L=           1  read in
    real space projection operators read in
    PAW grid and wavefunctions read in
 
   number of l-projection  operators is LMAX  =           4
   number of lm-projection operators is LMMAX =           8
 
  PAW_PBE B 06Sep2000                   :
 energy of atom  1       EATOM=  -71.1703
 kinetic energy error for atom=    0.0015 (will be added to EATOM!!)
  PAW_PBE C 08Apr2002                   :
 energy of atom  2       EATOM= -147.1560
 kinetic energy error for atom=    0.0116 (will be added to EATOM!!)
 
 
 POSCAR: Graphene-Borophene Top with lattice para
  positions in direct lattice
  No initial velocities read in
 exchange correlation table for  LEXCH =        8
   RHO(1)=    0.500       N(1)  =     2000
   RHO(2)=  100.500       N(2)  =     4000

 VTST: version 4.2, (08/11/21)

 CHAIN: initializing optimizer
 
 OPT: Using VASP Conjugate-Gradient optimizer
 CHAIN: Read ICHAIN            0
 
 POSCAR: Graphene-Borophene Top with lattice para
  positions in direct lattice
  No initial velocities read in
 


--------------------------------------------------------------------------------------------------------


 ion  position               nearest neighbor table
   1  0.669  0.000  0.100-   3 1.67   6 1.67   7 1.68   8 1.68   2 1.70
   2  0.331  0.000  0.100-   5 1.67   4 1.67   7 1.68   8 1.68   1 1.70
   3  0.000  0.331  0.100-   5 1.67   1 1.67   8 1.68   7 1.68   4 1.70
   4  0.000  0.669  0.100-   2 1.67   6 1.67   8 1.68   7 1.68   3 1.70
   5  0.331  0.331  0.100-   2 1.67   3 1.67   7 1.68   8 1.68   6 1.70
   6  0.669  0.669  0.100-   1 1.67   4 1.67   7 1.68   8 1.68   5 1.70
   7  0.667  0.333  0.099-   5 1.68   6 1.68   2 1.68   1 1.68   4 1.68   3 1.68
   8  0.333  0.667  0.101-   5 1.68   6 1.68   3 1.68   4 1.68   1 1.68   2 1.68
   9  0.167  0.333  0.468-  12 1.45  14 1.45  10 1.45
  10  0.333  0.167  0.468-  11 1.45  13 1.45   9 1.45
  11  0.167  0.833  0.468-  10 1.45  16 1.45  12 1.45
  12  0.333  0.667  0.468-   9 1.45  15 1.45  11 1.45
  13  0.667  0.333  0.468-  10 1.45  16 1.45  14 1.45
  14  0.833  0.167  0.468-   9 1.45  15 1.45  13 1.45
  15  0.667  0.833  0.468-  12 1.45  14 1.45  16 1.45
  16  0.833  0.667  0.468-  11 1.45  13 1.45  15 1.45
 
  LATTYP: Found a hexagonal cell.
 ALAT       =     5.0300000000
 C/A-ratio  =     2.9821073559
  
  Lattice vectors:
  
 A1 = (   4.3561077810,   2.5150000000,   0.0000000000)
 A2 = (  -4.3561077810,   2.5150000000,   0.0000000000)
 A3 = (   0.0000000000,   0.0000000000,  15.0000000000)


Analysis of symmetry for initial positions (statically):
=====================================================================
 Subroutine PRICEL returns:
 Original cell was already a primitive cell.
 

 Routine SETGRP: Setting up the symmetry group for a 
 hexagonal supercell.


 Subroutine GETGRP returns: Found  6 space group operations
 (whereof  6 operations were pure point group operations)
 out of a pool of 24 trial point group operations.


The static configuration has the point symmetry C_3v.


Analysis of symmetry for dynamics (positions and initial velocities):
=====================================================================
 Subroutine PRICEL returns:
 Original cell was already a primitive cell.
 

 Routine SETGRP: Setting up the symmetry group for a 
 hexagonal supercell.


 Subroutine GETGRP returns: Found  6 space group operations
 (whereof  6 operations were pure point group operations)
 out of a pool of 24 trial point group operations.


The dynamic configuration has the point symmetry C_3v.


Analysis of structural, dynamic, and magnetic symmetry:
=====================================================================
 Subroutine PRICEL returns:
 Original cell was already a primitive cell.
 

 Routine SETGRP: Setting up the symmetry group for a 
 hexagonal supercell.


 Subroutine GETGRP returns: Found  6 space group operations
 (whereof  6 operations were pure point group operations)
 out of a pool of 24 trial point group operations.


The overall configuration has the point symmetry C_3v.


 Subroutine INISYM returns: Found  6 space group operations
 (whereof  6 operations are pure point group operations),
 and found     1 'primitive' translations


----------------------------------------------------------------------------------------

                                     Primitive cell                                     

  volume of cell :     328.6683

  direct lattice vectors                    reciprocal lattice vectors
     4.356107781  2.515000000  0.000000000     0.114781366  0.198807157  0.000000000
    -4.356107781  2.515000000  0.000000000    -0.114781366  0.198807157  0.000000000
     0.000000000  0.000000000 15.000000000     0.000000000  0.000000000  0.066666667

  length of vectors
     5.030000000  5.030000000 15.000000000     0.229562731  0.229562731  0.066666667

  position of ions in fractional coordinates (direct lattice)
     0.668886888  0.000000000  0.100000000
     0.331112112  0.000000000  0.100000000
     0.000000000  0.331112112  0.100000000
     0.000000000  0.668886888  0.100000000
     0.331112112  0.331112112  0.100000000
     0.668886888  0.668886888  0.100000000
     0.666666000  0.333333000  0.099221887
     0.333333000  0.666666000  0.100778113
     0.166666000  0.333333000  0.467733333
     0.333333000  0.166666000  0.467733333
     0.166666000  0.833333000  0.467733333
     0.333333000  0.666666000  0.467733333
     0.666666000  0.333333000  0.467733333
     0.833333000  0.166666000  0.467733333
     0.666666000  0.833333000  0.467733333
     0.833333000  0.666666000  0.467733333

  ion indices of the primitive-cell ions
   primitive index   ion index
                 1           1
                 2           2
                 3           3
                 4           4
                 5           5
                 6           6
                 7           7
                 8           8
                 9           9
                10          10
                11          11
                12          12
                13          13
                14          14
                15          15
                16          16

----------------------------------------------------------------------------------------

 
 
 KPOINTS: k-points                                

Automatic generation of k-mesh.
 Grid dimensions read from file:
 generate k-points for:   12   12    1

 Generating k-lattice:

  Cartesian coordinates                     Fractional coordinates (reciprocal lattice)
     0.009565114  0.016567263  0.000000000     0.083333333  0.000000000  0.000000000
    -0.009565114  0.016567263  0.000000000     0.000000000  0.083333333  0.000000000
     0.000000000  0.000000000  0.066666667     0.000000000  0.000000000  1.000000000

  Length of vectors
     0.019130228  0.019130228  0.066666667

  Shift w.r.t. Gamma in fractional coordinates (k-lattice)
     0.000000000  0.000000000  0.000000000

 
 Subroutine IBZKPT returns following result:
 ===========================================
 
 Found     19 irreducible k-points:
 
 Following reciprocal coordinates:
            Coordinates               Weight
  0.000000  0.000000  0.000000      1.000000
  0.083333  0.000000  0.000000      6.000000
  0.166667 -0.000000  0.000000      6.000000
  0.250000  0.000000  0.000000      6.000000
  0.333333  0.000000  0.000000      6.000000
  0.416667  0.000000  0.000000      6.000000
  0.500000  0.000000  0.000000      3.000000
  0.083333  0.083333  0.000000      6.000000
  0.166667  0.083333  0.000000     12.000000
  0.250000  0.083333  0.000000     12.000000
  0.333333  0.083333  0.000000     12.000000
  0.416667  0.083333  0.000000     12.000000
  0.166667  0.166667  0.000000      6.000000
  0.250000  0.166667  0.000000     12.000000
  0.333333  0.166667  0.000000     12.000000
  0.416667  0.166667  0.000000      6.000000
  0.250000  0.250000  0.000000      6.000000
  0.333333  0.250000  0.000000     12.000000
  0.333333  0.333333  0.000000      2.000000
 
 Following cartesian coordinates:
            Coordinates               Weight
  0.000000  0.000000  0.000000      1.000000
  0.009565  0.016567  0.000000      6.000000
  0.019130  0.033135  0.000000      6.000000
  0.028695  0.049702  0.000000      6.000000
  0.038260  0.066269  0.000000      6.000000
  0.047826  0.082836  0.000000      6.000000
  0.057391  0.099404  0.000000      3.000000
 -0.000000  0.033135  0.000000      6.000000
  0.009565  0.049702  0.000000     12.000000
  0.019130  0.066269  0.000000     12.000000
  0.028695  0.082836  0.000000     12.000000
  0.038260  0.099404  0.000000     12.000000
 -0.000000  0.066269  0.000000      6.000000
  0.009565  0.082836  0.000000     12.000000
  0.019130  0.099404  0.000000     12.000000
  0.028695  0.115971  0.000000      6.000000
  0.000000  0.099404  0.000000      6.000000
  0.009565  0.115971  0.000000     12.000000
  0.000000  0.132538  0.000000      2.000000
 


--------------------------------------------------------------------------------------------------------




 Dimension of arrays:
   k-points           NKPTS =     19   k-points in BZ     NKDIM =     19   number of bands    NBANDS=     48
   number of dos      NEDOS =    301   number of ions     NIONS =     16
   non local maximal  LDIM  =      4   non local SUM 2l+1 LMDIM =      8
   total plane-waves  NPLWV = 139968
   max r-space proj   IRMAX =      1   max aug-charges    IRDMAX=   6840
   dimension x,y,z NGX =    36 NGY =   36 NGZ =  108
   dimension x,y,z NGXF=    72 NGYF=   72 NGZF=  216
   support grid    NGXF=    72 NGYF=   72 NGZF=  216
   ions per type =               8   8
   NGX,Y,Z   is equivalent  to a cutoff of  11.90, 11.90, 11.97 a.u.
   NGXF,Y,Z  is equivalent  to a cutoff of  23.80, 23.80, 23.94 a.u.

 SYSTEM =  Lattice                                 
 POSCAR =  Graphene-Borophene Top with lattice para

 Startparameter for this run:
   NWRITE =      2    write-flag & timer
   PREC   = accura    normal or accurate (medium, high low for compatibility)
   ISTART =      0    job   : 0-new  1-cont  2-samecut
   ICHARG =      2    charge: 1-file 2-atom 10-const
   ISPIN  =      2    spin polarized calculation?
   LNONCOLLINEAR =      F non collinear calculations
   LSORBIT =      F    spin-orbit coupling
   INIWAV =      1    electr: 0-lowe 1-rand  2-diag
   LASPH  =      F    aspherical Exc in radial PAW
 Electronic Relaxation 1
   ENCUT  =  450.0 eV  33.07 Ry    5.75 a.u.   8.70  8.70 25.95*2*pi/ulx,y,z
   ENINI  =  450.0     initial cutoff
   ENAUG  =  644.9 eV  augmentation charge cutoff
   NELM   =     64;   NELMIN=  2; NELMDL= -5     # of ELM steps 
   EDIFF  = 0.1E-05   stopping-criterion for ELM
   LREAL  =      F    real-space projection
   NLSPLINE    = F    spline interpolate recip. space projectors
   LCOMPAT=      F    compatible to vasp.4.4
   GGA_COMPAT  = T    GGA compatible to vasp.4.4-vasp.4.6
   LMAXPAW     = -100 max onsite density
   LMAXMIX     =    2 max onsite mixed and CHGCAR
   VOSKOWN=      0    Vosko Wilk Nusair interpolation
   ROPT   =    0.00000   0.00000
 Ionic relaxation
   EDIFFG = -.1E-02   stopping-criterion for IOM
   NSW    =    128    number of steps for IOM
   NBLOCK =      1;   KBLOCK =    128    inner block; outer block 
   IBRION =      2    ionic relax: 0-MD 1-quasi-New 2-CG
   NFREE  =      1    steps in history (QN), initial steepest desc. (CG)
   ISIF   =      2    stress and relaxation
   IWAVPR =     11    prediction:  0-non 1-charg 2-wave 3-comb
   ISYM   =      2    0-nonsym 1-usesym 2-fastsym
   LCORR  =      T    Harris-Foulkes like correction to forces

   POTIM  = 0.5000    time-step for ionic-motion
   TEIN   =    0.0    initial temperature
   TEBEG  =    0.0;   TEEND  =   0.0 temperature during run
   SMASS  =  -3.00    Nose mass-parameter (am)
   estimated Nose-frequenzy (Omega)   =  0.10E-29 period in steps = 0.13E+47 mass=  -0.578E-27a.u.
   SCALEE = 1.0000    scale energy and forces
   NPACO  =    256;   APACO  = 10.0  distance and # of slots for P.C.
   PSTRESS=    0.0 pullay stress

  Mass of Ions in am
   POMASS =  10.81 12.01
  Ionic Valenz
   ZVAL   =   3.00  4.00
  Atomic Wigner-Seitz radii
   RWIGS  =  -1.00 -1.00
  virtual crystal weights 
   VCA    =   1.00  1.00
   NELECT =      56.0000    total number of electrons
   NUPDOWN=      -1.0000    fix difference up-down

 DOS related values:
   EMIN   =  10.00;   EMAX   =-10.00  energy-range for DOS
   EFERMI =   0.00
   ISMEAR =     0;   SIGMA  =   0.10  broadening in eV -4-tet -1-fermi 0-gaus

 Electronic relaxation 2 (details)
   IALGO  =     38    algorithm
   LDIAG  =      T    sub-space diagonalisation (order eigenvalues)
   LSUBROT=      F    optimize rotation matrix (better conditioning)
   TURBO    =      0    0=normal 1=particle mesh
   IRESTART =      0    0=no restart 2=restart with 2 vectors
   NREBOOT  =      0    no. of reboots
   NMIN     =      0    reboot dimension
   EREF     =   0.00    reference energy to select bands
   IMIX   =      4    mixing-type and parameters
     AMIX     =   0.40;   BMIX     =  1.00
     AMIX_MAG =   1.60;   BMIX_MAG =  1.00
     AMIN     =   0.10
     WC   =   100.;   INIMIX=   1;  MIXPRE=   1;  MAXMIX= -45

 Intra band minimization:
   WEIMIN = 0.0010     energy-eigenvalue tresh-hold
   EBREAK =  0.52E-08  absolut break condition
   DEPER  =   0.30     relativ break condition  

   TIME   =   0.40     timestep for ELM

  volume/ion in A,a.u.               =      20.54       138.62
  Fermi-wavevector in a.u.,A,eV,Ry     =   0.907580  1.715077 11.207137  0.823701
  Thomas-Fermi vector in A             =   2.031404
 
 Write flags
   LWAVE        =      F    write WAVECAR
   LDOWNSAMPLE  =      F    k-point downsampling of WAVECAR
   LCHARG       =      F    write CHGCAR
   LVTOT        =      F    write LOCPOT, total local potential
   LVHAR        =      F    write LOCPOT, Hartree potential only
   LELF         =      F    write electronic localiz. function (ELF)
   LORBIT       =      0    0 simple, 1 ext, 2 COOP (PROOUT), +10 PAW based schemes


 Dipole corrections
   LMONO  =      F    monopole corrections only (constant potential shift)
   LDIPOL =      F    correct potential (dipole corrections)
   IDIPOL =      0    1-x, 2-y, 3-z, 4-all directions 
   EPSILON=  1.0000000 bulk dielectric constant

 Exchange correlation treatment:
   GGA     =    PE    GGA type
   LEXCH   =     8    internal setting for exchange type
   LIBXC   =     F    Libxc                    
   VOSKOWN =     0    Vosko Wilk Nusair interpolation
   LHFCALC =     F    Hartree Fock is set to
   LHFONE  =     F    Hartree Fock one center treatment
   AEXX    =    0.0000 exact exchange contribution

 Linear response parameters
   LEPSILON=     F    determine dielectric tensor
   LRPA    =     F    only Hartree local field effects (RPA)
   LNABLA  =     F    use nabla operator in PAW spheres
   LVEL    =     F    velocity operator in full k-point grid
   CSHIFT  =0.1000    complex shift for real part using Kramers Kronig
   OMEGAMAX=  -1.0    maximum frequency
   DEG_THRESHOLD= 0.2000000E-02 threshold for treating states as degnerate
   RTIME   =   -0.100 relaxation time in fs
  (WPLASMAI=    0.000 imaginary part of plasma frequency in eV, 0.658/RTIME)
   DFIELD  = 0.0000000 0.0000000 0.0000000 field for delta impulse in time
 
  Optional k-point grid parameters
   LKPOINTS_OPT  =     F    use optional k-point grid
   KPOINTS_OPT_MODE=     1    mode for optional k-point grid
 
 Orbital magnetization related:
   ORBITALMAG=     F  switch on orbital magnetization
   LCHIMAG   =     F  perturbation theory with respect to B field
   DQ        =  0.001000  dq finite difference perturbation B field
   LLRAUG    =     F  two centre corrections for induced B field



--------------------------------------------------------------------------------------------------------


 conjugate gradient relaxation of ions
 charge density and potential will be updated during run
 spin polarized calculation
 Variant of blocked Davidson
 Davidson routine will perform the subspace rotation
 perform sub-space diagonalisation
    after iterative eigenvector-optimisation
 modified Broyden-mixing scheme, WC =      100.0
 initial mixing is a Kerker type mixing with AMIX =  0.4000 and BMIX =      1.0000
 Hartree-type preconditioning will be used
 using additional bands           20
 reciprocal scheme for non local part
 use partial core corrections
 calculate Harris-corrections to forces 
   (improved forces if not selfconsistent)
 use gradient corrections 
 use of overlap-Matrix (Vanderbilt PP)
 Gauss-broadening in eV      SIGMA  =   0.10


--------------------------------------------------------------------------------------------------------


  energy-cutoff  :      450.00
  volume of cell :      328.67
      direct lattice vectors                 reciprocal lattice vectors
     4.356107781  2.515000000  0.000000000     0.114781366  0.198807157  0.000000000
    -4.356107781  2.515000000  0.000000000    -0.114781366  0.198807157  0.000000000
     0.000000000  0.000000000 15.000000000     0.000000000  0.000000000  0.066666667

  length of vectors
     5.030000000  5.030000000 15.000000000     0.229562731  0.229562731  0.066666667


 
 k-points in units of 2pi/SCALE and weight: k-points                                
   0.00000000  0.00000000  0.00000000       0.007
   0.00956511  0.01656726  0.00000000       0.042
   0.01913023  0.03313453  0.00000000       0.042
   0.02869534  0.04970179  0.00000000       0.042
   0.03826046  0.06626905  0.00000000       0.042
   0.04782557  0.08283632  0.00000000       0.042
   0.05739068  0.09940358  0.00000000       0.021
  -0.00000000  0.03313453  0.00000000       0.042
   0.00956511  0.04970179  0.00000000       0.083
   0.01913023  0.06626905  0.00000000       0.083
   0.02869534  0.08283632  0.00000000       0.083
   0.03826046  0.09940358  0.00000000       0.083
  -0.00000000  0.06626905  0.00000000       0.042
   0.00956511  0.08283632  0.00000000       0.083
   0.01913023  0.09940358  0.00000000       0.083
   0.02869534  0.11597084  0.00000000       0.042
   0.00000000  0.09940358  0.00000000       0.042
   0.00956511  0.11597084  0.00000000       0.083
   0.00000000  0.13253810  0.00000000       0.014
 
 k-points in reciprocal lattice and weights: k-points                                
   0.00000000  0.00000000  0.00000000       0.007
   0.08333333  0.00000000  0.00000000       0.042
   0.16666667 -0.00000000  0.00000000       0.042
   0.25000000  0.00000000  0.00000000       0.042
   0.33333333  0.00000000  0.00000000       0.042
   0.41666667  0.00000000  0.00000000       0.042
   0.50000000  0.00000000  0.00000000       0.021
   0.08333333  0.08333333  0.00000000       0.042
   0.16666667  0.08333333  0.00000000       0.083
   0.25000000  0.08333333  0.00000000       0.083
   0.33333333  0.08333333  0.00000000       0.083
   0.41666667  0.08333333  0.00000000       0.083
   0.16666667  0.16666667  0.00000000       0.042
   0.25000000  0.16666667  0.00000000       0.083
   0.33333333  0.16666667  0.00000000       0.083
   0.41666667  0.16666667  0.00000000       0.042
   0.25000000  0.25000000  0.00000000       0.042
   0.33333333  0.25000000  0.00000000       0.083
   0.33333333  0.33333333  0.00000000       0.014
 
 position of ions in fractional coordinates (direct lattice) 
   0.66888689  0.00000000  0.10000000
   0.33111211  0.00000000  0.10000000
   0.00000000  0.33111211  0.10000000
   0.00000000  0.66888689  0.10000000
   0.33111211  0.33111211  0.10000000
   0.66888689  0.66888689  0.10000000
   0.66666600  0.33333300  0.09922189
   0.33333300  0.66666600  0.10077811
   0.16666600  0.33333300  0.46773333
   0.33333300  0.16666600  0.46773333
   0.16666600  0.83333300  0.46773333
   0.33333300  0.66666600  0.46773333
   0.66666600  0.33333300  0.46773333
   0.83333300  0.16666600  0.46773333
   0.66666600  0.83333300  0.46773333
   0.83333300  0.66666600  0.46773333
 
 position of ions in cartesian coordinates  (Angst):
   2.91374338  1.68225052  1.50000000
   1.44236005  0.83274696  1.50000000
  -1.44236005  0.83274696  1.50000000
  -2.91374338  1.68225052  1.50000000
   0.00000000  1.66549392  1.50000000
  -0.00000000  3.36450105  1.50000000
   1.45203447  2.51499749  1.48832830
  -1.45203447  2.51499749  1.51167170
  -0.72601942  1.25749749  7.01600000
   0.72601942  1.25749749  7.01600000
  -2.90407331  2.51499749  7.01600000
  -1.45203447  2.51499749  7.01600000
   1.45203447  2.51499749  7.01600000
   2.90407331  2.51499749  7.01600000
  -0.72601942  3.77249749  7.01600000
   0.72601942  3.77249749  7.01600000
 


--------------------------------------------------------------------------------------------------------


 k-point   1 :   0.0000 0.0000 0.0000  plane waves:    7101
 k-point   2 :   0.0833 0.0000 0.0000  plane waves:    7125
 k-point   3 :   0.1667-0.0000 0.0000  plane waves:    7143
 k-point   4 :   0.2500 0.0000 0.0000  plane waves:    7161
 k-point   5 :   0.3333 0.0000 0.0000  plane waves:    7109
 k-point   6 :   0.4167 0.0000 0.0000  plane waves:    7119
 k-point   7 :   0.5000 0.0000 0.0000  plane waves:    7140
 k-point   8 :   0.0833 0.0833 0.0000  plane waves:    7119
 k-point   9 :   0.1667 0.0833 0.0000  plane waves:    7128
 k-point  10 :   0.2500 0.0833 0.0000  plane waves:    7139
 k-point  11 :   0.3333 0.0833 0.0000  plane waves:    7126
 k-point  12 :   0.4167 0.0833 0.0000  plane waves:    7124
 k-point  13 :   0.1667 0.1667 0.0000  plane waves:    7119
 k-point  14 :   0.2500 0.1667 0.0000  plane waves:    7114
 k-point  15 :   0.3333 0.1667 0.0000  plane waves:    7117
 k-point  16 :   0.4167 0.1667 0.0000  plane waves:    7124
 k-point  17 :   0.2500 0.2500 0.0000  plane waves:    7111
 k-point  18 :   0.3333 0.2500 0.0000  plane waves:    7093
 k-point  19 :   0.3333 0.3333 0.0000  plane waves:    7101

 maximum and minimum number of plane-waves per node :      7161     7093

 maximum number of plane-waves:      7161
 maximum index in each direction: 
   IXMAX=    8   IYMAX=    8   IZMAX=   25
   IXMIN=   -9   IYMIN=   -9   IZMIN=  -25


 serial   3D FFT for wavefunctions
 parallel 3D FFT for charge:
    minimum data exchange during FFTs selected (reduces bandwidth)


 total amount of memory used by VASP MPI-rank0    69221. kBytes
=======================================================================

   base      :      30000. kBytes
   nonl-proj :      19353. kBytes
   fftplans  :       1560. kBytes
   grid      :      13745. kBytes
   one-center:         98. kBytes
   wavefun   :       4465. kBytes
 
     INWAV:  cpu time      0.0000: real time      0.0000
 Broyden mixing: mesh for mixing (old mesh)
   NGX = 17   NGY = 17   NGZ = 51
  (NGX  = 72   NGY  = 72   NGZ  =216)
  gives a total of  14739 points

 initial charge density was supplied:
 charge density of overlapping atoms calculated
 number of electron      56.0000000 magnetization      16.0000000
 keeping initial charge density in first step


--------------------------------------------------------------------------------------------------------


 Maximum index for augmentation-charges          380 (set IRDMAX)


--------------------------------------------------------------------------------------------------------


 First call to EWALD:  gamma=   0.257
 Maximum number of real-space cells 4x 4x 2
 Maximum number of reciprocal cells 2x 2x 5

    FEWALD:  cpu time      0.0016: real time      0.0022


--------------------------------------- Iteration      1(   1)  ---------------------------------------


    POTLOK:  cpu time      0.0398: real time      0.0415
    SETDIJ:  cpu time      0.0041: real time      0.0041
     EDDAV:  cpu time      1.4731: real time      1.5101
       DOS:  cpu time      0.0017: real time      0.0019
    --------------------------------------------
      LOOP:  cpu time      1.5188: real time      1.5576

 eigenvalue-minimisations  :  3648
 total energy-change (2. order) : 0.1865690E+03  (-0.2517724E+04)
 number of electron      56.0000000 magnetization      16.0000000
 augmentation part       56.0000000 magnetization      16.0000000

 Free energy of the ion-electron system (eV)
  ---------------------------------------------------
  alpha Z        PSCENC =        59.25071400
  Ewald energy   TEWEN  =      1821.04601535
  -Hartree energ DENC   =     -3242.84441171
  -exchange      EXHF   =         0.00000000
  -V(xc)+E(xc)   XCENC  =       162.52688420
  PAW double counting   =      1214.24570090    -1211.68112031
  entropy T*S    EENTRO =        -0.02166866
  eigenvalues    EBANDS =      -362.45864432
  atomic energy  EATOM  =      1746.50554237
  Solvation  Ediel_sol  =         0.00000000
  ---------------------------------------------------
  free energy    TOTEN  =       186.56901182 eV

  energy without entropy =      186.59068049  energy(sigma->0) =      186.57984615


--------------------------------------------------------------------------------------------------------




--------------------------------------- Iteration      1(   2)  ---------------------------------------


     EDDAV:  cpu time      2.3241: real time      2.3602
       DOS:  cpu time      0.0006: real time      0.0006
    --------------------------------------------
      LOOP:  cpu time      2.3247: real time      2.3608

 eigenvalue-minimisations  :  5712
 total energy-change (2. order) :-0.3038222E+03  (-0.3029771E+03)
 number of electron      56.0000000 magnetization      16.0000000
 augmentation part       56.0000000 magnetization      16.0000000

 Free energy of the ion-electron system (eV)
  ---------------------------------------------------
  alpha Z        PSCENC =        59.25071400
  Ewald energy   TEWEN  =      1821.04601535
  -Hartree energ DENC   =     -3242.84441171
  -exchange      EXHF   =         0.00000000
  -V(xc)+E(xc)   XCENC  =       162.52688420
  PAW double counting   =      1214.24570090    -1211.68112031
  entropy T*S    EENTRO =        -0.01142210
  eigenvalues    EBANDS =      -666.29113534
  atomic energy  EATOM  =      1746.50554237
  Solvation  Ediel_sol  =         0.00000000
  ---------------------------------------------------
  free energy    TOTEN  =      -117.25323263 eV

  energy without entropy =     -117.24181053  energy(sigma->0) =     -117.24752158


--------------------------------------------------------------------------------------------------------




--------------------------------------- Iteration      1(   3)  ---------------------------------------


     EDDAV:  cpu time      2.7698: real time      2.7963
       DOS:  cpu time      0.0006: real time      0.0006
    --------------------------------------------
      LOOP:  cpu time      2.7704: real time      2.7968

 eigenvalue-minimisations  :  6480
 total energy-change (2. order) :-0.9746191E+01  (-0.9715505E+01)
 number of electron      56.0000000 magnetization      16.0000000
 augmentation part       56.0000000 magnetization      16.0000000

 Free energy of the ion-electron system (eV)
  ---------------------------------------------------
  alpha Z        PSCENC =        59.25071400
  Ewald energy   TEWEN  =      1821.04601535
  -Hartree energ DENC   =     -3242.84441171
  -exchange      EXHF   =         0.00000000
  -V(xc)+E(xc)   XCENC  =       162.52688420
  PAW double counting   =      1214.24570090    -1211.68112031
  entropy T*S    EENTRO =        -0.01305577
  eigenvalues    EBANDS =      -676.03569272
  atomic energy  EATOM  =      1746.50554237
  Solvation  Ediel_sol  =         0.00000000
  ---------------------------------------------------
  free energy    TOTEN  =      -126.99942369 eV

  energy without entropy =     -126.98636792  energy(sigma->0) =     -126.99289581


--------------------------------------------------------------------------------------------------------




--------------------------------------- Iteration      1(   4)  ---------------------------------------


     EDDAV:  cpu time      2.1780: real time      2.2074
       DOS:  cpu time      0.0007: real time      0.0007
    --------------------------------------------
      LOOP:  cpu time      2.1787: real time      2.2081

 eigenvalue-minimisations  :  5232
 total energy-change (2. order) :-0.1963895E-01  (-0.1963852E-01)
 number of electron      56.0000000 magnetization      16.0000000
 augmentation part       56.0000000 magnetization      16.0000000

 Free energy of the ion-electron system (eV)
  ---------------------------------------------------
  alpha Z        PSCENC =        59.25071400
  Ewald energy   TEWEN  =      1821.04601535
  -Hartree energ DENC   =     -3242.84441171
  -exchange      EXHF   =         0.00000000
  -V(xc)+E(xc)   XCENC  =       162.52688420
  PAW double counting   =      1214.24570090    -1211.68112031
  entropy T*S    EENTRO =        -0.01304394
  eigenvalues    EBANDS =      -676.05534351
  atomic energy  EATOM  =      1746.50554237
  Solvation  Ediel_sol  =         0.00000000
  ---------------------------------------------------
  free energy    TOTEN  =      -127.01906265 eV

  energy without entropy =     -127.00601870  energy(sigma->0) =     -127.01254068


--------------------------------------------------------------------------------------------------------




--------------------------------------- Iteration      1(   5)  ---------------------------------------


     EDDAV:  cpu time      2.5872: real time      2.6093
       DOS:  cpu time      0.0006: real time      0.0006
    CHARGE:  cpu time      0.1005: real time      0.1190
    MIXING:  cpu time      0.0030: real time      0.0034
    --------------------------------------------
      LOOP:  cpu time      2.6912: real time      2.7324

 eigenvalue-minimisations  :  6096
 total energy-change (2. order) :-0.3960144E-04  (-0.3960176E-04)
 number of electron      56.0000003 magnetization      12.4604916
 augmentation part        0.8281031 magnetization      11.3223402

 Broyden mixing:
  rms(total) = 0.22230E+01    rms(broyden)= 0.22228E+01
  rms(prec ) = 0.23856E+01
  weight for this iteration     100.00

 Free energy of the ion-electron system (eV)
  ---------------------------------------------------
  alpha Z        PSCENC =        59.25071400
  Ewald energy   TEWEN  =      1821.04601535
  -Hartree energ DENC   =     -3242.84441171
  -exchange      EXHF   =         0.00000000
  -V(xc)+E(xc)   XCENC  =       162.52688420
  PAW double counting   =      1214.24570090    -1211.68112031
  entropy T*S    EENTRO =        -0.01304408
  eigenvalues    EBANDS =      -676.05538297
  atomic energy  EATOM  =      1746.50554237
  Solvation  Ediel_sol  =         0.00000000
  ---------------------------------------------------
  free energy    TOTEN  =      -127.01910225 eV

  energy without entropy =     -127.00605817  energy(sigma->0) =     -127.01258021


--------------------------------------------------------------------------------------------------------




--------------------------------------- Iteration      1(   6)  ---------------------------------------


    POTLOK:  cpu time      0.0349: real time      0.0376
    SETDIJ:  cpu time      0.0033: real time      0.0035
     EDDAV:  cpu time      2.0117: real time      2.0318
       DOS:  cpu time      0.0006: real time      0.0006
    CHARGE:  cpu time      0.1052: real time      0.1369
    MIXING:  cpu time      0.0011: real time      0.0013
    --------------------------------------------
      LOOP:  cpu time      2.1567: real time      2.2117

 eigenvalue-minimisations  :  4848
 total energy-change (2. order) : 0.3287236E+02  (-0.5869331E+01)
 number of electron      56.0000003 magnetization       8.7528180
 augmentation part        0.8064725 magnetization       7.2629286

 Broyden mixing:
  rms(total) = 0.12045E+01    rms(broyden)= 0.12045E+01
  rms(prec ) = 0.13323E+01
  weight for this iteration     100.00

 eigenvalues of (default mixing * dielectric matrix)
  average eigenvalue GAMMA=   1.0971
  1.0971

 Free energy of the ion-electron system (eV)
  ---------------------------------------------------
  alpha Z        PSCENC =        59.25071400
  Ewald energy   TEWEN  =      1821.04601535
  -Hartree energ DENC   =     -3305.92166850
  -exchange      EXHF   =         0.00000000
  -V(xc)+E(xc)   XCENC  =       185.60254125
  PAW double counting   =      2450.24629896    -2448.84932285
  entropy T*S    EENTRO =        -0.00944560
  eigenvalues    EBANDS =      -602.01741473
  atomic energy  EATOM  =      1746.50554237
  Solvation  Ediel_sol  =         0.00000000
  ---------------------------------------------------
  free energy    TOTEN  =       -94.14673975 eV

  energy without entropy =      -94.13729415  energy(sigma->0) =      -94.14201695


--------------------------------------------------------------------------------------------------------




--------------------------------------- Iteration      1(   7)  ---------------------------------------


    POTLOK:  cpu time      0.0316: real time      0.0337
    SETDIJ:  cpu time      0.0032: real time      0.0033
     EDDAV:  cpu time      2.2689: real time      2.2903
       DOS:  cpu time      0.0006: real time      0.0006
    CHARGE:  cpu time      0.1312: real time      0.1852
    MIXING:  cpu time      0.0011: real time      0.0017
    --------------------------------------------
      LOOP:  cpu time      2.4366: real time      2.5147

 eigenvalue-minimisations  :  5376
 total energy-change (2. order) :-0.1122743E+02  (-0.1338383E+01)
 number of electron      56.0000003 magnetization       5.4348329
 augmentation part        0.7526350 magnetization       4.4817397

 Broyden mixing:
  rms(total) = 0.66141E+00    rms(broyden)= 0.66137E+00
  rms(prec ) = 0.70018E+00
  weight for this iteration     100.00

 eigenvalues of (default mixing * dielectric matrix)
  average eigenvalue GAMMA=   1.3239
  0.8588  1.7891

 Free energy of the ion-electron system (eV)
  ---------------------------------------------------
  alpha Z        PSCENC =        59.25071400
  Ewald energy   TEWEN  =      1821.04601535
  -Hartree energ DENC   =     -3378.48182029
  -exchange      EXHF   =         0.00000000
  -V(xc)+E(xc)   XCENC  =       177.91452212
  PAW double counting   =      4018.79572886    -4018.06500011
  entropy T*S    EENTRO =        -0.00927958
  eigenvalues    EBANDS =      -532.33059358
  atomic energy  EATOM  =      1746.50554237
  Solvation  Ediel_sol  =         0.00000000
  ---------------------------------------------------
  free energy    TOTEN  =      -105.37417087 eV

  energy without entropy =     -105.36489129  energy(sigma->0) =     -105.36953108


--------------------------------------------------------------------------------------------------------




--------------------------------------- Iteration      1(   8)  ---------------------------------------


    POTLOK:  cpu time      0.0328: real time      0.0343
    SETDIJ:  cpu time      0.0033: real time      0.0033
     EDDAV:  cpu time      2.2330: real time      2.2549
       DOS:  cpu time      0.0006: real time      0.0006
    CHARGE:  cpu time      0.0961: real time      0.1084
    MIXING:  cpu time      0.0008: real time      0.0008
    --------------------------------------------
      LOOP:  cpu time      2.3666: real time      2.4023

 eigenvalue-minimisations  :  5280
 total energy-change (2. order) :-0.5956991E+01  (-0.5107229E+00)
 number of electron      56.0000003 magnetization       3.7346545
 augmentation part        0.7162980 magnetization       3.1448852

 Broyden mixing:
  rms(total) = 0.36879E+00    rms(broyden)= 0.36875E+00
  rms(prec ) = 0.38219E+00
  weight for this iteration     100.00

 eigenvalues of (default mixing * dielectric matrix)
  average eigenvalue GAMMA=   1.3550
  2.3151  1.0557  0.6940

 Free energy of the ion-electron system (eV)
  ---------------------------------------------------
  alpha Z        PSCENC =        59.25071400
  Ewald energy   TEWEN  =      1821.04601535
  -Hartree energ DENC   =     -3422.76094971
  -exchange      EXHF   =         0.00000000
  -V(xc)+E(xc)   XCENC  =       175.25988687
  PAW double counting   =      5285.50258171    -5285.02294001
  entropy T*S    EENTRO =        -0.00957431
  eigenvalues    EBANDS =      -491.10243768
  atomic energy  EATOM  =      1746.50554237
  Solvation  Ediel_sol  =         0.00000000
  ---------------------------------------------------
  free energy    TOTEN  =      -111.33116142 eV

  energy without entropy =     -111.32158711  energy(sigma->0) =     -111.32637427


--------------------------------------------------------------------------------------------------------




--------------------------------------- Iteration      1(   9)  ---------------------------------------


    POTLOK:  cpu time      0.0318: real time      0.0322
    SETDIJ:  cpu time      0.0033: real time      0.0033
     EDDAV:  cpu time      1.9788: real time      2.0011
       DOS:  cpu time      0.0006: real time      0.0006
    CHARGE:  cpu time      0.0992: real time      0.1125
    MIXING:  cpu time      0.0009: real time      0.0009
    --------------------------------------------
      LOOP:  cpu time      2.1145: real time      2.1506

 eigenvalue-minimisations  :  4800
 total energy-change (2. order) :-0.5301006E+01  (-0.2809498E+00)
 number of electron      56.0000003 magnetization       2.0097181
 augmentation part        0.7042295 magnetization       1.6745330

 Broyden mixing:
  rms(total) = 0.25228E+00    rms(broyden)= 0.25226E+00
  rms(prec ) = 0.26299E+00
  weight for this iteration     100.00

 eigenvalues of (default mixing * dielectric matrix)
  average eigenvalue GAMMA=   1.4144
  2.6651  1.4976  0.8740  0.6207

 Free energy of the ion-electron system (eV)
  ---------------------------------------------------
  alpha Z        PSCENC =        59.25071400
  Ewald energy   TEWEN  =      1821.04601535
  -Hartree energ DENC   =     -3431.72134356
  -exchange      EXHF   =         0.00000000
  -V(xc)+E(xc)   XCENC  =       172.14046517
  PAW double counting   =      5607.26828175    -5606.72661789
  entropy T*S    EENTRO =        -0.00324518
  eigenvalues    EBANDS =      -484.39197969
  atomic energy  EATOM  =      1746.50554237
  Solvation  Ediel_sol  =         0.00000000
  ---------------------------------------------------
  free energy    TOTEN  =      -116.63216768 eV

  energy without entropy =     -116.62892250  energy(sigma->0) =     -116.63054509


--------------------------------------------------------------------------------------------------------




--------------------------------------- Iteration      1(  10)  ---------------------------------------


    POTLOK:  cpu time      0.0308: real time      0.0313
    SETDIJ:  cpu time      0.0033: real time      0.0033
     EDDAV:  cpu time      2.1897: real time      2.2014
       DOS:  cpu time      0.0006: real time      0.0006
    CHARGE:  cpu time      0.0919: real time      0.0965
    MIXING:  cpu time      0.0009: real time      0.0009
    --------------------------------------------
      LOOP:  cpu time      2.3172: real time      2.3339

 eigenvalue-minimisations  :  5280
 total energy-change (2. order) :-0.4132858E+01  (-0.3168817E+00)
 number of electron      56.0000003 magnetization       1.0559390
 augmentation part        0.7013410 magnetization       0.8564428

 Broyden mixing:
  rms(total) = 0.13515E+00    rms(broyden)= 0.13513E+00
  rms(prec ) = 0.14371E+00
  weight for this iteration     100.00

 eigenvalues of (default mixing * dielectric matrix)
  average eigenvalue GAMMA=   1.5231
  3.0333  2.1146  1.0648  0.8047  0.5980

 Free energy of the ion-electron system (eV)
  ---------------------------------------------------
  alpha Z        PSCENC =        59.25071400
  Ewald energy   TEWEN  =      1821.04601535
  -Hartree energ DENC   =     -3433.42253559
  -exchange      EXHF   =         0.00000000
  -V(xc)+E(xc)   XCENC  =       169.55157939
  PAW double counting   =      5705.86615780    -5705.17156051
  entropy T*S    EENTRO =        -0.00468720
  eigenvalues    EBANDS =      -484.38625162
  atomic energy  EATOM  =      1746.50554237
  Solvation  Ediel_sol  =         0.00000000
  ---------------------------------------------------
  free energy    TOTEN  =      -120.76502600 eV

  energy without entropy =     -120.76033880  energy(sigma->0) =     -120.76268240


--------------------------------------------------------------------------------------------------------




--------------------------------------- Iteration      1(  11)  ---------------------------------------


    POTLOK:  cpu time      0.0391: real time      0.0414
    SETDIJ:  cpu time      0.0033: real time      0.0033
     EDDAV:  cpu time      2.0303: real time      2.0471
       DOS:  cpu time      0.0006: real time      0.0006
    CHARGE:  cpu time      0.0986: real time      0.1062
    MIXING:  cpu time      0.0011: real time      0.0011
    --------------------------------------------
      LOOP:  cpu time      2.1729: real time      2.1997

 eigenvalue-minimisations  :  4944
 total energy-change (2. order) :-0.1934658E+01  (-0.1530585E+00)
 number of electron      56.0000002 magnetization       0.4542995
 augmentation part        0.6998302 magnetization       0.3565531

 Broyden mixing:
  rms(total) = 0.81476E-01    rms(broyden)= 0.81461E-01
  rms(prec ) = 0.90933E-01
  weight for this iteration     100.00

 eigenvalues of (default mixing * dielectric matrix)
  average eigenvalue GAMMA=   1.5693
  3.4554  2.3371  1.2704  0.9965  0.7574  0.5991

 Free energy of the ion-electron system (eV)
  ---------------------------------------------------
  alpha Z        PSCENC =        59.25071400
  Ewald energy   TEWEN  =      1821.04601535
  -Hartree energ DENC   =     -3432.54784314
  -exchange      EXHF   =         0.00000000
  -V(xc)+E(xc)   XCENC  =       168.30807525
  PAW double counting   =      5651.12013140    -5650.36067011
  entropy T*S    EENTRO =        -0.00327740
  eigenvalues    EBANDS =      -486.01837144
  atomic energy  EATOM  =      1746.50554237
  Solvation  Ediel_sol  =         0.00000000
  ---------------------------------------------------
  free energy    TOTEN  =      -122.69968373 eV

  energy without entropy =     -122.69640633  energy(sigma->0) =     -122.69804503


--------------------------------------------------------------------------------------------------------




--------------------------------------- Iteration      1(  12)  ---------------------------------------


    POTLOK:  cpu time      0.0313: real time      0.0317
    SETDIJ:  cpu time      0.0033: real time      0.0035
     EDDAV:  cpu time      2.5123: real time      2.5340
       DOS:  cpu time      0.0006: real time      0.0006
    CHARGE:  cpu time      0.0926: real time      0.0968
    MIXING:  cpu time      0.0009: real time      0.0009
    --------------------------------------------
      LOOP:  cpu time      2.6410: real time      2.6675

 eigenvalue-minimisations  :  5952
 total energy-change (2. order) :-0.9860940E+00  (-0.7780075E-01)
 number of electron      56.0000002 magnetization       0.1449050
 augmentation part        0.6988794 magnetization       0.0881802

 Broyden mixing:
  rms(total) = 0.41392E-01    rms(broyden)= 0.41383E-01
  rms(prec ) = 0.51434E-01
  weight for this iteration     100.00

 eigenvalues of (default mixing * dielectric matrix)
  average eigenvalue GAMMA=   1.6842
  4.1756  2.3591  2.0119  1.0979  0.8267  0.7125  0.6057

 Free energy of the ion-electron system (eV)
  ---------------------------------------------------
  alpha Z        PSCENC =        59.25071400
  Ewald energy   TEWEN  =      1821.04601535
  -Hartree energ DENC   =     -3430.75291505
  -exchange      EXHF   =         0.00000000
  -V(xc)+E(xc)   XCENC  =       167.56052770
  PAW double counting   =      5555.90764356    -5555.14622439
  entropy T*S    EENTRO =        -0.00425372
  eigenvalues    EBANDS =      -488.05282760
  atomic energy  EATOM  =      1746.50554237
  Solvation  Ediel_sol  =         0.00000000
  ---------------------------------------------------
  free energy    TOTEN  =      -123.68577777 eV

  energy without entropy =     -123.68152405  energy(sigma->0) =     -123.68365091


--------------------------------------------------------------------------------------------------------




--------------------------------------- Iteration      1(  13)  ---------------------------------------


    POTLOK:  cpu time      0.0300: real time      0.0314
    SETDIJ:  cpu time      0.0030: real time      0.0032
     EDDAV:  cpu time      2.0720: real time      2.0876
       DOS:  cpu time      0.0006: real time      0.0006
    CHARGE:  cpu time      0.0958: real time      0.1058
    MIXING:  cpu time      0.0011: real time      0.0013
    --------------------------------------------
      LOOP:  cpu time      2.2025: real time      2.2300

 eigenvalue-minimisations  :  4992
 total energy-change (2. order) :-0.3219039E+00  (-0.2068993E-01)
 number of electron      56.0000002 magnetization       0.0565889
 augmentation part        0.6983047 magnetization       0.0321998

 Broyden mixing:
  rms(total) = 0.19777E-01    rms(broyden)= 0.19769E-01
  rms(prec ) = 0.28368E-01
  weight for this iteration     100.00

 eigenvalues of (default mixing * dielectric matrix)
  average eigenvalue GAMMA=   1.6766
  4.4590  2.3065  2.3065  1.2001  1.0407  0.8083  0.6132  0.6782

 Free energy of the ion-electron system (eV)
  ---------------------------------------------------
  alpha Z        PSCENC =        59.25071400
  Ewald energy   TEWEN  =      1821.04601535
  -Hartree energ DENC   =     -3429.67274311
  -exchange      EXHF   =         0.00000000
  -V(xc)+E(xc)   XCENC  =       167.25450782
  PAW double counting   =      5514.76750301    -5514.02064177
  entropy T*S    EENTRO =        -0.00591402
  eigenvalues    EBANDS =      -489.13266533
  atomic energy  EATOM  =      1746.50554237
  Solvation  Ediel_sol  =         0.00000000
  ---------------------------------------------------
  free energy    TOTEN  =      -124.00768169 eV

  energy without entropy =     -124.00176767  energy(sigma->0) =     -124.00472468


--------------------------------------------------------------------------------------------------------




--------------------------------------- Iteration      1(  14)  ---------------------------------------


    POTLOK:  cpu time      0.0298: real time      0.0301
    SETDIJ:  cpu time      0.0032: real time      0.0032
     EDDAV:  cpu time      1.9298: real time      1.9397
       DOS:  cpu time      0.0006: real time      0.0006
    CHARGE:  cpu time      0.0924: real time      0.0979
    MIXING:  cpu time      0.0011: real time      0.0010
    --------------------------------------------
      LOOP:  cpu time      2.0567: real time      2.0725

 eigenvalue-minimisations  :  4704
 total energy-change (2. order) :-0.5537921E-01  (-0.3136062E-02)
 number of electron      56.0000002 magnetization       0.0137790
 augmentation part        0.6982090 magnetization       0.0034776

 Broyden mixing:
  rms(total) = 0.10896E-01    rms(broyden)= 0.10894E-01
  rms(prec ) = 0.18601E-01
  weight for this iteration     100.00

 eigenvalues of (default mixing * dielectric matrix)
  average eigenvalue GAMMA=   1.6836
  4.5756  2.4863  2.4863  1.5646  1.1115  0.8690  0.7873  0.6202  0.6519

 Free energy of the ion-electron system (eV)
  ---------------------------------------------------
  alpha Z        PSCENC =        59.25071400
  Ewald energy   TEWEN  =      1821.04601535
  -Hartree energ DENC   =     -3428.96169184
  -exchange      EXHF   =         0.00000000
  -V(xc)+E(xc)   XCENC  =       167.17298580
  PAW double counting   =      5520.75949707    -5520.01750078
  entropy T*S    EENTRO =        -0.00611126
  eigenvalues    EBANDS =      -489.81251159
  atomic energy  EATOM  =      1746.50554237
  Solvation  Ediel_sol  =         0.00000000
  ---------------------------------------------------
  free energy    TOTEN  =      -124.06306090 eV

  energy without entropy =     -124.05694963  energy(sigma->0) =     -124.06000527


--------------------------------------------------------------------------------------------------------




--------------------------------------- Iteration      1(  15)  ---------------------------------------


    POTLOK:  cpu time      0.0303: real time      0.0320
    SETDIJ:  cpu time      0.0033: real time      0.0033
     EDDAV:  cpu time      1.7157: real time      1.7288
       DOS:  cpu time      0.0007: real time      0.0007
    CHARGE:  cpu time      0.0930: real time      0.1011
    MIXING:  cpu time      0.0011: real time      0.0011
    --------------------------------------------
      LOOP:  cpu time      1.8441: real time      1.8669

 eigenvalue-minimisations  :  4224
 total energy-change (2. order) :-0.2169706E-01  (-0.1342017E-02)
 number of electron      56.0000002 magnetization      -0.0052693
 augmentation part        0.6984575 magnetization      -0.0080044

 Broyden mixing:
  rms(total) = 0.57897E-02    rms(broyden)= 0.57891E-02
  rms(prec ) = 0.98231E-02
  weight for this iteration     100.00

 eigenvalues of (default mixing * dielectric matrix)
  average eigenvalue GAMMA=   1.6869
  4.6663  2.7050  2.7050  1.8586  1.1189  1.0301  0.8184  0.7195  0.6237  0.6237

 Free energy of the ion-electron system (eV)
  ---------------------------------------------------
  alpha Z        PSCENC =        59.25071400
  Ewald energy   TEWEN  =      1821.04601535
  -Hartree energ DENC   =     -3428.05637492
  -exchange      EXHF   =         0.00000000
  -V(xc)+E(xc)   XCENC  =       167.10042670
  PAW double counting   =      5516.88857885    -5516.14892502
  entropy T*S    EENTRO =        -0.00612034
  eigenvalues    EBANDS =      -490.66461494
  atomic energy  EATOM  =      1746.50554237
  Solvation  Ediel_sol  =         0.00000000
  ---------------------------------------------------
  free energy    TOTEN  =      -124.08475796 eV

  energy without entropy =     -124.07863762  energy(sigma->0) =     -124.08169779


--------------------------------------------------------------------------------------------------------




--------------------------------------- Iteration      1(  16)  ---------------------------------------


    POTLOK:  cpu time      0.0311: real time      0.0315
    SETDIJ:  cpu time      0.0033: real time      0.0033
     EDDAV:  cpu time      1.7475: real time      1.7705
       DOS:  cpu time      0.0006: real time      0.0006
    CHARGE:  cpu time      0.0926: real time      0.0998
    MIXING:  cpu time      0.0013: real time      0.0015
    --------------------------------------------
      LOOP:  cpu time      1.8763: real time      1.9072

 eigenvalue-minimisations  :  4272
 total energy-change (2. order) :-0.2156084E-02  (-0.2655289E-03)
 number of electron      56.0000002 magnetization      -0.0010362
 augmentation part        0.6987781 magnetization      -0.0015837

 Broyden mixing:
  rms(total) = 0.36005E-02    rms(broyden)= 0.36000E-02
  rms(prec ) = 0.50397E-02
  weight for this iteration     100.00

 eigenvalues of (default mixing * dielectric matrix)
  average eigenvalue GAMMA=   1.7034
  4.6383  2.9459  2.9459  2.0097  1.4033  1.0933  0.9612  0.8121  0.6868  0.6203
  0.6203

 Free energy of the ion-electron system (eV)
  ---------------------------------------------------
  alpha Z        PSCENC =        59.25071400
  Ewald energy   TEWEN  =      1821.04601535
  -Hartree energ DENC   =     -3427.69223199
  -exchange      EXHF   =         0.00000000
  -V(xc)+E(xc)   XCENC  =       167.06603382
  PAW double counting   =      5515.97566276    -5515.23556227
  entropy T*S    EENTRO =        -0.00606373
  eigenvalues    EBANDS =      -490.99702434
  atomic energy  EATOM  =      1746.50554237
  Solvation  Ediel_sol  =         0.00000000
  ---------------------------------------------------
  free energy    TOTEN  =      -124.08691404 eV

  energy without entropy =     -124.08085031  energy(sigma->0) =     -124.08388218


--------------------------------------------------------------------------------------------------------




--------------------------------------- Iteration      1(  17)  ---------------------------------------


    POTLOK:  cpu time      0.0299: real time      0.0302
    SETDIJ:  cpu time      0.0033: real time      0.0033
     EDDAV:  cpu time      1.5696: real time      1.5821
       DOS:  cpu time      0.0006: real time      0.0006
    CHARGE:  cpu time      0.0917: real time      0.0971
    MIXING:  cpu time      0.0011: real time      0.0011
    --------------------------------------------
      LOOP:  cpu time      1.6962: real time      1.7145

 eigenvalue-minimisations  :  3936
 total energy-change (2. order) :-0.9172655E-03  (-0.7223010E-04)
 number of electron      56.0000002 magnetization      -0.0029770
 augmentation part        0.6987940 magnetization      -0.0034252

 Broyden mixing:
  rms(total) = 0.16148E-02    rms(broyden)= 0.16147E-02
  rms(prec ) = 0.27720E-02
  weight for this iteration     100.00

 eigenvalues of (default mixing * dielectric matrix)
  average eigenvalue GAMMA=   1.7181
  4.6928  3.7017  2.5821  2.2469  1.6874  1.1129  0.9378  0.9378  0.8039  0.6748
  0.6197  0.6197

 Free energy of the ion-electron system (eV)
  ---------------------------------------------------
  alpha Z        PSCENC =        59.25071400
  Ewald energy   TEWEN  =      1821.04601535
  -Hartree energ DENC   =     -3427.93070810
  -exchange      EXHF   =         0.00000000
  -V(xc)+E(xc)   XCENC  =       167.06971741
  PAW double counting   =      5519.36656465    -5518.62638423
  entropy T*S    EENTRO =        -0.00603487
  eigenvalues    EBANDS =      -490.76325789
  atomic energy  EATOM  =      1746.50554237
  Solvation  Ediel_sol  =         0.00000000
  ---------------------------------------------------
  free energy    TOTEN  =      -124.08783131 eV

  energy without entropy =     -124.08179644  energy(sigma->0) =     -124.08481387


--------------------------------------------------------------------------------------------------------




--------------------------------------- Iteration      1(  18)  ---------------------------------------


    POTLOK:  cpu time      0.0296: real time      0.0299
    SETDIJ:  cpu time      0.0032: real time      0.0032
     EDDAV:  cpu time      1.5360: real time      1.5436
       DOS:  cpu time      0.0006: real time      0.0006
    CHARGE:  cpu time      0.0900: real time      0.0998
    MIXING:  cpu time      0.0012: real time      0.0012
    --------------------------------------------
      LOOP:  cpu time      1.6604: real time      1.6783

 eigenvalue-minimisations  :  3840
 total energy-change (2. order) :-0.3911298E-05  (-0.1711399E-04)
 number of electron      56.0000002 magnetization      -0.0038652
 augmentation part        0.6987951 magnetization      -0.0037935

 Broyden mixing:
  rms(total) = 0.84575E-03    rms(broyden)= 0.84571E-03
  rms(prec ) = 0.15569E-02
  weight for this iteration     100.00

 eigenvalues of (default mixing * dielectric matrix)
  average eigenvalue GAMMA=   1.7443
  4.9005  3.8866  2.6107  2.6107  1.8322  1.2787  1.0903  1.0224  0.8159  0.7360
  0.6122  0.6430  0.6368

 Free energy of the ion-electron system (eV)
  ---------------------------------------------------
  alpha Z        PSCENC =        59.25071400
  Ewald energy   TEWEN  =      1821.04601535
  -Hartree energ DENC   =     -3428.07419527
  -exchange      EXHF   =         0.00000000
  -V(xc)+E(xc)   XCENC  =       167.06798836
  PAW double counting   =      5519.19498743    -5518.45529169
  entropy T*S    EENTRO =        -0.00604950
  eigenvalues    EBANDS =      -490.61754625
  atomic energy  EATOM  =      1746.50554237
  Solvation  Ediel_sol  =         0.00000000
  ---------------------------------------------------
  free energy    TOTEN  =      -124.08783522 eV

  energy without entropy =     -124.08178571  energy(sigma->0) =     -124.08481047


--------------------------------------------------------------------------------------------------------




--------------------------------------- Iteration      1(  19)  ---------------------------------------


    POTLOK:  cpu time      0.0293: real time      0.0296
    SETDIJ:  cpu time      0.0034: real time      0.0034
     EDDAV:  cpu time      1.6818: real time      1.6958
       DOS:  cpu time      0.0006: real time      0.0006
    CHARGE:  cpu time      0.0927: real time      0.1052
    MIXING:  cpu time      0.0012: real time      0.0012
    --------------------------------------------
      LOOP:  cpu time      1.8089: real time      1.8358

 eigenvalue-minimisations  :  4128
 total energy-change (2. order) :-0.4480417E-04  (-0.3524246E-05)
 number of electron      56.0000002 magnetization      -0.0027372
 augmentation part        0.6987888 magnetization      -0.0024268

 Broyden mixing:
  rms(total) = 0.48482E-03    rms(broyden)= 0.48480E-03
  rms(prec ) = 0.10375E-02
  weight for this iteration     100.00

 eigenvalues of (default mixing * dielectric matrix)
  average eigenvalue GAMMA=   1.7065
  4.9192  3.7936  2.7599  2.7599  1.8455  1.4215  1.1417  0.9288  0.9288  0.8044
  0.7021  0.6103  0.6407  0.6348

 Free energy of the ion-electron system (eV)
  ---------------------------------------------------
  alpha Z        PSCENC =        59.25071400
  Ewald energy   TEWEN  =      1821.04601535
  -Hartree energ DENC   =     -3428.22433144
  -exchange      EXHF   =         0.00000000
  -V(xc)+E(xc)   XCENC  =       167.06990529
  PAW double counting   =      5518.97202441    -5518.23222705
  entropy T*S    EENTRO =        -0.00605483
  eigenvalues    EBANDS =      -490.46946813
  atomic energy  EATOM  =      1746.50554237
  Solvation  Ediel_sol  =         0.00000000
  ---------------------------------------------------
  free energy    TOTEN  =      -124.08788002 eV

  energy without entropy =     -124.08182519  energy(sigma->0) =     -124.08485261


--------------------------------------------------------------------------------------------------------




--------------------------------------- Iteration      1(  20)  ---------------------------------------


    POTLOK:  cpu time      0.0300: real time      0.0304
    SETDIJ:  cpu time      0.0032: real time      0.0032
     EDDAV:  cpu time      1.6414: real time      1.6544
       DOS:  cpu time      0.0006: real time      0.0006
    CHARGE:  cpu time      0.0921: real time      0.0980
    MIXING:  cpu time      0.0012: real time      0.0012
    --------------------------------------------
      LOOP:  cpu time      1.7686: real time      1.7880

 eigenvalue-minimisations  :  4032
 total energy-change (2. order) :-0.2650099E-04  (-0.1544648E-05)
 number of electron      56.0000002 magnetization      -0.0011876
 augmentation part        0.6987641 magnetization      -0.0010059

 Broyden mixing:
  rms(total) = 0.35782E-03    rms(broyden)= 0.35779E-03
  rms(prec ) = 0.72514E-03
  weight for this iteration     100.00

 eigenvalues of (default mixing * dielectric matrix)
  average eigenvalue GAMMA=   1.6983
  4.9440  3.6962  3.1034  2.6838  1.7838  1.7838  1.2444  1.0305  1.0305  0.8059
  0.8059  0.6870  0.6101  0.6322  0.6322

 Free energy of the ion-electron system (eV)
  ---------------------------------------------------
  alpha Z        PSCENC =        59.25071400
  Ewald energy   TEWEN  =      1821.04601535
  -Hartree energ DENC   =     -3428.37728295
  -exchange      EXHF   =         0.00000000
  -V(xc)+E(xc)   XCENC  =       167.07351702
  PAW double counting   =      5519.16092012    -5518.42099045
  entropy T*S    EENTRO =        -0.00605333
  eigenvalues    EBANDS =      -490.32028867
  atomic energy  EATOM  =      1746.50554237
  Solvation  Ediel_sol  =         0.00000000
  ---------------------------------------------------
  free energy    TOTEN  =      -124.08790652 eV

  energy without entropy =     -124.08185320  energy(sigma->0) =     -124.08487986


--------------------------------------------------------------------------------------------------------




--------------------------------------- Iteration      1(  21)  ---------------------------------------


    POTLOK:  cpu time      0.0304: real time      0.0309
    SETDIJ:  cpu time      0.0033: real time      0.0036
     EDDAV:  cpu time      1.6264: real time      1.6376
       DOS:  cpu time      0.0006: real time      0.0006
    CHARGE:  cpu time      0.0897: real time      0.0985
    MIXING:  cpu time      0.0013: real time      0.0013
    --------------------------------------------
      LOOP:  cpu time      1.7517: real time      1.7726

 eigenvalue-minimisations  :  4032
 total energy-change (2. order) :-0.4092897E-04  (-0.1550410E-05)
 number of electron      56.0000002 magnetization      -0.0003686
 augmentation part        0.6987431 magnetization      -0.0002519

 Broyden mixing:
  rms(total) = 0.22112E-03    rms(broyden)= 0.22109E-03
  rms(prec ) = 0.36204E-03
  weight for this iteration     100.00

 eigenvalues of (default mixing * dielectric matrix)
  average eigenvalue GAMMA=   1.7418
  5.0356  3.6567  3.2093  3.2093  2.0838  2.0838  1.3818  1.1591  0.9701  0.9701
  0.8039  0.7581  0.6789  0.6111  0.6284  0.6284

 Free energy of the ion-electron system (eV)
  ---------------------------------------------------
  alpha Z        PSCENC =        59.25071400
  Ewald energy   TEWEN  =      1821.04601535
  -Hartree energ DENC   =     -3428.52093455
  -exchange      EXHF   =         0.00000000
  -V(xc)+E(xc)   XCENC  =       167.07515515
  PAW double counting   =      5518.91931348    -5518.17943906
  entropy T*S    EENTRO =        -0.00605437
  eigenvalues    EBANDS =      -490.17825981
  atomic energy  EATOM  =      1746.50554237
  Solvation  Ediel_sol  =         0.00000000
  ---------------------------------------------------
  free energy    TOTEN  =      -124.08794745 eV

  energy without entropy =     -124.08189308  energy(sigma->0) =     -124.08492027


--------------------------------------------------------------------------------------------------------




--------------------------------------- Iteration      1(  22)  ---------------------------------------


    POTLOK:  cpu time      0.0296: real time      0.0302
    SETDIJ:  cpu time      0.0032: real time      0.0032
     EDDAV:  cpu time      1.7275: real time      1.7431
       DOS:  cpu time      0.0006: real time      0.0006
    CHARGE:  cpu time      0.0920: real time      0.0979
    MIXING:  cpu time      0.0012: real time      0.0012
    --------------------------------------------
      LOOP:  cpu time      1.8541: real time      1.8762

 eigenvalue-minimisations  :  4224
 total energy-change (2. order) :-0.2363101E-04  (-0.5702215E-06)
 number of electron      56.0000002 magnetization       0.0000257
 augmentation part        0.6987404 magnetization       0.0001141

 Broyden mixing:
  rms(total) = 0.12809E-03    rms(broyden)= 0.12807E-03
  rms(prec ) = 0.16611E-03
  weight for this iteration     100.00

 eigenvalues of (default mixing * dielectric matrix)
  average eigenvalue GAMMA=   1.7891
  5.2520  4.2794  3.6949  3.2232  2.3528  1.9772  1.4706  1.2027  1.0942  0.9334
  0.8729  0.8028  0.7282  0.6708  0.6116  0.6267  0.6210

 Free energy of the ion-electron system (eV)
  ---------------------------------------------------
  alpha Z        PSCENC =        59.25071400
  Ewald energy   TEWEN  =      1821.04601535
  -Hartree energ DENC   =     -3428.57747802
  -exchange      EXHF   =         0.00000000
  -V(xc)+E(xc)   XCENC  =       167.07530135
  PAW double counting   =      5518.66485980    -5517.92492942
  entropy T*S    EENTRO =        -0.00605441
  eigenvalues    EBANDS =      -490.12194210
  atomic energy  EATOM  =      1746.50554237
  Solvation  Ediel_sol  =         0.00000000
  ---------------------------------------------------
  free energy    TOTEN  =      -124.08797108 eV

  energy without entropy =     -124.08191667  energy(sigma->0) =     -124.08494388


--------------------------------------------------------------------------------------------------------




--------------------------------------- Iteration      1(  23)  ---------------------------------------


    POTLOK:  cpu time      0.0298: real time      0.0305
    SETDIJ:  cpu time      0.0033: real time      0.0033
     EDDAV:  cpu time      2.2296: real time      2.2460
       DOS:  cpu time      0.0006: real time      0.0006
    CHARGE:  cpu time      0.0923: real time      0.0992
    MIXING:  cpu time      0.0013: real time      0.0013
    --------------------------------------------
      LOOP:  cpu time      2.3569: real time      2.3808

 eigenvalue-minimisations  :  5376
 total energy-change (2. order) :-0.4152445E-05  (-0.2184432E-06)
 number of electron      56.0000002 magnetization       0.0000838
 augmentation part        0.6987376 magnetization       0.0001219

 Broyden mixing:
  rms(total) = 0.66011E-04    rms(broyden)= 0.66003E-04
  rms(prec ) = 0.83755E-04
  weight for this iteration     100.00

 eigenvalues of (default mixing * dielectric matrix)
  average eigenvalue GAMMA=   1.8242
  5.8789  4.7397  3.4274  3.4274  2.3913  1.9555  1.7054  1.4072  1.1501  0.9637
  0.9637  0.8053  0.8053  0.7053  0.6532  0.6334  0.6116  0.6116

 Free energy of the ion-electron system (eV)
  ---------------------------------------------------
  alpha Z        PSCENC =        59.25071400
  Ewald energy   TEWEN  =      1821.04601535
  -Hartree energ DENC   =     -3428.60216590
  -exchange      EXHF   =         0.00000000
  -V(xc)+E(xc)   XCENC  =       167.07583630
  PAW double counting   =      5518.77555480    -5518.03555484
  entropy T*S    EENTRO =        -0.00605349
  eigenvalues    EBANDS =      -490.09786383
  atomic energy  EATOM  =      1746.50554237
  Solvation  Ediel_sol  =         0.00000000
  ---------------------------------------------------
  free energy    TOTEN  =      -124.08797524 eV

  energy without entropy =     -124.08192175  energy(sigma->0) =     -124.08494849


--------------------------------------------------------------------------------------------------------




--------------------------------------- Iteration      1(  24)  ---------------------------------------


    POTLOK:  cpu time      0.0288: real time      0.0295
    SETDIJ:  cpu time      0.0031: real time      0.0032
     EDDAV:  cpu time      1.9197: real time      1.9311
       DOS:  cpu time      0.0006: real time      0.0006
    CHARGE:  cpu time      0.0935: real time      0.1034
    MIXING:  cpu time      0.0014: real time      0.0014
    --------------------------------------------
      LOOP:  cpu time      2.0471: real time      2.0692

 eigenvalue-minimisations  :  4656
 total energy-change (2. order) :-0.3713092E-05  (-0.5950427E-07)
 number of electron      56.0000002 magnetization       0.0000613
 augmentation part        0.6987374 magnetization       0.0000739

 Broyden mixing:
  rms(total) = 0.34443E-04    rms(broyden)= 0.34441E-04
  rms(prec ) = 0.41828E-04
  weight for this iteration     100.00

 eigenvalues of (default mixing * dielectric matrix)
  average eigenvalue GAMMA=   1.8624
  6.5872  4.8182  3.4869  3.4869  2.3645  2.3645  1.9240  1.4891  1.1247  1.1247
  0.9138  0.9138  0.7923  0.7923  0.7020  0.6400  0.6400  0.6099  0.6099

 Free energy of the ion-electron system (eV)
  ---------------------------------------------------
  alpha Z        PSCENC =        59.25071400
  Ewald energy   TEWEN  =      1821.04601535
  -Hartree energ DENC   =     -3428.60912146
  -exchange      EXHF   =         0.00000000
  -V(xc)+E(xc)   XCENC  =       167.07587027
  PAW double counting   =      5518.84251736    -5518.10249556
  entropy T*S    EENTRO =        -0.00605334
  eigenvalues    EBANDS =      -490.09096793
  atomic energy  EATOM  =      1746.50554237
  Solvation  Ediel_sol  =         0.00000000
  ---------------------------------------------------
  free energy    TOTEN  =      -124.08797895 eV

  energy without entropy =     -124.08192561  energy(sigma->0) =     -124.08495228


--------------------------------------------------------------------------------------------------------




[...]
     27      -2.3394      1.00000
     28      -1.6962      1.00000
     29       0.8225      0.00000
     30       0.9635      0.00000
     31       3.0921      0.00000
     32       3.2876      0.00000
     33       3.7857      0.00000
     34       3.8523      0.00000
     35       4.0196      0.00000
     36       4.7437      0.00000
     37       5.0392      0.00000
     38       5.1528      0.00000
     39       5.2206      0.00000
     40       5.3414      0.00000
     41       5.4715      0.00000
     42       5.6012      0.00000
     43       6.0318      0.00000
     44       6.3376      0.00000
     45       6.5288      0.00000
     46       6.6548      0.00000
     47       7.1372      0.00000
     48       7.2345      0.00000

 k-point    16 :       0.4167    0.1667    0.0000
  band No.  band energies     occupation 
      1     -17.9982      1.00000
      2     -17.8625      1.00000
      3     -16.5409      1.00000
      4     -15.1127      1.00000
      5     -14.5090      1.00000
      6     -13.9928      1.00000
      7     -12.5444      1.00000
      8     -11.9072      1.00000
      9     -10.2024      1.00000
     10     -10.0322      1.00000
     11      -9.5212      1.00000
     12      -8.7145      1.00000
     13      -7.8897      1.00000
     14      -7.8604      1.00000
     15      -7.8323      1.00000
     16      -7.6756      1.00000
     17      -7.3145      1.00000
     18      -5.9246      1.00000
     19      -5.8556      1.00000
     20      -5.8149      1.00000
     21      -5.7491      1.00000
     22      -5.3658      1.00000
     23      -4.7672      1.00000
     24      -4.5616      1.00000
     25      -4.3100      1.00000
     26      -4.0115      1.00000
     27      -2.4089      1.00000
     28      -1.6464      1.00000
     29       0.8106      0.00000
     30       0.9435      0.00000
     31       3.3313      0.00000
     32       3.5468      0.00000
     33       3.8709      0.00000
     34       3.8845      0.00000
     35       4.4829      0.00000
     36       4.5253      0.00000
     37       4.7219      0.00000
     38       4.8602      0.00000
     39       5.5998      0.00000
     40       5.6886      0.00000
     41       5.8820      0.00000
     42       5.9622      0.00000
     43       6.0598      0.00000
     44       6.2054      0.00000
     45       6.3283      0.00000
     46       6.4184      0.00000
     47       6.7316      0.00000
     48       6.7883      0.00000

 k-point    17 :       0.2500    0.2500    0.0000
  band No.  band energies     occupation 
      1     -18.4007      1.00000
      2     -17.0768      1.00000
      3     -16.9227      1.00000
      4     -15.2616      1.00000
      5     -14.2915      1.00000
      6     -13.5438      1.00000
      7     -12.6004      1.00000
      8     -12.5941      1.00000
      9      -9.8162      1.00000
     10      -9.7942      1.00000
     11      -9.3565      1.00000
     12      -9.3488      1.00000
     13      -9.2069      1.00000
     14      -7.9582      1.00000
     15      -7.1365      1.00000
     16      -6.9574      1.00000
     17      -6.8335      1.00000
     18      -6.5707      1.00000
     19      -6.4080      1.00000
     20      -5.6374      1.00000
     21      -5.4377      1.00000
     22      -4.8846      1.00000
     23      -4.7638      1.00000
     24      -4.3272      1.00000
     25      -4.2597      1.00000
     26      -4.1072      1.00000
     27      -2.5673      1.00000
     28      -1.3846      1.00000
     29       0.4951      0.00000
     30       1.6176      0.00000
     31       2.5798      0.00000
     32       2.8943      0.00000
     33       3.9591      0.00000
     34       3.9934      0.00000
     35       4.4437      0.00000
     36       4.4824      0.00000
     37       4.5944      0.00000
     38       5.0138      0.00000
     39       5.2488      0.00000
     40       5.3233      0.00000
     41       5.6311      0.00000
     42       5.8384      0.00000
     43       5.9734      0.00000
     44       6.1434      0.00000
     45       6.8564      0.00000
     46       6.9818      0.00000
     47       7.1581      0.00000
     48       7.2071      0.00000

 k-point    18 :       0.3333    0.2500    0.0000
  band No.  band energies     occupation 
      1     -18.0189      1.00000
      2     -17.5433      1.00000
      3     -17.0610      1.00000
      4     -15.0357      1.00000
      5     -14.5636      1.00000
      6     -13.3643      1.00000
      7     -12.7130      1.00000
      8     -12.4299      1.00000
      9     -10.3052      1.00000
     10      -9.6744      1.00000
     11      -9.0451      1.00000
     12      -8.8964      1.00000
     13      -8.3045      1.00000
     14      -7.7715      1.00000
     15      -7.5925      1.00000
     16      -7.3870      1.00000
     17      -7.2161      1.00000
     18      -6.4842      1.00000
     19      -5.9864      1.00000
     20      -5.9636      1.00000
     21      -5.4288      1.00000
     22      -5.2640      1.00000
     23      -4.8972      1.00000
     24      -4.5621      1.00000
     25      -4.4164      1.00000
     26      -4.1502      1.00000
     27      -2.7871      1.00000
     28      -1.0537      1.00000
     29       0.2149      0.00000
     30       1.8398      0.00000
     31       3.0782      0.00000
     32       3.1080      0.00000
     33       3.5234      0.00000
     34       4.1689      0.00000
     35       4.4510      0.00000
     36       4.6059      0.00000
     37       4.7109      0.00000
     38       5.1000      0.00000
     39       5.5116      0.00000
     40       5.5278      0.00000
     41       5.7454      0.00000
     42       5.8593      0.00000
     43       6.1935      0.00000
     44       6.4633      0.00000
     45       6.4903      0.00000
     46       6.6703      0.00000
     47       6.7513      0.00000
     48       6.8947      0.00000

 k-point    19 :       0.3333    0.3333    0.0000
  band No.  band energies     occupation 
      1     -17.6523      1.00000
      2     -17.6491      1.00000
      3     -17.4331      1.00000
      4     -14.8049      1.00000
      5     -14.7979      1.00000
      6     -12.8248      1.00000
      7     -12.8247      1.00000
      8     -12.7888      1.00000
      9     -10.5291      1.00000
     10      -9.2568      1.00000
     11      -9.2321      1.00000
     12      -8.2524      1.00000
     13      -8.0080      1.00000
     14      -8.0048      1.00000
     15      -7.8597      1.00000
     16      -7.6990      1.00000
     17      -6.6987      1.00000
     18      -6.6927      1.00000
     19      -6.5419      1.00000
     20      -5.5270      1.00000
     21      -5.5253      1.00000
     22      -5.3545      1.00000
     23      -4.9098      1.00000
     24      -4.8889      1.00000
     25      -4.2583      1.00000
     26      -4.2425      1.00000
     27      -2.9512      1.00000
     28      -0.4127      0.74488
     29      -0.4126      0.74456
     30       2.6211      0.00000
     31       2.6482      0.00000
     32       3.2276      0.00000
     33       3.2412      0.00000
     34       4.0142      0.00000
     35       4.1775      0.00000
     36       4.9308      0.00000
     37       4.9465      0.00000
     38       5.2955      0.00000
     39       5.4712      0.00000
     40       5.6959      0.00000
     41       5.6985      0.00000
     42       6.0511      0.00000
     43       6.0899      0.00000
     44       6.2637      0.00000
     45       6.3612      0.00000
     46       6.3883      0.00000
     47       6.5171      0.00000
     48       7.2209      0.00000


--------------------------------------------------------------------------------------------------------


 soft charge-density along one line, spin component           1
         0         1         2         3         4         5         6         7         8         9
 total charge-density along one line
 
 soft charge-density along one line, spin component           2
         0         1         2         3         4         5         6         7         8         9
 total charge-density along one line
 
 pseudopotential strength for first ion, spin component:           1
  6.674  10.178  -0.004   0.000  -0.007  -0.007   0.001  -0.012
 10.178  15.519  -0.007   0.001  -0.011  -0.010   0.001  -0.018
 -0.004  -0.007  -2.288  -0.000   0.002  -3.921  -0.001   0.005
  0.000   0.001  -0.000  -2.283   0.000  -0.001  -3.908   0.001
 -0.007  -0.011   0.002   0.000  -2.285   0.005   0.001  -3.915
 -0.007  -0.010  -3.921  -0.001   0.005  -6.521  -0.001   0.010
  0.001   0.001  -0.001  -3.908   0.001  -0.001  -6.492   0.001
 -0.012  -0.018   0.005   0.001  -3.915   0.010   0.001  -6.509
 pseudopotential strength for first ion, spin component:           2
  6.674  10.178  -0.004   0.000  -0.007  -0.007   0.001  -0.012
 10.178  15.519  -0.007   0.001  -0.011  -0.010   0.001  -0.018
 -0.004  -0.007  -2.288  -0.000   0.002  -3.921  -0.001   0.005
  0.000   0.001  -0.000  -2.283   0.000  -0.001  -3.908   0.001
 -0.007  -0.011   0.002   0.000  -2.285   0.005   0.001  -3.915
 -0.007  -0.010  -3.921  -0.001   0.005  -6.521  -0.001   0.010
  0.001   0.001  -0.001  -3.908   0.001  -0.001  -6.492   0.001
 -0.012  -0.018   0.005   0.001  -3.915   0.010   0.001  -6.509
 total augmentation occupancy for first ion, spin component:           1
  3.690  -1.010  -0.193   0.023  -0.323   0.090  -0.010   0.152
 -1.010   0.294   0.108  -0.012   0.182  -0.040   0.004  -0.067
 -0.193   0.108   4.185   0.025  -0.260  -1.183  -0.013   0.118
  0.023  -0.012   0.025   1.782  -0.031  -0.013  -0.376   0.015
 -0.323   0.182  -0.260  -0.031   3.877   0.118   0.014  -1.044
  0.090  -0.040  -1.183  -0.013   0.118   0.344   0.005  -0.045
 -0.010   0.004  -0.013  -0.376   0.014   0.005   0.083  -0.005
  0.152  -0.067   0.118   0.015  -1.044  -0.045  -0.005   0.291
 total augmentation occupancy for first ion, spin component:           2
  0.000  -0.000  -0.000  -0.000   0.000   0.000   0.000   0.000
 -0.000   0.000   0.000   0.000  -0.000  -0.000  -0.000  -0.000
 -0.000   0.000   0.000   0.000  -0.000  -0.000  -0.000   0.000
 -0.000   0.000   0.000  -0.000   0.000  -0.000  -0.000  -0.000
  0.000  -0.000  -0.000   0.000   0.000   0.000  -0.000  -0.000
  0.000  -0.000  -0.000  -0.000   0.000   0.000   0.000  -0.000
  0.000  -0.000  -0.000  -0.000  -0.000   0.000   0.000   0.000
  0.000  -0.000   0.000  -0.000  -0.000  -0.000   0.000   0.000


------------------------ aborting loop because EDIFF is reached ----------------------------------------


    CHARGE:  cpu time      0.0894: real time      0.0999
    FORLOC:  cpu time      0.0015: real time      0.0015
    FORNL :  cpu time      0.2136: real time      0.2140
    STRESS:  cpu time      1.1343: real time      1.1379
    FORCOR:  cpu time      0.0250: real time      0.0250
    FORHAR:  cpu time      0.0037: real time      0.0037
    MIXING:  cpu time      0.0011: real time      0.0011
    OFIELD:  cpu time      0.0000: real time      0.0000

 ---------------------------------------------------------------------------------------------

         DFTD3 V3.0 Rev 1        
 Edisp (eV)   -1.52234

 E6    (eV) :    -1.0370
 E8    (eV) :    -0.4853
 % E8        : 31.88
    FORVDW:  cpu time      0.0419: real time      0.0420

  FORCE on cell =-STRESS in cart. coord.  units (eV):
  Direction    XX          YY          ZZ          XY          YZ          ZX
  --------------------------------------------------------------------------------------
  Alpha Z    59.25071    59.25071    59.25071
  Ewald    4088.23299  4088.23775 -5740.13620     0.00000     0.00003     0.00003
  Hartree  3982.96169  3982.96173 -3921.98311     0.00000    -0.00000    -0.00000
  E(xc)    -194.36897  -194.36898  -201.28268    -0.00000    -0.00000    -0.00000
  Local   -8620.93563 -8620.93800  8993.85932     0.00000    -0.00001    -0.00001
  n-local   -35.05435   -38.06790   -38.81436    -1.38893    -0.02503     0.00437
  augment    -2.63708    -2.63702    -2.40104     0.00000     0.00000    -0.00000
  Kinetic   722.20507   710.63159   851.17773    -5.88701     0.14477     0.06912
  Fock        0.00000     0.00000     0.00000     0.00000     0.00000     0.00000
  vdW        -1.23080    -1.23081    -0.61889    -0.00000     0.00000     0.00000
  -------------------------------------------------------------------------------------
  Total      -8.86865    -8.86865    -0.94853    -0.00000     0.00000    -0.00000
  in kB     -43.23247   -43.23247    -4.62385    -0.00000     0.00000    -0.00000
  external pressure =      -30.36 kB  Pullay stress =        0.00 kB


 VOLUME and BASIS-vectors are now :
 -----------------------------------------------------------------------------
  energy-cutoff  :      450.00
  volume of cell :      328.67
      direct lattice vectors                 reciprocal lattice vectors
     4.356107781  2.515000000  0.000000000     0.114781366  0.198807157  0.000000000
    -4.356107781  2.515000000  0.000000000    -0.114781366  0.198807157  0.000000000
     0.000000000  0.000000000 15.000000000     0.000000000  0.000000000  0.066666667

  length of vectors
     5.030000000  5.030000000 15.000000000     0.229562731  0.229562731  0.066666667


 FORCES acting on ions
    electron-ion (+dipol)            ewald-force                    non-local-force                 convergence-correction
 -----------------------------------------------------------------------------------------------
   -.253E+02 -.148E+02 0.141E+03   0.281E+02 0.165E+02 -.141E+03   -.284E+01 -.164E+01 0.187E+00   -.175E-05 -.587E-05 0.242E-04
   0.255E+02 0.145E+02 0.141E+03   -.283E+02 -.161E+02 -.141E+03   0.284E+01 0.164E+01 0.187E+00   0.595E-05 -.142E-05 0.242E-04
   -.253E+02 0.148E+02 0.141E+03   0.281E+02 -.165E+02 -.141E+03   -.284E+01 0.164E+01 0.187E+00   -.175E-05 0.587E-05 0.242E-04
   0.255E+02 -.145E+02 0.141E+03   -.283E+02 0.161E+02 -.141E+03   0.284E+01 -.164E+01 0.187E+00   0.595E-05 0.142E-05 0.242E-04
   -.214E+00 0.293E+02 0.141E+03   0.247E+00 -.325E+02 -.141E+03   0.519E-02 0.328E+01 0.187E+00   -.421E-05 0.445E-05 0.242E-04
   -.214E+00 -.293E+02 0.141E+03   0.247E+00 0.325E+02 -.141E+03   0.519E-02 -.328E+01 0.187E+00   -.421E-05 -.445E-05 0.242E-04
   0.458E-04 0.792E-04 0.119E+03   0.208E-03 0.307E-03 -.118E+03   -.105E-17 0.121E-16 -.884E+00   -.579E-10 -.146E-09 0.146E-04
   -.451E-04 0.780E-04 0.144E+03   -.210E-03 0.311E-03 -.144E+03   -.114E-17 -.645E-19 0.128E+00   0.629E-10 -.565E-10 0.260E-04
   -.309E+01 0.535E+01 -.138E+03   0.338E+01 -.585E+01 0.138E+03   0.145E+00 -.251E+00 -.913E-02   -.286E-05 0.495E-05 0.202E-03
   0.308E+01 0.534E+01 -.138E+03   -.336E+01 -.582E+01 0.138E+03   -.137E+00 -.237E+00 -.109E-01   0.526E-05 0.911E-05 0.202E-03
   0.618E+01 0.484E-03 -.138E+03   -.675E+01 -.455E-06 0.138E+03   -.290E+00 0.553E-17 -.913E-02   0.572E-05 -.849E-10 0.202E-03
   -.268E-03 0.486E-03 -.138E+03   -.496E-03 0.470E-06 0.138E+03   -.204E-17 0.782E-17 -.146E-01   -.171E-08 0.254E-09 0.205E-03
   0.268E-03 0.486E-03 -.139E+03   0.495E-03 0.470E-06 0.139E+03   0.109E-16 0.526E-18 -.216E-01   0.161E-08 0.382E-09 0.205E-03
   -.616E+01 0.484E-03 -.138E+03   0.672E+01 -.455E-06 0.138E+03   0.274E+00 -.457E-18 -.109E-01   -.105E-04 0.535E-10 0.202E-03
   -.309E+01 -.535E+01 -.138E+03   0.338E+01 0.585E+01 0.138E+03   0.145E+00 0.251E+00 -.913E-02   -.286E-05 -.495E-05 0.202E-03
   0.308E+01 -.534E+01 -.138E+03   -.336E+01 0.582E+01 0.138E+03   -.137E+00 0.237E+00 -.109E-01   0.526E-05 -.911E-05 0.202E-03
 -----------------------------------------------------------------------------------------------
   0.743E-06 0.475E-02 -.272E+00   -.888E-15 0.107E-13 0.853E-13   -.527E-15 0.860E-15 0.270E+00   0.264E-11 0.111E-08 0.181E-02
 
 
 POSITION                                       TOTAL-FORCE (eV/Angst)
 -----------------------------------------------------------------------------------
      2.91518      1.68295      1.80655        -0.049552      0.015631      0.038852
      1.44104      0.83186      1.80655         0.011239      0.050729      0.038852
     -1.44093      0.83204      1.80655        -0.049552     -0.015631      0.038852
     -2.91507      1.68314      1.80655         0.011239     -0.050729      0.038852
     -0.00011      1.66390      1.80655         0.038313      0.035098      0.038852
     -0.00011      3.36609      1.80655         0.038313     -0.035098      0.038852
      1.45203      2.51500      1.91448         0.000000      0.000000     -0.073646
     -1.45203      2.51500      1.78093         0.000000      0.000000     -0.036969
     -0.73233      1.26844      6.69900         0.432834     -0.749691     -0.013358
      0.73214      1.26810      6.69922        -0.418367     -0.724632     -0.015551
     -2.89144      2.51500      6.69900        -0.865668      0.000000     -0.013358
     -1.45203      2.51500      6.69896         0.000000      0.000000     -0.014342
      1.45203      2.51500      6.69964         0.000000      0.000000     -0.021431
      2.89184      2.51500      6.69922         0.836733      0.000000     -0.015551
     -0.73233      3.76156      6.69900         0.432834      0.749691     -0.013358
      0.73214      3.76190      6.69922        -0.418367      0.724632     -0.015551
 -----------------------------------------------------------------------------------
    total drift:                                0.000001      0.004753      0.000030


--------------------------------------------------------------------------------------------------------



  FREE ENERGIE OF THE ION-ELECTRON SYSTEM (eV)
  ---------------------------------------------------
  free  energy   TOTEN  =      -125.58027901 eV

  energy  without entropy=     -125.57392759  energy(sigma->0) =     -125.57710330
 
 d Force =-0.7031644E-01[-0.851E-01,-0.555E-01]  d Energy =-0.1096514E+00 0.393E-01
 d Force = 0.1469376E+04[ 0.122E+04, 0.172E+04]  d Ewald  = 0.1469253E+04 0.122E+00


--------------------------------------------------------------------------------------------------------


    POTLOK:  cpu time      0.0333: real time      0.0334


--------------------------------------------------------------------------------------------------------


 stress matrix after NEB project (eV)
     -8.86865     -0.00000     -0.00000
     -0.00000     -8.86865      0.00000
      0.00000      0.00000     -0.94853
  FORCES: max atom, RMS     0.865771    0.523360
  FORCE total and by dimension    2.093438    0.865668
  Stress total and by dimension   12.577975    8.868646
 -----------------------------------------------------------------------------
|                                                                             |
|     EEEEEEE  RRRRRR   RRRRRR   OOOOOOO  RRRRRR      ###     ###     ###     |
|     E        R     R  R     R  O     O  R     R     ###     ###     ###     |
|     E        R     R  R     R  O     O  R     R     ###     ###     ###     |
|     EEEEE    RRRRRR   RRRRRR   O     O  RRRRRR       #       #       #      |
|     E        R   R    R   R    O     O  R   R                               |
|     E        R    R   R    R   O     O  R    R      ###     ###     ###     |
|     EEEEEEE  R     R  R     R  OOOOOOO  R     R     ###     ###     ###     |
|                                                                             |
|     ZBRENT: fatal error in bracketing                                       |
|      please rerun with smaller EDIFF, or copy CONTCAR                       |
|      to POSCAR and continue                                                 |
|                                                                             |
|       ---->  I REFUSE TO CONTINUE WITH THIS SICK JOB ... BYE!!! <----       |
|                                                                             |
 -----------------------------------------------------------------------------

