Lattice                                 
           1
     4.356109    2.515001    0.000000
    -4.356109    2.515001    0.000000
     0.000000    0.000000   15.000000
   B    C 
     8     8
Direct configuration=     1
   0.66888689  0.00000000  0.10000000
   0.33111211  0.00000000  0.10000000
   0.00000000  0.33111211  0.10000000
   0.00000000  0.66888689  0.10000000
   0.33111211  0.33111211  0.10000000
   0.66888689  0.66888689  0.10000000
   0.66666600  0.33333300  0.09922189
   0.33333300  0.66666600  0.10077811
   0.16666600  0.33333300  0.46773333
   0.33333300  0.16666600  0.46773333
   0.16666600  0.83333300  0.46773333
   0.33333300  0.66666600  0.46773333
   0.66666600  0.33333300  0.46773333
   0.83333300  0.16666600  0.46773333
   0.66666600  0.83333300  0.46773333
   0.83333300  0.66666600  0.46773333
Direct configuration=     2
   0.66933771 -0.00000003  0.10002651
   0.33066126 -0.00000003  0.10002651
   0.00000003  0.33066129  0.10002651
   0.00000003  0.66933774  0.10002651
   0.33066126  0.33066129  0.10002651
   0.66933771  0.66933774  0.10002651
   0.66666600  0.33333300  0.09925813
   0.33333300  0.66666600  0.10080265
   0.16666376  0.33332852  0.46770583
   0.33332864  0.16666382  0.46770586
   0.16666376  0.83333524  0.46770583
   0.33333300  0.66666600  0.46770583
   0.66666600  0.33333300  0.46770592
   0.83333518  0.16666382  0.46770586
   0.66667048  0.83333524  0.46770583
   0.83333518  0.66667036  0.46770586
Direct configuration=     3
   0.66916102 -0.00000002  0.10001612
   0.33083796 -0.00000002  0.10001612
   0.00000002  0.33083798  0.10001612
   0.00000002  0.66916104  0.10001612
   0.33083796  0.33083798  0.10001612
   0.66916102  0.66916104  0.10001612
   0.66666600  0.33333300  0.09924393
   0.33333300  0.66666600  0.10079303
   0.16666464  0.33333027  0.46771661
   0.33333035  0.16666467  0.46771662
   0.16666464  0.83333436  0.46771661
   0.33333300  0.66666600  0.46771661
   0.66666600  0.33333300  0.46771666
   0.83333433  0.16666467  0.46771662
   0.66666873  0.83333436  0.46771661
   0.83333433  0.66666865  0.46771662
Direct configuration=     4
   0.66916106 -0.00000005  0.10004278
   0.33083789 -0.00000005  0.10004278
   0.00000005  0.33083794  0.10004278
   0.00000005  0.66916111  0.10004278
   0.33083789  0.33083794  0.10004278
   0.66916106  0.66916111  0.10004278
   0.66666600  0.33333300  0.09928099
   0.33333300  0.66666600  0.10081645
   0.16666653  0.33333406  0.46768904
   0.33333402  0.16666651  0.46768908
   0.16666653  0.83333247  0.46768904
   0.33333300  0.66666600  0.46768904
   0.66666600  0.33333300  0.46768915
   0.83333249  0.16666651  0.46768908
   0.66666494  0.83333247  0.46768904
   0.83333249  0.66666498  0.46768908
Direct configuration=     5
   0.66916118 -0.00000015  0.10012276
   0.33083767 -0.00000015  0.10012276
   0.00000015  0.33083782  0.10012276
   0.00000015  0.66916133  0.10012276
   0.33083767  0.33083782  0.10012276
   0.66916118  0.66916133  0.10012276
   0.66666600  0.33333300  0.09939217
   0.33333300  0.66666600  0.10088669
   0.16667221  0.33334543  0.46760634
   0.33334503  0.16667202  0.46760643
   0.16667221  0.83332679  0.46760634
   0.33333300  0.66666600  0.46760633
   0.66666600  0.33333300  0.46760661
   0.83332698  0.16667202  0.46760643
   0.66665357  0.83332679  0.46760634
   0.83332698  0.66665397  0.46760643
Direct configuration=     6
   0.66916141 -0.00000034  0.10028271
   0.33083725 -0.00000034  0.10028271
   0.00000034  0.33083759  0.10028271
   0.00000034  0.66916175  0.10028271
   0.33083725  0.33083759  0.10028271
   0.66916141  0.66916175  0.10028271
   0.66666600  0.33333300  0.09961454
   0.33333300  0.66666600  0.10102718
   0.16668358  0.33336816  0.46744094
   0.33336706  0.16668303  0.46744114
   0.16668358  0.83331542  0.46744094
   0.33333300  0.66666600  0.46744090
   0.66666600  0.33333300  0.46744154
   0.83331597  0.16668303  0.46744114
   0.66663084  0.83331542  0.46744094
   0.83331597  0.66663194  0.46744114
Direct configuration=     7
   0.66916188 -0.00000073  0.10060263
   0.33083639 -0.00000073  0.10060263
   0.00000073  0.33083712  0.10060263
   0.00000073  0.66916261  0.10060263
   0.33083639  0.33083712  0.10060263
   0.66916188  0.66916261  0.10060263
   0.66666600  0.33333300  0.10005927
   0.33333300  0.66666600  0.10130815
   0.16670632  0.33341363  0.46711013
   0.33341111  0.16670505  0.46711055
   0.16670632  0.83329268  0.46711013
   0.33333300  0.66666600  0.46711005
   0.66666600  0.33333300  0.46711140
   0.83329395  0.16670505  0.46711055
   0.66658537  0.83329268  0.46711013
   0.83329395  0.66658789  0.46711055
Direct configuration=     8
   0.66916282 -0.00000149  0.10124245
   0.33083468 -0.00000149  0.10124245
   0.00000149  0.33083618  0.10124245
   0.00000149  0.66916432  0.10124245
   0.33083468  0.33083618  0.10124245
   0.66916282  0.66916432  0.10124245
   0.66666600  0.33333300  0.10094873
   0.33333300  0.66666600  0.10187011
   0.16675178  0.33350457  0.46644851
   0.33349921  0.16674911  0.46644938
   0.16675178  0.83324722  0.46644851
   0.33333300  0.66666600  0.46644836
   0.66666600  0.33333300  0.46645110
   0.83324989  0.16674911  0.46644938
   0.66649443  0.83324722  0.46644851
   0.83324989  0.66649979  0.46644938
Direct configuration=     9
   0.66916470 -0.00000303  0.10252210
   0.33083127 -0.00000303  0.10252210
   0.00000303  0.33083430  0.10252210
   0.00000303  0.66916773  0.10252210
   0.33083127  0.33083430  0.10252210
   0.66916470  0.66916773  0.10252210
   0.66666600  0.33333300  0.10272766
   0.33333300  0.66666600  0.10299401
   0.16684272  0.33368643  0.46512527
   0.33367541  0.16683721  0.46512705
   0.16684272  0.83315628  0.46512527
   0.33333300  0.66666600  0.46512496
   0.66666600  0.33333300  0.46513052
   0.83316179  0.16683721  0.46512705
   0.66631257  0.83315628  0.46512527
   0.83316179  0.66632359  0.46512705
Direct configuration=    10
   0.66916846 -0.00000611  0.10508139
   0.33082443 -0.00000611  0.10508139
   0.00000611  0.33083054  0.10508139
   0.00000611  0.66917457  0.10508139
   0.33082443  0.33083054  0.10508139
   0.66916846  0.66917457  0.10508139
   0.66666600  0.33333300  0.10628551
   0.33333300  0.66666600  0.10524181
   0.16702459  0.33405017  0.46247878
   0.33402782  0.16701341  0.46248237
   0.16702459  0.83297441  0.46247878
   0.33333300  0.66666600  0.46247817
   0.66666600  0.33333300  0.46248935
   0.83298559  0.16701341  0.46248237
   0.66594883  0.83297441  0.46247878
   0.83298559  0.66597118  0.46248237
Direct configuration=    11
   0.66917597 -0.00001226  0.11019999
   0.33081076 -0.00001226  0.11019999
   0.00001226  0.33082303  0.11019999
   0.00001226  0.66918824  0.11019999
   0.33081076  0.33082303  0.11019999
   0.66917597  0.66918824  0.11019999
   0.66666600  0.33333300  0.11340122
   0.33333300  0.66666600  0.10973741
   0.16738833  0.33477765  0.45718582
   0.33473264  0.16736582  0.45719302
   0.16738833  0.83261067  0.45718582
   0.33333300  0.66666600  0.45718458
   0.66666600  0.33333300  0.45720701
   0.83263318  0.16736582  0.45719302
   0.66522135  0.83261067  0.45718582
   0.83263318  0.66526636  0.45719302
Direct configuration=    12
   0.66919101 -0.00002457  0.12043717
   0.33078343 -0.00002457  0.12043717
   0.00002457  0.33080799  0.12043717
   0.00002457  0.66921557  0.12043717
   0.33078343  0.33080799  0.12043717
   0.66919101  0.66921557  0.12043717
   0.66666600  0.33333300  0.12763263
   0.33333300  0.66666600  0.11872862
   0.16811580  0.33623261  0.44659990
   0.33614227  0.16807063  0.44661431
   0.16811580  0.83188320  0.44659990
   0.33333300  0.66666600  0.44659741
   0.66666600  0.33333300  0.44664234
   0.83192837  0.16807063  0.44661431
   0.66376639  0.83188320  0.44659990
   0.83192837  0.66385673  0.44661431
Direct configuration=    13
   0.66919101 -0.00002456  0.12043838
   0.33078343 -0.00002456  0.12043838
   0.00002456  0.33080799  0.12043838
   0.00002456  0.66921557  0.12043838
   0.33078343  0.33080799  0.12043838
   0.66919101  0.66921557  0.12043838
   0.66666600  0.33333300  0.12763429
   0.33333300  0.66666600  0.11872967
   0.16811583  0.33623266  0.44659865
   0.33614232  0.16807066  0.44661307
   0.16811583  0.83188317  0.44659865
   0.33333300  0.66666600  0.44659617
   0.66666600  0.33333300  0.44664110
   0.83192834  0.16807066  0.44661307
   0.66376634  0.83188317  0.44659865
   0.83192834  0.66385668  0.44661307
Direct configuration=    14
   0.66919101 -0.00002455  0.12044198
   0.33078344 -0.00002455  0.12044198
   0.00002455  0.33080799  0.12044198
   0.00002455  0.66921556  0.12044198
   0.33078344  0.33080799  0.12044198
   0.66919101  0.66921556  0.12044198
   0.66666600  0.33333300  0.12763930
   0.33333300  0.66666600  0.11873283
   0.16811591  0.33623283  0.44659493
   0.33614248  0.16807074  0.44660934
   0.16811591  0.83188309  0.44659493
   0.33333300  0.66666600  0.44659244
   0.66666600  0.33333300  0.44663738
   0.83192826  0.16807074  0.44660934
   0.66376617  0.83188309  0.44659493
   0.83192826  0.66385652  0.44660934
Direct configuration=    15
   0.66919101 -0.00002453  0.12044920
   0.33078346 -0.00002453  0.12044920
   0.00002453  0.33080799  0.12044920
   0.00002453  0.66921554  0.12044920
   0.33078346  0.33080799  0.12044920
   0.66919101  0.66921554  0.12044920
   0.66666600  0.33333300  0.12764930
   0.33333300  0.66666600  0.11873915
   0.16811608  0.33623315  0.44658747
   0.33614279  0.16807090  0.44660189
   0.16811608  0.83188292  0.44658747
   0.33333300  0.66666600  0.44658499
   0.66666600  0.33333300  0.44662994
   0.83192810  0.16807090  0.44660189
   0.66376585  0.83188292  0.44658747
   0.83192810  0.66385621  0.44660189
Direct configuration=    16
   0.66919101 -0.00002449  0.12046363
   0.33078350 -0.00002449  0.12046363
   0.00002449  0.33080799  0.12046363
   0.00002449  0.66921550  0.12046363
   0.33078350  0.33080799  0.12046363
   0.66919101  0.66921550  0.12046363
   0.66666600  0.33333300  0.12766930
   0.33333300  0.66666600  0.11875179
   0.16811640  0.33623380  0.44657256
   0.33614343  0.16807121  0.44658699
   0.16811640  0.83188260  0.44657256
   0.33333300  0.66666600  0.44657007
   0.66666600  0.33333300  0.44661505
   0.83192779  0.16807121  0.44658699
   0.66376520  0.83188260  0.44657256
   0.83192779  0.66385557  0.44658699
Direct configuration=    17
   0.66919102 -0.00002440  0.12049249
   0.33078359 -0.00002440  0.12049249
   0.00002440  0.33080798  0.12049249
   0.00002440  0.66921541  0.12049249
   0.33078359  0.33080798  0.12049249
   0.66919102  0.66921541  0.12049249
   0.66666600  0.33333300  0.12770930
   0.33333300  0.66666600  0.11877708
   0.16811705  0.33623510  0.44654274
   0.33614469  0.16807185  0.44655719
   0.16811705  0.83188195  0.44654274
   0.33333300  0.66666600  0.44654025
   0.66666600  0.33333300  0.44658529
   0.83192715  0.16807185  0.44655719
   0.66376390  0.83188195  0.44654274
   0.83192715  0.66385431  0.44655719
Direct configuration=    18
   0.66919103 -0.00002422  0.12055022
   0.33078375 -0.00002422  0.12055022
   0.00002422  0.33080797  0.12055022
   0.00002422  0.66921525  0.12055022
   0.33078375  0.33080797  0.12055022
   0.66919103  0.66921525  0.12055022
   0.66666600  0.33333300  0.12778931
   0.33333300  0.66666600  0.11882764
   0.16811835  0.33623771  0.44648310
   0.33614723  0.16807311  0.44649759
   0.16811835  0.83188065  0.44648310
   0.33333300  0.66666600  0.44648060
   0.66666600  0.33333300  0.44652575
   0.83192589  0.16807311  0.44649759
   0.66376129  0.83188065  0.44648310
   0.83192589  0.66385177  0.44649759
Direct configuration=    19
   0.66919105 -0.00002386  0.12066567
   0.33078408 -0.00002386  0.12066567
   0.00002386  0.33080795  0.12066567
   0.00002386  0.66921492  0.12066567
   0.33078408  0.33080795  0.12066567
   0.66919105  0.66921492  0.12066567
   0.66666600  0.33333300  0.12794932
   0.33333300  0.66666600  0.11892877
   0.16812095  0.33624291  0.44636382
   0.33615229  0.16807565  0.44637838
   0.16812095  0.83187805  0.44636382
   0.33333300  0.66666600  0.44636130
   0.66666600  0.33333300  0.44640668
   0.83192335  0.16807565  0.44637838
   0.66375609  0.83187805  0.44636382
   0.83192335  0.66384671  0.44637838
Direct configuration=    20
   0.66919110 -0.00002315  0.12089656
   0.33078475 -0.00002315  0.12089656
   0.00002315  0.33080790  0.12089656
   0.00002315  0.66921425  0.12089656
   0.33078475  0.33080790  0.12089656
   0.66919110  0.66921425  0.12089656
   0.66666600  0.33333300  0.12826935
   0.33333300  0.66666600  0.11913103
   0.16812616  0.33625332  0.44612526
   0.33616243  0.16808071  0.44613996
   0.16812616  0.83187284  0.44612526
   0.33333300  0.66666600  0.44612271
   0.66666600  0.33333300  0.44616854
   0.83191829  0.16808071  0.44613996
   0.66374568  0.83187284  0.44612526
   0.83191829  0.66383657  0.44613996
Direct configuration=    21
   0.66919120 -0.00002173  0.12135836
   0.33078608 -0.00002173  0.12135836
   0.00002173  0.33080780  0.12135836
   0.00002173  0.66921292  0.12135836
   0.33078608  0.33080780  0.12135836
   0.66919120  0.66921292  0.12135836
   0.66666600  0.33333300  0.12890941
   0.33333300  0.66666600  0.11953555
   0.16813657  0.33627413  0.44564814
   0.33618270  0.16809085  0.44566313
   0.16813657  0.83186243  0.44564814
   0.33333300  0.66666600  0.44564551
   0.66666600  0.33333300  0.44569225
   0.83190815  0.16809085  0.44566313
   0.66372487  0.83186243  0.44564814
   0.83190815  0.66381630  0.44566313
