Automatically generated mesh
     761
Reciprocal lattice
    0.00000000000000    0.00000000000000    0.00000000000000             1
    0.02564102564103   -0.00000000000000    0.00000000000000             2
    0.05128205128205   -0.00000000000000    0.00000000000000             2
    0.07692307692308   -0.00000000000000    0.00000000000000             2
    0.10256410256410   -0.00000000000000    0.00000000000000             2
    0.12820512820513    0.00000000000000    0.00000000000000             2
    0.15384615384615   -0.00000000000000    0.00000000000000             2
    0.17948717948718    0.00000000000000    0.00000000000000             2
    0.20512820512821   -0.00000000000000    0.00000000000000             2
    0.23076923076923    0.00000000000000    0.00000000000000             2
    0.25641025641026   -0.00000000000000    0.00000000000000             2
    0.28205128205128    0.00000000000000    0.00000000000000             2
    0.30769230769231   -0.00000000000000    0.00000000000000             2
    0.33333333333333    0.00000000000000    0.00000000000000             2
    0.35897435897436    0.00000000000000    0.00000000000000             2
    0.38461538461539   -0.00000000000000    0.00000000000000             2
    0.41025641025641   -0.00000000000000    0.00000000000000             2
    0.43589743589744    0.00000000000000    0.00000000000000             2
    0.46153846153846    0.00000000000000    0.00000000000000             2
    0.48717948717949   -0.00000000000000    0.00000000000000             2
   -0.00000000000000    0.02564102564103    0.00000000000000             2
    0.02564102564103    0.02564102564103    0.00000000000000             2
    0.05128205128205    0.02564102564103    0.00000000000000             2
    0.07692307692308    0.02564102564103    0.00000000000000             2
    0.10256410256410    0.02564102564103    0.00000000000000             2
    0.12820512820513    0.02564102564103    0.00000000000000             2
    0.15384615384615    0.02564102564103    0.00000000000000             2
    0.17948717948718    0.02564102564103    0.00000000000000             2
    0.20512820512821    0.02564102564103    0.00000000000000             2
    0.23076923076923    0.02564102564103    0.00000000000000             2
    0.25641025641026    0.02564102564103    0.00000000000000             2
    0.28205128205128    0.02564102564103    0.00000000000000             2
    0.30769230769231    0.02564102564103    0.00000000000000             2
    0.33333333333333    0.02564102564103    0.00000000000000             2
    0.35897435897436    0.02564102564103    0.00000000000000             2
    0.38461538461539    0.02564102564103    0.00000000000000             2
    0.41025641025641    0.02564102564103    0.00000000000000             2
    0.43589743589744    0.02564102564103    0.00000000000000             2
    0.46153846153846    0.02564102564103    0.00000000000000             2
    0.48717948717949    0.02564102564103    0.00000000000000             2
   -0.48717948717949    0.02564102564103    0.00000000000000             2
   -0.46153846153846    0.02564102564103    0.00000000000000             2
   -0.43589743589744    0.02564102564103    0.00000000000000             2
   -0.41025641025641    0.02564102564103    0.00000000000000             2
   -0.38461538461539    0.02564102564103    0.00000000000000             2
   -0.35897435897436    0.02564102564103    0.00000000000000             2
   -0.33333333333333    0.02564102564103    0.00000000000000             2
   -0.30769230769231    0.02564102564103    0.00000000000000             2
   -0.28205128205128    0.02564102564103    0.00000000000000             2
   -0.25641025641026    0.02564102564103    0.00000000000000             2
   -0.23076923076923    0.02564102564103    0.00000000000000             2
   -0.20512820512821    0.02564102564103    0.00000000000000             2
   -0.17948717948718    0.02564102564103    0.00000000000000             2
   -0.15384615384615    0.02564102564103    0.00000000000000             2
   -0.12820512820513    0.02564102564103    0.00000000000000             2
   -0.10256410256410    0.02564102564103    0.00000000000000             2
   -0.07692307692308    0.02564102564103    0.00000000000000             2
   -0.05128205128205    0.02564102564103    0.00000000000000             2
   -0.02564102564103    0.02564102564103    0.00000000000000             2
   -0.00000000000000    0.05128205128205    0.00000000000000             2
    0.02564102564103    0.05128205128205    0.00000000000000             2
    0.05128205128205    0.05128205128205    0.00000000000000             2
    0.07692307692308    0.05128205128205    0.00000000000000             2
    0.10256410256410    0.05128205128205    0.00000000000000             2
    0.12820512820513    0.05128205128205    0.00000000000000             2
    0.15384615384615    0.05128205128205    0.00000000000000             2
    0.17948717948718    0.05128205128205    0.00000000000000             2
    0.20512820512821    0.05128205128205    0.00000000000000             2
    0.23076923076923    0.05128205128205    0.00000000000000             2
    0.25641025641026    0.05128205128205    0.00000000000000             2
    0.28205128205128    0.05128205128205    0.00000000000000             2
    0.30769230769231    0.05128205128205    0.00000000000000             2
    0.33333333333333    0.05128205128205    0.00000000000000             2
    0.35897435897436    0.05128205128205    0.00000000000000             2
    0.38461538461539    0.05128205128205    0.00000000000000             2
    0.41025641025641    0.05128205128205    0.00000000000000             2
    0.43589743589744    0.05128205128205    0.00000000000000             2
    0.46153846153846    0.05128205128205    0.00000000000000             2
    0.48717948717949    0.05128205128205    0.00000000000000             2
   -0.48717948717949    0.05128205128205    0.00000000000000             2
   -0.46153846153846    0.05128205128205    0.00000000000000             2
   -0.43589743589744    0.05128205128205    0.00000000000000             2
   -0.41025641025641    0.05128205128205    0.00000000000000             2
   -0.38461538461539    0.05128205128205    0.00000000000000             2
   -0.35897435897436    0.05128205128205    0.00000000000000             2
   -0.33333333333333    0.05128205128205    0.00000000000000             2
   -0.30769230769231    0.05128205128205    0.00000000000000             2
   -0.28205128205128    0.05128205128205    0.00000000000000             2
   -0.25641025641026    0.05128205128205    0.00000000000000             2
   -0.23076923076923    0.05128205128205    0.00000000000000             2
   -0.20512820512821    0.05128205128205    0.00000000000000             2
   -0.17948717948718    0.05128205128205    0.00000000000000             2
   -0.15384615384615    0.05128205128205    0.00000000000000             2
   -0.12820512820513    0.05128205128205    0.00000000000000             2
   -0.10256410256410    0.05128205128205    0.00000000000000             2
   -0.07692307692308    0.05128205128205    0.00000000000000             2
   -0.05128205128205    0.05128205128205    0.00000000000000             2
   -0.02564102564103    0.05128205128205    0.00000000000000             2
   -0.00000000000000    0.07692307692308    0.00000000000000             2
    0.02564102564103    0.07692307692308    0.00000000000000             2
    0.05128205128205    0.07692307692308    0.00000000000000             2
    0.07692307692308    0.07692307692308    0.00000000000000             2
    0.10256410256410    0.07692307692308    0.00000000000000             2
    0.12820512820513    0.07692307692308    0.00000000000000             2
    0.15384615384615    0.07692307692308    0.00000000000000             2
    0.17948717948718    0.07692307692308    0.00000000000000             2
    0.20512820512821    0.07692307692308    0.00000000000000             2
    0.23076923076923    0.07692307692308    0.00000000000000             2
    0.25641025641026    0.07692307692308    0.00000000000000             2
    0.28205128205128    0.07692307692308    0.00000000000000             2
    0.30769230769231    0.07692307692308    0.00000000000000             2
    0.33333333333333    0.07692307692308    0.00000000000000             2
    0.35897435897436    0.07692307692308    0.00000000000000             2
    0.38461538461539    0.07692307692308    0.00000000000000             2
    0.41025641025641    0.07692307692308    0.00000000000000             2
    0.43589743589744    0.07692307692308    0.00000000000000             2
    0.46153846153846    0.07692307692308    0.00000000000000             2
    0.48717948717949    0.07692307692308    0.00000000000000             2
   -0.48717948717949    0.07692307692308    0.00000000000000             2
   -0.46153846153846    0.07692307692308    0.00000000000000             2
   -0.43589743589744    0.07692307692308    0.00000000000000             2
   -0.41025641025641    0.07692307692308    0.00000000000000             2
   -0.38461538461539    0.07692307692308    0.00000000000000             2
   -0.35897435897436    0.07692307692308    0.00000000000000             2
   -0.33333333333333    0.07692307692308    0.00000000000000             2
   -0.30769230769231    0.07692307692308    0.00000000000000             2
   -0.28205128205128    0.07692307692308    0.00000000000000             2
   -0.25641025641026    0.07692307692308    0.00000000000000             2
   -0.23076923076923    0.07692307692308    0.00000000000000             2
   -0.20512820512821    0.07692307692308    0.00000000000000             2
   -0.17948717948718    0.07692307692308    0.00000000000000             2
   -0.15384615384615    0.07692307692308    0.00000000000000             2
   -0.12820512820513    0.07692307692308    0.00000000000000             2
   -0.10256410256410    0.07692307692308    0.00000000000000             2
   -0.07692307692308    0.07692307692308    0.00000000000000             2
   -0.05128205128205    0.07692307692308    0.00000000000000             2
   -0.02564102564103    0.07692307692308    0.00000000000000             2
   -0.00000000000000    0.10256410256410    0.00000000000000             2
    0.02564102564103    0.10256410256410    0.00000000000000             2
    0.05128205128205    0.10256410256410    0.00000000000000             2
    0.07692307692308    0.10256410256410    0.00000000000000             2
    0.10256410256410    0.10256410256410    0.00000000000000             2
    0.12820512820513    0.10256410256410    0.00000000000000             2
    0.15384615384615    0.10256410256410    0.00000000000000             2
    0.17948717948718    0.10256410256410    0.00000000000000             2
    0.20512820512821    0.10256410256410    0.00000000000000             2
    0.23076923076923    0.10256410256410    0.00000000000000             2
    0.25641025641026    0.10256410256410    0.00000000000000             2
    0.28205128205128    0.10256410256410    0.00000000000000             2
    0.30769230769231    0.10256410256410    0.00000000000000             2
    0.33333333333333    0.10256410256410    0.00000000000000             2
    0.35897435897436    0.10256410256410    0.00000000000000             2
    0.38461538461539    0.10256410256410    0.00000000000000             2
    0.41025641025641    0.10256410256410    0.00000000000000             2
    0.43589743589744    0.10256410256410    0.00000000000000             2
    0.46153846153846    0.10256410256410    0.00000000000000             2
    0.48717948717949    0.10256410256410    0.00000000000000             2
   -0.48717948717949    0.10256410256410    0.00000000000000             2
   -0.46153846153846    0.10256410256410    0.00000000000000             2
   -0.43589743589744    0.10256410256410    0.00000000000000             2
   -0.41025641025641    0.10256410256410    0.00000000000000             2
   -0.38461538461539    0.10256410256410    0.00000000000000             2
   -0.35897435897436    0.10256410256410    0.00000000000000             2
   -0.33333333333333    0.10256410256410    0.00000000000000             2
   -0.30769230769231    0.10256410256410    0.00000000000000             2
   -0.28205128205128    0.10256410256410    0.00000000000000             2
   -0.25641025641026    0.10256410256410    0.00000000000000             2
   -0.23076923076923    0.10256410256410    0.00000000000000             2
   -0.20512820512821    0.10256410256410    0.00000000000000             2
   -0.17948717948718    0.10256410256410    0.00000000000000             2
   -0.15384615384615    0.10256410256410    0.00000000000000             2
   -0.12820512820513    0.10256410256410    0.00000000000000             2
   -0.10256410256410    0.10256410256410    0.00000000000000             2
   -0.07692307692308    0.10256410256410    0.00000000000000             2
   -0.05128205128205    0.10256410256410    0.00000000000000             2
   -0.02564102564103    0.10256410256410    0.00000000000000             2
    0.00000000000000    0.12820512820513    0.00000000000000             2
    0.02564102564103    0.12820512820513    0.00000000000000             2
    0.05128205128205    0.12820512820513    0.00000000000000             2
    0.07692307692308    0.12820512820513    0.00000000000000             2
    0.10256410256410    0.12820512820513    0.00000000000000             2
    0.12820512820513    0.12820512820513    0.00000000000000             2
    0.15384615384615    0.12820512820513    0.00000000000000             2
    0.17948717948718    0.12820512820513    0.00000000000000             2
    0.20512820512821    0.12820512820513    0.00000000000000             2
    0.23076923076923    0.12820512820513    0.00000000000000             2
    0.25641025641026    0.12820512820513    0.00000000000000             2
    0.28205128205128    0.12820512820513    0.00000000000000             2
    0.30769230769231    0.12820512820513    0.00000000000000             2
    0.33333333333333    0.12820512820513    0.00000000000000             2
    0.35897435897436    0.12820512820513    0.00000000000000             2
    0.38461538461539    0.12820512820513    0.00000000000000             2
    0.41025641025641    0.12820512820513    0.00000000000000             2
    0.43589743589744    0.12820512820513    0.00000000000000             2
    0.46153846153846    0.12820512820513    0.00000000000000             2
    0.48717948717949    0.12820512820513    0.00000000000000             2
   -0.48717948717949    0.12820512820513    0.00000000000000             2
   -0.46153846153846    0.12820512820513    0.00000000000000             2
   -0.43589743589744    0.12820512820513    0.00000000000000             2
   -0.41025641025641    0.12820512820513    0.00000000000000             2
   -0.38461538461539    0.12820512820513    0.00000000000000             2
   -0.35897435897436    0.12820512820513    0.00000000000000             2
   -0.33333333333333    0.12820512820513    0.00000000000000             2
   -0.30769230769231    0.12820512820513    0.00000000000000             2
   -0.28205128205128    0.12820512820513    0.00000000000000             2
   -0.25641025641026    0.12820512820513    0.00000000000000             2
   -0.23076923076923    0.12820512820513    0.00000000000000             2
   -0.20512820512821    0.12820512820513    0.00000000000000             2
   -0.17948717948718    0.12820512820513    0.00000000000000             2
   -0.15384615384615    0.12820512820513    0.00000000000000             2
   -0.12820512820513    0.12820512820513    0.00000000000000             2
   -0.10256410256410    0.12820512820513    0.00000000000000             2
   -0.07692307692308    0.12820512820513    0.00000000000000             2
   -0.05128205128205    0.12820512820513    0.00000000000000             2
   -0.02564102564103    0.12820512820513    0.00000000000000             2
   -0.00000000000000    0.15384615384615    0.00000000000000             2
    0.02564102564103    0.15384615384615    0.00000000000000             2
    0.05128205128205    0.15384615384615    0.00000000000000             2
    0.07692307692308    0.15384615384615    0.00000000000000             2
    0.10256410256410    0.15384615384615    0.00000000000000             2
    0.12820512820513    0.15384615384615    0.00000000000000             2
    0.15384615384615    0.15384615384615    0.00000000000000             2
    0.17948717948718    0.15384615384615    0.00000000000000             2
    0.20512820512821    0.15384615384615    0.00000000000000             2
    0.23076923076923    0.15384615384615    0.00000000000000             2
    0.25641025641026    0.15384615384615    0.00000000000000             2
    0.28205128205128    0.15384615384615    0.00000000000000             2
    0.30769230769231    0.15384615384615    0.00000000000000             2
    0.33333333333333    0.15384615384615    0.00000000000000             2
    0.35897435897436    0.15384615384615    0.00000000000000             2
    0.38461538461539    0.15384615384615    0.00000000000000             2
    0.41025641025641    0.15384615384615    0.00000000000000             2
    0.43589743589744    0.15384615384615    0.00000000000000             2
    0.46153846153846    0.15384615384615    0.00000000000000             2
    0.48717948717949    0.15384615384615    0.00000000000000             2
   -0.48717948717949    0.15384615384615    0.00000000000000             2
   -0.46153846153846    0.15384615384615    0.00000000000000             2
   -0.43589743589744    0.15384615384615    0.00000000000000             2
   -0.41025641025641    0.15384615384615    0.00000000000000             2
   -0.38461538461539    0.15384615384615    0.00000000000000             2
   -0.35897435897436    0.15384615384615    0.00000000000000             2
   -0.33333333333333    0.15384615384615    0.00000000000000             2
   -0.30769230769231    0.15384615384615    0.00000000000000             2
   -0.28205128205128    0.15384615384615    0.00000000000000             2
   -0.25641025641026    0.15384615384615    0.00000000000000             2
   -0.23076923076923    0.15384615384615    0.00000000000000             2
   -0.20512820512821    0.15384615384615    0.00000000000000             2
   -0.17948717948718    0.15384615384615    0.00000000000000             2
   -0.15384615384615    0.15384615384615    0.00000000000000             2
   -0.12820512820513    0.15384615384615    0.00000000000000             2
   -0.10256410256410    0.15384615384615    0.00000000000000             2
   -0.07692307692308    0.15384615384615    0.00000000000000             2
   -0.05128205128205    0.15384615384615    0.00000000000000             2
   -0.02564102564103    0.15384615384615    0.00000000000000             2
    0.00000000000000    0.17948717948718    0.00000000000000             2
    0.02564102564103    0.17948717948718    0.00000000000000             2
    0.05128205128205    0.17948717948718    0.00000000000000             2
    0.07692307692308    0.17948717948718    0.00000000000000             2
    0.10256410256410    0.17948717948718    0.00000000000000             2
    0.12820512820513    0.17948717948718    0.00000000000000             2
    0.15384615384615    0.17948717948718    0.00000000000000             2
    0.17948717948718    0.17948717948718    0.00000000000000             2
    0.20512820512821    0.17948717948718    0.00000000000000             2
    0.23076923076923    0.17948717948718    0.00000000000000             2
    0.25641025641026    0.17948717948718    0.00000000000000             2
    0.28205128205128    0.17948717948718    0.00000000000000             2
    0.30769230769231    0.17948717948718    0.00000000000000             2
    0.33333333333333    0.17948717948718    0.00000000000000             2
    0.35897435897436    0.17948717948718    0.00000000000000             2
    0.38461538461539    0.17948717948718    0.00000000000000             2
    0.41025641025641    0.17948717948718    0.00000000000000             2
    0.43589743589744    0.17948717948718    0.00000000000000             2
    0.46153846153846    0.17948717948718    0.00000000000000             2
    0.48717948717949    0.17948717948718    0.00000000000000             2
   -0.48717948717949    0.17948717948718    0.00000000000000             2
   -0.46153846153846    0.17948717948718    0.00000000000000             2
   -0.43589743589744    0.17948717948718    0.00000000000000             2
   -0.41025641025641    0.17948717948718    0.00000000000000             2
   -0.38461538461539    0.17948717948718    0.00000000000000             2
   -0.35897435897436    0.17948717948718    0.00000000000000             2
   -0.33333333333333    0.17948717948718    0.00000000000000             2
   -0.30769230769231    0.17948717948718    0.00000000000000             2
   -0.28205128205128    0.17948717948718    0.00000000000000             2
   -0.25641025641026    0.17948717948718    0.00000000000000             2
   -0.23076923076923    0.17948717948718    0.00000000000000             2
   -0.20512820512821    0.17948717948718    0.00000000000000             2
   -0.17948717948718    0.17948717948718    0.00000000000000             2
   -0.15384615384615    0.17948717948718    0.00000000000000             2
   -0.12820512820513    0.17948717948718    0.00000000000000             2
   -0.10256410256410    0.17948717948718    0.00000000000000             2
   -0.07692307692308    0.17948717948718    0.00000000000000             2
   -0.05128205128205    0.17948717948718    0.00000000000000             2
   -0.02564102564103    0.17948717948718    0.00000000000000             2
   -0.00000000000000    0.20512820512821    0.00000000000000             2
    0.02564102564103    0.20512820512821    0.00000000000000             2
    0.05128205128205    0.20512820512821    0.00000000000000             2
    0.07692307692308    0.20512820512821    0.00000000000000             2
    0.10256410256410    0.20512820512821    0.00000000000000             2
    0.12820512820513    0.20512820512821    0.00000000000000             2
    0.15384615384615    0.20512820512821    0.00000000000000             2
    0.17948717948718    0.20512820512821    0.00000000000000             2
    0.20512820512821    0.20512820512821    0.00000000000000             2
    0.23076923076923    0.20512820512821    0.00000000000000             2
    0.25641025641026    0.20512820512821    0.00000000000000             2
    0.28205128205128    0.20512820512821    0.00000000000000             2
    0.30769230769231    0.20512820512821    0.00000000000000             2
    0.33333333333333    0.20512820512821    0.00000000000000             2
    0.35897435897436    0.20512820512821    0.00000000000000             2
    0.38461538461539    0.20512820512821    0.00000000000000             2
    0.41025641025641    0.20512820512821    0.00000000000000             2
    0.43589743589744    0.20512820512821    0.00000000000000             2
    0.46153846153846    0.20512820512821    0.00000000000000             2
    0.48717948717949    0.20512820512821    0.00000000000000             2
   -0.48717948717949    0.20512820512821    0.00000000000000             2
   -0.46153846153846    0.20512820512821    0.00000000000000             2
   -0.43589743589744    0.20512820512821    0.00000000000000             2
   -0.41025641025641    0.20512820512821    0.00000000000000             2
   -0.38461538461539    0.20512820512821    0.00000000000000             2
   -0.35897435897436    0.20512820512821    0.00000000000000             2
   -0.33333333333333    0.20512820512821    0.00000000000000             2
   -0.30769230769231    0.20512820512821    0.00000000000000             2
   -0.28205128205128    0.20512820512821    0.00000000000000             2
   -0.25641025641026    0.20512820512821    0.00000000000000             2
   -0.23076923076923    0.20512820512821    0.00000000000000             2
   -0.20512820512821    0.20512820512821    0.00000000000000             2
   -0.17948717948718    0.20512820512821    0.00000000000000             2
   -0.15384615384615    0.20512820512821    0.00000000000000             2
   -0.12820512820513    0.20512820512821    0.00000000000000             2
   -0.10256410256410    0.20512820512821    0.00000000000000             2
   -0.07692307692308    0.20512820512821    0.00000000000000             2
   -0.05128205128205    0.20512820512821    0.00000000000000             2
   -0.02564102564103    0.20512820512821    0.00000000000000             2
    0.00000000000000    0.23076923076923    0.00000000000000             2
    0.02564102564103    0.23076923076923    0.00000000000000             2
    0.05128205128205    0.23076923076923    0.00000000000000             2
    0.07692307692308    0.23076923076923    0.00000000000000             2
    0.10256410256410    0.23076923076923    0.00000000000000             2
    0.12820512820513    0.23076923076923    0.00000000000000             2
    0.15384615384615    0.23076923076923    0.00000000000000             2
    0.17948717948718    0.23076923076923    0.00000000000000             2
    0.20512820512821    0.23076923076923    0.00000000000000             2
    0.23076923076923    0.23076923076923    0.00000000000000             2
    0.25641025641026    0.23076923076923    0.00000000000000             2
    0.28205128205128    0.23076923076923    0.00000000000000             2
    0.30769230769231    0.23076923076923    0.00000000000000             2
    0.33333333333333    0.23076923076923    0.00000000000000             2
    0.35897435897436    0.23076923076923    0.00000000000000             2
    0.38461538461539    0.23076923076923    0.00000000000000             2
    0.41025641025641    0.23076923076923    0.00000000000000             2
    0.43589743589744    0.23076923076923    0.00000000000000             2
    0.46153846153846    0.23076923076923    0.00000000000000             2
    0.48717948717949    0.23076923076923    0.00000000000000             2
   -0.48717948717949    0.23076923076923    0.00000000000000             2
   -0.46153846153846    0.23076923076923    0.00000000000000             2
   -0.43589743589744    0.23076923076923    0.00000000000000             2
   -0.41025641025641    0.23076923076923    0.00000000000000             2
   -0.38461538461539    0.23076923076923    0.00000000000000             2
   -0.35897435897436    0.23076923076923    0.00000000000000             2
   -0.33333333333333    0.23076923076923    0.00000000000000             2
   -0.30769230769231    0.23076923076923    0.00000000000000             2
   -0.28205128205128    0.23076923076923    0.00000000000000             2
   -0.25641025641026    0.23076923076923    0.00000000000000             2
   -0.23076923076923    0.23076923076923    0.00000000000000             2
   -0.20512820512821    0.23076923076923    0.00000000000000             2
   -0.17948717948718    0.23076923076923    0.00000000000000             2
   -0.15384615384615    0.23076923076923    0.00000000000000             2
   -0.12820512820513    0.23076923076923    0.00000000000000             2
   -0.10256410256410    0.23076923076923    0.00000000000000             2
   -0.07692307692308    0.23076923076923    0.00000000000000             2
   -0.05128205128205    0.23076923076923    0.00000000000000             2
   -0.02564102564103    0.23076923076923    0.00000000000000             2
   -0.00000000000000    0.25641025641026    0.00000000000000             2
    0.02564102564103    0.25641025641026    0.00000000000000             2
    0.05128205128205    0.25641025641026    0.00000000000000             2
    0.07692307692308    0.25641025641026    0.00000000000000             2
    0.10256410256410    0.25641025641026    0.00000000000000             2
    0.12820512820513    0.25641025641026    0.00000000000000             2
    0.15384615384615    0.25641025641026    0.00000000000000             2
    0.17948717948718    0.25641025641026    0.00000000000000             2
    0.20512820512821    0.25641025641026    0.00000000000000             2
    0.23076923076923    0.25641025641026    0.00000000000000             2
    0.25641025641026    0.25641025641026    0.00000000000000             2
    0.28205128205128    0.25641025641026    0.00000000000000             2
    0.30769230769231    0.25641025641026    0.00000000000000             2
    0.33333333333333    0.25641025641026    0.00000000000000             2
    0.35897435897436    0.25641025641026    0.00000000000000             2
    0.38461538461538    0.25641025641026    0.00000000000000             2
    0.41025641025641    0.25641025641026    0.00000000000000             2
    0.43589743589744    0.25641025641026    0.00000000000000             2
    0.46153846153846    0.25641025641026    0.00000000000000             2
    0.48717948717949    0.25641025641026    0.00000000000000             2
   -0.48717948717949    0.25641025641026    0.00000000000000             2
   -0.46153846153846    0.25641025641026    0.00000000000000             2
   -0.43589743589744    0.25641025641026    0.00000000000000             2
   -0.41025641025641    0.25641025641026    0.00000000000000             2
   -0.38461538461539    0.25641025641026    0.00000000000000             2
   -0.35897435897436    0.25641025641026    0.00000000000000             2
   -0.33333333333333    0.25641025641026    0.00000000000000             2
   -0.30769230769231    0.25641025641026    0.00000000000000             2