  16  16   0   4
  0.2033809E+02  0.5005000E-09  0.5005000E-09  0.1500000E-08  0.5000000E-15
  1.000000000000000E-004
  CAR 
 Lattice                                 
      9.37670424    -20.99735132  301     -0.23679388      1.00000000
    -20.997  0.0000E+00  0.0000E+00  0.0000E+00  0.0000E+00
    -20.896  0.0000E+00  0.0000E+00  0.0000E+00  0.0000E+00
    -20.795  0.0000E+00  0.0000E+00  0.0000E+00  0.0000E+00
    -20.694  0.0000E+00  0.0000E+00  0.0000E+00  0.0000E+00
    -20.592  0.0000E+00  0.0000E+00  0.0000E+00  0.0000E+00
    -20.491  0.0000E+00  0.0000E+00  0.0000E+00  0.0000E+00
    -20.390  0.0000E+00  0.0000E+00  0.0000E+00  0.0000E+00
    -20.289  0.0000E+00  0.0000E+00  0.0000E+00  0.0000E+00
    -20.187  0.1785E-18  0.1785E-18  0.1807E-19  0.1807E-19
    -20.086  0.9423E-14  0.9423E-14  0.9541E-15  0.9541E-15
    -19.985  0.6404E-10  0.6404E-10  0.6485E-11  0.6485E-11
    -19.884  0.6572E-07  0.6573E-07  0.6661E-08  0.6661E-08
    -19.782  0.1098E-04  0.1098E-04  0.1119E-05  0.1119E-05
    -19.681  0.3276E-03  0.3276E-03  0.3428E-04  0.3428E-04
    -19.580  0.2104E-02  0.2104E-02  0.2473E-03  0.2473E-03
    -19.479  0.4326E-02  0.4326E-02  0.6853E-03  0.6853E-03
    -19.377  0.4809E-02  0.4809E-02  0.1172E-02  0.1172E-02
    -19.276  0.5151E-02  0.5151E-02  0.1694E-02  0.1694E-02
    -19.175  0.4500E-02  0.4500E-02  0.2149E-02  0.2149E-02
    -19.074  0.5592E-02  0.5592E-02  0.2716E-02  0.2716E-02
    -18.972  0.4480E-02  0.4480E-02  0.3169E-02  0.3169E-02
    -18.871  0.4625E-02  0.4625E-02  0.3637E-02  0.3637E-02
    -18.770  0.6193E-02  0.6193E-02  0.4264E-02  0.4264E-02
    -18.669  0.4051E-02  0.4051E-02  0.4674E-02  0.4674E-02
    -18.567  0.4278E-02  0.4278E-02  0.5108E-02  0.5108E-02
    -18.466  0.6382E-02  0.6382E-02  0.5754E-02  0.5754E-02
    -18.365  0.5382E-02  0.5382E-02  0.6299E-02  0.6299E-02
    -18.264  0.3185E-02  0.3185E-02  0.6621E-02  0.6621E-02
    -18.162  0.4911E-02  0.4911E-02  0.7118E-02  0.7118E-02
    -18.061  0.7092E-02  0.7092E-02  0.7836E-02  0.7836E-02
    -17.960  0.4798E-02  0.4798E-02  0.8322E-02  0.8322E-02
    -17.859  0.3897E-02  0.3897E-02  0.8717E-02  0.8717E-02
    -17.757  0.3486E-02  0.3486E-02  0.9070E-02  0.9070E-02
    -17.656  0.7141E-02  0.7141E-02  0.9793E-02  0.9793E-02
    -17.555  0.6664E-02  0.6664E-02  0.1047E-01  0.1047E-01
    -17.454  0.3626E-02  0.3626E-02  0.1083E-01  0.1083E-01
    -17.352  0.3644E-02  0.3644E-02  0.1120E-01  0.1120E-01
    -17.251  0.4522E-02  0.4522E-02  0.1166E-01  0.1166E-01
    -17.150  0.6844E-02  0.6844E-02  0.1235E-01  0.1235E-01
    -17.049  0.6843E-02  0.6843E-02  0.1305E-01  0.1305E-01
    -16.947  0.4743E-02  0.4743E-02  0.1353E-01  0.1353E-01
    -16.846  0.2487E-02  0.2487E-02  0.1378E-01  0.1378E-01
    -16.745  0.4120E-02  0.4120E-02  0.1420E-01  0.1420E-01
    -16.644  0.7148E-02  0.7148E-02  0.1492E-01  0.1492E-01
    -16.542  0.6709E-02  0.6709E-02  0.1560E-01  0.1560E-01
    -16.441  0.5567E-02  0.5567E-02  0.1616E-01  0.1616E-01
    -16.340  0.4637E-02  0.4637E-02  0.1663E-01  0.1663E-01
    -16.239  0.3092E-02  0.3092E-02  0.1695E-01  0.1695E-01
    -16.138  0.3155E-02  0.3155E-02  0.1726E-01  0.1726E-01
    -16.036  0.9823E-02  0.9823E-02  0.1826E-01  0.1826E-01
    -15.935  0.1165E-01  0.1165E-01  0.1944E-01  0.1944E-01
    -15.834  0.1085E-01  0.1085E-01  0.2054E-01  0.2054E-01
    -15.733  0.1067E-01  0.1067E-01  0.2162E-01  0.2162E-01
    -15.631  0.1089E-01  0.1089E-01  0.2272E-01  0.2272E-01
    -15.530  0.1020E-01  0.1020E-01  0.2375E-01  0.2375E-01
    -15.429  0.1273E-01  0.1273E-01  0.2504E-01  0.2504E-01
    -15.328  0.1741E-01  0.1741E-01  0.2681E-01  0.2681E-01
    -15.226  0.1541E-01  0.1541E-01  0.2837E-01  0.2837E-01
    -15.125  0.1425E-01  0.1425E-01  0.2981E-01  0.2981E-01
    -15.024  0.1031E-01  0.1031E-01  0.3085E-01  0.3085E-01
    -14.923  0.8558E-02  0.8558E-02  0.3172E-01  0.3172E-01
    -14.821  0.6468E-02  0.6468E-02  0.3237E-01  0.3237E-01
    -14.720  0.9838E-02  0.9838E-02  0.3337E-01  0.3337E-01
    -14.619  0.1155E-01  0.1155E-01  0.3454E-01  0.3454E-01
    -14.518  0.1172E-01  0.1172E-01  0.3573E-01  0.3573E-01
    -14.416  0.1262E-01  0.1262E-01  0.3700E-01  0.3700E-01
    -14.315  0.1001E-01  0.1001E-01  0.3802E-01  0.3802E-01
    -14.214  0.9322E-02  0.9322E-02  0.3896E-01  0.3896E-01
    -14.113  0.1084E-01  0.1084E-01  0.4006E-01  0.4006E-01
    -14.011  0.1369E-01  0.1369E-01  0.4144E-01  0.4144E-01
    -13.910  0.8071E-02  0.8071E-02  0.4226E-01  0.4226E-01
    -13.809  0.3939E-02  0.3939E-02  0.4266E-01  0.4266E-01
    -13.708  0.2787E-02  0.2787E-02  0.4294E-01  0.4294E-01
    -13.606  0.5782E-02  0.5782E-02  0.4353E-01  0.4353E-01
    -13.505  0.6364E-02  0.6364E-02  0.4417E-01  0.4417E-01
    -13.404  0.6228E-02  0.6228E-02  0.4480E-01  0.4480E-01
    -13.303  0.6126E-02  0.6126E-02  0.4542E-01  0.4542E-01
    -13.201  0.7312E-02  0.7312E-02  0.4616E-01  0.4616E-01
    -13.100  0.7346E-02  0.7346E-02  0.4691E-01  0.4691E-01
    -12.999  0.6647E-02  0.6647E-02  0.4758E-01  0.4758E-01
    -12.898  0.6397E-02  0.6397E-02  0.4823E-01  0.4823E-01
    -12.796  0.8544E-02  0.8544E-02  0.4909E-01  0.4909E-01
    -12.695  0.1249E-01  0.1249E-01  0.5036E-01  0.5036E-01
    -12.594  0.1252E-01  0.1252E-01  0.5162E-01  0.5162E-01
    -12.493  0.1452E-01  0.1452E-01  0.5310E-01  0.5310E-01
    -12.391  0.1470E-01  0.1470E-01  0.5458E-01  0.5458E-01
    -12.290  0.1374E-01  0.1374E-01  0.5597E-01  0.5597E-01
    -12.189  0.1733E-01  0.1733E-01  0.5773E-01  0.5773E-01
    -12.088  0.1507E-01  0.1507E-01  0.5926E-01  0.5926E-01
    -11.986  0.1676E-01  0.1676E-01  0.6095E-01  0.6095E-01
    -11.885  0.1712E-01  0.1712E-01  0.6269E-01  0.6269E-01
    -11.784  0.1027E-01  0.1027E-01  0.6373E-01  0.6373E-01
    -11.683  0.6624E-02  0.6624E-02  0.6440E-01  0.6440E-01
    -11.581  0.5210E-02  0.5210E-02  0.6493E-01  0.6493E-01
    -11.480  0.6684E-02  0.6684E-02  0.6560E-01  0.6560E-01
    -11.379  0.5932E-02  0.5932E-02  0.6620E-01  0.6620E-01
    -11.278  0.5347E-02  0.5347E-02  0.6674E-01  0.6674E-01
    -11.176  0.4717E-02  0.4717E-02  0.6722E-01  0.6722E-01
    -11.075  0.4261E-02  0.4261E-02  0.6765E-01  0.6765E-01
    -10.974  0.5223E-02  0.5223E-02  0.6818E-01  0.6818E-01
    -10.873  0.1033E-01  0.1033E-01  0.6923E-01  0.6923E-01
    -10.771  0.1197E-01  0.1197E-01  0.7044E-01  0.7044E-01
    -10.670  0.1167E-01  0.1167E-01  0.7162E-01  0.7162E-01
    -10.569  0.1431E-01  0.1431E-01  0.7307E-01  0.7307E-01
    -10.468  0.1462E-01  0.1462E-01  0.7455E-01  0.7455E-01
    -10.366  0.1224E-01  0.1224E-01  0.7579E-01  0.7579E-01
    -10.265  0.1009E-01  0.1009E-01  0.7681E-01  0.7681E-01
    -10.164  0.9321E-02  0.9321E-02  0.7776E-01  0.7776E-01
    -10.063  0.1019E-01  0.1019E-01  0.7879E-01  0.7879E-01
     -9.961  0.6957E-02  0.6957E-02  0.7949E-01  0.7949E-01
     -9.860  0.1154E-01  0.1154E-01  0.8066E-01  0.8066E-01
     -9.759  0.1050E-01  0.1050E-01  0.8172E-01  0.8172E-01
     -9.658  0.1342E-01  0.1342E-01  0.8308E-01  0.8308E-01
     -9.556  0.1882E-01  0.1882E-01  0.8499E-01  0.8499E-01
     -9.455  0.1166E-01  0.1166E-01  0.8617E-01  0.8617E-01
     -9.354  0.1635E-01  0.1635E-01  0.8782E-01  0.8782E-01
     -9.253  0.1769E-01  0.1769E-01  0.8961E-01  0.8961E-01
     -9.151  0.1297E-01  0.1297E-01  0.9093E-01  0.9093E-01
     -9.050  0.9767E-02  0.9767E-02  0.9192E-01  0.9192E-01
     -8.949  0.1757E-01  0.1757E-01  0.9370E-01  0.9370E-01
     -8.848  0.2411E-01  0.2411E-01  0.9614E-01  0.9614E-01
     -8.746  0.1067E-01  0.1067E-01  0.9722E-01  0.9722E-01
     -8.645  0.5244E-02  0.5244E-02  0.9775E-01  0.9775E-01
     -8.544  0.1348E-01  0.1348E-01  0.9911E-01  0.9911E-01
     -8.443  0.1853E-01  0.1853E-01  0.1010E+00  0.1010E+00
     -8.341  0.1543E-01  0.1543E-01  0.1026E+00  0.1026E+00
     -8.240  0.1490E-01  0.1490E-01  0.1041E+00  0.1041E+00
     -8.139  0.1300E-01  0.1300E-01  0.1054E+00  0.1054E+00
     -8.038  0.1022E-01  0.1022E-01  0.1064E+00  0.1064E+00
     -7.937  0.1287E-01  0.1287E-01  0.1077E+00  0.1077E+00
     -7.835  0.1863E-01  0.1863E-01  0.1096E+00  0.1096E+00
     -7.734  0.2351E-01  0.2351E-01  0.1120E+00  0.1120E+00
     -7.633  0.1720E-01  0.1720E-01  0.1137E+00  0.1137E+00
     -7.532  0.1363E-01  0.1363E-01  0.1151E+00  0.1151E+00
     -7.430  0.1286E-01  0.1286E-01  0.1164E+00  0.1164E+00
     -7.329  0.1631E-01  0.1631E-01  0.1181E+00  0.1181E+00
     -7.228  0.2089E-01  0.2089E-01  0.1202E+00  0.1202E+00
     -7.127  0.1585E-01  0.1585E-01  0.1218E+00  0.1218E+00
     -7.025  0.1808E-01  0.1808E-01  0.1236E+00  0.1236E+00
     -6.924  0.1998E-01  0.1998E-01  0.1256E+00  0.1256E+00
     -6.823  0.2165E-01  0.2165E-01  0.1278E+00  0.1278E+00
     -6.722  0.2604E-01  0.2604E-01  0.1305E+00  0.1305E+00
     -6.620  0.3350E-01  0.3350E-01  0.1338E+00  0.1338E+00
     -6.519  0.3577E-01  0.3577E-01  0.1375E+00  0.1375E+00
     -6.418  0.2232E-01  0.2232E-01  0.1397E+00  0.1397E+00
     -6.317  0.1628E-01  0.1628E-01  0.1414E+00  0.1414E+00
     -6.215  0.1839E-01  0.1839E-01  0.1432E+00  0.1432E+00
     -6.114  0.1760E-01  0.1760E-01  0.1450E+00  0.1450E+00
     -6.013  0.1794E-01  0.1794E-01  0.1468E+00  0.1468E+00
     -5.912  0.1522E-01  0.1522E-01  0.1484E+00  0.1484E+00
     -5.810  0.1550E-01  0.1550E-01  0.1499E+00  0.1499E+00
     -5.709  0.1958E-01  0.1958E-01  0.1519E+00  0.1519E+00
     -5.608  0.1468E-01  0.1468E-01  0.1534E+00  0.1534E+00
     -5.507  0.8981E-02  0.8981E-02  0.1543E+00  0.1543E+00
     -5.405  0.1309E-01  0.1309E-01  0.1557E+00  0.1557E+00
     -5.304  0.1978E-01  0.1978E-01  0.1577E+00  0.1577E+00
     -5.203  0.1788E-01  0.1788E-01  0.1595E+00  0.1595E+00
     -5.102  0.1222E-01  0.1222E-01  0.1607E+00  0.1607E+00
     -5.000  0.1473E-01  0.1473E-01  0.1622E+00  0.1622E+00
     -4.899  0.2198E-01  0.2198E-01  0.1644E+00  0.1644E+00
     -4.798  0.1347E-01  0.1347E-01  0.1658E+00  0.1658E+00
     -4.697  0.7090E-02  0.7090E-02  0.1665E+00  0.1665E+00
     -4.595  0.1620E-01  0.1620E-01  0.1681E+00  0.1681E+00
     -4.494  0.2043E-01  0.2043E-01  0.1702E+00  0.1702E+00
     -4.393  0.1936E-01  0.1936E-01  0.1722E+00  0.1722E+00
     -4.292  0.2226E-01  0.2226E-01  0.1744E+00  0.1744E+00
     -4.190  0.2133E-01  0.2133E-01  0.1766E+00  0.1766E+00
     -4.089  0.2117E-01  0.2117E-01  0.1787E+00  0.1787E+00
     -3.988  0.2333E-01  0.2333E-01  0.1811E+00  0.1811E+00
     -3.887  0.2834E-01  0.2834E-01  0.1840E+00  0.1840E+00
     -3.785  0.2801E-01  0.2801E-01  0.1868E+00  0.1868E+00
     -3.684  0.2080E-01  0.2080E-01  0.1889E+00  0.1889E+00
     -3.583  0.1983E-01  0.1983E-01  0.1909E+00  0.1909E+00
     -3.482  0.1653E-01  0.1653E-01  0.1926E+00  0.1926E+00
     -3.380  0.1359E-01  0.1359E-01  0.1940E+00  0.1940E+00
     -3.279  0.7840E-02  0.7840E-02  0.1947E+00  0.1947E+00
     -3.178  0.7635E-02  0.7635E-02  0.1955E+00  0.1955E+00
     -3.077  0.1373E-01  0.1373E-01  0.1969E+00  0.1969E+00
     -2.975  0.1660E-01  0.1660E-01  0.1986E+00  0.1986E+00
     -2.874  0.1265E-01  0.1265E-01  0.1999E+00  0.1999E+00
     -2.773  0.1199E-01  0.1199E-01  0.2011E+00  0.2011E+00
     -2.672  0.1092E-01  0.1092E-01  0.2022E+00  0.2022E+00
     -2.570  0.1127E-01  0.1127E-01  0.2033E+00  0.2033E+00
     -2.469  0.1535E-01  0.1535E-01  0.2049E+00  0.2049E+00
     -2.368  0.1392E-01  0.1392E-01  0.2063E+00  0.2063E+00
     -2.267  0.8772E-02  0.8772E-02  0.2072E+00  0.2072E+00
     -2.165  0.1152E-01  0.1152E-01  0.2084E+00  0.2084E+00
     -2.064  0.8542E-02  0.8542E-02  0.2092E+00  0.2092E+00
     -1.963  0.5477E-02  0.5477E-02  0.2098E+00  0.2098E+00
     -1.862  0.5752E-02  0.5752E-02  0.2104E+00  0.2104E+00
     -1.760  0.8905E-02  0.8905E-02  0.2113E+00  0.2113E+00
     -1.659  0.8782E-02  0.8782E-02  0.2121E+00  0.2121E+00
     -1.558  0.9006E-02  0.9006E-02  0.2131E+00  0.2131E+00
     -1.457  0.8193E-02  0.8193E-02  0.2139E+00  0.2139E+00
     -1.355  0.4991E-02  0.4991E-02  0.2144E+00  0.2144E+00
     -1.254  0.4990E-02  0.4990E-02  0.2149E+00  0.2149E+00
     -1.153  0.5904E-02  0.5904E-02  0.2155E+00  0.2155E+00
     -1.052  0.7260E-02  0.7260E-02  0.2162E+00  0.2162E+00
     -0.950  0.6583E-02  0.6583E-02  0.2169E+00  0.2169E+00
     -0.849  0.3961E-02  0.3961E-02  0.2173E+00  0.2173E+00
     -0.748  0.2094E-02  0.2094E-02  0.2175E+00  0.2175E+00
     -0.647  0.9180E-03  0.9180E-03  0.2176E+00  0.2176E+00
     -0.545  0.2717E-02  0.2717E-02  0.2179E+00  0.2179E+00
     -0.444  0.3990E-02  0.3990E-02  0.2183E+00  0.2183E+00
     -0.343  0.1915E-02  0.1915E-02  0.2185E+00  0.2185E+00
     -0.242  0.2537E-02  0.2537E-02  0.2187E+00  0.2187E+00
     -0.140  0.4418E-02  0.4418E-02  0.2192E+00  0.2192E+00
     -0.039  0.4205E-02  0.4205E-02  0.2196E+00  0.2196E+00
      0.062  0.3496E-02  0.3496E-02  0.2200E+00  0.2200E+00
      0.163  0.6504E-02  0.6504E-02  0.2206E+00  0.2206E+00
      0.264  0.1040E-01  0.1040E-01  0.2217E+00  0.2217E+00
      0.366  0.1175E-01  0.1175E-01  0.2229E+00  0.2229E+00
      0.467  0.1049E-01  0.1049E-01  0.2239E+00  0.2239E+00
      0.568  0.6495E-02  0.6495E-02  0.2246E+00  0.2246E+00
      0.669  0.5516E-02  0.5516E-02  0.2251E+00  0.2251E+00
      0.771  0.1053E-01  0.1053E-01  0.2262E+00  0.2262E+00
      0.872  0.8293E-02  0.8293E-02  0.2270E+00  0.2270E+00
      0.973  0.3942E-02  0.3942E-02  0.2274E+00  0.2274E+00
      1.074  0.6030E-02  0.6030E-02  0.2281E+00  0.2281E+00
      1.176  0.1434E-01  0.1434E-01  0.2295E+00  0.2295E+00
      1.277  0.1758E-01  0.1758E-01  0.2313E+00  0.2313E+00
      1.378  0.1661E-01  0.1661E-01  0.2330E+00  0.2330E+00
      1.479  0.1335E-01  0.1335E-01  0.2343E+00  0.2343E+00
      1.581  0.7538E-02  0.7538E-02  0.2351E+00  0.2351E+00
      1.682  0.9842E-02  0.9842E-02  0.2361E+00  0.2361E+00
      1.783  0.1029E-01  0.1029E-01  0.2371E+00  0.2371E+00
      1.884  0.8953E-02  0.8953E-02  0.2380E+00  0.2380E+00
      1.986  0.1383E-01  0.1383E-01  0.2394E+00  0.2394E+00
      2.087  0.1563E-01  0.1563E-01  0.2410E+00  0.2410E+00
      2.188  0.1327E-01  0.1327E-01  0.2424E+00  0.2424E+00
      2.289  0.7589E-02  0.7589E-02  0.2431E+00  0.2431E+00
      2.391  0.4126E-02  0.4126E-02  0.2435E+00  0.2435E+00
      2.492  0.8692E-02  0.8692E-02  0.2444E+00  0.2444E+00
      2.593  0.1141E-01  0.1141E-01  0.2456E+00  0.2456E+00
      2.694  0.1534E-01  0.1534E-01  0.2471E+00  0.2471E+00
      2.796  0.1702E-01  0.1702E-01  0.2489E+00  0.2489E+00
      2.897  0.1389E-01  0.1389E-01  0.2503E+00  0.2503E+00
      2.998  0.1324E-01  0.1324E-01  0.2516E+00  0.2516E+00
      3.099  0.1375E-01  0.1375E-01  0.2530E+00  0.2530E+00
      3.201  0.1230E-01  0.1230E-01  0.2542E+00  0.2542E+00
      3.302  0.1677E-01  0.1677E-01  0.2559E+00  0.2559E+00
      3.403  0.2090E-01  0.2090E-01  0.2580E+00  0.2580E+00
      3.504  0.1905E-01  0.1905E-01  0.2600E+00  0.2600E+00
      3.606  0.2224E-01  0.2224E-01  0.2622E+00  0.2622E+00
      3.707  0.2322E-01  0.2322E-01  0.2646E+00  0.2646E+00
      3.808  0.2390E-01  0.2391E-01  0.2670E+00  0.2670E+00
      3.909  0.2120E-01  0.2121E-01  0.2691E+00  0.2691E+00
      4.011  0.1844E-01  0.1844E-01  0.2710E+00  0.2710E+00
      4.112  0.1878E-01  0.1878E-01  0.2729E+00  0.2729E+00
      4.213  0.1821E-01  0.1821E-01  0.2748E+00  0.2748E+00
      4.314  0.2125E-01  0.2125E-01  0.2769E+00  0.2769E+00
      4.416  0.2521E-01  0.2520E-01  0.2795E+00  0.2795E+00
      4.517  0.1847E-01  0.1847E-01  0.2813E+00  0.2813E+00
      4.618  0.1968E-01  0.1968E-01  0.2833E+00  0.2833E+00
      4.719  0.2610E-01  0.2610E-01  0.2860E+00  0.2860E+00
      4.821  0.3163E-01  0.3165E-01  0.2892E+00  0.2892E+00
      4.922  0.2590E-01  0.2590E-01  0.2918E+00  0.2918E+00
      5.023  0.1787E-01  0.1788E-01  0.2936E+00  0.2936E+00
      5.124  0.2316E-01  0.2316E-01  0.2959E+00  0.2959E+00
      5.226  0.2297E-01  0.2296E-01  0.2983E+00  0.2983E+00
      5.327  0.2431E-01  0.2432E-01  0.3007E+00  0.3007E+00
      5.428  0.2585E-01  0.2585E-01  0.3034E+00  0.3034E+00
      5.529  0.2944E-01  0.2944E-01  0.3063E+00  0.3063E+00
      5.631  0.2852E-01  0.2852E-01  0.3092E+00  0.3092E+00
      5.732  0.2824E-01  0.2825E-01  0.3121E+00  0.3121E+00
      5.833  0.2470E-01  0.2468E-01  0.3146E+00  0.3146E+00
      5.934  0.1544E-01  0.1544E-01  0.3161E+00  0.3161E+00
      6.036  0.2115E-01  0.2117E-01  0.3183E+00  0.3183E+00
      6.137  0.2815E-01  0.2814E-01  0.3211E+00  0.3211E+00
      6.238  0.2555E-01  0.2554E-01  0.3237E+00  0.3237E+00
      6.339  0.2993E-01  0.2995E-01  0.3268E+00  0.3268E+00
      6.441  0.3052E-01  0.3051E-01  0.3298E+00  0.3298E+00
      6.542  0.2404E-01  0.2404E-01  0.3323E+00  0.3323E+00
      6.643  0.2384E-01  0.2386E-01  0.3347E+00  0.3347E+00
      6.744  0.2998E-01  0.2997E-01  0.3377E+00  0.3377E+00
      6.846  0.2745E-01  0.2745E-01  0.3405E+00  0.3405E+00
      6.947  0.3114E-01  0.3115E-01  0.3437E+00  0.3437E+00
      7.048  0.3869E-01  0.3868E-01  0.3476E+00  0.3476E+00
      7.149  0.3528E-01  0.3528E-01  0.3511E+00  0.3511E+00
      7.251  0.3428E-01  0.3429E-01  0.3546E+00  0.3546E+00
      7.352  0.3263E-01  0.3263E-01  0.3579E+00  0.3579E+00
      7.453  0.2674E-01  0.2673E-01  0.3606E+00  0.3606E+00
      7.554  0.3406E-01  0.3405E-01  0.3641E+00  0.3641E+00
      7.656  0.3402E-01  0.3402E-01  0.3675E+00  0.3675E+00
      7.757  0.2784E-01  0.2785E-01  0.3703E+00  0.3703E+00
      7.858  0.2277E-01  0.2277E-01  0.3726E+00  0.3726E+00
      7.959  0.1390E-01  0.1389E-01  0.3741E+00  0.3741E+00
      8.060  0.7734E-02  0.7717E-02  0.3748E+00  0.3748E+00
      8.162  0.1556E-02  0.1552E-02  0.3750E+00  0.3750E+00
      8.263  0.6705E-04  0.6691E-04  0.3750E+00  0.3750E+00
      8.364  0.4968E-06  0.4961E-06  0.3750E+00  0.3750E+00
      8.465  0.5550E-09  0.5545E-09  0.3750E+00  0.3750E+00
      8.567  0.8707E-13  0.8702E-13  0.3750E+00  0.3750E+00
      8.668  0.1666E-17  0.1666E-17  0.3750E+00  0.3750E+00
      8.769  0.0000E+00  0.0000E+00  0.3750E+00  0.3750E+00
      8.870  0.0000E+00  0.0000E+00  0.3750E+00  0.3750E+00
      8.972  0.0000E+00  0.0000E+00  0.3750E+00  0.3750E+00
      9.073  0.0000E+00  0.0000E+00  0.3750E+00  0.3750E+00
      9.174  0.0000E+00  0.0000E+00  0.3750E+00  0.3750E+00
      9.275  0.0000E+00  0.0000E+00  0.3750E+00  0.3750E+00
      9.377  0.0000E+00  0.0000E+00  0.3750E+00  0.3750E+00
