Lattice                                 
           1
     4.334457    2.502500    0.000000
    -4.334457    2.502500    0.000000
     0.000000    0.000000   15.000000
   B    C 
     8     8
Direct configuration=     1
   0.66888689  0.00000000  0.10000000
   0.33111211  0.00000000  0.10000000
   0.00000000  0.33111211  0.10000000
   0.00000000  0.66888689  0.10000000
   0.33111211  0.33111211  0.10000000
   0.66888689  0.66888689  0.10000000
   0.66666600  0.33333300  0.09922189
   0.33333300  0.66666600  0.10077811
   0.27777711  0.22222189  0.46960000
   0.44444411  0.05555489  0.46960000
   0.27777711  0.72222189  0.46960000
   0.44444411  0.55555489  0.46960000
   0.77777711  0.22222189  0.46960000
   0.94444411  0.05555489  0.46960000
   0.77777711  0.72222189  0.46960000
   0.94444411  0.55555489  0.46960000
Direct configuration=     2
   0.66993333 -0.00000014  0.10002596
   0.33006576 -0.00000014  0.10002602
   0.00000014  0.33006567  0.10002596
   0.00000014  0.66993324  0.10002602
   0.33006542  0.33006543  0.10002604
   0.66993357  0.66993358  0.10002604
   0.66666612  0.33333288  0.09925118
   0.33333260  0.66666640  0.10080761
   0.27777233  0.22221756  0.46957346
   0.44444193  0.05555714  0.46957284
   0.27777717  0.72222183  0.46957233
   0.44444493  0.55555407  0.46957306
   0.77778046  0.22221854  0.46957328
   0.94444466  0.05555434  0.46957391
   0.77778144  0.72222667  0.46957346
   0.94444186  0.55555707  0.46957284
Direct configuration=     3
   0.66945611 -0.00000008  0.10001412
   0.33054294 -0.00000008  0.10001415
   0.00000008  0.33054289  0.10001412
   0.00000008  0.66945606  0.10001415
   0.33054276  0.33054276  0.10001417
   0.66945624  0.66945624  0.10001417
   0.66666607  0.33333293  0.09923782
   0.33333278  0.66666622  0.10079416
   0.27777451  0.22221953  0.46958556
   0.44444292  0.05555611  0.46958522
   0.27777714  0.72222186  0.46958495
   0.44444456  0.55555444  0.46958535
   0.77777893  0.22222007  0.46958546
   0.94444441  0.05555459  0.46958581
   0.77777947  0.72222449  0.46958556
   0.94444289  0.55555608  0.46958522
Direct configuration=     4
   0.66945862 -0.00000008  0.10001418
   0.33054043 -0.00000008  0.10001421
   0.00000008  0.33054038  0.10001418
   0.00000008  0.66945857  0.10001421
   0.33054025  0.33054025  0.10001423
   0.66945875  0.66945875  0.10001423
   0.66666607  0.33333293  0.09923789
   0.33333278  0.66666622  0.10079423
   0.27777450  0.22221952  0.46958550
   0.44444292  0.05555612  0.46958516
   0.27777714  0.72222186  0.46958489
   0.44444456  0.55555444  0.46958528
   0.77777894  0.22222006  0.46958540
   0.94444441  0.05555459  0.46958575
   0.77777948  0.72222450  0.46958550
   0.94444288  0.55555608  0.46958516
Direct configuration=     5
   0.66945880 -0.00000010  0.10003834
   0.33054037 -0.00000005  0.10003842
   0.00000010  0.33054020  0.10003834
   0.00000005  0.66945863  0.10003842
   0.33054023  0.33054021  0.10003846
   0.66945879  0.66945877  0.10003846
   0.66666604  0.33333296  0.09926679
   0.33333277  0.66666623  0.10081921
   0.27777792  0.22222331  0.46956083
   0.44444491  0.05555385  0.46956005
   0.27777668  0.72222232  0.46955945
   0.44444418  0.55555482  0.46956033
   0.77777585  0.22222315  0.46956061
   0.94444435  0.05555465  0.46956138
   0.77777569  0.72222108  0.46956083
   0.94444515  0.55555409  0.46956005
Direct configuration=     6
   0.66945934 -0.00000016  0.10011082
   0.33054019  0.00000004  0.10011105
   0.00000016  0.33053966  0.10011082
  -0.00000004  0.66945881  0.10011105
   0.33054018  0.33054010  0.10011117
   0.66945890  0.66945882  0.10011117
   0.66666597  0.33333303  0.09935351
   0.33333272  0.66666628  0.10089417
   0.27778819  0.22223466  0.46948683
   0.44445090  0.05554705  0.46948473
   0.27777529  0.72222371  0.46948316
   0.44444305  0.55555595  0.46948546
   0.77776658  0.22223242  0.46948623
   0.94444418  0.05555482  0.46948828
   0.77776434  0.72221081  0.46948683
   0.94445195  0.55554810  0.46948473
Direct configuration=     7
   0.66946042 -0.00000027  0.10025577
   0.33053983  0.00000023  0.10025631
   0.00000027  0.33053858  0.10025577
  -0.00000023  0.66945917  0.10025631
   0.33054009  0.33053988  0.10025657
   0.66945912  0.66945891  0.10025657
   0.66666582  0.33333318  0.09952694
   0.33333262  0.66666638  0.10104407
   0.27780873  0.22225736  0.46933882
   0.44446286  0.05553345  0.46933409
   0.27777250  0.72222650  0.46933058
   0.44444079  0.55555821  0.46933574
   0.77774803  0.22225097  0.46933748
   0.94444383  0.05555517  0.46934207
   0.77774164  0.72219027  0.46933882
   0.94446555  0.55553614  0.46933409
Direct configuration=     8
   0.66946258 -0.00000051  0.10054567
   0.33053911  0.00000060  0.10054682
   0.00000051  0.33053642  0.10054567
  -0.00000060  0.66945989  0.10054682
   0.33053990  0.33053943  0.10054738
   0.66945957  0.66945910  0.10054738
   0.66666553  0.33333347  0.09987380
   0.33333242  0.66666658  0.10134388
   0.27784981  0.22230275  0.46904282
   0.44448679  0.05550624  0.46903282
   0.27776693  0.72223207  0.46902540
   0.44443627  0.55556273  0.46903628
   0.77771094  0.22228806  0.46903997
   0.94444313  0.05555587  0.46904967
   0.77769625  0.72214919  0.46904282
   0.94449276  0.55551221  0.46903282
Direct configuration=     9
   0.66946690 -0.00000097  0.10112547
   0.33053766  0.00000134  0.10112784
   0.00000097  0.33053210  0.10112547
  -0.00000134  0.66946134  0.10112784
   0.33053952  0.33053853  0.10112899
   0.66946047  0.66945948  0.10112899
   0.66666495  0.33333405  0.10056753
   0.33333203  0.66666697  0.10194351
   0.27793196  0.22239355  0.46845080
   0.44453464  0.05545183  0.46843026
   0.27775579  0.72224321  0.46841506
   0.44442723  0.55557177  0.46843737
   0.77763675  0.22236225  0.46844496
   0.94444174  0.05555726  0.46846485
   0.77760545  0.72206704  0.46845080
   0.94454717  0.55546436  0.46843026
Direct configuration=    10
   0.66947555 -0.00000191  0.10228508
   0.33053477  0.00000282  0.10228988
   0.00000191  0.33052345  0.10228508
  -0.00000282  0.66946423  0.10228988
   0.33053877  0.33053674  0.10229222
   0.66946226  0.66946023  0.10229222
   0.66666377  0.33333523  0.10195497
   0.33333124  0.66666776  0.10314276
   0.27809626  0.22257514  0.46726677
   0.44463036  0.05534301  0.46722515
   0.27773350  0.72226550  0.46719437
   0.44440915  0.55558985  0.46723955
   0.77748837  0.22251063  0.46725493
   0.94443895  0.05556005  0.46729522
   0.77742386  0.72190274  0.46726677
   0.94465599  0.55536864  0.46722515
Direct configuration=    11
   0.66949284 -0.00000378  0.10460429
   0.33052898  0.00000577  0.10461396
   0.00000378  0.33050616  0.10460429
  -0.00000577  0.66947002  0.10461396
   0.33053725  0.33053316  0.10461868
   0.66946584  0.66946175  0.10461868
   0.66666143  0.33333757  0.10472986
   0.33332966  0.66666934  0.10554126
   0.27842487  0.22293833  0.46489871
   0.44482178  0.05512536  0.46481492
   0.27768893  0.72231007  0.46475300
   0.44437299  0.55562601  0.46484391
   0.77719162  0.22280738  0.46487488
   0.94443337  0.05556563  0.46495596
   0.77706067  0.72157413  0.46489871
   0.94487364  0.55517722  0.46481492
Direct configuration=    12
   0.66952743 -0.00000752  0.10924272
   0.33051741  0.00001169  0.10926212
   0.00000752  0.33047157  0.10924272
  -0.00001169  0.66948159  0.10926212
   0.33053423  0.33052600  0.10927160
   0.66947300  0.66946477  0.10927160
   0.66665675  0.33334225  0.11027965
   0.33332651  0.66667249  0.11033825
   0.27908209  0.22366469  0.46016258
   0.44520463  0.05469007  0.45999447
   0.27759979  0.72239921  0.45987025
   0.44430066  0.55569834  0.46005264
   0.77659812  0.22340088  0.46011478
   0.94442221  0.05557679  0.46027745
   0.77633431  0.72091691  0.46016258
   0.94530893  0.55479437  0.45999447
Direct configuration=    13
   0.66952743 -0.00000752  0.10924386
   0.33051741  0.00001169  0.10926327
   0.00000752  0.33047157  0.10924386
  -0.00001169  0.66948159  0.10926327
   0.33053423  0.33052600  0.10927274
   0.66947300  0.66946477  0.10927274
   0.66665675  0.33334225  0.11028101
   0.33332651  0.66667249  0.11033943
   0.27908214  0.22366473  0.46016141
   0.44520464  0.05469005  0.45999329
   0.27759979  0.72239921  0.45986905
   0.44430065  0.55569835  0.46005146
   0.77659809  0.22340091  0.46011361
   0.94442220  0.05557680  0.46027629
   0.77633427  0.72091686  0.46016141
   0.94530895  0.55479436  0.45999329
Direct configuration=    14
   0.66952745 -0.00000753  0.10924729
   0.33051741  0.00001169  0.10926670
   0.00000753  0.33047155  0.10924729
  -0.00001169  0.66948159  0.10926670
   0.33053423  0.33052600  0.10927618
   0.66947300  0.66946477  0.10927618
   0.66665675  0.33334225  0.11028510
   0.33332650  0.66667250  0.11034296
   0.27908229  0.22366484  0.46015792
   0.44520469  0.05469000  0.45998974
   0.27759980  0.72239920  0.45986545
   0.44430061  0.55569839  0.46004793
   0.77659801  0.22340099  0.46011010
   0.94442217  0.05557683  0.46027283
   0.77633416  0.72091671  0.46015792
   0.94530900  0.55479431  0.45998974
Direct configuration=    15
   0.66952748 -0.00000753  0.10925414
   0.33051740  0.00001170  0.10927356
   0.00000753  0.33047152  0.10925414
  -0.00001170  0.66948160  0.10927356
   0.33053423  0.33052600  0.10928304
   0.66947300  0.66946477  0.10928304
   0.66665675  0.33334225  0.11029328
   0.33332650  0.66667250  0.11035003
   0.27908260  0.22366507  0.46015092
   0.44520478  0.05468990  0.45998263
   0.27759983  0.72239917  0.45985827
   0.44430052  0.55569848  0.46004086
   0.77659784  0.22340116  0.46010307
   0.94442210  0.05557690  0.46026592
   0.77633393  0.72091640  0.46015092
   0.94530910  0.55479422  0.45998263
Direct configuration=    16
   0.66952753 -0.00000754  0.10926783
   0.33051739  0.00001170  0.10928728
   0.00000754  0.33047147  0.10926783
  -0.00001170  0.66948161  0.10928728
   0.33053424  0.33052600  0.10929678
   0.66947300  0.66946476  0.10929678
   0.66665674  0.33334226  0.11030963
   0.33332649  0.66667251  0.11036416
   0.27908320  0.22366553  0.46013693
   0.44520496  0.05468970  0.45996842
   0.27759988  0.72239912  0.45984389
   0.44430035  0.55569865  0.46002672
   0.77659749  0.22340151  0.46008902
   0.94442198  0.05557702  0.46025208
   0.77633347  0.72091580  0.46013693
   0.94530930  0.55479404  0.45996842
Direct configuration=    17
   0.66952765 -0.00000757  0.10929523
   0.33051738  0.00001172  0.10931473
   0.00000757  0.33047135  0.10929523
  -0.00001172  0.66948162  0.10931473
   0.33053426  0.33052599  0.10932426
   0.66947301  0.66946474  0.10932426
   0.66665673  0.33334227  0.11034233
   0.33332647  0.66667253  0.11039243
   0.27908442  0.22366643  0.46010895
   0.44520533  0.05468930  0.45993999
   0.27759998  0.72239902  0.45981514
   0.44430001  0.55569899  0.45999845
   0.77659680  0.22340220  0.46006091
   0.94442173  0.05557727  0.46022440
   0.77633257  0.72091458  0.46010895
   0.94530970  0.55479367  0.45993999
Direct configuration=    18
   0.66952789 -0.00000761  0.10935002
   0.33051734  0.00001175  0.10936963
   0.00000761  0.33047111  0.10935002
  -0.00001175  0.66948166  0.10936963
   0.33053429  0.33052598  0.10937922
   0.66947302  0.66946471  0.10937922
   0.66665671  0.33334229  0.11040774
   0.33332643  0.66667257  0.11044896
   0.27908686  0.22366825  0.46005300
   0.44520606  0.05468849  0.45988314
   0.27760018  0.72239882  0.45975763
   0.44429933  0.55569967  0.45994190
   0.77659543  0.22340357  0.46000470
   0.94442123  0.05557777  0.46016905
   0.77633075  0.72091214  0.46005300
   0.94531051  0.55479294  0.45988314
Direct configuration=    19
   0.66952836 -0.00000771  0.10945959
   0.33051727  0.00001181  0.10947944
   0.00000771  0.33047064  0.10945959
  -0.00001181  0.66948173  0.10947944
   0.33053435  0.33052596  0.10948912
   0.66947304  0.66946465  0.10948912
   0.66665668  0.33334232  0.11053857
   0.33332636  0.66667264  0.11056202
   0.27909172  0.22367189  0.45994108
   0.44520752  0.05468687  0.45976944
   0.27760059  0.72239841  0.45964262
   0.44429797  0.55570103  0.45982881
   0.77659267  0.22340633  0.45989228
   0.94442022  0.05557878  0.46005835
   0.77632711  0.72090728  0.45994108
   0.94531213  0.55479148  0.45976944
Direct configuration=    20
   0.66952929 -0.00000789  0.10967874
   0.33051713  0.00001193  0.10969904
   0.00000789  0.33046971  0.10967874
  -0.00001193  0.66948187  0.10969904
   0.33053448  0.33052591  0.10970894
   0.66947309  0.66946452  0.10970894
   0.66665660  0.33334240  0.11080021
   0.33332621  0.66667279  0.11078815
   0.27910146  0.22367916  0.45971726
   0.44521045  0.05468364  0.45954204
   0.27760139  0.72239761  0.45941260
   0.44429524  0.55570376  0.45960262
   0.77658716  0.22341184  0.45966744
   0.94441822  0.05558078  0.45983696
   0.77631984  0.72089754  0.45971726
   0.94531536  0.55478855  0.45954204
Direct configuration=    21
   0.66953117 -0.00000826  0.11011704
   0.33051684  0.00001217  0.11013824
   0.00000826  0.33046783  0.11011704
  -0.00001217  0.66948216  0.11013824
   0.33053474  0.33052581  0.11014858
   0.66947319  0.66946426  0.11014858
   0.66665646  0.33334254  0.11132349
   0.33332590  0.66667310  0.11124040
   0.27912094  0.22369370  0.45926960
   0.44521630  0.05467718  0.45908723
   0.27760301  0.72239599  0.45895255
   0.44428980  0.55570920  0.45915025
   0.77657614  0.22342286  0.45921776
   0.94441421  0.05558479  0.45939416
   0.77630530  0.72087806  0.45926960
   0.94532182  0.55478270  0.45908723
Direct configuration=    22
   0.66953492 -0.00000900  0.11099364
   0.33051628  0.00001266  0.11101664
   0.00000900  0.33046408  0.11099364
  -0.00001266  0.66948272  0.11101664
   0.33053525  0.33052561  0.11102786
   0.66947339  0.66946375  0.11102786
   0.66665616  0.33334284  0.11237006
   0.33332530  0.66667370  0.11214490
   0.27915989  0.22372277  0.45837430
   0.44522800  0.05466426  0.45817762
   0.27760623  0.72239277  0.45803245
   0.44427890  0.55572010  0.45824550
   0.77655409  0.22344491  0.45831840
   0.94440618  0.05559282  0.45850857
   0.77627623  0.72083911  0.45837430
   0.94533474  0.55477100  0.45817762
Direct configuration=    23
   0.66954242 -0.00001048  0.11274684
   0.33051514  0.00001363  0.11277345
   0.00001048  0.33045658  0.11274684
  -0.00001363  0.66948386  0.11277345
   0.33053627  0.33052522  0.11278641
   0.66947378  0.66946273  0.11278641
   0.66665557  0.33334343  0.11446319
   0.33332408  0.66667492  0.11395390
   0.27923779  0.22378093  0.45658369
   0.44525140  0.05463841  0.45635840
   0.27761268  0.72238632  0.45619227
   0.44425711  0.55574189  0.45643601
   0.77651000  0.22348900  0.45651968
   0.94439014  0.05560886  0.45673738
   0.77621807  0.72076121  0.45658369
   0.94536059  0.55474760  0.45635840
Direct configuration=    24
   0.66955743 -0.00001343  0.11625324
   0.33051287  0.00001558  0.11628706
   0.00001343  0.33044157  0.11625324
  -0.00001558  0.66948613  0.11628706
   0.33053831  0.33052444  0.11630351
   0.66947456  0.66946069  0.11630351
   0.66665439  0.33334461  0.11864946
   0.33332166  0.66667734  0.11757190
   0.27939359  0.22389724  0.45300246
   0.44529821  0.05458672  0.45271996
   0.27762559  0.72237341  0.45251189
   0.44421353  0.55578547  0.45281703
   0.77642182  0.22357718  0.45292224
   0.94435805  0.05564095  0.45319501
   0.77610176  0.72060541  0.45300246
   0.94541228  0.55470079  0.45271996
Direct configuration=    25
   0.66958743 -0.00001934  0.12326605
   0.33050832  0.00001947  0.12331428
   0.00001934  0.33041157  0.12326605
  -0.00001947  0.66949068  0.12331428
   0.33054240  0.33052288  0.12333771
   0.66947612  0.66945660  0.12333771
   0.66665203  0.33334697  0.12702199
   0.33331681  0.66668219  0.12480791
   0.27970520  0.22412987  0.44584001
   0.44539181  0.05448333  0.44544307
   0.27765140  0.72234760  0.44515114
   0.44412637  0.55587263  0.44557907
   0.77624546  0.22375354  0.44572737
   0.94429387  0.05570513  0.44611026
   0.77586913  0.72029380  0.44584001
   0.94551567  0.55460719  0.44544307
Direct configuration=    26
   0.66964745 -0.00003116  0.13729166
   0.33049924  0.00002726  0.13736873
   0.00003116  0.33035155  0.13729166
  -0.00002726  0.66949976  0.13736873
   0.33055057  0.33051976  0.13740612
   0.66947924  0.66944843  0.13740612
   0.66664730  0.33335170  0.14376705
   0.33330712  0.66669188  0.13927992
   0.28032841  0.22459512  0.43151512
   0.44557903  0.05427655  0.43088930
   0.27770302  0.72229598  0.43042963
   0.44395205  0.55604695  0.43110315
   0.77589274  0.22410626  0.43133761
   0.94416550  0.05583350  0.43194076
   0.77540388  0.71967059  0.43151512
   0.94572245  0.55441997  0.43088930
Direct configuration=    27
   0.66976748 -0.00005481  0.16534288
   0.33048106  0.00004283  0.16547763
   0.00005481  0.33023152  0.16534288
  -0.00004283  0.66951794  0.16547763
   0.33056691  0.33051352  0.16554293
   0.66948548  0.66943209  0.16554293
   0.66663786  0.33336114  0.17725718
   0.33328772  0.66671128  0.16822394
   0.28157482  0.22552563  0.40286533
   0.44595347  0.05386299  0.40178177
   0.27780626  0.72219274  0.40098663
   0.44360340  0.55639560  0.40215131
   0.77518730  0.22481170  0.40255811
   0.94390877  0.05609023  0.40360177
   0.77447337  0.71842418  0.40286533
   0.94613601  0.55404553  0.40178177
Direct configuration=    28
   0.66971527 -0.00004452  0.15314141
   0.33048896  0.00003606  0.15325107
   0.00004452  0.33028373  0.15314141
  -0.00003606  0.66951004  0.15325107
   0.33055981  0.33051624  0.15330423
   0.66948276  0.66943919  0.15330423
   0.66664197  0.33335703  0.16268994
   0.33329616  0.66670284  0.15563413
   0.28103267  0.22512089  0.41532716
   0.44579060  0.05404288  0.41444270
   0.27776136  0.72223764  0.41379349
   0.44375505  0.55624395  0.41474453
   0.77549415  0.22450485  0.41507636
   0.94402044  0.05597856  0.41592842
   0.77487811  0.71896633  0.41532716
   0.94595612  0.55420840  0.41444270
Direct configuration=    29
   0.66974391 -0.00005017  0.15983572
   0.33048463  0.00003978  0.15995915
   0.00005017  0.33025509  0.15983572
  -0.00003978  0.66951437  0.15995915
   0.33056371  0.33051475  0.16001897
   0.66948425  0.66943529  0.16001897
   0.66663971  0.33335929  0.17068223
   0.33329153  0.66670747  0.16254151
   0.28133012  0.22534295  0.40849000
   0.44587995  0.05394418  0.40749631
   0.27778599  0.72221301  0.40676703
   0.44367185  0.55632715  0.40783529
   0.77532580  0.22467320  0.40820825
   0.94395917  0.05603983  0.40916543
   0.77465605  0.71866888  0.40849000
   0.94605482  0.55411905  0.40749631
Direct configuration=    30
   0.66975138 -0.00005164  0.16158036
   0.33048350  0.00004074  0.16170738
   0.00005164  0.33024762  0.16158036
  -0.00004074  0.66951550  0.16170738
   0.33056472  0.33051436  0.16176894
   0.66948464  0.66943428  0.16176894
   0.66663912  0.33335988  0.17276515
   0.33329032  0.66670868  0.16434168
   0.28140764  0.22540082  0.40670812
   0.44590324  0.05391846  0.40568596
   0.27779242  0.72220658  0.40493582
   0.44365016  0.55634884  0.40603463
   0.77528192  0.22471708  0.40641830
   0.94394321  0.05605579  0.40740288
   0.77459818  0.71859136  0.40670812
   0.94608054  0.55409576  0.40568596
Direct configuration=    31
   0.66974330 -0.00002755  0.16573617
   0.33053033  0.00007080  0.16587162
   0.00002755  0.33025570  0.16573617
  -0.00007080  0.66946867  0.16587162
   0.33060938  0.33051982  0.16593814
   0.66947918  0.66938962  0.16593814
   0.66663820  0.33336080  0.17769295
   0.33328458  0.66671442  0.16860462
   0.28114018  0.22510836  0.40246127
   0.44573976  0.05410295  0.40139150
   0.27782483  0.72217417  0.40060322
   0.44368193  0.55631707  0.40175606
   0.77552444  0.22447456  0.40215932
   0.94394233  0.05605667  0.40318645
   0.77489064  0.71885882  0.40246127
   0.94589605  0.55425924  0.40139150
Direct configuration=    32
   0.66974349 -0.00002811  0.16564035
   0.33052925  0.00007011  0.16577561
   0.00002811  0.33025551  0.16564035
  -0.00007011  0.66946975  0.16577561
   0.33060835  0.33051970  0.16584201
   0.66947930  0.66939065  0.16584201
   0.66663822  0.33336078  0.17757933
   0.33328471  0.66671429  0.16850633
   0.28114635  0.22511510  0.40255918
   0.44574353  0.05409869  0.40149051
   0.27782408  0.72217492  0.40070311
   0.44368120  0.55631780  0.40185471
   0.77551885  0.22448015  0.40225752
   0.94394235  0.05605665  0.40328367
   0.77488390  0.71885265  0.40255918
   0.94590031  0.55425547  0.40149051
Direct configuration=    33
   0.66971660 -0.00000378  0.16532163
   0.33057839  0.00009650  0.16545626
   0.00000378  0.33028240  0.16532163
  -0.00009650  0.66942061  0.16545626
   0.33064905  0.33052506  0.16552373
   0.66947394  0.66934995  0.16552373
   0.66663675  0.33336225  0.17716503
   0.33328069  0.66671831  0.16815314
   0.28074856  0.22475159  0.40288214
   0.44556311  0.05430384  0.40183887
   0.27783052  0.72216848  0.40106549
   0.44376181  0.55623719  0.40219445
   0.77581056  0.22418844  0.40258931
   0.94398204  0.05601696  0.40358733
   0.77524741  0.71925044  0.40288214
   0.94569516  0.55443589  0.40183887
Direct configuration=    34
   0.66963593  0.00006920  0.16436546
   0.33072581  0.00017566  0.16449822
  -0.00006920  0.33036307  0.16436546
  -0.00017566  0.66927319  0.16449822
   0.33077112  0.33054114  0.16456888
   0.66945786  0.66922788  0.16456888
   0.66663235  0.33336665  0.17592214
   0.33326864  0.66673036  0.16709355
   0.27955520  0.22366105  0.40385101
   0.44502186  0.05491927  0.40288395
   0.27784983  0.72214917  0.40215260
   0.44400364  0.55599536  0.40321366
   0.77668571  0.22331329  0.40358468
   0.94410110  0.05589790  0.40449833
   0.77633795  0.72044380  0.40385101
   0.94507973  0.55497714  0.40288395
Direct configuration=    35
   0.66947460  0.00021516  0.16245313
   0.33102064  0.00033399  0.16258213
  -0.00021516  0.33052440  0.16245313
  -0.00033399  0.66897836  0.16258213
   0.33101528  0.33057330  0.16265918
   0.66942570  0.66898372  0.16265918
   0.66662356  0.33337544  0.17343634
   0.33324454  0.66675446  0.16497436
   0.27716849  0.22147999  0.40578875
   0.44393936  0.05615014  0.40497411
   0.27788846  0.72211054  0.40432684
   0.44448729  0.55551171  0.40525210
   0.77843601  0.22156299  0.40557544
   0.94433923  0.05565977  0.40632031
   0.77851901  0.72283051  0.40578875
   0.94384886  0.55605964  0.40497411
Direct configuration=    36
   0.66953070  0.00016441  0.16311804
   0.33091813  0.00027894  0.16324834
  -0.00016441  0.33046830  0.16311804
  -0.00027894  0.66908087  0.16324834
   0.33093039  0.33056212  0.16332317
   0.66943688  0.66906861  0.16332317
   0.66662661  0.33337239  0.17430064
   0.33325292  0.66674608  0.16571119
   0.27799833  0.22223833  0.40511501
   0.44431574  0.05572217  0.40424738
   0.27787503  0.72212397  0.40357087
   0.44431913  0.55567987  0.40454335
   0.77782744  0.22217156  0.40488326
   0.94425644  0.05574256  0.40568682
   0.77776067  0.72200067  0.40511501
   0.94427683  0.55568326  0.40424738
Direct configuration=    37
   0.66949505  0.00017533  0.16311590
   0.33096094  0.00028625  0.16324629
  -0.00017533  0.33050395  0.16311590
  -0.00028625  0.66903806  0.16324629
   0.33096318  0.33057664  0.16332338
   0.66942236  0.66903582  0.16332338
   0.66662561  0.33337339  0.17422118
   0.33325213  0.66674687  0.16564978
   0.27788466  0.22223885  0.40511339
   0.44434807  0.05568606  0.40428775
   0.27782042  0.72217858  0.40363762
   0.44437408  0.55562492  0.40456957
   0.77780501  0.22219399  0.40489417
   0.94431887  0.05568013  0.40565428
   0.77776015  0.72211434  0.40511339
   0.94431294  0.55565093  0.40428775
Direct configuration=    38
   0.66938811  0.00020809  0.16310947
   0.33108938  0.00030818  0.16324014
  -0.00020809  0.33061089  0.16310947
  -0.00030818  0.66890962  0.16324014
   0.33106157  0.33062023  0.16332402
   0.66937877  0.66893743  0.16332402
   0.66662259  0.33337641  0.17398280
   0.33324978  0.66674922  0.16546553
   0.27754363  0.22224042  0.40510853
   0.44444506  0.05557772  0.40440887
   0.27765657  0.72234243  0.40383787
   0.44453895  0.55546005  0.40464821
   0.77773770  0.22226130  0.40492689
   0.94450618  0.05549282  0.40555665
   0.77775858  0.72245537  0.40510853
   0.94442128  0.55555394  0.40440887
Direct configuration=    39
   0.66917423  0.00027361  0.16309662
   0.33134627  0.00035203  0.16322782
  -0.00027361  0.33082477  0.16309662
  -0.00035203  0.66865273  0.16322782
   0.33125834  0.33070740  0.16332529
   0.66929160  0.66874066  0.16332529
   0.66661656  0.33338244  0.17350604
   0.33324508  0.66675392  0.16509705
   0.27686156  0.22224355  0.40509881
   0.44463903  0.05536103  0.40465111
   0.27732887  0.72267013  0.40423837
   0.44486867  0.55513033  0.40480550
   0.77760309  0.22239591  0.40499233
   0.94488079  0.05511821  0.40536140
   0.77775545  0.72313744  0.40509881
   0.94463797  0.55535997  0.40465111
Direct configuration=    40
   0.66931507  0.00023046  0.16310508
   0.33117711  0.00032315  0.16323593
  -0.00023046  0.33068393  0.16310508
  -0.00032315  0.66882189  0.16323593
   0.33112876  0.33065000  0.16332446
   0.66934900  0.66887024  0.16332446
   0.66662054  0.33337846  0.17381999
   0.33324818  0.66675082  0.16533970
   0.27731071  0.22224149  0.40510521
   0.44451129  0.05550372  0.40449159
   0.27754467  0.72245433  0.40397463
   0.44465154  0.55534746  0.40470192
   0.77769173  0.22230727  0.40494924
   0.94463411  0.05536489  0.40548997
   0.77775751  0.72268829  0.40510521
   0.94449528  0.55548771  0.40449159
Direct configuration=    41
   0.66927708  0.00023108  0.16311727
   0.33121335  0.00031850  0.16324846
  -0.00023108  0.33072192  0.16311727
  -0.00031850  0.66878565  0.16324846
   0.33115157  0.33066432  0.16334114
   0.66933468  0.66884743  0.16334114
   0.66661794  0.33338106  0.17369060
   0.33325070  0.66674830  0.16524012
   0.27733533  0.22223399  0.40508861
   0.44449758  0.05551279  0.40454699
   0.27755882  0.72244018  0.40407556
   0.44462884  0.55537016  0.40473275
   0.77769817  0.22230083  0.40495453
   0.94461618  0.05538282  0.40542150
   0.77776501  0.72266367  0.40508861
   0.94448621  0.55550142  0.40454699
Direct configuration=    42
   0.66916310  0.00023295  0.16315384
   0.33132210  0.00030456  0.16328603
  -0.00023295  0.33083590  0.16315384
  -0.00030456  0.66867690  0.16328603
   0.33122001  0.33070731  0.16339121
   0.66929169  0.66877899  0.16339121
   0.66661016  0.33338884  0.17330241
   0.33325826  0.66674074  0.16494140
   0.27740919  0.22221148  0.40503880
   0.44445645  0.05553999  0.40471320
   0.27760127  0.72239773  0.40437833
   0.44456075  0.55543825  0.40482521
   0.77771748  0.22228152  0.40497041
   0.94456240  0.05543660  0.40521607
   0.77778752  0.72258981  0.40503880
   0.94445901  0.55554255  0.40471320
Direct configuration=    43
   0.66893515  0.00023667  0.16322698
   0.33153959  0.00027667  0.16336118
  -0.00023667  0.33106385  0.16322698
  -0.00027667  0.66845941  0.16336118
   0.33135688  0.33079328  0.16349135
   0.66920572  0.66864212  0.16349135
   0.66659459  0.33340441  0.17252604
   0.33327339  0.66672561  0.16434395
   0.27755691  0.22216647  0.40493920
   0.44437418  0.05559439  0.40504561
   0.27768618  0.72231282  0.40498387
   0.44442457  0.55557443  0.40501013
   0.77775610  0.22224290  0.40500216
   0.94445484  0.05554416  0.40480522
   0.77783253  0.72244209  0.40493920
   0.94440461  0.55562482  0.40504561
Direct configuration=    44
   0.66847924  0.00024413  0.16337326
   0.33197457  0.00022088  0.16351149
  -0.00024413  0.33151976  0.16337326
  -0.00022088  0.66802443  0.16351149
   0.33163062  0.33096523  0.16369161
   0.66903377  0.66836838  0.16369161
   0.66656347  0.33343553  0.17097329
   0.33330363  0.66669537  0.16314904
   0.27785236  0.22207645  0.40473999
   0.44420963  0.05570319  0.40571043
   0.27785599  0.72214301  0.40619494
   0.44415220  0.55584680  0.40537998
   0.77783334  0.22216566  0.40506567
   0.94423973  0.05575927  0.40398351
   0.77792255  0.72214664  0.40473999
   0.94429581  0.55578937  0.40571043
Direct configuration=    45
   0.66877450  0.00023930  0.16327853
   0.33169287  0.00025701  0.16341415
  -0.00023930  0.33122450  0.16327853
  -0.00025701  0.66830613  0.16341415
   0.33145334  0.33085387  0.16356192
   0.66914513  0.66854566  0.16356192
   0.66658363  0.33341537  0.17197889
   0.33328404  0.66671496  0.16392289
   0.27766102  0.22213475  0.40486900
   0.44431619  0.05563273  0.40527988
   0.27774601  0.72225299  0.40541062
   0.44432859  0.55567041  0.40514046
   0.77778332  0.22221568  0.40502454
   0.94437904  0.05561996  0.40451566
   0.77786425  0.72233798  0.40486900
   0.94436627  0.55568281  0.40527988
Direct configuration=    46
   0.66901804  0.00011794  0.16333789
   0.33136989  0.00013863  0.16347625
  -0.00011794  0.33098096  0.16333789
  -0.00013863  0.66862911  0.16347625
   0.33116331  0.33072008  0.16363359
   0.66927892  0.66883569  0.16363359
   0.66657925  0.33341975  0.17164267
   0.33332137  0.66667763  0.16365943
   0.27776394  0.22230325  0.40485632
   0.44438611  0.05563150  0.40534315
   0.27772262  0.72227638  0.40553064
   0.44438757  0.55561143  0.40518004
   0.77771384  0.22228516  0.40503765
   0.94437035  0.05562865  0.40445516
   0.77769575  0.72223506  0.40485632
   0.94436750  0.55561289  0.40534315
Direct configuration=    47
   0.66943299 -0.00008883  0.16343904
   0.33081960 -0.00006307  0.16358206
   0.00008883  0.33056601  0.16343904
   0.00006307  0.66917940  0.16358206
   0.33066915  0.33049212  0.16375571
   0.66950688  0.66932985  0.16375571
   0.66657181  0.33342719  0.17106981
   0.33338496  0.66661404  0.16321056
   0.27793930  0.22259034  0.40483471
   0.44450523  0.05562940  0.40545095
   0.27768277  0.72231623  0.40573514
   0.44448804  0.55551096  0.40524747
   0.77759546  0.22240354  0.40506000