       N       E                     dE             d eps       ncg     rms          rms(c)
DAV:   1    -0.877779393283E+01   -0.87778E+01   -0.35670E+03  3456   0.109E+02
DAV:   2    -0.184456896499E+02   -0.96679E+01   -0.96679E+01  5088   0.168E+01
DAV:   3    -0.184538224700E+02   -0.81328E-02   -0.81328E-02  3456   0.633E-01
DAV:   4    -0.184538321102E+02   -0.96402E-05   -0.96402E-05  6768   0.208E-02
DAV:   5    -0.184538321103E+02   -0.41382E-10   -0.41669E-10  3456   0.370E-05
DAV:   6    -0.184538321103E+02    0.00000E+00   -0.61321E-13  6720   0.126E-06
   1 F= -.18453832E+02 E0= -.18453832E+02  d E =0.000000E+00
