   2   2   1  16
  0.3953030E+02  0.2467000E-09  0.2467000E-09  0.1500000E-08  0.5000000E-15
  1.000000000000000E-004
  CAR 
 PDOS                                    
     43.45525503    -24.8621388110000     -1.51917878      1.00000000
    -24.862  0.0000E+00  0.0000E+00
    -24.855  0.0000E+00  0.0000E+00
    -24.848  0.0000E+00  0.0000E+00
    -24.842  0.0000E+00  0.0000E+00
    -24.835  0.0000E+00  0.0000E+00
    -24.828  0.0000E+00  0.0000E+00
    -24.821  0.0000E+00  0.0000E+00
    -24.814  0.0000E+00  0.0000E+00
    -24.807  0.0000E+00  0.0000E+00
    -24.801  0.0000E+00  0.0000E+00
    -24.794  0.0000E+00  0.0000E+00
    -24.787  0.0000E+00  0.0000E+00
    -24.780  0.0000E+00  0.0000E+00
    -24.773  0.0000E+00  0.0000E+00
    -24.766  0.0000E+00  0.0000E+00
    -24.760  0.0000E+00  0.0000E+00
    -24.753  0.0000E+00  0.0000E+00
    -24.746  0.0000E+00  0.0000E+00
    -24.739  0.0000E+00  0.0000E+00
    -24.732  0.0000E+00  0.0000E+00
    -24.725  0.0000E+00  0.0000E+00
    -24.719  0.0000E+00  0.0000E+00
    -24.712  0.0000E+00  0.0000E+00
    -24.705  0.0000E+00  0.0000E+00
    -24.698  0.0000E+00  0.0000E+00
    -24.691  0.0000E+00  0.0000E+00
    -24.684  0.0000E+00  0.0000E+00
    -24.678  0.0000E+00  0.0000E+00
    -24.671  0.0000E+00  0.0000E+00
    -24.664  0.0000E+00  0.0000E+00
    -24.657  0.0000E+00  0.0000E+00
    -24.650  0.0000E+00  0.0000E+00
    -24.644  0.0000E+00  0.0000E+00
    -24.637  0.0000E+00  0.0000E+00
    -24.630  0.0000E+00  0.0000E+00
    -24.623  0.0000E+00  0.0000E+00
    -24.616  0.0000E+00  0.0000E+00
    -24.609  0.0000E+00  0.0000E+00
    -24.603  0.0000E+00  0.0000E+00
    -24.596  0.0000E+00  0.0000E+00
    -24.589  0.0000E+00  0.0000E+00
    -24.582  0.0000E+00  0.0000E+00
    -24.575  0.0000E+00  0.0000E+00
    -24.568  0.0000E+00  0.0000E+00
    -24.562  0.0000E+00  0.0000E+00
    -24.555  0.0000E+00  0.0000E+00
    -24.548  0.0000E+00  0.0000E+00
    -24.541  0.0000E+00  0.0000E+00
    -24.534  0.0000E+00  0.0000E+00
    -24.527  0.0000E+00  0.0000E+00
    -24.521  0.0000E+00  0.0000E+00
    -24.514  0.0000E+00  0.0000E+00
    -24.507  0.0000E+00  0.0000E+00
    -24.500  0.0000E+00  0.0000E+00
    -24.493  0.0000E+00  0.0000E+00
    -24.486  0.0000E+00  0.0000E+00
    -24.480  0.0000E+00  0.0000E+00
    -24.473  0.0000E+00  0.0000E+00
    -24.466  0.0000E+00  0.0000E+00
    -24.459  0.0000E+00  0.0000E+00
    -24.452  0.0000E+00  0.0000E+00
    -24.445  0.0000E+00  0.0000E+00
    -24.439  0.0000E+00  0.0000E+00
    -24.432  0.0000E+00  0.0000E+00
    -24.425  0.0000E+00  0.0000E+00
    -24.418  0.0000E+00  0.0000E+00
    -24.411  0.0000E+00  0.0000E+00
    -24.404  0.0000E+00  0.0000E+00
    -24.398  0.0000E+00  0.0000E+00
    -24.391  0.0000E+00  0.0000E+00
    -24.384  0.0000E+00  0.0000E+00
    -24.377  0.0000E+00  0.0000E+00
    -24.370  0.0000E+00  0.0000E+00
    -24.363  0.0000E+00  0.0000E+00
    -24.357  0.0000E+00  0.0000E+00
    -24.350  0.0000E+00  0.0000E+00
    -24.343  0.0000E+00  0.0000E+00
    -24.336  0.0000E+00  0.0000E+00
    -24.329  0.0000E+00  0.0000E+00
    -24.322  0.0000E+00  0.0000E+00
    -24.316  0.0000E+00  0.0000E+00
    -24.309  0.0000E+00  0.0000E+00
    -24.302  0.0000E+00  0.0000E+00
    -24.295  0.0000E+00  0.0000E+00
    -24.288  0.0000E+00  0.0000E+00
    -24.281  0.0000E+00  0.0000E+00
    -24.275  0.0000E+00  0.0000E+00
    -24.268  0.0000E+00  0.0000E+00
    -24.261  0.0000E+00  0.0000E+00
    -24.254  0.0000E+00  0.0000E+00
    -24.247  0.0000E+00  0.0000E+00
    -24.240  0.0000E+00  0.0000E+00
    -24.234  0.0000E+00  0.0000E+00
    -24.227  0.0000E+00  0.0000E+00
    -24.220  0.0000E+00  0.0000E+00
    -24.213  0.0000E+00  0.0000E+00
    -24.206  0.0000E+00  0.0000E+00
    -24.199  0.0000E+00  0.0000E+00
    -24.193  0.0000E+00  0.0000E+00
    -24.186  0.0000E+00  0.0000E+00
    -24.179  0.0000E+00  0.0000E+00
    -24.172  0.0000E+00  0.0000E+00
    -24.165  0.0000E+00  0.0000E+00
    -24.158  0.0000E+00  0.0000E+00
    -24.152  0.0000E+00  0.0000E+00
    -24.145  0.0000E+00  0.0000E+00
    -24.138  0.0000E+00  0.0000E+00
    -24.131  0.0000E+00  0.0000E+00
    -24.124  0.0000E+00  0.0000E+00
    -24.117  0.0000E+00  0.0000E+00
    -24.111  0.0000E+00  0.0000E+00
    -24.104  0.0000E+00  0.0000E+00
    -24.097  0.0000E+00  0.0000E+00
    -24.090  0.0000E+00  0.0000E+00
    -24.083  0.0000E+00  0.0000E+00
    -24.076  0.0000E+00  0.0000E+00
    -24.070  0.0000E+00  0.0000E+00
    -24.063  0.0000E+00  0.0000E+00
    -24.056  0.0000E+00  0.0000E+00
    -24.049  0.0000E+00  0.0000E+00
    -24.042  0.0000E+00  0.0000E+00
    -24.035  0.0000E+00  0.0000E+00
    -24.029  0.0000E+00  0.0000E+00
    -24.022  0.0000E+00  0.0000E+00
    -24.015  0.0000E+00  0.0000E+00
    -24.008  0.0000E+00  0.0000E+00
    -24.001  0.0000E+00  0.0000E+00
    -23.994  0.0000E+00  0.0000E+00
    -23.988  0.0000E+00  0.0000E+00
    -23.981  0.0000E+00  0.0000E+00
    -23.974  0.0000E+00  0.0000E+00
    -23.967  0.0000E+00  0.0000E+00
    -23.960  0.0000E+00  0.0000E+00
    -23.953  0.0000E+00  0.0000E+00
    -23.947  0.0000E+00  0.0000E+00
    -23.940  0.0000E+00  0.0000E+00
    -23.933  0.0000E+00  0.0000E+00
    -23.926  0.0000E+00  0.0000E+00
    -23.919  0.0000E+00  0.0000E+00
    -23.912  0.0000E+00  0.0000E+00
    -23.906  0.0000E+00  0.0000E+00
    -23.899  0.0000E+00  0.0000E+00
    -23.892  0.0000E+00  0.0000E+00
    -23.885  0.0000E+00  0.0000E+00
    -23.878  0.0000E+00  0.0000E+00
    -23.871  0.0000E+00  0.0000E+00
    -23.865  0.0000E+00  0.0000E+00
    -23.858  0.0000E+00  0.0000E+00
    -23.851  0.0000E+00  0.0000E+00
    -23.844  0.0000E+00  0.0000E+00
    -23.837  0.0000E+00  0.0000E+00
    -23.830  0.0000E+00  0.0000E+00
    -23.824  0.0000E+00  0.0000E+00
    -23.817  0.0000E+00  0.0000E+00
    -23.810  0.0000E+00  0.0000E+00
    -23.803  0.0000E+00  0.0000E+00
    -23.796  0.0000E+00  0.0000E+00
    -23.789  0.0000E+00  0.0000E+00
    -23.783  0.0000E+00  0.0000E+00
    -23.776  0.0000E+00  0.0000E+00
    -23.769  0.0000E+00  0.0000E+00
    -23.762  0.0000E+00  0.0000E+00
    -23.755  0.0000E+00  0.0000E+00
    -23.748  0.0000E+00  0.0000E+00
    -23.742  0.0000E+00  0.0000E+00
    -23.735  0.0000E+00  0.0000E+00
    -23.728  0.0000E+00  0.0000E+00
    -23.721  0.0000E+00  0.0000E+00
    -23.714  0.0000E+00  0.0000E+00
    -23.707  0.0000E+00  0.0000E+00
    -23.701  0.0000E+00  0.0000E+00
    -23.694  0.0000E+00  0.0000E+00
    -23.687  0.0000E+00  0.0000E+00
    -23.680  0.0000E+00  0.0000E+00
    -23.673  0.0000E+00  0.0000E+00
    -23.666  0.0000E+00  0.0000E+00
    -23.660  0.0000E+00  0.0000E+00
    -23.653  0.0000E+00  0.0000E+00
    -23.646  0.0000E+00  0.0000E+00
    -23.639  0.0000E+00  0.0000E+00
    -23.632  0.0000E+00  0.0000E+00
    -23.625  0.0000E+00  0.0000E+00
    -23.619  0.0000E+00  0.0000E+00
    -23.612  0.0000E+00  0.0000E+00
    -23.605  0.0000E+00  0.0000E+00
    -23.598  0.0000E+00  0.0000E+00
    -23.591  0.0000E+00  0.0000E+00
    -23.584  0.0000E+00  0.0000E+00
    -23.578  0.0000E+00  0.0000E+00
    -23.571  0.0000E+00  0.0000E+00
    -23.564  0.0000E+00  0.0000E+00
    -23.557  0.0000E+00  0.0000E+00
    -23.550  0.0000E+00  0.0000E+00
    -23.543  0.0000E+00  0.0000E+00
    -23.537  0.0000E+00  0.0000E+00
    -23.530  0.0000E+00  0.0000E+00
    -23.523  0.0000E+00  0.0000E+00
    -23.516  0.0000E+00  0.0000E+00
    -23.509  0.0000E+00  0.0000E+00
    -23.502  0.0000E+00  0.0000E+00
    -23.496  0.0000E+00  0.0000E+00
    -23.489  0.0000E+00  0.0000E+00
    -23.482  0.0000E+00  0.0000E+00
    -23.475  0.0000E+00  0.0000E+00
    -23.468  0.0000E+00  0.0000E+00
    -23.461  0.0000E+00  0.0000E+00
    -23.455  0.0000E+00  0.0000E+00
    -23.448  0.0000E+00  0.0000E+00
    -23.441  0.0000E+00  0.0000E+00
    -23.434  0.0000E+00  0.0000E+00
    -23.427  0.0000E+00  0.0000E+00
    -23.420  0.0000E+00  0.0000E+00
    -23.414  0.0000E+00  0.0000E+00
    -23.407  0.0000E+00  0.0000E+00
    -23.400  0.0000E+00  0.0000E+00
    -23.393  0.0000E+00  0.0000E+00
    -23.386  0.0000E+00  0.0000E+00
    -23.380  0.0000E+00  0.0000E+00
    -23.373  0.0000E+00  0.0000E+00
    -23.366  0.0000E+00  0.0000E+00
    -23.359  0.0000E+00  0.0000E+00
    -23.352  0.0000E+00  0.0000E+00
    -23.345  0.0000E+00  0.0000E+00
    -23.339  0.0000E+00  0.0000E+00
    -23.332  0.0000E+00  0.0000E+00
    -23.325  0.0000E+00  0.0000E+00
    -23.318  0.0000E+00  0.0000E+00
    -23.311  0.0000E+00  0.0000E+00
    -23.304  0.0000E+00  0.0000E+00
    -23.298  0.0000E+00  0.0000E+00
    -23.291  0.0000E+00  0.0000E+00
    -23.284  0.0000E+00  0.0000E+00
    -23.277  0.0000E+00  0.0000E+00
    -23.270  0.0000E+00  0.0000E+00
    -23.263  0.0000E+00  0.0000E+00
    -23.257  0.0000E+00  0.0000E+00
    -23.250  0.0000E+00  0.0000E+00
    -23.243  0.0000E+00  0.0000E+00
    -23.236  0.0000E+00  0.0000E+00
    -23.229  0.0000E+00  0.0000E+00
    -23.222  0.0000E+00  0.0000E+00
    -23.216  0.0000E+00  0.0000E+00
    -23.209  0.0000E+00  0.0000E+00
    -23.202  0.0000E+00  0.0000E+00
    -23.195  0.0000E+00  0.0000E+00
    -23.188  0.0000E+00  0.0000E+00
    -23.181  0.0000E+00  0.0000E+00
    -23.175  0.0000E+00  0.0000E+00
    -23.168  0.0000E+00  0.0000E+00
    -23.161  0.0000E+00  0.0000E+00
    -23.154  0.0000E+00  0.0000E+00
    -23.147  0.0000E+00  0.0000E+00
    -23.140  0.0000E+00  0.0000E+00
    -23.134  0.0000E+00  0.0000E+00
    -23.127  0.0000E+00  0.0000E+00
    -23.120  0.0000E+00  0.0000E+00
    -23.113  0.0000E+00  0.0000E+00
    -23.106  0.0000E+00  0.0000E+00
    -23.099  0.0000E+00  0.0000E+00
    -23.093  0.0000E+00  0.0000E+00
    -23.086  0.0000E+00  0.0000E+00
    -23.079  0.0000E+00  0.0000E+00
    -23.072  0.0000E+00  0.0000E+00
    -23.065  0.0000E+00  0.0000E+00
    -23.058  0.0000E+00  0.0000E+00
    -23.052  0.0000E+00  0.0000E+00
    -23.045  0.0000E+00  0.0000E+00
    -23.038  0.0000E+00  0.0000E+00
    -23.031  0.0000E+00  0.0000E+00
    -23.024  0.0000E+00  0.0000E+00
    -23.017  0.0000E+00  0.0000E+00
    -23.011  0.0000E+00  0.0000E+00
    -23.004  0.0000E+00  0.0000E+00
    -22.997  0.0000E+00  0.0000E+00
    -22.990  0.0000E+00  0.0000E+00
    -22.983  0.0000E+00  0.0000E+00
    -22.976  0.0000E+00  0.0000E+00
    -22.970  0.0000E+00  0.0000E+00
    -22.963  0.0000E+00  0.0000E+00
    -22.956  0.0000E+00  0.0000E+00
    -22.949  0.0000E+00  0.0000E+00
    -22.942  0.0000E+00  0.0000E+00
    -22.935  0.0000E+00  0.0000E+00
    -22.929  0.0000E+00  0.0000E+00
    -22.922  0.0000E+00  0.0000E+00
    -22.915  0.0000E+00  0.0000E+00
    -22.908  0.0000E+00  0.0000E+00
    -22.901  0.0000E+00  0.0000E+00
    -22.894  0.0000E+00  0.0000E+00
    -22.888  0.0000E+00  0.0000E+00
    -22.881  0.0000E+00  0.0000E+00
    -22.874  0.0000E+00  0.0000E+00
    -22.867  0.0000E+00  0.0000E+00
    -22.860  0.0000E+00  0.0000E+00
    -22.853  0.0000E+00  0.0000E+00
    -22.847  0.0000E+00  0.0000E+00
    -22.840  0.0000E+00  0.0000E+00
    -22.833  0.0000E+00  0.0000E+00
    -22.826  0.0000E+00  0.0000E+00
    -22.819  0.0000E+00  0.0000E+00
    -22.812  0.0000E+00  0.0000E+00
    -22.806  0.0000E+00  0.0000E+00
    -22.799  0.0000E+00  0.0000E+00
    -22.792  0.0000E+00  0.0000E+00
    -22.785  0.0000E+00  0.0000E+00
    -22.778  0.0000E+00  0.0000E+00
    -22.771  0.0000E+00  0.0000E+00
    -22.765  0.0000E+00  0.0000E+00
    -22.758  0.0000E+00  0.0000E+00
    -22.751  0.0000E+00  0.0000E+00
    -22.744  0.0000E+00  0.0000E+00
    -22.737  0.0000E+00  0.0000E+00
    -22.730  0.0000E+00  0.0000E+00
    -22.724  0.0000E+00  0.0000E+00
    -22.717  0.0000E+00  0.0000E+00
    -22.710  0.0000E+00  0.0000E+00
    -22.703  0.0000E+00  0.0000E+00
    -22.696  0.0000E+00  0.0000E+00
    -22.689  0.0000E+00  0.0000E+00
    -22.683  0.0000E+00  0.0000E+00
    -22.676  0.0000E+00  0.0000E+00
    -22.669  0.0000E+00  0.0000E+00
    -22.662  0.0000E+00  0.0000E+00
    -22.655  0.0000E+00  0.0000E+00
    -22.648  0.0000E+00  0.0000E+00
    -22.642  0.0000E+00  0.0000E+00
    -22.635  0.0000E+00  0.0000E+00
    -22.628  0.0000E+00  0.0000E+00
    -22.621  0.0000E+00  0.0000E+00
    -22.614  0.0000E+00  0.0000E+00
    -22.607  0.0000E+00  0.0000E+00
    -22.601  0.0000E+00  0.0000E+00
    -22.594  0.0000E+00  0.0000E+00
    -22.587  0.0000E+00  0.0000E+00
    -22.580  0.0000E+00  0.0000E+00
    -22.573  0.0000E+00  0.0000E+00
    -22.566  0.0000E+00  0.0000E+00
    -22.560  0.0000E+00  0.0000E+00
    -22.553  0.0000E+00  0.0000E+00
    -22.546  0.0000E+00  0.0000E+00
    -22.539  0.0000E+00  0.0000E+00
    -22.532  0.0000E+00  0.0000E+00
    -22.525  0.0000E+00  0.0000E+00
    -22.519  0.0000E+00  0.0000E+00
    -22.512  0.0000E+00  0.0000E+00
    -22.505  0.0000E+00  0.0000E+00
    -22.498  0.0000E+00  0.0000E+00
    -22.491  0.0000E+00  0.0000E+00
    -22.484  0.0000E+00  0.0000E+00
    -22.478  0.0000E+00  0.0000E+00
    -22.471  0.0000E+00  0.0000E+00
    -22.464  0.0000E+00  0.0000E+00
    -22.457  0.0000E+00  0.0000E+00
    -22.450  0.0000E+00  0.0000E+00
    -22.443  0.0000E+00  0.0000E+00
    -22.437  0.0000E+00  0.0000E+00
    -22.430  0.0000E+00  0.0000E+00
    -22.423  0.0000E+00  0.0000E+00
    -22.416  0.0000E+00  0.0000E+00
    -22.409  0.0000E+00  0.0000E+00
    -22.402  0.0000E+00  0.0000E+00
    -22.396  0.0000E+00  0.0000E+00
    -22.389  0.0000E+00  0.0000E+00
    -22.382  0.0000E+00  0.0000E+00
    -22.375  0.0000E+00  0.0000E+00
    -22.368  0.0000E+00  0.0000E+00
    -22.361  0.0000E+00  0.0000E+00
    -22.355  0.0000E+00  0.0000E+00
    -22.348  0.0000E+00  0.0000E+00
    -22.341  0.0000E+00  0.0000E+00
    -22.334  0.0000E+00  0.0000E+00
    -22.327  0.0000E+00  0.0000E+00
    -22.320  0.0000E+00  0.0000E+00
    -22.314  0.0000E+00  0.0000E+00
    -22.307  0.0000E+00  0.0000E+00
    -22.300  0.0000E+00  0.0000E+00
    -22.293  0.0000E+00  0.0000E+00
    -22.286  0.0000E+00  0.0000E+00
    -22.279  0.0000E+00  0.0000E+00
    -22.273  0.0000E+00  0.0000E+00
    -22.266  0.0000E+00  0.0000E+00
    -22.259  0.0000E+00  0.0000E+00
    -22.252  0.0000E+00  0.0000E+00
    -22.245  0.0000E+00  0.0000E+00
    -22.238  0.0000E+00  0.0000E+00
    -22.232  0.0000E+00  0.0000E+00
    -22.225  0.0000E+00  0.0000E+00
    -22.218  0.0000E+00  0.0000E+00
    -22.211  0.0000E+00  0.0000E+00
    -22.204  0.0000E+00  0.0000E+00
    -22.197  0.0000E+00  0.0000E+00
    -22.191  0.0000E+00  0.0000E+00
    -22.184  0.0000E+00  0.0000E+00
    -22.177  0.0000E+00  0.0000E+00
    -22.170  0.0000E+00  0.0000E+00
    -22.163  0.0000E+00  0.0000E+00
    -22.156  0.0000E+00  0.0000E+00
    -22.150  0.0000E+00  0.0000E+00
    -22.143  0.0000E+00  0.0000E+00
    -22.136  0.0000E+00  0.0000E+00
    -22.129  0.0000E+00  0.0000E+00
    -22.122  0.0000E+00  0.0000E+00
    -22.116  0.0000E+00  0.0000E+00
    -22.109  0.0000E+00  0.0000E+00
    -22.102  0.0000E+00  0.0000E+00
    -22.095  0.0000E+00  0.0000E+00
    -22.088  0.0000E+00  0.0000E+00
    -22.081  0.0000E+00  0.0000E+00
    -22.075  0.0000E+00  0.0000E+00
    -22.068  0.0000E+00  0.0000E+00
    -22.061  0.0000E+00  0.0000E+00
    -22.054  0.0000E+00  0.0000E+00
    -22.047  0.0000E+00  0.0000E+00
    -22.040  0.0000E+00  0.0000E+00
    -22.034  0.0000E+00  0.0000E+00
    -22.027  0.0000E+00  0.0000E+00
    -22.020  0.0000E+00  0.0000E+00
    -22.013  0.0000E+00  0.0000E+00
    -22.006  0.0000E+00  0.0000E+00
    -21.999  0.0000E+00  0.0000E+00
    -21.993  0.0000E+00  0.0000E+00
    -21.986  0.0000E+00  0.0000E+00
    -21.979  0.0000E+00  0.0000E+00
    -21.972  0.0000E+00  0.0000E+00
    -21.965  0.0000E+00  0.0000E+00
    -21.958  0.0000E+00  0.0000E+00
    -21.952  0.0000E+00  0.0000E+00
    -21.945  0.0000E+00  0.0000E+00
    -21.938  0.0000E+00  0.0000E+00
    -21.931  0.0000E+00  0.0000E+00
    -21.924  0.0000E+00  0.0000E+00
    -21.917  0.0000E+00  0.0000E+00
    -21.911  0.0000E+00  0.0000E+00
    -21.904  0.0000E+00  0.0000E+00
    -21.897  0.0000E+00  0.0000E+00
    -21.890  0.0000E+00  0.0000E+00
    -21.883  0.0000E+00  0.0000E+00
    -21.876  0.0000E+00  0.0000E+00
    -21.870  0.0000E+00  0.0000E+00
    -21.863  0.0000E+00  0.0000E+00
    -21.856  0.0000E+00  0.0000E+00
    -21.849  0.0000E+00  0.0000E+00
    -21.842  0.0000E+00  0.0000E+00
    -21.835  0.0000E+00  0.0000E+00
    -21.829  0.0000E+00  0.0000E+00
    -21.822  0.0000E+00  0.0000E+00
    -21.815  0.0000E+00  0.0000E+00
    -21.808  0.0000E+00  0.0000E+00
    -21.801  0.0000E+00  0.0000E+00
    -21.794  0.0000E+00  0.0000E+00
    -21.788  0.0000E+00  0.0000E+00
    -21.781  0.0000E+00  0.0000E+00
    -21.774  0.0000E+00  0.0000E+00
    -21.767  0.0000E+00  0.0000E+00
    -21.760  0.0000E+00  0.0000E+00
    -21.753  0.8899E-02  0.1520E-04
    -21.747  0.2670E-01  0.1368E-03
    -21.740  0.4449E-01  0.3800E-03
    -21.733  0.6229E-01  0.7448E-03
    -21.726  0.8009E-01  0.1231E-02
    -21.719  0.9789E-01  0.1839E-02
    -21.712  0.1157E+00  0.2569E-02
    -21.706  0.1335E+00  0.3420E-02
    -21.699  0.1513E+00  0.4393E-02
    -21.692  0.1691E+00  0.5487E-02
    -21.685  0.1869E+00  0.6703E-02
    -21.678  0.2047E+00  0.8041E-02
    -21.671  0.2225E+00  0.9500E-02
    -21.665  0.2403E+00  0.1108E-01
    -21.658  0.2581E+00  0.1278E-01
    -21.651  0.2759E+00  0.1461E-01
    -21.644  0.2937E+00  0.1655E-01
    -21.637  0.3115E+00  0.1862E-01
    -21.630  0.3293E+00  0.2081E-01
    -21.624  0.3470E+00  0.2312E-01
    -21.617  0.3648E+00  0.2555E-01
    -21.610  0.3826E+00  0.2810E-01
    -21.603  0.4004E+00  0.3078E-01
    -21.596  0.4182E+00  0.3358E-01
    -21.589  0.4360E+00  0.3649E-01
    -21.583  0.4538E+00  0.3953E-01
    -21.576  0.4716E+00  0.4270E-01
    -21.569  0.4894E+00  0.4598E-01
    -21.562  0.5072E+00  0.4938E-01
    -21.555  0.2564E+00  0.5123E-01
    -21.548  0.2579E+00  0.5299E-01
    -21.542  0.2594E+00  0.5476E-01
    -21.535  0.2609E+00  0.5653E-01
    -21.528  0.2624E+00  0.5832E-01
    -21.521  0.2639E+00  0.6012E-01
    -21.514  0.2654E+00  0.6193E-01
    -21.507  0.2669E+00  0.6374E-01
    -21.501  0.2684E+00  0.6557E-01
    -21.494  0.2699E+00  0.6741E-01
    -21.487  0.2714E+00  0.6926E-01
    -21.480  0.2729E+00  0.7112E-01
    -21.473  0.2744E+00  0.7299E-01
    -21.466  0.2759E+00  0.7487E-01
    -21.460  0.2774E+00  0.7676E-01
    -21.453  0.2789E+00  0.7866E-01
    -21.446  0.2804E+00  0.8057E-01
    -21.439  0.2819E+00  0.8249E-01
    -21.432  0.2834E+00  0.8442E-01
    -21.425  0.2849E+00  0.8636E-01
    -21.419  0.2864E+00  0.8831E-01
    -21.412  0.2879E+00  0.9028E-01
    -21.405  0.2894E+00  0.9225E-01
    -21.398  0.2909E+00  0.9423E-01
    -21.391  0.2924E+00  0.9622E-01
    -21.384  0.2939E+00  0.9823E-01
    -21.378  0.2954E+00  0.1002E+00
    -21.371  0.2969E+00  0.1023E+00
    -21.364  0.2984E+00  0.1043E+00
    -21.357  0.2999E+00  0.1063E+00
    -21.350  0.3014E+00  0.1084E+00
    -21.343  0.3029E+00  0.1105E+00
    -21.337  0.3044E+00  0.1125E+00
    -21.330  0.3059E+00  0.1146E+00
    -21.323  0.3074E+00  0.1167E+00
    -21.316  0.3089E+00  0.1188E+00
    -21.309  0.3104E+00  0.1209E+00
    -21.302  0.3119E+00  0.1231E+00
    -21.296  0.3134E+00  0.1252E+00
    -21.289  0.3149E+00  0.1273E+00
    -21.282  0.3164E+00  0.1295E+00
    -21.275  0.3179E+00  0.1317E+00
    -21.268  0.3194E+00  0.1338E+00
    -21.261  0.3209E+00  0.1360E+00
    -21.255  0.3224E+00  0.1382E+00
    -21.248  0.3239E+00  0.1404E+00
    -21.241  0.3254E+00  0.1426E+00
    -21.234  0.3268E+00  0.1449E+00
    -21.227  0.3283E+00  0.1471E+00
    -21.220  0.3298E+00  0.1494E+00
    -21.214  0.3313E+00  0.1516E+00
    -21.207  0.3328E+00  0.1539E+00
    -21.200  0.3343E+00  0.1562E+00
    -21.193  0.3358E+00  0.1585E+00
    -21.186  0.3373E+00  0.1608E+00
    -21.179  0.3388E+00  0.1631E+00
    -21.173  0.3403E+00  0.1654E+00
    -21.166  0.3385E+00  0.1677E+00
    -21.159  0.3367E+00  0.1700E+00
    -21.152  0.3349E+00  0.1723E+00
    -21.145  0.3331E+00  0.1746E+00
    -21.138  0.3313E+00  0.1769E+00
    -21.132  0.3295E+00  0.1791E+00
    -21.125  0.3276E+00  0.1814E+00
    -21.118  0.3258E+00  0.1836E+00
    -21.111  0.3240E+00  0.1858E+00
    -21.104  0.3222E+00  0.1880E+00
    -21.097  0.3204E+00  0.1902E+00
    -21.091  0.3186E+00  0.1924E+00
    -21.084  0.3168E+00  0.1946E+00
    -21.077  0.3150E+00  0.1967E+00
    -21.070  0.3132E+00  0.1989E+00
    -21.063  0.3114E+00  0.2010E+00
    -21.056  0.3096E+00  0.2031E+00
    -21.050  0.3078E+00  0.2052E+00
    -21.043  0.3059E+00  0.2073E+00
    -21.036  0.3041E+00  0.2094E+00
    -21.029  0.3023E+00  0.2115E+00
    -21.022  0.3005E+00  0.2136E+00
    -21.015  0.2987E+00  0.2156E+00
    -21.009  0.2969E+00  0.2176E+00
    -21.002  0.2951E+00  0.2197E+00
    -20.995  0.2933E+00  0.2217E+00
    -20.988  0.2915E+00  0.2237E+00
    -20.981  0.2897E+00  0.2256E+00
    -20.974  0.2894E+00  0.2276E+00
    -20.968  0.2899E+00  0.2296E+00
    -20.961  0.2904E+00  0.2316E+00
    -20.954  0.2910E+00  0.2336E+00
    -20.947  0.2915E+00  0.2356E+00
    -20.940  0.2921E+00  0.2376E+00
    -20.933  0.2926E+00  0.2396E+00
    -20.927  0.2931E+00  0.2416E+00
    -20.920  0.2937E+00  0.2436E+00
    -20.913  0.2942E+00  0.2456E+00
    -20.906  0.2947E+00  0.2476E+00
    -20.899  0.2953E+00  0.2496E+00
    -20.893  0.2958E+00  0.2516E+00
    -20.886  0.2964E+00  0.2536E+00
    -20.879  0.2969E+00  0.2557E+00
    -20.872  0.2974E+00  0.2577E+00
    -20.865  0.2980E+00  0.2597E+00
    -20.858  0.2985E+00  0.2618E+00
    -20.852  0.2991E+00  0.2638E+00
    -20.845  0.2996E+00  0.2659E+00
    -20.838  0.3001E+00  0.2679E+00
    -20.831  0.3007E+00  0.2700E+00
    -20.824  0.3012E+00  0.2720E+00
    -20.817  0.3017E+00  0.2741E+00
    -20.811  0.3023E+00  0.2761E+00
    -20.804  0.3028E+00  0.2782E+00
    -20.797  0.3034E+00  0.2803E+00
    -20.790  0.3039E+00  0.2823E+00
    -20.783  0.3044E+00  0.2844E+00
    -20.776  0.3050E+00  0.2865E+00
    -20.770  0.3055E+00  0.2886E+00
    -20.763  0.3060E+00  0.2907E+00
    -20.756  0.3066E+00  0.2928E+00
    -20.749  0.3071E+00  0.2949E+00
    -20.742  0.3077E+00  0.2970E+00
    -20.735  0.3082E+00  0.2991E+00
    -20.729  0.3087E+00  0.3012E+00
    -20.722  0.3093E+00  0.3033E+00
    -20.715  0.3098E+00  0.3054E+00
    -20.708  0.3104E+00  0.3075E+00
    -20.701  0.3109E+00  0.3096E+00
    -20.694  0.3114E+00  0.3118E+00
    -20.688  0.3120E+00  0.3139E+00
    -20.681  0.3125E+00  0.3160E+00
    -20.674  0.3130E+00  0.3182E+00
    -20.667  0.3136E+00  0.3203E+00
    -20.660  0.3141E+00  0.3225E+00
    -20.653  0.3147E+00  0.3246E+00
    -20.647  0.3152E+00  0.3268E+00
    -20.640  0.3157E+00  0.3289E+00
    -20.633  0.3163E+00  0.3311E+00
    -20.626  0.3168E+00  0.3332E+00
    -20.619  0.3173E+00  0.3354E+00
    -20.612  0.3179E+00  0.3376E+00
    -20.606  0.3184E+00  0.3397E+00
    -20.599  0.3190E+00  0.3419E+00
    -20.592  0.3195E+00  0.3441E+00
    -20.585  0.3200E+00  0.3463E+00
    -20.578  0.3206E+00  0.3485E+00
    -20.571  0.3211E+00  0.3507E+00
    -20.565  0.3217E+00  0.3529E+00
    -20.558  0.3222E+00  0.3551E+00
    -20.551  0.3227E+00  0.3573E+00
    -20.544  0.3233E+00  0.3595E+00
    -20.537  0.3238E+00  0.3617E+00
    -20.530  0.3243E+00  0.3639E+00
    -20.524  0.3249E+00  0.3661E+00
    -20.517  0.3254E+00  0.3683E+00
    -20.510  0.3260E+00  0.3706E+00
    -20.503  0.3265E+00  0.3728E+00
    -20.496  0.3270E+00  0.3750E+00
    -20.489  0.3276E+00  0.3773E+00
    -20.483  0.3281E+00  0.3795E+00
    -20.476  0.3286E+00  0.3817E+00
    -20.469  0.3292E+00  0.3840E+00
    -20.462  0.3297E+00  0.3862E+00
    -20.455  0.3303E+00  0.3885E+00
    -20.448  0.3308E+00  0.3908E+00
    -20.442  0.3313E+00  0.3930E+00
    -20.435  0.3319E+00  0.3953E+00
    -20.428  0.3324E+00  0.3976E+00
    -20.421  0.3330E+00  0.3998E+00
    -20.414  0.3335E+00  0.4021E+00
    -20.407  0.3340E+00  0.4044E+00
    -20.401  0.3346E+00  0.4067E+00
    -20.394  0.3102E+00  0.4088E+00
    -20.387  0.3101E+00  0.4109E+00
    -20.380  0.3100E+00  0.4130E+00
    -20.373  0.3099E+00  0.4152E+00
    -20.366  0.3098E+00  0.4173E+00
    -20.360  0.3098E+00  0.4194E+00
    -20.353  0.3097E+00  0.4215E+00
    -20.346  0.3096E+00  0.4236E+00
    -20.339  0.3095E+00  0.4257E+00
    -20.332  0.3094E+00  0.4278E+00
    -20.325  0.3094E+00  0.4300E+00
    -20.319  0.3093E+00  0.4321E+00
    -20.312  0.3092E+00  0.4342E+00
    -20.305  0.3091E+00  0.4363E+00
    -20.298  0.3090E+00  0.4384E+00
    -20.291  0.3089E+00  0.4405E+00
    -20.284  0.3089E+00  0.4426E+00
    -20.278  0.3088E+00  0.4447E+00
    -20.271  0.3087E+00  0.4469E+00
    -20.264  0.3086E+00  0.4490E+00
    -20.257  0.3085E+00  0.4511E+00
    -20.250  0.3085E+00  0.4532E+00
    -20.243  0.3084E+00  0.4553E+00
    -20.237  0.3083E+00  0.4574E+00
    -20.230  0.3082E+00  0.4595E+00
    -20.223  0.3081E+00  0.4616E+00
    -20.216  0.3080E+00  0.4637E+00
    -20.209  0.3080E+00  0.4658E+00
    -20.202  0.3079E+00  0.4679E+00
    -20.196  0.3078E+00  0.4700E+00
    -20.189  0.3077E+00  0.4721E+00
    -20.182  0.3076E+00  0.4742E+00
    -20.175  0.3076E+00  0.4763E+00
    -20.168  0.3075E+00  0.4784E+00
    -20.161  0.3074E+00  0.4805E+00
    -20.155  0.3073E+00  0.4826E+00
    -20.148  0.3072E+00  0.4847E+00
    -20.141  0.3072E+00  0.4868E+00
    -20.134  0.3071E+00  0.4889E+00
    -20.127  0.3070E+00  0.4910E+00
    -20.120  0.3069E+00  0.4931E+00
    -20.114  0.3068E+00  0.4952E+00
    -20.107  0.3067E+00  0.4973E+00
    -20.100  0.3067E+00  0.4994E+00
    -20.093  0.3066E+00  0.5015E+00
    -20.086  0.3065E+00  0.5036E+00
    -20.079  0.3064E+00  0.5057E+00
    -20.073  0.3063E+00  0.5078E+00
    -20.066  0.3063E+00  0.5099E+00
    -20.059  0.3062E+00  0.5120E+00
    -20.052  0.3061E+00  0.5141E+00
    -20.045  0.3060E+00  0.5161E+00
    -20.038  0.3059E+00  0.5182E+00
    -20.032  0.3058E+00  0.5203E+00
    -20.025  0.3058E+00  0.5224E+00
    -20.018  0.3057E+00  0.5245E+00
    -20.011  0.3059E+00  0.5266E+00
    -20.004  0.3062E+00  0.5287E+00
    -19.997  0.3065E+00  0.5308E+00
    -19.991  0.3068E+00  0.5329E+00
    -19.984  0.3071E+00  0.5350E+00
    -19.977  0.3073E+00  0.5371E+00
    -19.970  0.3076E+00  0.5392E+00
    -19.963  0.3079E+00  0.5413E+00
    -19.956  0.3082E+00  0.5434E+00
    -19.950  0.3085E+00  0.5455E+00
    -19.943  0.3088E+00  0.5476E+00
    -19.936  0.3091E+00  0.5497E+00
    -19.929  0.3094E+00  0.5518E+00
    -19.922  0.3096E+00  0.5539E+00
    -19.915  0.3099E+00  0.5561E+00
    -19.909  0.3102E+00  0.5582E+00
    -19.902  0.3105E+00  0.5603E+00
    -19.895  0.3108E+00  0.5624E+00
    -19.888  0.3111E+00  0.5645E+00
    -19.881  0.3114E+00  0.5667E+00
    -19.874  0.3116E+00  0.5688E+00
    -19.868  0.3119E+00  0.5709E+00
    -19.861  0.3122E+00  0.5731E+00
    -19.854  0.3125E+00  0.5752E+00
    -19.847  0.3128E+00  0.5773E+00
    -19.840  0.3131E+00  0.5795E+00
    -19.833  0.3134E+00  0.5816E+00
    -19.827  0.3137E+00  0.5837E+00
    -19.820  0.3139E+00  0.5859E+00
    -19.813  0.3142E+00  0.5880E+00
    -19.806  0.3145E+00  0.5902E+00
    -19.799  0.3148E+00  0.5923E+00
    -19.792  0.3151E+00  0.5945E+00
    -19.786  0.3154E+00  0.5966E+00
    -19.779  0.3157E+00  0.5988E+00
    -19.772  0.3159E+00  0.6010E+00
    -19.765  0.3162E+00  0.6031E+00
    -19.758  0.3165E+00  0.6053E+00
    -19.751  0.3168E+00  0.6074E+00
    -19.745  0.3171E+00  0.6096E+00
    -19.738  0.3174E+00  0.6118E+00
    -19.731  0.3177E+00  0.6139E+00
    -19.724  0.3180E+00  0.6161E+00
    -19.717  0.3182E+00  0.6183E+00
    -19.710  0.3185E+00  0.6205E+00
    -19.704  0.3188E+00  0.6226E+00
    -19.697  0.3191E+00  0.6248E+00
    -19.690  0.3194E+00  0.6270E+00
    -19.683  0.3197E+00  0.6292E+00
    -19.676  0.3200E+00  0.6314E+00
    -19.669  0.3202E+00  0.6336E+00
    -19.663  0.3205E+00  0.6357E+00
    -19.656  0.3208E+00  0.6379E+00
    -19.649  0.3211E+00  0.6401E+00
    -19.642  0.3214E+00  0.6423E+00
    -19.635  0.3217E+00  0.6445E+00
    -19.629  0.3220E+00  0.6467E+00
    -19.622  0.3223E+00  0.6489E+00
    -19.615  0.3225E+00  0.6511E+00
    -19.608  0.3228E+00  0.6533E+00
    -19.601  0.3231E+00  0.6555E+00
    -19.594  0.3234E+00  0.6577E+00
    -19.588  0.3237E+00  0.6600E+00
    -19.581  0.3240E+00  0.6622E+00
    -19.574  0.3243E+00  0.6644E+00
    -19.567  0.3245E+00  0.6666E+00
    -19.560  0.3248E+00  0.6688E+00
    -19.553  0.3251E+00  0.6710E+00
    -19.547  0.3254E+00  0.6733E+00
    -19.540  0.3257E+00  0.6755E+00
    -19.533  0.3260E+00  0.6777E+00
    -19.526  0.3263E+00  0.6799E+00
    -19.519  0.3266E+00  0.6822E+00
    -19.512  0.3268E+00  0.6844E+00
    -19.506  0.3271E+00  0.6866E+00
    -19.499  0.3274E+00  0.6889E+00
    -19.492  0.3277E+00  0.6911E+00
    -19.485  0.3280E+00  0.6933E+00
    -19.478  0.3283E+00  0.6956E+00
    -19.471  0.3286E+00  0.6978E+00
    -19.465  0.3288E+00  0.7001E+00
    -19.458  0.3291E+00  0.7023E+00
    -19.451  0.3294E+00  0.7046E+00
    -19.444  0.3293E+00  0.7068E+00
    -19.437  0.3287E+00  0.7091E+00
    -19.430  0.3281E+00  0.7113E+00
    -19.424  0.3275E+00  0.7136E+00
    -19.417  0.3269E+00  0.7158E+00
    -19.410  0.3263E+00  0.7180E+00
    -19.403  0.3257E+00  0.7203E+00
    -19.396  0.3251E+00  0.7225E+00
    -19.389  0.3246E+00  0.7247E+00
    -19.383  0.3240E+00  0.7269E+00
    -19.376  0.3234E+00  0.7291E+00
    -19.369  0.3228E+00  0.7313E+00
    -19.362  0.3222E+00  0.7335E+00
    -19.355  0.3216E+00  0.7357E+00
    -19.348  0.3210E+00  0.7379E+00
    -19.342  0.3204E+00  0.7401E+00
    -19.335  0.3198E+00  0.7423E+00
    -19.328  0.3192E+00  0.7445E+00
    -19.321  0.3186E+00  0.7467E+00
    -19.314  0.3181E+00  0.7488E+00
    -19.307  0.3175E+00  0.7510E+00
    -19.301  0.3169E+00  0.7532E+00
    -19.294  0.3163E+00  0.7553E+00
    -19.287  0.3157E+00  0.7575E+00
    -19.280  0.3151E+00  0.7597E+00
    -19.273  0.3145E+00  0.7618E+00
    -19.266  0.3139E+00  0.7640E+00
    -19.260  0.3133E+00  0.7661E+00
    -19.253  0.3133E+00  0.7682E+00
    -19.246  0.3134E+00  0.7704E+00
    -19.239  0.3134E+00  0.7725E+00
    -19.232  0.3135E+00  0.7747E+00
    -19.225  0.3136E+00  0.7768E+00