  16  16   0   4
  0.2091096E+02  0.5075000E-09  0.5075000E-09  0.1500000E-08  0.5000000E-15
  1.000000000000000E-004
  CAR 
 Lattice                                 
      9.58541667    -21.23949344  301     -1.04571317      1.00000000
    -21.239  0.0000E+00  0.0000E+00  0.0000E+00  0.0000E+00
    -21.137  0.0000E+00  0.0000E+00  0.0000E+00  0.0000E+00
    -21.034  0.0000E+00  0.0000E+00  0.0000E+00  0.0000E+00
    -20.931  0.0000E+00  0.0000E+00  0.0000E+00  0.0000E+00
    -20.828  0.0000E+00  0.0000E+00  0.0000E+00  0.0000E+00
    -20.726  0.0000E+00  0.0000E+00  0.0000E+00  0.0000E+00
    -20.623  0.0000E+00  0.0000E+00  0.0000E+00  0.0000E+00
    -20.520  0.0000E+00  0.0000E+00  0.0000E+00  0.0000E+00
    -20.417  0.5862E-19  0.5862E-19  0.6023E-20  0.6023E-20
    -20.315  0.4761E-14  0.4761E-14  0.4892E-15  0.4892E-15
    -20.212  0.4186E-10  0.4186E-10  0.4302E-11  0.4302E-11
    -20.109  0.5232E-07  0.5232E-07  0.5380E-08  0.5380E-08
    -20.006  0.1002E-04  0.1002E-04  0.1035E-05  0.1035E-05
    -19.904  0.3237E-03  0.3237E-03  0.3430E-04  0.3430E-04
    -19.801  0.2155E-02  0.2155E-02  0.2557E-03  0.2557E-03
    -19.698  0.4446E-02  0.4446E-02  0.7125E-03  0.7125E-03
    -19.595  0.4968E-02  0.4968E-02  0.1223E-02  0.1223E-02
    -19.493  0.5209E-02  0.5209E-02  0.1758E-02  0.1758E-02
    -19.390  0.4732E-02  0.4732E-02  0.2244E-02  0.2244E-02
    -19.287  0.5709E-02  0.5709E-02  0.2831E-02  0.2831E-02
    -19.184  0.4322E-02  0.4322E-02  0.3275E-02  0.3275E-02
    -19.082  0.5386E-02  0.5386E-02  0.3829E-02  0.3829E-02
    -18.979  0.5883E-02  0.5883E-02  0.4433E-02  0.4433E-02
    -18.876  0.3717E-02  0.3717E-02  0.4815E-02  0.4815E-02
    -18.774  0.5488E-02  0.5488E-02  0.5379E-02  0.5379E-02
    -18.671  0.6371E-02  0.6371E-02  0.6034E-02  0.6034E-02
    -18.568  0.4357E-02  0.4357E-02  0.6481E-02  0.6481E-02
    -18.465  0.3586E-02  0.3586E-02  0.6850E-02  0.6850E-02
    -18.363  0.6925E-02  0.6925E-02  0.7561E-02  0.7561E-02
    -18.260  0.5895E-02  0.5895E-02  0.8167E-02  0.8167E-02
    -18.157  0.4243E-02  0.4243E-02  0.8603E-02  0.8603E-02
    -18.054  0.3466E-02  0.3466E-02  0.8959E-02  0.8959E-02
    -17.952  0.7281E-02  0.7281E-02  0.9707E-02  0.9707E-02
    -17.849  0.1150E-01  0.1150E-01  0.1089E-01  0.1089E-01
    -17.746  0.1104E-01  0.1104E-01  0.1202E-01  0.1202E-01
    -17.643  0.1139E-01  0.1139E-01  0.1319E-01  0.1319E-01
    -17.541  0.1334E-01  0.1334E-01  0.1457E-01  0.1457E-01
    -17.438  0.1719E-01  0.1719E-01  0.1633E-01  0.1633E-01
    -17.335  0.2089E-01  0.2089E-01  0.1848E-01  0.1848E-01
    -17.232  0.2003E-01  0.2003E-01  0.2054E-01  0.2054E-01
    -17.130  0.9601E-02  0.9601E-02  0.2152E-01  0.2152E-01
    -17.027  0.5673E-02  0.5673E-02  0.2211E-01  0.2211E-01
    -16.924  0.7430E-02  0.7430E-02  0.2287E-01  0.2287E-01
    -16.821  0.6701E-02  0.6701E-02  0.2356E-01  0.2356E-01
    -16.719  0.5444E-02  0.5444E-02  0.2412E-01  0.2412E-01
    -16.616  0.4482E-02  0.4482E-02  0.2458E-01  0.2458E-01
    -16.513  0.2540E-02  0.2540E-02  0.2484E-01  0.2484E-01
    -16.410  0.5410E-02  0.5410E-02  0.2539E-01  0.2539E-01
    -16.308  0.9290E-02  0.9290E-02  0.2635E-01  0.2635E-01
    -16.205  0.5896E-02  0.5896E-02  0.2695E-01  0.2695E-01
    -16.102  0.4793E-02  0.4793E-02  0.2745E-01  0.2745E-01
    -15.999  0.4403E-02  0.4403E-02  0.2790E-01  0.2790E-01
    -15.897  0.3992E-02  0.3992E-02  0.2831E-01  0.2831E-01
    -15.794  0.4475E-02  0.4475E-02  0.2877E-01  0.2877E-01
    -15.691  0.9797E-02  0.9797E-02  0.2978E-01  0.2978E-01
    -15.588  0.1094E-01  0.1094E-01  0.3090E-01  0.3090E-01
    -15.486  0.1308E-01  0.1308E-01  0.3224E-01  0.3224E-01
    -15.383  0.1622E-01  0.1622E-01  0.3391E-01  0.3391E-01
    -15.280  0.1563E-01  0.1563E-01  0.3552E-01  0.3552E-01
    -15.177  0.1299E-01  0.1299E-01  0.3685E-01  0.3685E-01
    -15.075  0.1628E-01  0.1628E-01  0.3852E-01  0.3852E-01
    -14.972  0.1819E-01  0.1819E-01  0.4039E-01  0.4039E-01
    -14.869  0.1548E-01  0.1548E-01  0.4198E-01  0.4198E-01
    -14.766  0.1149E-01  0.1149E-01  0.4316E-01  0.4316E-01
    -14.664  0.9256E-02  0.9256E-02  0.4412E-01  0.4412E-01
    -14.561  0.1185E-01  0.1185E-01  0.4533E-01  0.4533E-01
    -14.458  0.1784E-01  0.1784E-01  0.4717E-01  0.4717E-01
    -14.355  0.1856E-01  0.1856E-01  0.4907E-01  0.4907E-01
    -14.253  0.1376E-01  0.1376E-01  0.5049E-01  0.5049E-01
    -14.150  0.9918E-02  0.9918E-02  0.5151E-01  0.5151E-01
    -14.047  0.8548E-02  0.8548E-02  0.5238E-01  0.5238E-01
    -13.944  0.8476E-02  0.8476E-02  0.5326E-01  0.5326E-01
    -13.842  0.8348E-02  0.8348E-02  0.5411E-01  0.5411E-01
    -13.739  0.4555E-02  0.4555E-02  0.5458E-01  0.5458E-01
    -13.636  0.2754E-02  0.2754E-02  0.5486E-01  0.5486E-01
    -13.533  0.4650E-02  0.4650E-02  0.5534E-01  0.5534E-01
    -13.431  0.4756E-02  0.4756E-02  0.5583E-01  0.5583E-01
    -13.328  0.6548E-02  0.6548E-02  0.5650E-01  0.5650E-01
    -13.225  0.5886E-02  0.5886E-02  0.5711E-01  0.5711E-01
    -13.122  0.6748E-02  0.6748E-02  0.5780E-01  0.5780E-01
    -13.020  0.8689E-02  0.8689E-02  0.5869E-01  0.5869E-01
    -12.917  0.8162E-02  0.8162E-02  0.5953E-01  0.5953E-01
    -12.814  0.7613E-02  0.7613E-02  0.6032E-01  0.6032E-01
    -12.711  0.5986E-02  0.5986E-02  0.6093E-01  0.6093E-01
    -12.609  0.7308E-02  0.7308E-02  0.6168E-01  0.6168E-01
    -12.506  0.4595E-02  0.4595E-02  0.6215E-01  0.6215E-01
    -12.403  0.5158E-02  0.5158E-02  0.6268E-01  0.6268E-01
    -12.300  0.8224E-02  0.8224E-02  0.6353E-01  0.6353E-01
    -12.198  0.5359E-02  0.5359E-02  0.6408E-01  0.6408E-01
    -12.095  0.6082E-02  0.6082E-02  0.6470E-01  0.6470E-01
    -11.992  0.1133E-01  0.1133E-01  0.6587E-01  0.6587E-01
    -11.889  0.1589E-01  0.1589E-01  0.6750E-01  0.6750E-01
    -11.787  0.1488E-01  0.1488E-01  0.6903E-01  0.6903E-01
    -11.684  0.1398E-01  0.1398E-01  0.7047E-01  0.7047E-01
    -11.581  0.1632E-01  0.1632E-01  0.7214E-01  0.7214E-01
    -11.478  0.1699E-01  0.1699E-01  0.7389E-01  0.7389E-01
    -11.376  0.1068E-01  0.1068E-01  0.7499E-01  0.7499E-01
    -11.273  0.9794E-02  0.9794E-02  0.7599E-01  0.7599E-01
    -11.170  0.9978E-02  0.9978E-02  0.7702E-01  0.7702E-01
    -11.067  0.1068E-01  0.1068E-01  0.7812E-01  0.7812E-01
    -10.965  0.7725E-02  0.7725E-02  0.7891E-01  0.7891E-01
    -10.862  0.7420E-02  0.7420E-02  0.7967E-01  0.7967E-01
    -10.759  0.1329E-01  0.1329E-01  0.8104E-01  0.8104E-01
    -10.656  0.1602E-01  0.1602E-01  0.8268E-01  0.8268E-01
    -10.554  0.1027E-01  0.1027E-01  0.8374E-01  0.8374E-01
    -10.451  0.6381E-02  0.6381E-02  0.8439E-01  0.8439E-01
    -10.348  0.1307E-01  0.1307E-01  0.8574E-01  0.8574E-01
    -10.245  0.1786E-01  0.1786E-01  0.8757E-01  0.8757E-01
    -10.143  0.1542E-01  0.1542E-01  0.8916E-01  0.8916E-01
    -10.040  0.9751E-02  0.9751E-02  0.9016E-01  0.9016E-01
     -9.937  0.9364E-02  0.9364E-02  0.9112E-01  0.9112E-01
     -9.834  0.1218E-01  0.1218E-01  0.9237E-01  0.9237E-01
     -9.732  0.1081E-01  0.1081E-01  0.9348E-01  0.9348E-01
     -9.629  0.6244E-02  0.6244E-02  0.9413E-01  0.9413E-01
     -9.526  0.1088E-01  0.1088E-01  0.9524E-01  0.9524E-01
     -9.423  0.1235E-01  0.1235E-01  0.9651E-01  0.9651E-01
     -9.321  0.1106E-01  0.1106E-01  0.9765E-01  0.9765E-01
     -9.218  0.8034E-02  0.8034E-02  0.9848E-01  0.9848E-01
     -9.115  0.2609E-02  0.2609E-02  0.9874E-01  0.9874E-01
     -9.012  0.2797E-02  0.2797E-02  0.9903E-01  0.9903E-01
     -8.910  0.1312E-01  0.1312E-01  0.1004E+00  0.1004E+00
     -8.807  0.2031E-01  0.2031E-01  0.1025E+00  0.1025E+00
     -8.704  0.1526E-01  0.1526E-01  0.1040E+00  0.1040E+00
     -8.601  0.1035E-01  0.1035E-01  0.1051E+00  0.1051E+00
     -8.499  0.7454E-02  0.7454E-02  0.1059E+00  0.1059E+00
     -8.396  0.9540E-02  0.9540E-02  0.1068E+00  0.1068E+00
     -8.293  0.1599E-01  0.1599E-01  0.1085E+00  0.1085E+00
     -8.190  0.2277E-01  0.2277E-01  0.1108E+00  0.1108E+00
     -8.088  0.2148E-01  0.2148E-01  0.1130E+00  0.1130E+00
     -7.985  0.1946E-01  0.1946E-01  0.1150E+00  0.1150E+00
     -7.882  0.1429E-01  0.1429E-01  0.1165E+00  0.1165E+00
     -7.779  0.1438E-01  0.1438E-01  0.1180E+00  0.1180E+00
     -7.677  0.2108E-01  0.2108E-01  0.1201E+00  0.1201E+00
     -7.574  0.2666E-01  0.2666E-01  0.1229E+00  0.1229E+00
     -7.471  0.2515E-01  0.2515E-01  0.1255E+00  0.1255E+00
     -7.368  0.2240E-01  0.2240E-01  0.1278E+00  0.1278E+00
     -7.266  0.2420E-01  0.2420E-01  0.1303E+00  0.1303E+00
     -7.163  0.2447E-01  0.2447E-01  0.1328E+00  0.1328E+00
     -7.060  0.2649E-01  0.2649E-01  0.1355E+00  0.1355E+00
     -6.957  0.2185E-01  0.2185E-01  0.1377E+00  0.1377E+00
     -6.855  0.1954E-01  0.1954E-01  0.1397E+00  0.1397E+00
     -6.752  0.2740E-01  0.2740E-01  0.1426E+00  0.1426E+00
     -6.649  0.2500E-01  0.2500E-01  0.1451E+00  0.1451E+00
     -6.546  0.1921E-01  0.1921E-01  0.1471E+00  0.1471E+00
     -6.444  0.2521E-01  0.2521E-01  0.1497E+00  0.1497E+00
     -6.341  0.2485E-01  0.2485E-01  0.1522E+00  0.1522E+00
     -6.238  0.2419E-01  0.2419E-01  0.1547E+00  0.1547E+00
     -6.135  0.1783E-01  0.1783E-01  0.1566E+00  0.1566E+00
     -6.033  0.1485E-01  0.1485E-01  0.1581E+00  0.1581E+00
     -5.930  0.2217E-01  0.2217E-01  0.1604E+00  0.1604E+00
     -5.827  0.2764E-01  0.2764E-01  0.1632E+00  0.1632E+00
     -5.724  0.2193E-01  0.2193E-01  0.1655E+00  0.1655E+00
     -5.622  0.1800E-01  0.1800E-01  0.1673E+00  0.1673E+00
     -5.519  0.2154E-01  0.2154E-01  0.1695E+00  0.1695E+00
     -5.416  0.2778E-01  0.2778E-01  0.1724E+00  0.1724E+00
     -5.313  0.2831E-01  0.2831E-01  0.1753E+00  0.1753E+00
     -5.211  0.1820E-01  0.1820E-01  0.1772E+00  0.1772E+00
     -5.108  0.1469E-01  0.1469E-01  0.1787E+00  0.1787E+00
     -5.005  0.1808E-01  0.1808E-01  0.1805E+00  0.1805E+00
     -4.902  0.1739E-01  0.1739E-01  0.1823E+00  0.1823E+00
     -4.800  0.1582E-01  0.1582E-01  0.1839E+00  0.1839E+00
     -4.697  0.1846E-01  0.1846E-01  0.1858E+00  0.1858E+00
     -4.594  0.1741E-01  0.1741E-01  0.1876E+00  0.1876E+00
     -4.491  0.1582E-01  0.1582E-01  0.1892E+00  0.1892E+00
     -4.389  0.1809E-01  0.1809E-01  0.1911E+00  0.1911E+00
     -4.286  0.2374E-01  0.2374E-01  0.1935E+00  0.1935E+00
     -4.183  0.3450E-01  0.3450E-01  0.1971E+00  0.1971E+00
     -4.080  0.4120E-01  0.4120E-01  0.2013E+00  0.2013E+00
     -3.978  0.3019E-01  0.3019E-01  0.2044E+00  0.2044E+00
     -3.875  0.2180E-01  0.2180E-01  0.2067E+00  0.2067E+00
     -3.772  0.1441E-01  0.1441E-01  0.2081E+00  0.2081E+00
     -3.669  0.1340E-01  0.1340E-01  0.2095E+00  0.2095E+00
     -3.567  0.1745E-01  0.1745E-01  0.2113E+00  0.2113E+00
     -3.464  0.2283E-01  0.2283E-01  0.2137E+00  0.2137E+00
     -3.361  0.1989E-01  0.1989E-01  0.2157E+00  0.2157E+00
     -3.258  0.1298E-01  0.1298E-01  0.2170E+00  0.2170E+00
     -3.156  0.1385E-01  0.1385E-01  0.2185E+00  0.2185E+00
     -3.053  0.2058E-01  0.2058E-01  0.2206E+00  0.2206E+00
     -2.950  0.2652E-01  0.2652E-01  0.2233E+00  0.2233E+00
     -2.847  0.1839E-01  0.1839E-01  0.2252E+00  0.2252E+00
     -2.745  0.1056E-01  0.1056E-01  0.2263E+00  0.2263E+00
     -2.642  0.1437E-01  0.1437E-01  0.2278E+00  0.2278E+00
     -2.539  0.2151E-01  0.2151E-01  0.2300E+00  0.2300E+00
     -2.436  0.1845E-01  0.1845E-01  0.2319E+00  0.2319E+00
     -2.334  0.2141E-01  0.2141E-01  0.2341E+00  0.2341E+00
     -2.231  0.2440E-01  0.2440E-01  0.2366E+00  0.2366E+00
     -2.128  0.1267E-01  0.1267E-01  0.2379E+00  0.2379E+00
     -2.025  0.4659E-02  0.4659E-02  0.2383E+00  0.2383E+00
     -1.923  0.7695E-02  0.7695E-02  0.2391E+00  0.2391E+00
     -1.820  0.6502E-02  0.6502E-02  0.2398E+00  0.2398E+00
     -1.717  0.4826E-02  0.4826E-02  0.2403E+00  0.2403E+00
     -1.614  0.7438E-02  0.7438E-02  0.2411E+00  0.2411E+00
     -1.512  0.5682E-02  0.5682E-02  0.2417E+00  0.2417E+00
     -1.409  0.3103E-02  0.3103E-02  0.2420E+00  0.2420E+00
     -1.306  0.9606E-03  0.9606E-03  0.2421E+00  0.2421E+00
     -1.203  0.1174E-03  0.1174E-03  0.2421E+00  0.2421E+00
     -1.101  0.4054E-03  0.4054E-03  0.2421E+00  0.2421E+00
     -0.998  0.1381E-02  0.1381E-02  0.2423E+00  0.2423E+00
     -0.895  0.2370E-02  0.2370E-02  0.2425E+00  0.2425E+00
     -0.792  0.3259E-02  0.3259E-02  0.2428E+00  0.2428E+00
     -0.690  0.4772E-02  0.4772E-02  0.2433E+00  0.2433E+00
     -0.587  0.9157E-02  0.9157E-02  0.2443E+00  0.2443E+00
     -0.484  0.1001E-01  0.1001E-01  0.2453E+00  0.2453E+00
     -0.381  0.9625E-02  0.9625E-02  0.2463E+00  0.2463E+00
     -0.279  0.9635E-02  0.9635E-02  0.2473E+00  0.2473E+00
     -0.176  0.1130E-01  0.1130E-01  0.2484E+00  0.2484E+00
     -0.073  0.9335E-02  0.9335E-02  0.2494E+00  0.2494E+00
      0.030  0.3290E-02  0.3290E-02  0.2497E+00  0.2497E+00
      0.132  0.6859E-02  0.6859E-02  0.2504E+00  0.2504E+00
      0.235  0.1042E-01  0.1042E-01  0.2515E+00  0.2515E+00
      0.338  0.6797E-02  0.6797E-02  0.2522E+00  0.2522E+00
      0.441  0.6457E-02  0.6457E-02  0.2529E+00  0.2529E+00
      0.543  0.8873E-02  0.8873E-02  0.2538E+00  0.2538E+00
      0.646  0.1095E-01  0.1095E-01  0.2549E+00  0.2549E+00
      0.749  0.9756E-02  0.9756E-02  0.2559E+00  0.2559E+00
      0.852  0.1099E-01  0.1099E-01  0.2570E+00  0.2570E+00
      0.954  0.6442E-02  0.6442E-02  0.2577E+00  0.2577E+00
      1.057  0.4873E-02  0.4873E-02  0.2582E+00  0.2582E+00
      1.160  0.5720E-02  0.5720E-02  0.2588E+00  0.2588E+00
      1.263  0.4695E-02  0.4695E-02  0.2593E+00  0.2593E+00
      1.365  0.4194E-02  0.4194E-02  0.2597E+00  0.2597E+00
      1.468  0.5497E-02  0.5497E-02  0.2603E+00  0.2603E+00
      1.571  0.1204E-01  0.1204E-01  0.2615E+00  0.2615E+00
      1.674  0.7857E-02  0.7857E-02  0.2623E+00  0.2623E+00
      1.776  0.2508E-02  0.2508E-02  0.2626E+00  0.2626E+00
      1.879  0.4848E-02  0.4848E-02  0.2631E+00  0.2631E+00
      1.982  0.5350E-02  0.5350E-02  0.2636E+00  0.2636E+00
      2.085  0.8219E-02  0.8219E-02  0.2645E+00  0.2645E+00
      2.187  0.1522E-01  0.1522E-01  0.2660E+00  0.2660E+00
      2.290  0.1382E-01  0.1382E-01  0.2675E+00  0.2675E+00
      2.393  0.1290E-01  0.1290E-01  0.2688E+00  0.2688E+00
      2.496  0.1329E-01  0.1329E-01  0.2701E+00  0.2701E+00
      2.598  0.9509E-02  0.9509E-02  0.2711E+00  0.2711E+00
      2.701  0.7918E-02  0.7918E-02  0.2719E+00  0.2719E+00
      2.804  0.9095E-02  0.9095E-02  0.2729E+00  0.2729E+00
      2.907  0.1006E-01  0.1006E-01  0.2739E+00  0.2739E+00
      3.009  0.1461E-01  0.1461E-01  0.2754E+00  0.2754E+00
      3.112  0.1581E-01  0.1581E-01  0.2770E+00  0.2770E+00
      3.215  0.1134E-01  0.1134E-01  0.2782E+00  0.2782E+00
      3.318  0.8005E-02  0.8004E-02  0.2790E+00  0.2790E+00
      3.420  0.8563E-02  0.8563E-02  0.2799E+00  0.2799E+00
      3.523  0.1414E-01  0.1414E-01  0.2814E+00  0.2814E+00
      3.626  0.1036E-01  0.1036E-01  0.2824E+00  0.2824E+00
      3.729  0.8539E-02  0.8539E-02  0.2833E+00  0.2833E+00
      3.831  0.1466E-01  0.1466E-01  0.2848E+00  0.2848E+00
      3.934  0.1954E-01  0.1954E-01  0.2868E+00  0.2868E+00
      4.037  0.1815E-01  0.1815E-01  0.2887E+00  0.2887E+00
      4.140  0.1192E-01  0.1192E-01  0.2899E+00  0.2899E+00
      4.242  0.1217E-01  0.1217E-01  0.2911E+00  0.2911E+00
      4.345  0.1498E-01  0.1498E-01  0.2927E+00  0.2927E+00
      4.448  0.1564E-01  0.1564E-01  0.2943E+00  0.2943E+00
      4.551  0.1702E-01  0.1702E-01  0.2960E+00  0.2960E+00
      4.653  0.1229E-01  0.1229E-01  0.2973E+00  0.2973E+00
      4.756  0.1668E-01  0.1668E-01  0.2990E+00  0.2990E+00
      4.859  0.1910E-01  0.1910E-01  0.3010E+00  0.3010E+00
      4.962  0.1905E-01  0.1905E-01  0.3029E+00  0.3029E+00
      5.064  0.1784E-01  0.1784E-01  0.3048E+00  0.3048E+00
      5.167  0.1512E-01  0.1512E-01  0.3063E+00  0.3063E+00
      5.270  0.1367E-01  0.1368E-01  0.3077E+00  0.3077E+00
      5.373  0.1852E-01  0.1852E-01  0.3096E+00  0.3096E+00
      5.475  0.2169E-01  0.2169E-01  0.3119E+00  0.3119E+00
      5.578  0.1885E-01  0.1885E-01  0.3138E+00  0.3138E+00
      5.681  0.2221E-01  0.2221E-01  0.3161E+00  0.3161E+00
      5.784  0.2817E-01  0.2817E-01  0.3190E+00  0.3190E+00
      5.886  0.2286E-01  0.2286E-01  0.3213E+00  0.3213E+00
      5.989  0.2092E-01  0.2092E-01  0.3235E+00  0.3235E+00
      6.092  0.2685E-01  0.2685E-01  0.3262E+00  0.3262E+00
      6.195  0.2854E-01  0.2854E-01  0.3292E+00  0.3292E+00
      6.297  0.2997E-01  0.2997E-01  0.3322E+00  0.3322E+00
      6.400  0.2263E-01  0.2263E-01  0.3346E+00  0.3346E+00
      6.503  0.1739E-01  0.1739E-01  0.3364E+00  0.3364E+00
      6.606  0.2760E-01  0.2760E-01  0.3392E+00  0.3392E+00
      6.708  0.3338E-01  0.3338E-01  0.3426E+00  0.3426E+00
      6.811  0.3153E-01  0.3153E-01  0.3459E+00  0.3459E+00
      6.914  0.3297E-01  0.3297E-01  0.3493E+00  0.3493E+00
      7.017  0.3246E-01  0.3246E-01  0.3526E+00  0.3526E+00
      7.119  0.3443E-01  0.3443E-01  0.3561E+00  0.3561E+00
      7.222  0.3489E-01  0.3489E-01  0.3597E+00  0.3597E+00
      7.325  0.2993E-01  0.2993E-01  0.3628E+00  0.3628E+00
      7.428  0.2291E-01  0.2291E-01  0.3651E+00  0.3651E+00
      7.530  0.1938E-01  0.1938E-01  0.3671E+00  0.3671E+00
      7.633  0.2567E-01  0.2567E-01  0.3698E+00  0.3698E+00
      7.736  0.2157E-01  0.2156E-01  0.3720E+00  0.3720E+00
      7.839  0.1314E-01  0.1314E-01  0.3733E+00  0.3733E+00
      7.941  0.8644E-02  0.8644E-02  0.3742E+00  0.3742E+00
      8.044  0.3858E-02  0.3858E-02  0.3746E+00  0.3746E+00
      8.147  0.1477E-02  0.1477E-02  0.3748E+00  0.3748E+00
      8.250  0.1682E-02  0.1682E-02  0.3749E+00  0.3749E+00
      8.352  0.5351E-03  0.5350E-03  0.3750E+00  0.3750E+00
      8.455  0.2739E-04  0.2738E-04  0.3750E+00  0.3750E+00
      8.558  0.2020E-06  0.2020E-06  0.3750E+00  0.3750E+00
      8.661  0.2002E-09  0.2001E-09  0.3750E+00  0.3750E+00
      8.763  0.2559E-13  0.2558E-13  0.3750E+00  0.3750E+00
      8.866  0.3517E-18  0.3517E-18  0.3750E+00  0.3750E+00
      8.969  0.0000E+00  0.0000E+00  0.3750E+00  0.3750E+00
      9.072  0.0000E+00  0.0000E+00  0.3750E+00  0.3750E+00
      9.174  0.0000E+00  0.0000E+00  0.3750E+00  0.3750E+00
      9.277  0.0000E+00  0.0000E+00  0.3750E+00  0.3750E+00
      9.380  0.0000E+00  0.0000E+00  0.3750E+00  0.3750E+00
      9.483  0.0000E+00  0.0000E+00  0.3750E+00  0.3750E+00
      9.585  0.0000E+00  0.0000E+00  0.3750E+00  0.3750E+00
