Lattice                                 
           1
     4.395079    2.537500    0.000000
    -4.395079    2.537500    0.000000
     0.000000    0.000000   15.000000
   B    C 
     2    14
Direct configuration=     1
   0.33833034  0.66916432  0.10000000
   0.67165522  0.33584146  0.10000000
   0.16373946  0.31999962  0.10000000
   0.32250218  0.16126397  0.10000000
   0.16376430  0.84376384  0.10000000
   0.84623863  0.16123684  0.10000000
   0.68749850  0.84373000  0.10000000
   0.84626736  0.68499594  0.10000000
   0.16666600  0.33333300  0.32880000
   0.33333300  0.16666600  0.32880000
   0.16666600  0.83333300  0.32880000
   0.33333300  0.66666600  0.32880000
   0.66666600  0.33333300  0.32880000
   0.83333300  0.16666600  0.32880000
   0.66666600  0.83333300  0.32880000
   0.83333300  0.66666600  0.32880000
Direct configuration=     2
   0.33832750  0.66916251  0.10014712
   0.67167438  0.33581335  0.10014712
   0.16611934  0.32476672  0.09994170
   0.32726302  0.16364061  0.09994136
   0.16614893  0.84137006  0.09994171
   0.84384743  0.16361941  0.09994200
   0.68275646  0.84137803  0.09994217
   0.84387120  0.68025132  0.09994199
   0.16635881  0.33271530  0.32887593
   0.33271448  0.16635776  0.32887653
   0.16635885  0.83364153  0.32887593
   0.33332709  0.66666408  0.32860174
   0.66666155  0.33332982  0.32860175
   0.83364093  0.16635992  0.32887456
   0.66728114  0.83363960  0.32887381
   0.83364090  0.66728198  0.32887458
Direct configuration=     3
   0.33832953  0.66916380  0.10004217
   0.67166071  0.33583340  0.10004217
   0.16442167  0.32136615  0.09998329
   0.32386691  0.16194525  0.09998319
   0.16444787  0.84307764  0.09998329
   0.84555318  0.16191982  0.09998338
   0.68613916  0.84305579  0.09998342
   0.84558048  0.68363586  0.09998337
   0.16657794  0.33315593  0.32882177
   0.33315570  0.16657764  0.32882194
   0.16657795  0.83342144  0.32882176
   0.33333131  0.66666545  0.32874317
   0.66666472  0.33333209  0.32874317
   0.83342127  0.16657826  0.32882137
   0.66684234  0.83342089  0.32882116
   0.83342126  0.66684257  0.32882138
Direct configuration=     4
   0.33833468  0.66916457  0.10014204
   0.67166386  0.33583024  0.10014203
   0.16441254  0.32134614  0.09994278
   0.32384967  0.16193053  0.09994244
   0.16443014  0.84308398  0.09994278
   0.84557467  0.16191884  0.09994317
   0.68615384  0.84307300  0.09994332
   0.84559061  0.68365561  0.09994317
   0.16653857  0.33307922  0.32887127
   0.33307829  0.16653884  0.32887187
   0.16653856  0.83345902  0.32887127
   0.33332987  0.66666463  0.32861742
   0.66666319  0.33333141  0.32861742
   0.83345818  0.16653954  0.32886992
   0.66691715  0.83345840  0.32886917
   0.83345819  0.66691805  0.32886992
Direct configuration=     5
   0.33833595  0.66916475  0.10016655
   0.67166463  0.33582946  0.10016653
   0.16441029  0.32134123  0.09993284
   0.32384544  0.16192691  0.09993245
   0.16442579  0.84308554  0.09993285
   0.84557995  0.16191860  0.09993331
   0.68615744  0.84307722  0.09993348
   0.84559310  0.68366045  0.09993331
   0.16652891  0.33306040  0.32888341
   0.33305929  0.16652932  0.32888411
   0.16652889  0.83346823  0.32888341
   0.33332952  0.66666443  0.32858657
   0.66666281  0.33333125  0.32858657
   0.83346723  0.16653005  0.32888183
   0.66693550  0.83346760  0.32888095
   0.83346725  0.66693656  0.32888183
Direct configuration=     6
   0.33832153  0.66916551  0.10022110
   0.67166873  0.33583634  0.10022107
   0.16444915  0.32136041  0.09990727
   0.32385185  0.16193491  0.09990663
   0.16444658  0.84307656  0.09990728
   0.84555786  0.16191613  0.09990813
   0.68617093  0.84307133  0.09990841
   0.84555876  0.68364928  0.09990810
   0.16661072  0.33322616  0.32889905
   0.33322428  0.16661214  0.32890005
   0.16661073  0.83338368  0.32889905
   0.33332821  0.66666411  0.32856226
   0.66666182  0.33333048  0.32856227
   0.83338185  0.16661272  0.32889685
   0.66676718  0.83338315  0.32889564
   0.83338183  0.66676910  0.32889684
Direct configuration=     7
   0.33832916  0.66916511  0.10019222
   0.67166656  0.33583270  0.10019219
   0.16442858  0.32135025  0.09992081
   0.32384846  0.16193068  0.09992030
   0.16443557  0.84308131  0.09992081
   0.84556955  0.16191744  0.09992146
   0.68616379  0.84307445  0.09992168
   0.84557694  0.68365519  0.09992145
   0.16656741  0.33313840  0.32889077
   0.33313694  0.16656830  0.32889161
   0.16656741  0.83342844  0.32889077
   0.33332890  0.66666428  0.32857513
   0.66666234  0.33333089  0.32857513
   0.83342705  0.16656895  0.32888890
   0.66685629  0.83342786  0.32888786
   0.83342705  0.66685775  0.32888890
Direct configuration=     8
   0.33834290  0.66916830  0.10021409
   0.67165878  0.33583328  0.10021404
   0.16440853  0.32134652  0.09990697
   0.32386190  0.16192463  0.09990636
   0.16441446  0.84307772  0.09990696
   0.84559574  0.16192843  0.09990787
   0.68614500  0.84307764  0.09990838
   0.84560253  0.68365605  0.09990798
   0.16656513  0.33313618  0.32889415
   0.33313398  0.16656671  0.32889517
   0.16656516  0.83342869  0.32889415
   0.33332745  0.66666347  0.32858466
   0.66666079  0.33333024  0.32858467
   0.83342658  0.16656738  0.32889193
   0.66685649  0.83342813  0.32889072
   0.83342658  0.66685863  0.32889193
Direct configuration=     9
   0.33834099  0.66916786  0.10021105
   0.67165986  0.33583320  0.10021101
   0.16441131  0.32134704  0.09990889
   0.32386003  0.16192547  0.09990829
   0.16441740  0.84307822  0.09990888
   0.84559210  0.16192691  0.09990975
   0.68614761  0.84307720  0.09991022
   0.84559897  0.68365593  0.09990985
   0.16656545  0.33313649  0.32889368
   0.33313439  0.16656693  0.32889467
   0.16656547  0.83342866  0.32889368
   0.33332766  0.66666358  0.32858334
   0.66666101  0.33333033  0.32858334
   0.83342664  0.16656760  0.32889151
   0.66685647  0.83342810  0.32889032
   0.83342664  0.66685851  0.32889151
Direct configuration=    10
   0.33833774  0.66916792  0.10022135
   0.67166485  0.33583353  0.10022130
   0.16442199  0.32134761  0.09990117
   0.32385433  0.16192535  0.09990046
   0.16442481  0.84307961  0.09990115
   0.84558649  0.16192591  0.09990221
   0.68615594  0.84307890  0.09990281
   0.84558970  0.68365669  0.09990236
   0.16656004  0.33312711  0.32889568
   0.33312454  0.16656201  0.32889677
   0.16656006  0.83343265  0.32889568
   0.33332670  0.66666311  0.32859017
   0.66666004  0.33332986  0.32859017
   0.83343017  0.16656268  0.32889332
   0.66686443  0.83343209  0.32889205
   0.83343017  0.66686697  0.32889333
Direct configuration=    11
   0.33833527  0.66916796  0.10022915
   0.67166863  0.33583378  0.10022910
   0.16443007  0.32134804  0.09989533
   0.32385002  0.16192526  0.09989454
   0.16443042  0.84308066  0.09989530
   0.84558225  0.16192515  0.09989650
   0.68616224  0.84308019  0.09989720
   0.84558269  0.68365727  0.09989669
   0.16655595  0.33312001  0.32889720
   0.33311709  0.16655829  0.32889836
   0.16655596  0.83343568  0.32889720
   0.33332599  0.66666276  0.32859534
   0.66665930  0.33332951  0.32859534
   0.83343284  0.16655896  0.32889470
   0.66687046  0.83343511  0.32889336
   0.83343283  0.66687337  0.32889470
Direct configuration=    12
   0.33833508  0.66916753  0.10022833
   0.67166866  0.33583371  0.10022828
   0.16443058  0.32134986  0.09989299
   0.32385283  0.16192658  0.09989214
   0.16443040  0.84307916  0.09989298
   0.84558238  0.16192472  0.09989430
   0.68616389  0.84308113  0.09989505
   0.84558219  0.68365780  0.09989448
   0.16655635  0.33312151  0.32889879
   0.33311829  0.16655897  0.32889997
   0.16655635  0.83343446  0.32889879
   0.33332544  0.66666255  0.32859825
   0.66665883  0.33332922  0.32859826
   0.83343132  0.16655963  0.32889625
   0.66686812  0.83343387  0.32889490
   0.83343131  0.66687132  0.32889626
Direct configuration=    13
   0.33833449  0.66916623  0.10022586
   0.67166877  0.33583351  0.10022582
   0.16443210  0.32135533  0.09988598
   0.32386127  0.16193055  0.09988495
   0.16443032  0.84307465  0.09988600
   0.84558276  0.16192342  0.09988770
   0.68616885  0.84308396  0.09988861
   0.84558071  0.68365938  0.09988784
   0.16655755  0.33312599  0.32890355
   0.33312189  0.16656099  0.32890478
   0.16655749  0.83343079  0.32890355
   0.33332379  0.66666190  0.32860699
   0.66665740  0.33332834  0.32860700
   0.83342676  0.16656164  0.32890092
   0.66686110  0.83343014  0.32889952
   0.83342675  0.66686519  0.32890092
Direct configuration=    14
   0.33833332  0.66916363  0.10022092
   0.67166900  0.33583309  0.10022091
   0.16443513  0.32136627  0.09987195
   0.32387816  0.16193848  0.09987057
   0.16443017  0.84306562  0.09987205
   0.84558352  0.16192083  0.09987449
   0.68617878  0.84308961  0.09987574
   0.84557774  0.68366255  0.09987456
   0.16655994  0.33313496  0.32891308
   0.33312910  0.16656504  0.32891441
   0.16655977  0.83342345  0.32891308
   0.33332049  0.66666062  0.32862448
   0.66665455  0.33332658  0.32862448
   0.83341764  0.16656566  0.32891026
   0.66684705  0.83342268  0.32890876
   0.83341763  0.66685292  0.32891026
Direct configuration=    15
   0.33833369  0.66916446  0.10022250
   0.67166893  0.33583322  0.10022247
   0.16443416  0.32136278  0.09987643
   0.32387278  0.16193595  0.09987516
   0.16443022  0.84306850  0.09987650
   0.84558328  0.16192166  0.09987870
   0.68617562  0.84308781  0.09987984
   0.84557869  0.68366154  0.09987880
   0.16655918  0.33313210  0.32891004
   0.33312680  0.16656375  0.32891134
   0.16655904  0.83342579  0.32891004
   0.33332154  0.66666103  0.32861890
   0.66665546  0.33332714  0.32861890
   0.83342055  0.16656438  0.32890728
   0.66685153  0.83342506  0.32890581
   0.83342054  0.66685684  0.32890728
Direct configuration=    16
   0.33833447  0.66916489  0.10022158
   0.67166952  0.33583356  0.10022156
   0.16443453  0.32136224  0.09987524
   0.32387219  0.16193548  0.09987394
   0.16443050  0.84306935  0.09987533
   0.84558420  0.16192250  0.09987759
   0.68617508  0.84308775  0.09987876
   0.84557951  0.68366144  0.09987768
   0.16655876  0.33313183  0.32891103
   0.33312637  0.16656350  0.32891234
   0.16655863  0.83342572  0.32891104
   0.33332121  0.66666084  0.32862029
   0.66665510  0.33332699  0.32862029
   0.83342031  0.16656413  0.32890827
   0.66685132  0.83342499  0.32890679
   0.83342030  0.66685679  0.32890826
Direct configuration=    17
   0.33833679  0.66916617  0.10021882
   0.67167129  0.33583458  0.10021880
   0.16443564  0.32136065  0.09987168
   0.32387042  0.16193406  0.09987029
   0.16443136  0.84307191  0.09987179
   0.84558697  0.16192501  0.09987426
   0.68617346  0.84308758  0.09987552
   0.84558199  0.68366114  0.09987433
   0.16655752  0.33313100  0.32891402
   0.33312505  0.16656276  0.32891535
   0.16655740  0.83342549  0.32891403
   0.33332024  0.66666027  0.32862447
   0.66665402  0.33332655  0.32862447
   0.83341959  0.16656340  0.32891122
   0.66685068  0.83342477  0.32890972
   0.83341959  0.66685664  0.32891122
Direct configuration=    18
   0.33834142  0.66916873  0.10021330
   0.67167483  0.33583661  0.10021329
   0.16443787  0.32135746  0.09986457
   0.32386689  0.16193123  0.09986297
   0.16443308  0.84307703  0.09986471
   0.84559251  0.16193004  0.09986760
   0.68617022  0.84308724  0.09986904
   0.84558693  0.68366055  0.09986764
   0.16655502  0.33312936  0.32892000
   0.33312242  0.16656127  0.32892137
   0.16655493  0.83342504  0.32892001
   0.33331829  0.66665915  0.32863283
   0.66665185  0.33332565  0.32863283
   0.83341816  0.16656192  0.32891713
   0.66684941  0.83342435  0.32891559
   0.83341816  0.66685635  0.32891712
Direct configuration=    19
   0.33835070  0.66917386  0.10020227
   0.67168192  0.33584069  0.10020228
   0.16444231  0.32135109  0.09985034
   0.32385982  0.16192556  0.09984834
   0.16443652  0.84308728  0.09985056
   0.84560359  0.16194010  0.09985427
   0.68616373  0.84308657  0.09985607
   0.84559682  0.68365936  0.09985424
   0.16655004  0.33312607  0.32893196
   0.33311716  0.16655830  0.32893340
   0.16655001  0.83342415  0.32893197
   0.33331440  0.66665689  0.32864955
   0.66664753  0.33332386  0.32864955
   0.83341529  0.16655898  0.32892894
   0.66684685  0.83342349  0.32892733
   0.83341530  0.66685576  0.32892893
Direct configuration=    20
   0.33836925  0.66918412  0.10018020
   0.67169609  0.33584883  0.10018024
   0.16445119  0.32133834  0.09982188
   0.32384569  0.16191422  0.09981908
   0.16444340  0.84310776  0.09982227
   0.84562575  0.16196022  0.09982762
   0.68615077  0.84308521  0.09983014
   0.84561661  0.68365699  0.09982746
   0.16654007  0.33311950  0.32895587
   0.33310664  0.16655236  0.32895746
   0.16654016  0.83342235  0.32895589
   0.33330662  0.66665238  0.32868298
   0.66663888  0.33332027  0.32868298
   0.83340956  0.16655308  0.32895257
   0.66684175  0.83342179  0.32895080
   0.83340958  0.66685459  0.32895255
Direct configuration=    21
   0.33836985  0.66918458  0.10017789
   0.67169693  0.33584920  0.10017793
   0.16445228  0.32133853  0.09981934
   0.32384613  0.16191439  0.09981648
   0.16444419  0.84310812  0.09981974
   0.84562639  0.16196051  0.09982525
   0.68615182  0.84308572  0.09982783
   0.84561703  0.68365752  0.09982507
   0.16653910  0.33311869  0.32895818
   0.33310547  0.16655177  0.32895977
   0.16653920  0.83342221  0.32895819
   0.33330588  0.66665201  0.32868577
   0.66663813  0.33331991  0.32868577
   0.83340906  0.16655249  0.32895486
   0.66684147  0.83342166  0.32895308
   0.83340908  0.66685468  0.32895484
Direct configuration=    22
   0.33837166  0.66918598  0.10017094
   0.67169945  0.33585030  0.10017098
   0.16445555  0.32133911  0.09981174
   0.32384745  0.16191491  0.09980867
   0.16444657  0.84310920  0.09981218
   0.84562833  0.16196140  0.09981813
   0.68615496  0.84308723  0.09982091
   0.84561830  0.68365914  0.09981792
   0.16653619  0.33311626  0.32896510
   0.33310194  0.16655000  0.32896672
   0.16653631  0.83342181  0.32896511
   0.33330365  0.66665090  0.32869414
   0.66663589  0.33331882  0.32869414
   0.83340755  0.16655071  0.32896172
   0.66684062  0.83342129  0.32895991
   0.83340758  0.66685494  0.32896170
Direct configuration=    23
   0.33837528  0.66918878  0.10015703
   0.67170450  0.33585251  0.10015710
   0.16446209  0.32134025  0.09979654
   0.32385009  0.16191596  0.09979304
   0.16445131  0.84311134  0.09979705
   0.84563220  0.16196317  0.09980389
   0.68616125  0.84309026  0.09980706
   0.84562083  0.68366236  0.09980362
   0.16653038  0.33311141  0.32897893
   0.33309487  0.16654645  0.32898060
   0.16653053  0.83342101  0.32897895
   0.33329921  0.66664868  0.32871087
   0.66663141  0.33331665  0.32871087
   0.83340455  0.16654716  0.32897544
   0.66683892  0.83342054  0.32897358
   0.83340457  0.66685545  0.32897543
Direct configuration=    24
   0.33838251  0.66919438  0.10012923
   0.67171459  0.33585693  0.10012932
   0.16447518  0.32134254  0.09976613
   0.32385537  0.16191805  0.09976178
   0.16446081  0.84311564  0.09976680
   0.84563995  0.16196672  0.09977541
   0.68617382  0.84309632  0.09977936
   0.84562590  0.68366880  0.09977501
   0.16651875  0.33310171  0.32900660
   0.33308075  0.16653936  0.32900838
   0.16651899  0.83341941  0.32900662
   0.33329032  0.66664425  0.32874434
   0.66662245  0.33331231  0.32874434
   0.83339853  0.16654005  0.32900289
   0.66683552  0.83341903  0.32900092
   0.83339857  0.66685649  0.32900287
Direct configuration=    25
   0.33839697  0.66920558  0.10007362
   0.67173476  0.33586577  0.10007376
   0.16450134  0.32134712  0.09970533
   0.32386593  0.16192222  0.09969926
   0.16447979  0.84312423  0.09970629
   0.84565545  0.16197381  0.09971845
   0.68619896  0.84310844  0.09972397
   0.84563604  0.68368169  0.09971781
   0.16649550  0.33308230  0.32906193
   0.33305251  0.16652517  0.32906393
   0.16649589  0.83341621  0.32906196
   0.33327255  0.66663539  0.32881128
   0.66660453  0.33330363  0.32881128
   0.83338650  0.16652584  0.32905780
   0.66682873  0.83341603  0.32905560
   0.83338655  0.66685856  0.32905777
Direct configuration=    26
   0.33839397  0.66920105  0.10005797
   0.67173064  0.33586403  0.10005811
   0.16449944  0.32136553  0.09969321
   0.32389604  0.16193651  0.09968682
   0.16447766  0.84310806  0.09969416
   0.84565397  0.16196500  0.09970700
   0.68621522  0.84311661  0.09971287
   0.84563406  0.68368771  0.09970638
   0.16649546  0.33308667  0.32907568
   0.33305476  0.16652711  0.32907766
   0.16649570  0.83341031  0.32907571
   0.33326846  0.66663407  0.32882089
   0.66660135  0.33330137  0.32882089
   0.83337846  0.16652773  0.32907162
   0.66681830  0.83341000  0.32906945
   0.83337851  0.66685024  0.32907159
Direct configuration=    27
   0.33839087  0.66919636  0.10004178
   0.67172638  0.33586222  0.10004192
   0.16449747  0.32138458  0.09968068
   0.32392717  0.16195128  0.09967396
   0.16447546  0.84309133  0.09968163
   0.84565245  0.16195589  0.09969517
   0.68623203  0.84312506  0.09970139
   0.84563200  0.68369394  0.09969456
   0.16649542  0.33309119  0.32908991
   0.33305709  0.16652911  0.32909185
   0.16649551  0.83340421  0.32908994
   0.33326424  0.66663271  0.32883082
   0.66659806  0.33329903  0.32883083
   0.83337016  0.16652968  0.32908591
   0.66680750  0.83340376  0.32908378
   0.83337020  0.66684163  0.32908588
Direct configuration=    28
   0.33839032  0.66919552  0.10003889
   0.67172562  0.33586190  0.10003903
   0.16449711  0.32138798  0.09967844
   0.32393273  0.16195392  0.09967166
   0.16447507  0.84308834  0.09967939
   0.84565218  0.16195427  0.09969306
   0.68623503  0.84312657  0.09969934
   0.84563164  0.68369505  0.09969245
   0.16649541  0.33309199  0.32909245
   0.33305750  0.16652947  0.32909438
   0.16649547  0.83340312  0.32909248
   0.33326348  0.66663247  0.32883260
   0.66659747  0.33329861  0.32883260
   0.83336867  0.16653003  0.32908846
   0.66680557  0.83340265  0.32908634
   0.83336871  0.66684010  0.32908844
Direct configuration=    29
   0.33838921  0.66919385  0.10003311
   0.67172410  0.33586125  0.10003324
   0.16449641  0.32139479  0.09967396
   0.32394386  0.16195921  0.09966706
   0.16447428  0.84308236  0.09967491
   0.84565163  0.16195101  0.09968883
   0.68624104  0.84312959  0.09969523
   0.84563090  0.68369727  0.09968823
   0.16649540  0.33309361  0.32909754
   0.33305833  0.16653019  0.32909945
   0.16649540  0.83340094  0.32909756
   0.33326198  0.66663198  0.32883615
   0.66659629  0.33329778  0.32883615
   0.83336570  0.16653073  0.32909357
   0.66680171  0.83340042  0.32909146
   0.83336574  0.66683702  0.32909355
Direct configuration=    30
   0.33839374  0.66919449  0.10001731
   0.67172926  0.33586354  0.10001742
   0.16450095  0.32139677  0.09966571
   0.32394413  0.16196169  0.09965861
   0.16448141  0.84308752  0.09966656
   0.84565412  0.16195634  0.09968090
   0.68623928  0.84312742  0.09968757
   0.84563448  0.68369433  0.09968039
   0.16649532  0.33309828  0.32910987
   0.33306129  0.16653168  0.32911168
   0.16649523  0.83339628  0.32910989
   0.33325887  0.66663038  0.32883887
   0.66659308  0.33329624  0.32883887
   0.83335933  0.16653225  0.32910612
   0.66679214  0.83339564  0.32910413
   0.83335936  0.66682915  0.32910611
Direct configuration=    31
   0.33840062  0.66919546  0.09999326
   0.67173713  0.33586702  0.09999334
   0.16450786  0.32139979  0.09965314
   0.32394454  0.16196548  0.09964575
   0.16449226  0.84309538  0.09965385
   0.84565791  0.16196444  0.09966882
   0.68623660  0.84312411  0.09967590
   0.84563994  0.68368985  0.09966845
   0.16649520  0.33310538  0.32912865
   0.33306580  0.16653395  0.32913028
   0.16649497  0.83338919  0.32912867
   0.33325413  0.66662795  0.32884300
   0.66658820  0.33329390  0.32884301
   0.83334963  0.16653457  0.32912523
   0.66677757  0.83338835  0.32912342
   0.83334965  0.66681717  0.32912523
Direct configuration=    32
   0.33840300  0.66919580  0.09998494
   0.67173985  0.33586823  0.09998502
   0.16451025  0.32140083  0.09964879
   0.32394468  0.16196679  0.09964131
   0.16449601  0.84309809  0.09964946
   0.84565922  0.16196725  0.09966465
   0.68623567  0.84312297  0.09967186
   0.84564182  0.68368830  0.09966432
   0.16649516  0.33310784  0.32913515
   0.33306735  0.16653473  0.32913671
   0.16649488  0.83338674  0.32913516
   0.33325250  0.66662711  0.32884444
   0.66658651  0.33329309  0.32884444
   0.83334627  0.16653537  0.32913184
   0.66677253  0.83338583  0.32913009
   0.83334629  0.66681303  0.32913184
Direct configuration=    33
   0.33840776  0.66919647  0.09996831
   0.67174528  0.33587063  0.09996836
   0.16451503  0.32140292  0.09964010
   0.32394496  0.16196940  0.09963241
   0.16450352  0.84310353  0.09964068
   0.84566184  0.16197285  0.09965630
   0.68623382  0.84312069  0.09966379
   0.84564559  0.68368520  0.09965607
   0.16649508  0.33311275  0.32914813
   0.33307047  0.16653630  0.32914958
   0.16649470  0.83338183  0.32914814
   0.33324922  0.66662542  0.32884730
   0.66658313  0.33329148  0.32884730
   0.83333957  0.16653697  0.32914506
   0.66676246  0.83338079  0.32914343
   0.83333957  0.66680475  0.32914506
Direct configuration=    34
   0.33840555  0.66919616  0.09997605
   0.67174275  0.33586951  0.09997612
   0.16451281  0.32140195  0.09964414
   0.32394483  0.16196819  0.09963655
   0.16450002  0.84310100  0.09964477
   0.84566062  0.16197024  0.09966019
   0.68623468  0.84312175  0.09966755
   0.84564384  0.68368664  0.09965991
   0.16649512  0.33311047  0.32914208
   0.33306902  0.16653557  0.32914359
   0.16649478  0.83338412  0.32914210
   0.33325075  0.66662621  0.32884596
   0.66658470  0.33329223  0.32884597
   0.83334269  0.16653622  0.32913890
   0.66676715  0.83338314  0.32913722
   0.83334270  0.66680860  0.32913890
Direct configuration=    35
   0.33841362  0.66920519  0.09996630
   0.67174757  0.33587216  0.09996636
   0.16451208  0.32138485  0.09964038
   0.32392562  0.16195875  0.09963277
   0.16450369  0.84311697  0.09964088
   0.84566658  0.16197046  0.09965626
   0.68623650  0.84312175  0.09966372
   0.84565736  0.68369417  0.09965608
   0.16648387  0.33309317  0.32914836
   0.33305080  0.16652562  0.32914973
   0.16648383  0.83339186  0.32914836
   0.33324842  0.66662439  0.32884802
   0.66658152  0.33329135  0.32884803
   0.83334956  0.16652627  0.32914543
   0.66678141  0.83339126  0.32914387
   0.83334957  0.66682377  0.32914543
Direct configuration=    36
   0.33841512  0.66920688  0.09996449
   0.67174846  0.33587265  0.09996454
   0.16451195  0.32138166  0.09963968
   0.32392205  0.16195700  0.09963207
   0.16450437  0.84311994  0.09964016
   0.84566769  0.16197050  0.09965553
   0.68623683  0.84312175  0.09966301
   0.84565988  0.68369557  0.09965537
   0.16648178  0.33308995  0.32914953
   0.33304741  0.16652377  0.32915087
   0.16648179  0.83339330  0.32914953
   0.33324799  0.66662406  0.32884840
   0.66658092  0.33329119  0.32884841
   0.83335084  0.16652441  0.32914665
   0.66678406  0.83339277  0.32914511
   0.83335084  0.66682659  0.32914665
Direct configuration=    37
   0.33841464  0.66920633  0.09996507
   0.67174818  0.33587249  0.09996513
   0.16451199  0.32138269  0.09963991
   0.32392320  0.16195756  0.09963230
   0.16450415  0.84311898  0.09964039
   0.84566734  0.16197049  0.09965576
   0.68623673  0.84312175  0.09966324
   0.84565907  0.68369512  0.09965560
   0.16648245  0.33309099  0.32914915
   0.33304850  0.16652437  0.32915051
   0.16648245  0.83339284  0.32914916
   0.33324813  0.66662416  0.32884828
   0.66658111  0.33329124  0.32884829
   0.83335043  0.16652501  0.32914625
   0.66678321  0.83339229  0.32914471
   0.83335043  0.66682568  0.32914626
Direct configuration=    38
   0.33841431  0.66920597  0.09996547
   0.67174798  0.33587238  0.09996552
   0.16451202  0.32138338  0.09964006
   0.32392398  0.16195795  0.09963245
   0.16450400  0.84311833  0.09964055
   0.84566709  0.16197048  0.09965592
   0.68623665  0.84312175  0.09966339
   0.84565852  0.68369481  0.09965576
   0.16648291  0.33309169  0.32914890
   0.33304924  0.16652477  0.32915026
   0.16648289  0.83339253  0.32914890
   0.33324822  0.66662424  0.32884820
   0.66658124  0.33329128  0.32884820
   0.83335015  0.16652541  0.32914599
   0.66678263  0.83339196  0.32914444
   0.83335016  0.66682507  0.32914599
Direct configuration=    39
   0.33841358  0.66920644  0.09996329
   0.67174590  0.33587204  0.09996333
   0.16450949  0.32138668  0.09963957
   0.32393116  0.16196101  0.09963205
   0.16450324  0.84311472  0.09963998
   0.84566536  0.16196530  0.09965510
   0.68624232  0.84312366  0.09966253
   0.84565962  0.68369822  0.09965500
   0.16648011  0.33308689  0.32914950
   0.33304408  0.16652241  0.32915079
   0.16648014  0.83339409  0.32914951
   0.33324729  0.66662404  0.32885031
   0.66658066  0.33329075  0.32885031
   0.83335137  0.16652303  0.32914674
   0.66678631  0.83339361  0.32914526
   0.83335137  0.66682910  0.32914674
Direct configuration=    40
   0.33841342  0.66920654  0.09996282
   0.67174545  0.33587196  0.09996287
   0.16450895  0.32138739  0.09963947
   0.32393269  0.16196167  0.09963196
   0.16450307  0.84311394  0.09963986
   0.84566499  0.16196418  0.09965492
   0.68624354  0.84312407  0.09966234
   0.84565985  0.68369895  0.09965484
   0.16647951  0.33308586  0.32914963
   0.33304297  0.16652191  0.32915091
   0.16647955  0.83339442  0.32914964
   0.33324709  0.66662400  0.32885076
   0.66658053  0.33329064  0.32885076
   0.83335163  0.16652252  0.32914689
   0.66678710  0.83339397  0.32914543
   0.83335164  0.66682997  0.32914690
Direct configuration=    41
   0.33841381  0.66920655  0.09996109
   0.67174647  0.33587261  0.09996112
   0.16450996  0.32138965  0.09963911
   0.32393495  0.16196406  0.09963174
   0.16450575  0.84311426  0.09963942
   0.84566389  0.16196422  0.09965411
   0.68624395  0.84312282  0.09966143
   0.84566011  0.68369796  0.09965410
   0.16647923  0.33308641  0.32914986
   0.33304307  0.16652206  0.32915107
   0.16647925  0.83339341  0.32914987
   0.33324623  0.66662366  0.32885333
   0.66657977  0.33329019  0.32885333
   0.83335017  0.16652267  0.32914727
   0.66678522  0.83339293  0.32914588
   0.83335017  0.66682855  0.32914727
