Lattice                                 
           1
     4.113621    2.375000    0.000000
    -4.113621    2.375000    0.000000
     0.000000    0.000000   15.000000
   B    C 
     4    11
Direct configuration=     1
   0.00415361  0.00267210  0.12034134
   0.35695335  0.00285503  0.09748893
   0.00423858  0.35550699  0.09749256
   0.65142295  0.65006557  0.09747688
   0.32808646  0.32671938  0.10030508
   0.68027775  0.00278085  0.10027562
   0.00416530  0.67883808  0.10026559
   0.99999933  0.49999967  0.33373333
   0.16666633  0.33333267  0.33373333
   0.99999933  0.99999967  0.33373333
   0.16666633  0.83333267  0.33373333
   0.49999933  0.49999967  0.33373333
   0.66666633  0.33333267  0.33373333
   0.49999933  0.99999967  0.33373333
   0.66666633  0.83333267  0.33373333
Direct configuration=     2
   0.00418715  0.00277281  0.11994544
   0.35654421  0.00300565  0.09763719
   0.00396484  0.35489385  0.09763967
   0.65202840  0.65042015  0.09762814
   0.32675866  0.32506095  0.10027417
   0.68189330  0.00308821  0.10025089
   0.00391186  0.68018990  0.10024262
   0.00012788  0.49999126  0.33373838
   0.16689997  0.33396825  0.33378986
   0.99999826  0.99999284  0.33362252
   0.16705982  0.83309738  0.33379266
   0.50002442  0.50014864  0.33374121
   0.66666572  0.33333787  0.33368223
   0.49986576  0.99987092  0.33373799
   0.66603042  0.83292865  0.33378971
Direct configuration=     3
   0.00416587  0.00270892  0.12019659
   0.35680376  0.00291010  0.09754314
   0.00413849  0.35528281  0.09754635
   0.65164432  0.65019521  0.09753218
   0.32760099  0.32611303  0.10029378
   0.68086842  0.00289323  0.10026658
   0.00407264  0.67933233  0.10025719
   0.00004633  0.49999659  0.33373518
   0.16675176  0.33356505  0.33375400
   0.99999894  0.99999717  0.33369282
   0.16681020  0.83324664  0.33375502
   0.50000851  0.50005413  0.33373621
   0.66666611  0.33333457  0.33371465
   0.49995050  0.99995259  0.33373504
   0.66643383  0.83318495  0.33375395
Direct configuration=     4
   0.00418369  0.00277735  0.11986737
   0.35700252  0.00299706  0.09767792
   0.00395244  0.35536186  0.09767984
   0.65158198  0.64995925  0.09767005
   0.32754888  0.32584988  0.10025357
   0.68110475  0.00307356  0.10023281
   0.00390943  0.67940930  0.10022499
  -0.00008816  0.49999299  0.33374781
   0.16664836  0.33323223  0.33379559
   0.99999990  0.00000237  0.33360613
   0.16659211  0.83335692  0.33379901
   0.50000426  0.49991863  0.33375126
   0.66666897  0.33333243  0.33366367
   0.50007922  0.00008830  0.33374729
   0.66677234  0.83341522  0.33379536
Direct configuration=     5
   0.00418165  0.00276951  0.11990508
   0.35697975  0.00298710  0.09766248
   0.00397375  0.35535280  0.09766455
   0.65158912  0.64998628  0.09765426
   0.32755485  0.32588003  0.10025818
   0.68107767  0.00305291  0.10023667
   0.00392813  0.67940048  0.10022867
  -0.00007275  0.49999340  0.33374636
   0.16666020  0.33327035  0.33379083
   0.99999979  0.00000177  0.33361606
   0.16661709  0.83334429  0.33379397
   0.50000474  0.49993415  0.33374953
   0.66666864  0.33333267  0.33366951
   0.50006447  0.00007275  0.33374589
   0.66673356  0.83338885  0.33379062
Direct configuration=     6
   0.00418708  0.00279330  0.11974414
   0.35709092  0.00300828  0.09772171
   0.00391647  0.35543288  0.09772317
   0.65151981  0.64986179  0.09771487
   0.32762204  0.32588753  0.10024506
   0.68106117  0.00309824  0.10022666
   0.00388185  0.67934330  0.10021937
  -0.00003714  0.49999686  0.33375417
   0.16666141  0.33330710  0.33380567
   0.00000164  0.00000185  0.33358386
   0.16665035  0.83334249  0.33380978
   0.50000470  0.49996673  0.33375831
   0.66666845  0.33333353  0.33364700
   0.50003513  0.00003921  0.33375352
   0.66669678  0.83335423  0.33380538
Direct configuration=     7
   0.00420338  0.00286469  0.11926129
   0.35742443  0.00307184  0.09789940
   0.00374462  0.35567310  0.09789903
   0.65131186  0.64948832  0.09789671
   0.32782362  0.32591005  0.10020570
   0.68101167  0.00323425  0.10019663
   0.00374304  0.67917176  0.10019145
   0.00006967  0.50000725  0.33377758
   0.16666505  0.33341734  0.33385022
   0.00000720  0.00000209  0.33348724
   0.16675014  0.83333708  0.33385721
   0.50000456  0.50006449  0.33378464
   0.66666786  0.33333612  0.33357945
   0.49994712 -0.00006140  0.33377643
   0.66658644  0.83325038  0.33384968
Direct configuration=     8
   0.00420755  0.00288299  0.11913755
   0.35750990  0.00308812  0.09794494
   0.00370058  0.35573466  0.09794410
   0.65125857  0.64939260  0.09794331
   0.32787528  0.32591582  0.10019562
   0.68099898  0.00326911  0.10018894
   0.00370747  0.67912780  0.10018429
   0.00009705  0.50000991  0.33378358
   0.16666598  0.33344559  0.33386163
   0.00000862  0.00000215  0.33346248
   0.16677571  0.83333569  0.33386937
   0.50000453  0.50008954  0.33379139
   0.66666771  0.33333678  0.33356214
   0.49992456 -0.00008719  0.33378230
   0.66655817  0.83322376  0.33386103
Direct configuration=     9
   0.00420694  0.00288381  0.11887033
   0.35749798  0.00304653  0.09800232
   0.00374377  0.35577091  0.09800088
   0.65123311  0.64940076  0.09800188
   0.32790170  0.32601382  0.10021586
   0.68090149  0.00318726  0.10021323
   0.00376396  0.67910175  0.10020933
   0.00002816  0.50001731  0.33379767
   0.16673529  0.33349229  0.33386207
   0.00000316  0.00000193  0.33345920
   0.16676653  0.83327556  0.33387022
   0.49999309  0.50001795  0.33380589
   0.66667354  0.33333778  0.33354623
   0.49999200 -0.00002276  0.33379621
   0.66651995  0.83324244  0.33386136
Direct configuration=    10
   0.00420530  0.00288598  0.11815783
   0.35746619  0.00293564  0.09815531
   0.00385891  0.35586755  0.09815228
   0.65116523  0.64942250  0.09815805
   0.32797214  0.32627512  0.10026982
   0.68064154  0.00296903  0.10027799
   0.00391460  0.67903230  0.10027608
  -0.00015550  0.50003705  0.33383523
   0.16692008  0.33361683  0.33386323
  -0.00001140  0.00000137  0.33345044
   0.16674203  0.83311522  0.33387250
   0.49996259  0.49982707  0.33384456
   0.66668909  0.33334044  0.33350380
   0.50017181  0.00014902  0.33383329
   0.66641804  0.83329224  0.33386225
Direct configuration=    11
   0.00420429  0.00288029  0.11796269
   0.35744679  0.00290585  0.09818763
   0.00390272  0.35588423  0.09818439
   0.65114741  0.64944312  0.09819086
   0.32796742  0.32633018  0.10029419
   0.68058699  0.00291001  0.10030473
   0.00396111  0.67902965  0.10030323
  -0.00011746  0.50001614  0.33384170
   0.16685564  0.33357356  0.33386036
  -0.00000257  0.00000329  0.33346019
   0.16675054  0.83317274  0.33386957
   0.49999251  0.49988078  0.33385093
   0.66668348  0.33334025  0.33350319
   0.50012741  0.00012056  0.33383966
   0.66645439  0.83327669  0.33385936
Direct configuration=    12
   0.00420125  0.00286320  0.11737727
   0.35738856  0.00281649  0.09828458
   0.00403418  0.35593426  0.09828071
   0.65109393  0.64950498  0.09828928
   0.32795324  0.32649537  0.10036728
   0.68042335  0.00273296  0.10038496
   0.00410064  0.67902169  0.10038471
  -0.00000334  0.49995342  0.33386109
   0.16666233  0.33344378  0.33385177
   0.00002392  0.00000905  0.33348942
   0.16677605  0.83334532  0.33386076
   0.50008226  0.50004191  0.33387004
   0.66666665  0.33333968  0.33350137
   0.49999422  0.00003521  0.33385876
   0.66656343  0.83323004  0.33385066
Direct configuration=    13
   0.00420086  0.00286100  0.11730202
   0.35738108  0.00280500  0.09829705
   0.00405107  0.35594069  0.09829309
   0.65108705  0.64951293  0.09830193
   0.32795142  0.32651660  0.10037667
   0.68040232  0.00271020  0.10039528
   0.00411857  0.67902066  0.10039518
   0.00001133  0.49994535  0.33386359
   0.16663748  0.33342709  0.33385067
   0.00002732  0.00000979  0.33349317
   0.16677933  0.83336750  0.33385963
   0.50009380  0.50006262  0.33387250
   0.66666449  0.33333961  0.33350113
   0.49997710  0.00002424  0.33386122
   0.66657744  0.83322404  0.33384954
Direct configuration=    14
   0.00419886  0.00285033  0.11717773
   0.35742630  0.00281366  0.09830903
   0.00405949  0.35597771  0.09830536
   0.65103267  0.64947291  0.09831366
   0.32795091  0.32651191  0.10040020
   0.68040561  0.00272885  0.10041916
   0.00411294  0.67900799  0.10041912
   0.00004534  0.49999311  0.33385737
   0.16667326  0.33342189  0.33384923
   0.00001677  0.00000851  0.33351329
   0.16675937  0.83334498  0.33385763
   0.50003478  0.50005715  0.33386567
   0.66667676  0.33334205  0.33352202
   0.49997057 -0.00002099  0.33385504
   0.66659702  0.83325726  0.33384813
Direct configuration=    15
   0.00419470  0.00282816  0.11691967
   0.35752019  0.00283163  0.09833391
   0.00407696  0.35605458  0.09833082
   0.65091977  0.64938983  0.09833803
   0.32794986  0.32650219  0.10044906
   0.68041245  0.00276757  0.10046876
   0.00410126  0.67898168  0.10046883
   0.00011597  0.50009227  0.33384446
   0.16674756  0.33341110  0.33384625
  -0.00000512  0.00000585  0.33355506
   0.16671793  0.83329822  0.33385348
   0.49991222  0.50004580  0.33385149
   0.66670225  0.33334713  0.33356540
   0.49995701 -0.00011489  0.33384222
   0.66663767  0.83332623  0.33384521
Direct configuration=    16
   0.00418529  0.00280203  0.11676482
   0.35763452  0.00287094  0.09834604
   0.00405695  0.35612745  0.09834362
   0.65081808  0.64928605  0.09834932
   0.32796928  0.32646590  0.10047979
   0.68045106  0.00284794  0.10049856
   0.00405142  0.67894963  0.10049849
   0.00007160  0.50005080  0.33382792
   0.16673472  0.33343725  0.33384539
   0.00001272  0.00000897  0.33359317
   0.16672733  0.83329391  0.33385147
   0.49997512  0.50003083  0.33383365
   0.66668559  0.33334510  0.33361013
   0.49999398 -0.00004926  0.33382581
   0.66659301  0.83329980  0.33384448
Direct configuration=    17
   0.00417682  0.00277851  0.11662543
   0.35773743  0.00290633  0.09835695
   0.00403894  0.35619304  0.09835515
   0.65072654  0.64919263  0.09835949
   0.32798676  0.32643323  0.10050746
   0.68048581  0.00292029  0.10052539
   0.00400656  0.67892079  0.10052518
   0.00003166  0.50001348  0.33381303
   0.16672317  0.33346079  0.33384462
   0.00002878  0.00001178  0.33362748
   0.16673579  0.83329002  0.33384965
   0.50003173  0.50001735  0.33381759
   0.66667059  0.33334327  0.33365039
   0.50002726  0.00000982  0.33381104
   0.66655281  0.83327600  0.33384382
Direct configuration=    18
   0.00416754  0.00276339  0.11659505
   0.35776025  0.00292238  0.09836452
   0.00401748  0.35620000  0.09836302
   0.65072180  0.64917348  0.09836648
   0.32800039  0.32641773  0.10050622
   0.68050745  0.00294872  0.10052261
   0.00397991  0.67891635  0.10052214
   0.00002196  0.49999777  0.33380910
   0.16671806  0.33344946  0.33384391
   0.00001017  0.00000934  0.33364338
   0.16676641  0.83331848  0.33384865
   0.50002581  0.50003769  0.33381328
   0.66669088  0.33334620  0.33366381
   0.49998556 -0.00000175  0.33380729
   0.66658699  0.83326808  0.33384320
Direct configuration=    19
   0.00416680  0.00276219  0.11659264
   0.35776206  0.00292365  0.09836512
   0.00401577  0.35620055  0.09836364
   0.65072142  0.64917196  0.09836703
   0.32800148  0.32641650  0.10050612
   0.68050917  0.00295098  0.10052239
   0.00397780  0.67891600  0.10052190
   0.00002120  0.49999653  0.33380879
   0.16671765  0.33344856  0.33384386
   0.00000869  0.00000915  0.33364464
   0.16676884  0.83332074  0.33384857
   0.50002534  0.50003930  0.33381293
   0.66669249  0.33334643  0.33366488
   0.49998225 -0.00000267  0.33380700
   0.66658970  0.83326745  0.33384316
Direct configuration=    20
   0.00416061  0.00275378  0.11657671
   0.35776968  0.00293621  0.09837340
   0.00399602  0.35619517  0.09837224
   0.65073056  0.64916566  0.09837459
   0.32801187  0.32640547  0.10049926
   0.68052347  0.00296952  0.10051342
   0.00395799  0.67891315  0.10051256
   0.00003899  0.50001024  0.33380722
   0.16671542  0.33344139  0.33384320
   0.00001490  0.00001035  0.33365905
   0.16675386  0.83331714  0.33384772
   0.50001911  0.50003907  0.33381106
   0.66668720  0.33334612  0.33367407
   0.49998950 -0.00001284  0.33380558
   0.66659148  0.83327691  0.33384260
Direct configuration=    21
   0.00415402  0.00274481  0.11655975
   0.35777779  0.00294958  0.09838222
   0.00397499  0.35618945  0.09838139
   0.65074029  0.64915896  0.09838263
   0.32802294  0.32639373  0.10049196
   0.68053868  0.00298925  0.10050387
   0.00393691  0.67891011  0.10050262
   0.00005794  0.50002484  0.33380555
   0.16671304  0.33343377  0.33384249
   0.00002151  0.00001163  0.33367438
   0.16673792  0.83331330  0.33384681
   0.50001248  0.50003881  0.33380907
   0.66668158  0.33334578  0.33368386
   0.49999721 -0.00002367  0.33380407
   0.66659337  0.83328698  0.33384201
Direct configuration=    22
   0.00415668  0.00275082  0.11654575
   0.35777883  0.00295710  0.09838960
   0.00396532  0.35618088  0.09838919
   0.65074531  0.64915467  0.09838892
   0.32802688  0.32639216  0.10048345
   0.68053522  0.00299473  0.10049239
   0.00393139  0.67890164  0.10049058
   0.00003582  0.50001326  0.33380609
   0.16672200  0.33344988  0.33384322
   0.00001978  0.00001179  0.33368832
   0.16675091  0.83330860  0.33384745
   0.50002239  0.50003079  0.33380939
   0.66668483  0.33334650  0.33369068
   0.50000430 -0.00000349  0.33380477
   0.66658101  0.83327801  0.33384287
Direct configuration=    23
   0.00415710  0.00275177  0.11654356
   0.35777899  0.00295828  0.09839076
   0.00396380  0.35617954  0.09839041
   0.65074610  0.64915400  0.09838991
   0.32802750  0.32639192  0.10048211
   0.68053468  0.00299559  0.10049058
   0.00393053  0.67890031  0.10048870
   0.00003235  0.50001144  0.33380618
   0.16672340  0.33345241  0.33384333
   0.00001951  0.00001181  0.33369051
   0.16675295  0.83330786  0.33384755
   0.50002395  0.50002953  0.33380944
   0.66668534  0.33334662  0.33369175
   0.50000541 -0.00000033  0.33380488
   0.66657907  0.83327660  0.33384300
Direct configuration=    24
   0.00416252  0.00276128  0.11653734
   0.35777350  0.00295204  0.09839103
   0.00397180  0.35617956  0.09839090
   0.65074175  0.64915523  0.09838954
   0.32802111  0.32640090  0.10047950
   0.68051989  0.00298101  0.10048615
   0.00394370  0.67889844  0.10048389
   0.00003339  0.50000822  0.33380832
   0.16671980  0.33345018  0.33384569
   0.00001813  0.00001185  0.33369411
   0.16675877  0.83331472  0.33384997
   0.50002579  0.50003538  0.33381160
   0.66668781  0.33334721  0.33369212
   0.49999812 -0.00000268  0.33380708
   0.66658460  0.83327398  0.33384541
Direct configuration=    25
   0.00416890  0.00277249  0.11653002
   0.35776704  0.00294470  0.09839134
   0.00398122  0.35617959  0.09839147
   0.65073662  0.64915668  0.09838910
   0.32801358  0.32641149  0.10047643
   0.68050246  0.00296383  0.10048093
   0.00395921  0.67889624  0.10047823
   0.00003461  0.50000443  0.33381084
   0.16671556  0.33344756  0.33384848
   0.00001651  0.00001190  0.33369836
   0.16676562  0.83332279  0.33385283
   0.50002797  0.50004227  0.33381414
   0.66669072  0.33334792  0.33369257
   0.49998953 -0.00000545  0.33380967
   0.66659111  0.83327090  0.33384826
Direct configuration=    26
   0.00417007  0.00277515  0.11652560
   0.35776281  0.00293940  0.09839054
   0.00398581  0.35618070  0.09839079
   0.65073508  0.64915887  0.09838794
   0.32800948  0.32641649  0.10047517
   0.68049577  0.00295388  0.10047845
   0.00396665  0.67889826  0.10047550
   0.00003772  0.50000805  0.33381259
   0.16671657  0.33344711  0.33385058
   0.00001859  0.00001245  0.33370017
   0.16676163  0.83332053  0.33385497
   0.50002693  0.50004073  0.33381592
   0.66668948  0.33334798  0.33369262
   0.49999366 -0.00000601  0.33381145
   0.66659041  0.83327374  0.33385038
Direct configuration=    27
   0.00417251  0.00278069  0.11651638
   0.35775401  0.00292837  0.09838887
   0.00399536  0.35618300  0.09838936
   0.65073185  0.64916343  0.09838553
   0.32800096  0.32642691  0.10047256
   0.68048181  0.00293314  0.10047329
   0.00398215  0.67890246  0.10046980
   0.00004419  0.50001561  0.33381624
   0.16671868  0.33344617  0.33385494
   0.00002291  0.00001358  0.33370394
   0.16675332  0.83331584  0.33385944
   0.50002478  0.50003751  0.33381964
   0.66668688  0.33334813  0.33369272
   0.50000228 -0.00000717  0.33381516
   0.66658896  0.83327966  0.33385480
Direct configuration=    28
   0.00416869  0.00277540  0.11651330
   0.35775317  0.00292644  0.09838700
   0.00399364  0.35618454  0.09838750
   0.65073352  0.64916477  0.09838361
   0.32800166  0.32642583  0.10047242
   0.68048566  0.00293247  0.10047254
   0.00397981  0.67890683  0.10046893
   0.00004136  0.50001593  0.33381761
   0.16672232  0.33344886  0.33385680
   0.00002255  0.00001373  0.33370442
   0.16675393  0.83331340  0.33386132
   0.50002423  0.50003496  0.33382104
   0.66668794  0.33334844  0.33369297
   0.50000472 -0.00000458  0.33381655
   0.66658746  0.83328029  0.33385665
Direct configuration=    29
   0.00415722  0.00275953  0.11650408
   0.35775065  0.00292065  0.09838141
   0.00398848  0.35618916  0.09838192
   0.65073852  0.64916879  0.09837786
   0.32800378  0.32642260  0.10047198
   0.68049721  0.00293048  0.10047029
   0.00397279  0.67891994  0.10046632
   0.00003284  0.50001691  0.33382173
   0.16673326  0.33345692  0.33386236
   0.00002147  0.00001416  0.33370585
   0.16675574  0.83330611  0.33386697
   0.50002257  0.50002731  0.33382524
   0.66669113  0.33334939  0.33369374
   0.50001203  0.00000320  0.33382070
   0.66658298  0.83328219  0.33386222
Direct configuration=    30
   0.00415506  0.00275667  0.11650107
   0.35775239  0.00292118  0.09837924
   0.00398591  0.35619017  0.09837976
   0.65073815  0.64916717  0.09837565
   0.32800581  0.32642057  0.10047170
   0.68050004  0.00293364  0.10046950
   0.00396867  0.67892003  0.10046544
   0.00003448  0.50001549  0.33382327
   0.16673068  0.33345601  0.33386427
   0.00002212  0.00001440  0.33370642
   0.16675733  0.83330898  0.33386889
   0.50002490  0.50003016  0.33382682
   0.66669105  0.33334955  0.33369429
   0.50000996  0.00000252  0.33382224
   0.66658411  0.83328078  0.33386412
Direct configuration=    31
   0.00414859  0.00274811  0.11649203
   0.35775762  0.00292275  0.09837274
   0.00397820  0.35619320  0.09837328
   0.65073701  0.64916232  0.09836902
   0.32801190  0.32641448  0.10047087
   0.68050851  0.00294314  0.10046713
   0.00395633  0.67892029  0.10046278
   0.00003941  0.50001124  0.33382790
   0.16672296  0.33345329  0.33387000
   0.00002408  0.00001513  0.33370811
   0.16676212  0.83331759  0.33387466
   0.50003189  0.50003873  0.33383153
   0.66669080  0.33335003  0.33369592
   0.50000376  0.00000048  0.33382687
   0.66658749  0.83327656  0.33386982
Direct configuration=    32
   0.00413565  0.00273099  0.11647395
   0.35776808  0.00292590  0.09835973
   0.00396279  0.35619925  0.09836033
   0.65073475  0.64915262  0.09835576
   0.32802409  0.32640229  0.10046921
   0.68052544  0.00296214  0.10046238
   0.00393163  0.67892080  0.10045748
   0.00004926  0.50000274  0.33383716
   0.16670750  0.33344783  0.33388147
   0.00002801  0.00001660  0.33371149
   0.16677168  0.83333482  0.33388620
   0.50004586  0.50005585  0.33384096
   0.66669030  0.33335099  0.33369919
   0.49999135 -0.00000359  0.33383612
   0.66659427  0.83326811  0.33388123
Direct configuration=    33
   0.00414466  0.00274290  0.11648653
   0.35776081  0.00292371  0.09836878
   0.00397352  0.35619504  0.09836934
   0.65073632  0.64915937  0.09836498
   0.32801561  0.32641077  0.10047037
   0.68051366  0.00294892  0.10046569
   0.00394881  0.67892044  0.10046117
   0.00004241  0.50000865  0.33383072
   0.16671825  0.33345163  0.33387349
   0.00002528  0.00001558  0.33370914
   0.16676503  0.83332283  0.33387817
   0.50003614  0.50004394  0.33383440
   0.66669064  0.33335032  0.33369691
   0.49999998 -0.00000076  0.33382968
   0.66658956  0.83327399  0.33387329
Direct configuration=    34
   0.00414588  0.00274452  0.11648824
   0.35775982  0.00292341  0.09837001
   0.00397497  0.35619446  0.09837057
   0.65073654  0.64916029  0.09836624
   0.32801446  0.32641192  0.10047053
   0.68051206  0.00294713  0.10046613
   0.00395115  0.67892039  0.10046167
   0.00004147  0.50000946  0.33382984
   0.16671972  0.33345214  0.33387240
   0.00002491  0.00001544  0.33370882
   0.16676412  0.83332120  0.33387708
   0.50003482  0.50004232  0.33383351
   0.66669069  0.33335023  0.33369660
   0.50000116 -0.00000037  0.33382881
   0.66658891  0.83327479  0.33387221
Direct configuration=    35
   0.00414735  0.00274713  0.11648384
   0.35776388  0.00292626  0.09836684
   0.00397292  0.35619472  0.09836744
   0.65073229  0.64915498  0.09836295
   0.32801581  0.32640893  0.10046944
   0.68051122  0.00295325  0.10046436
   0.00394694  0.67891392  0.10045977
   0.00004393  0.50001215  0.33383241
   0.16672083  0.33345078  0.33387514
   0.00002555  0.00001584  0.33371024
   0.16676227  0.83332091  0.33387981
   0.50003312  0.50004222  0.33383612
   0.66669120  0.33335060  0.33369800
   0.50000226 -0.00000183  0.33383137
   0.66659110  0.83327747  0.33387493
Direct configuration=    36
   0.00415177  0.00275496  0.11647064
   0.35777606  0.00293481  0.09835732
   0.00396676  0.35619549  0.09835806
   0.65071953  0.64913905  0.09835309
   0.32801988  0.32639995  0.10046617
   0.68050872  0.00297164  0.10045905
   0.00393430  0.67889451  0.10045406
   0.00005129  0.50002021  0.33384013
   0.16672416  0.33344669  0.33388336
   0.00002747  0.00001703  0.33371452
   0.16675672  0.83332005  0.33388801
   0.50002804  0.50004193  0.33384395
   0.66669273  0.33335169  0.33370220
   0.50000556 -0.00000619  0.33383905
   0.66659767  0.83328551  0.33388307
Direct configuration=    37
   0.00416062  0.00277062  0.11644423
   0.35780043  0.00295190  0.09833828
   0.00395444  0.35619702  0.09833930
   0.65069402  0.64910720  0.09833337
   0.32802800  0.32638199  0.10045963
   0.68050372  0.00300840  0.10044843
   0.00390903  0.67885567  0.10044264
   0.00006601  0.50003635  0.33385555
   0.16673083  0.33343852  0.33389978
   0.00003131  0.00001942  0.33372308
   0.16674563  0.83331832  0.33390440
   0.50001787  0.50004134  0.33385961
   0.66669578  0.33335389  0.33371060
   0.50001217 -0.00001493  0.33385441
   0.66661080  0.83330160  0.33389935
Direct configuration=    38
   0.00415384  0.00275862  0.11646447
   0.35778176  0.00293880  0.09835287
   0.00396388  0.35619585  0.09835368
   0.65071356  0.64913161  0.09834848
   0.32802178  0.32639575  0.10046464
   0.68050755  0.00298023  0.10045657
   0.00392839  0.67888543  0.10045139
   0.00005473  0.50002399  0.33384373
   0.16672572  0.33344478  0.33388720
   0.00002836  0.00001759  0.33371652
   0.16675413  0.83331965  0.33389184
   0.50002566  0.50004179  0.33384761
   0.66669344  0.33335221  0.33370417
   0.50000711 -0.00000823  0.33384264
   0.66660074  0.83328927  0.33388688
Direct configuration=    39
   0.00415571  0.00276190  0.11645795
   0.35778164  0.00294061  0.09834885
   0.00396340  0.35619330  0.09834968
   0.65071019  0.64912873  0.09834434
   0.32801992  0.32639335  0.10046159
   0.68050592  0.00298317  0.10045282
   0.00392693  0.67888061  0.10044749
   0.00005165  0.50002276  0.33384772
   0.16672875  0.33344864  0.33389091
   0.00002859  0.00001805  0.33371973
   0.16675716  0.83331864  0.33389552
   0.50002763  0.50004072  0.33385163
   0.66669506  0.33335289  0.33370727
   0.50000909 -0.00000447  0.33384660
   0.66659904  0.83328843  0.33389055
Direct configuration=    40
   0.00416131  0.00277175  0.11643841
   0.35778130  0.00294604  0.09833678
   0.00396195  0.35618566  0.09833771
   0.65070006  0.64912010  0.09833193
   0.32801436  0.32638613  0.10045246
   0.68050100  0.00299199  0.10044159
   0.00392254  0.67886614  0.10043581
   0.00004240  0.50001908  0.33385968
   0.16673783  0.33346022  0.33390206
   0.00002928  0.00001943  0.33372934
   0.16676625  0.83331561  0.33390656
   0.50003353  0.50003751  0.33386370
   0.66669991  0.33335493  0.33371657
   0.50001502  0.00000682  0.33385849
   0.66659393  0.83328590  0.33390159
Direct configuration=    41
   0.00415577  0.00276428  0.11642960
   0.35777060  0.00294023  0.09833255
   0.00396357  0.35618209  0.09833339
   0.65070519  0.64912867  0.09832777
   0.32800992  0.32639019  0.10044606
   0.68050028  0.00298026  0.10043491
   0.00392676  0.67887517  0.10042907
   0.00004610  0.50001768  0.33386499
   0.16673416  0.33346004  0.33390659
   0.00003239  0.00002055  0.33373532
   0.16676851  0.83331971  0.33391099
   0.50003917  0.50004164  0.33386901
   0.66669916  0.33335547  0.33372259
   0.50001476  0.00000748  0.33386377
   0.66659433  0.83328385  0.33390606
Direct configuration=    42
   0.00413916  0.00274187  0.11640318
   0.35773848  0.00292278  0.09831985
   0.00396842  0.35617139  0.09832045
   0.65072057  0.64915438  0.09831528
   0.32799660  0.32640238  0.10042684
   0.68049812  0.00294508  0.10041486
   0.00393940  0.67890225  0.10040884
   0.00005722  0.50001346  0.33388094
   0.16672317  0.33345951  0.33392016
   0.00004173  0.00002388  0.33375325
   0.16677530  0.83333202  0.33392429
   0.50005610  0.50005405  0.33388496
   0.66669688  0.33335711  0.33374065
   0.50001397  0.00000948  0.33387962
   0.66659555  0.83327769  0.33391950
Direct configuration=    43
   0.00413607  0.00273804  0.11639706
   0.35773441  0.00291907  0.09831683
   0.00396954  0.35617147  0.09831737
   0.65072144  0.64915750  0.09831233
   0.32799497  0.32640680  0.10042169
   0.68049378  0.00293719  0.10040966
   0.00394264  0.67890486  0.10040364
   0.00005786  0.50001654  0.33388470
   0.16672705  0.33345936  0.33392351
   0.00004135  0.00002435  0.33375787
   0.16677503  0.83333126  0.33392756
   0.50005302  0.50005295  0.33388871
   0.66669936  0.33335800  0.33374555
   0.50001529  0.00000881  0.33388336
   0.66659885  0.83328114  0.33392281
Direct configuration=    44
   0.00412682  0.00272656  0.11637872
   0.35772220  0.00290791  0.09830776
   0.00397289  0.35617172  0.09830815
   0.65072405  0.64916687  0.09830346
   0.32799006  0.32642005  0.10040624
   0.68048076  0.00291351  0.10039407
   0.00395236  0.67891267  0.10038802
   0.00005976  0.50002580  0.33389600
   0.16673870  0.33345891  0.33393354
   0.00004022  0.00002575  0.33377174
   0.16677425  0.83332896  0.33393739
   0.50004379  0.50004967  0.33389997
   0.66670680  0.33336068  0.33376026
   0.50001923  0.00000680  0.33389459
   0.66660877  0.83329146  0.33393276
Direct configuration=    45
   0.00412501  0.00272431  0.11637512
   0.35771981  0.00290573  0.09830599
   0.00397355  0.35617176  0.09830634
   0.65072457  0.64916871  0.09830172
   0.32798910  0.32642265  0.10040321
   0.68047821  0.00290888  0.10039101
   0.00395426  0.67891420  0.10038496
   0.00006013  0.50002761  0.33389821
   0.16674098  0.33345882  0.33393550
   0.00004000  0.00002603  0.33377446
   0.16677409  0.83332851  0.33393932
   0.50004199  0.50004903  0.33390217
   0.66670826  0.33336121  0.33376314
   0.50002001  0.00000640  0.33389679
   0.66661071  0.83329348  0.33393471
Direct configuration=    46
   0.00412139  0.00271981  0.11636794
   0.35771503  0.00290136  0.09830243
   0.00397486  0.35617186  0.09830273
   0.65072559  0.64917238  0.09829825
   0.32798718  0.32642784  0.10039716
   0.68047311  0.00289961  0.10038491
   0.00395807  0.67891726  0.10037884
   0.00006088  0.50003124  0.33390263
   0.16674554  0.33345864  0.33393943
   0.00003956  0.00002658  0.33377989
   0.16677379  0.83332762  0.33394317
   0.50003837  0.50004775  0.33390658
   0.66671117  0.33336226  0.33376890
   0.50002155  0.00000561  0.33390119
   0.66661459  0.83329753  0.33393861
Direct configuration=    47
   0.00412326  0.00272430  0.11635971
   0.35772083  0.00290113  0.09829745
   0.00397459  0.35617618  0.09829775
   0.65071677  0.64916460  0.09829330
   0.32798650  0.32643012  0.10038937
   0.68046221  0.00289780  0.10037730
   0.00395927  0.67890823  0.10037129
   0.00006147  0.50003240  0.33390791
   0.16674782  0.33346099  0.33394477
   0.00004149  0.00002763  0.33378655
   0.16677457  0.83332688  0.33394843
   0.50004022  0.50004734  0.33391184
   0.66671234  0.33336319  0.33377662
   0.50002525  0.00000800  0.33390645
   0.66661407  0.83329856  0.33394393
Direct configuration=    48
   0.00412886  0.00273775  0.11633502
   0.35773825  0.00290043  0.09828250
   0.00397379  0.35618914  0.09828280
   0.65069033  0.64914126  0.09827843
   0.32798445  0.32643696  0.10036601
   0.68042951  0.00289237  0.10035449
   0.00396288  0.67888114  0.10034865
   0.00006323  0.50003590  0.33392375
   0.16675466  0.33346803  0.33396079
   0.00004730  0.00003081  0.33380653
   0.16677693  0.83332467  0.33396421
   0.50004577  0.50004611  0.33392760
   0.66671585  0.33336598  0.33379979
   0.50003633  0.00001514  0.33392221
   0.66661252  0.83330165  0.33395989
Direct configuration=    49
   0.00413208  0.00274502  0.11632514
   0.35774313  0.00290495  0.09827528
   0.00396635  0.35618689  0.09827562
   0.65068234  0.64912938  0.09827125
   0.32797883  0.32642166  0.10035860
   0.68043753  0.00290405  0.10034779
   0.00395375  0.67887776  0.10034210
   0.00006646  0.50003044  0.33392962
   0.16674830  0.33346853  0.33396737
   0.00005043  0.00003209  0.33381320
   0.16678465  0.83333337  0.33397076
   0.50005582  0.50005411  0.33393343
   0.66671560  0.33336677  0.33380794
   0.50003169  0.00001674  0.33392808
   0.66661370  0.83329556  0.33396649
Direct configuration=    50
   0.00414174  0.00276683  0.11629550
   0.35775777  0.00291851  0.09825364
   0.00394403  0.35618015  0.09825409
   0.65065838  0.64909373  0.09824969
   0.32796198  0.32637577  0.10033635
   0.68046159  0.00293910  0.10032768
   0.00392637  0.67886762  0.10032247
   0.00007613  0.50001406  0.33394723
   0.16672923  0.33347004  0.33398711
   0.00005981  0.00003595  0.33383319
   0.16680783  0.83335946  0.33399043
   0.50008595  0.50007811  0.33395093