  16  16   0   4
  0.2065628E+02  0.5044000E-09  0.5044000E-09  0.1500000E-08  0.5000000E-15
  1.000000000000000E-004
  CAR 
 Lattice                                 
      9.69083781    -21.32668537  301     -0.98563265      1.00000000
    -21.327  0.0000E+00  0.0000E+00
    -21.223  0.0000E+00  0.0000E+00
    -21.120  0.0000E+00  0.0000E+00
    -21.017  0.0000E+00  0.0000E+00
    -20.913  0.0000E+00  0.0000E+00
    -20.810  0.0000E+00  0.0000E+00
    -20.706  0.0000E+00  0.0000E+00
    -20.603  0.0000E+00  0.0000E+00
    -20.500  0.5826E-19  0.6023E-20
    -20.396  0.3514E-14  0.3633E-15
    -20.293  0.3433E-10  0.3550E-11
    -20.189  0.4647E-07  0.4808E-08
    -20.086  0.9417E-05  0.9784E-06
    -19.983  0.3151E-03  0.3355E-04
    -19.879  0.2129E-02  0.2536E-03
    -19.776  0.4405E-02  0.7091E-03
    -19.672  0.4906E-02  0.1216E-02
    -19.569  0.5169E-02  0.1751E-02
    -19.466  0.4647E-02  0.2231E-02
    -19.362  0.5676E-02  0.2818E-02
    -19.259  0.4281E-02  0.3261E-02
    -19.155  0.5248E-02  0.3803E-02
    -19.052  0.5918E-02  0.4415E-02
    -18.949  0.3668E-02  0.4794E-02
    -18.845  0.5301E-02  0.5343E-02
    -18.742  0.6368E-02  0.6001E-02
    -18.639  0.4459E-02  0.6462E-02
    -18.535  0.3376E-02  0.6811E-02
    -18.432  0.6721E-02  0.7506E-02
    -18.328  0.6041E-02  0.8130E-02
    -18.225  0.4248E-02  0.8570E-02
    -18.122  0.3377E-02  0.8919E-02
    -18.018  0.6405E-02  0.9581E-02
    -17.915  0.1068E-01  0.1069E-01
    -17.811  0.1073E-01  0.1179E-01
    -17.708  0.1090E-01  0.1292E-01
    -17.605  0.1268E-01  0.1423E-01
    -17.501  0.1593E-01  0.1588E-01
    -17.398  0.1939E-01  0.1788E-01
    -17.294  0.2064E-01  0.2002E-01
    -17.191  0.1288E-01  0.2135E-01
    -17.088  0.6247E-02  0.2200E-01
    -16.984  0.7315E-02  0.2275E-01
    -16.881  0.6800E-02  0.2345E-01
    -16.777  0.5572E-02  0.2403E-01
    -16.674  0.4616E-02  0.2451E-01
    -16.571  0.2777E-02  0.2479E-01
    -16.467  0.4189E-02  0.2523E-01
    -16.364  0.9246E-02  0.2618E-01
    -16.260  0.6431E-02  0.2685E-01
    -16.157  0.4807E-02  0.2735E-01
    -16.054  0.4314E-02  0.2779E-01
    -15.950  0.4226E-02  0.2823E-01
    -15.847  0.3708E-02  0.2861E-01
    -15.744  0.8471E-02  0.2949E-01
    -15.640  0.1078E-01  0.3060E-01
    -15.537  0.1181E-01  0.3182E-01
    -15.433  0.1521E-01  0.3340E-01
    -15.330  0.1602E-01  0.3505E-01
    -15.227  0.1309E-01  0.3641E-01
    -15.123  0.1456E-01  0.3791E-01
    -15.020  0.1763E-01  0.3973E-01
    -14.916  0.1623E-01  0.4141E-01
    -14.813  0.1281E-01  0.4274E-01
    -14.710  0.9647E-02  0.4373E-01
    -14.606  0.9726E-02  0.4474E-01
    -14.503  0.1543E-01  0.4634E-01
    -14.399  0.1886E-01  0.4829E-01
    -14.296  0.1528E-01  0.4987E-01
    -14.193  0.1103E-01  0.5101E-01
    -14.089  0.8983E-02  0.5194E-01
    -13.986  0.7969E-02  0.5276E-01
    -13.882  0.8885E-02  0.5368E-01
    -13.779  0.7336E-02  0.5444E-01
    -13.676  0.4113E-02  0.5486E-01
    -13.572  0.4668E-02  0.5534E-01
    -13.469  0.4418E-02  0.5580E-01
    -13.366  0.5980E-02  0.5642E-01
    -13.262  0.6002E-02  0.5704E-01
    -13.159  0.6223E-02  0.5768E-01
    -13.055  0.8122E-02  0.5852E-01
    -12.952  0.7449E-02  0.5929E-01
    -12.849  0.8472E-02  0.6017E-01
    -12.745  0.6062E-02  0.6080E-01
    -12.642  0.6681E-02  0.6149E-01
    -12.538  0.5524E-02  0.6206E-01
    -12.435  0.3884E-02  0.6246E-01
    -12.332  0.8382E-02  0.6333E-01
    -12.228  0.6359E-02  0.6398E-01
    -12.125  0.5008E-02  0.6450E-01
    -12.021  0.9522E-02  0.6549E-01
    -11.918  0.1500E-01  0.6704E-01
    -11.815  0.1595E-01  0.6869E-01
    -11.711  0.1385E-01  0.7012E-01
    -11.608  0.1448E-01  0.7161E-01
    -11.504  0.1726E-01  0.7340E-01
    -11.401  0.1267E-01  0.7471E-01
    -11.298  0.9537E-02  0.7569E-01
    -11.194  0.9290E-02  0.7666E-01
    -11.091  0.1091E-01  0.7778E-01
    -10.988  0.9422E-02  0.7876E-01
    -10.884  0.6783E-02  0.7946E-01
    -10.781  0.1202E-01  0.8070E-01
    -10.677  0.1561E-01  0.8232E-01
    -10.574  0.1206E-01  0.8356E-01
    -10.471  0.6949E-02  0.8428E-01
    -10.367  0.9403E-02  0.8525E-01
    -10.264  0.1755E-01  0.8707E-01
    -10.160  0.1723E-01  0.8885E-01
    -10.057  0.1070E-01  0.8996E-01
     -9.954  0.9570E-02  0.9095E-01
     -9.850  0.9126E-02  0.9189E-01
     -9.747  0.1167E-01  0.9310E-01
     -9.643  0.8781E-02  0.9400E-01
     -9.540  0.1112E-01  0.9515E-01
     -9.437  0.1088E-01  0.9628E-01
     -9.333  0.1049E-01  0.9736E-01
     -9.230  0.9937E-02  0.9839E-01
     -9.126  0.3265E-02  0.9873E-01
     -9.023  0.1899E-02  0.9892E-01
     -8.920  0.1086E-01  0.1000E+00
     -8.816  0.1947E-01  0.1021E+00
     -8.713  0.1731E-01  0.1038E+00
     -8.610  0.1040E-01  0.1049E+00
     -8.506  0.7749E-02  0.1057E+00
     -8.403  0.8914E-02  0.1066E+00
     -8.299  0.1308E-01  0.1080E+00
     -8.196  0.2469E-01  0.1106E+00
     -8.093  0.2268E-01  0.1129E+00
     -7.989  0.1910E-01  0.1149E+00
     -7.886  0.1529E-01  0.1165E+00
     -7.782  0.1325E-01  0.1178E+00
     -7.679  0.2082E-01  0.1200E+00
     -7.576  0.2533E-01  0.1226E+00
     -7.472  0.2343E-01  0.1250E+00
     -7.369  0.2253E-01  0.1273E+00
     -7.265  0.2586E-01  0.1300E+00
     -7.162  0.2303E-01  0.1324E+00
     -7.059  0.2543E-01  0.1350E+00
     -6.955  0.2494E-01  0.1376E+00
     -6.852  0.1757E-01  0.1394E+00
     -6.748  0.2315E-01  0.1418E+00
     -6.645  0.2669E-01  0.1446E+00
     -6.542  0.2326E-01  0.1470E+00
     -6.438  0.2457E-01  0.1495E+00
     -6.335  0.2309E-01  0.1519E+00
     -6.231  0.2513E-01  0.1545E+00
     -6.128  0.1939E-01  0.1565E+00
     -6.025  0.1608E-01  0.1582E+00
     -5.921  0.1986E-01  0.1602E+00
     -5.818  0.2603E-01  0.1629E+00
     -5.715  0.2205E-01  0.1652E+00
     -5.611  0.1777E-01  0.1670E+00
     -5.508  0.2197E-01  0.1693E+00
     -5.404  0.2662E-01  0.1721E+00
     -5.301  0.2862E-01  0.1750E+00
     -5.198  0.2017E-01  0.1771E+00
     -5.094  0.1260E-01  0.1784E+00
     -4.991  0.1550E-01  0.1800E+00
     -4.887  0.1850E-01  0.1819E+00
     -4.784  0.1683E-01  0.1837E+00
     -4.681  0.1666E-01  0.1854E+00
     -4.577  0.1740E-01  0.1872E+00
     -4.474  0.1633E-01  0.1889E+00
     -4.370  0.1876E-01  0.1908E+00
     -4.267  0.2304E-01  0.1932E+00
     -4.164  0.3116E-01  0.1964E+00
     -4.060  0.4039E-01  0.2006E+00
     -3.957  0.3303E-01  0.2040E+00
     -3.853  0.2236E-01  0.2063E+00
     -3.750  0.1518E-01  0.2079E+00
     -3.647  0.1562E-01  0.2095E+00
     -3.543  0.1663E-01  0.2112E+00
     -3.440  0.2064E-01  0.2134E+00
     -3.337  0.2067E-01  0.2155E+00
     -3.233  0.1409E-01  0.2170E+00
     -3.130  0.1317E-01  0.2183E+00
     -3.026  0.1847E-01  0.2202E+00
     -2.923  0.2575E-01  0.2229E+00
     -2.820  0.1953E-01  0.2249E+00
     -2.716  0.1020E-01  0.2260E+00
     -2.613  0.1303E-01  0.2273E+00
     -2.509  0.2137E-01  0.2295E+00
     -2.406  0.2026E-01  0.2316E+00
     -2.303  0.1862E-01  0.2335E+00
     -2.199  0.2329E-01  0.2359E+00
     -2.096  0.1673E-01  0.2377E+00
     -1.992  0.4747E-02  0.2382E+00
     -1.889  0.5502E-02  0.2387E+00
     -1.786  0.7418E-02  0.2395E+00
     -1.682  0.5434E-02  0.2401E+00
     -1.579  0.6661E-02  0.2408E+00
     -1.475  0.6139E-02  0.2414E+00
     -1.372  0.4085E-02  0.2418E+00
     -1.269  0.2144E-02  0.2420E+00
     -1.165  0.4555E-03  0.2421E+00
     -1.062  0.2578E-03  0.2421E+00
     -0.959  0.1273E-02  0.2422E+00
     -0.855  0.2576E-02  0.2425E+00
     -0.752  0.3250E-02  0.2428E+00
     -0.648  0.4476E-02  0.2433E+00
     -0.545  0.8859E-02  0.2442E+00
     -0.442  0.9510E-02  0.2452E+00
     -0.338  0.9122E-02  0.2461E+00
     -0.235  0.9953E-02  0.2472E+00
     -0.131  0.1064E-01  0.2483E+00
     -0.028  0.1002E-01  0.2493E+00
      0.075  0.3667E-02  0.2497E+00
      0.179  0.4890E-02  0.2502E+00
      0.282  0.9804E-02  0.2512E+00
      0.386  0.8103E-02  0.2520E+00
      0.489  0.6362E-02  0.2527E+00
      0.592  0.7719E-02  0.2535E+00
      0.696  0.1053E-01  0.2546E+00
      0.799  0.9410E-02  0.2556E+00
      0.903  0.1056E-01  0.2567E+00
      1.006  0.8604E-02  0.2575E+00
      1.109  0.4547E-02  0.2580E+00
      1.213  0.5649E-02  0.2586E+00
      1.316  0.4925E-02  0.2591E+00
      1.419  0.4133E-02  0.2595E+00
      1.523  0.4061E-02  0.2600E+00
      1.626  0.9593E-02  0.2609E+00
      1.730  0.1128E-01  0.2621E+00
      1.833  0.3472E-02  0.2625E+00
      1.936  0.3482E-02  0.2628E+00
      2.040  0.5287E-02  0.2634E+00
      2.143  0.6311E-02  0.2640E+00
      2.247  0.1304E-01  0.2654E+00
      2.350  0.1534E-01  0.2670E+00
      2.453  0.1230E-01  0.2682E+00
      2.557  0.1323E-01  0.2696E+00
      2.660  0.1150E-01  0.2708E+00
      2.764  0.7851E-02  0.2716E+00
      2.867  0.8986E-02  0.2725E+00
      2.970  0.1089E-01  0.2737E+00
      3.074  0.1275E-01  0.2750E+00
      3.177  0.1538E-01  0.2766E+00
      3.281  0.1410E-01  0.2780E+00
      3.384  0.8990E-02  0.2790E+00
      3.487  0.7594E-02  0.2797E+00
      3.591  0.1305E-01  0.2811E+00
      3.694  0.1203E-01  0.2823E+00
      3.798  0.8707E-02  0.2832E+00
      3.901  0.1378E-01  0.2847E+00
      4.004  0.1832E-01  0.2866E+00
      4.108  0.1549E-01  0.2882E+00
      4.211  0.1450E-01  0.2897E+00
      4.314  0.1411E-01  0.2911E+00
      4.418  0.1574E-01  0.2927E+00
      4.521  0.1324E-01  0.2941E+00
      4.625  0.1327E-01  0.2955E+00
      4.728  0.1555E-01  0.2971E+00
      4.831  0.1872E-01  0.2990E+00
      4.935  0.1906E-01  0.3010E+00
      5.038  0.1803E-01  0.3029E+00
      5.142  0.1630E-01  0.3045E+00
      5.245  0.1497E-01  0.3061E+00
      5.348  0.1541E-01  0.3077E+00
      5.452  0.2041E-01  0.3098E+00
      5.555  0.1871E-01  0.3117E+00
      5.659  0.1435E-01  0.3132E+00
      5.762  0.1606E-01  0.3149E+00
      5.865  0.2452E-01  0.3174E+00
      5.969  0.2236E-01  0.3197E+00
      6.072  0.2509E-01  0.3223E+00
      6.176  0.2836E-01  0.3252E+00
      6.279  0.2603E-01  0.3279E+00
      6.382  0.2441E-01  0.3305E+00
      6.486  0.1934E-01  0.3325E+00
      6.589  0.2030E-01  0.3346E+00
      6.692  0.2949E-01  0.3376E+00
      6.796  0.3136E-01  0.3409E+00
      6.899  0.2942E-01  0.3439E+00
      7.003  0.3371E-01  0.3474E+00
      7.106  0.3344E-01  0.3508E+00
      7.209  0.2955E-01  0.3539E+00
      7.313  0.3353E-01  0.3574E+00
      7.416  0.3729E-01  0.3612E+00
      7.520  0.2946E-01  0.3643E+00
      7.623  0.2380E-01  0.3667E+00
      7.726  0.2830E-01  0.3696E+00
      7.830  0.1988E-01  0.3717E+00
      7.933  0.1438E-01  0.3732E+00
      8.037  0.9760E-02  0.3742E+00
      8.140  0.3355E-02  0.3745E+00
      8.243  0.1924E-02  0.3747E+00
      8.347  0.1911E-02  0.3749E+00
      8.450  0.5397E-03  0.3750E+00
      8.554  0.2623E-04  0.3750E+00
      8.657  0.1822E-06  0.3750E+00
      8.760  0.1660E-09  0.3750E+00
      8.864  0.1902E-13  0.3750E+00
      8.967  0.3495E-18  0.3750E+00
      9.070  0.0000E+00  0.3750E+00
      9.174  0.0000E+00  0.3750E+00
      9.277  0.0000E+00  0.3750E+00
      9.381  0.0000E+00  0.3750E+00
      9.484  0.0000E+00  0.3750E+00
      9.587  0.0000E+00  0.3750E+00
      9.691  0.0000E+00  0.3750E+00
