  15  15   0   4
  0.1978729E+02  0.4780000E-09  0.4780000E-09  0.1500000E-08  0.5000000E-15
  1.000000000000000E-004
  CAR 
 Lattice                                 
     10.63296948    -21.94122886  301     -0.20662413      1.00000000
    -21.941  0.0000E+00  0.0000E+00  0.0000E+00  0.0000E+00
    -21.833  0.0000E+00  0.0000E+00  0.0000E+00  0.0000E+00
    -21.724  0.0000E+00  0.0000E+00  0.0000E+00  0.0000E+00
    -21.615  0.0000E+00  0.0000E+00  0.0000E+00  0.0000E+00
    -21.507  0.0000E+00  0.0000E+00  0.0000E+00  0.0000E+00
    -21.398  0.0000E+00  0.0000E+00  0.0000E+00  0.0000E+00
    -21.290  0.0000E+00  0.0000E+00  0.0000E+00  0.0000E+00
    -21.181  0.0000E+00  0.0000E+00  0.0000E+00  0.0000E+00
    -21.073  0.0000E+00  0.0000E+00  0.0000E+00  0.0000E+00
    -20.964  0.2866E-15  0.2866E-15  0.3112E-16  0.3112E-16
    -20.855  0.6739E-11  0.6739E-11  0.7317E-12  0.7317E-12
    -20.747  0.1759E-07  0.1759E-07  0.1911E-08  0.1911E-08
    -20.638  0.5653E-05  0.5653E-05  0.6157E-06  0.6157E-06
    -20.530  0.2521E-03  0.2521E-03  0.2799E-04  0.2799E-04
    -20.421  0.1920E-02  0.1920E-02  0.2364E-03  0.2364E-03
    -20.313  0.4071E-02  0.4071E-02  0.6784E-03  0.6784E-03
    -20.204  0.4396E-02  0.4396E-02  0.1156E-02  0.1156E-02
    -20.095  0.4851E-02  0.4851E-02  0.1682E-02  0.1682E-02
    -19.987  0.4013E-02  0.4013E-02  0.2118E-02  0.2118E-02
    -19.878  0.5268E-02  0.5268E-02  0.2690E-02  0.2690E-02
    -19.770  0.4172E-02  0.4172E-02  0.3143E-02  0.3143E-02
    -19.661  0.4022E-02  0.4022E-02  0.3580E-02  0.3580E-02
    -19.552  0.5926E-02  0.5926E-02  0.4223E-02  0.4223E-02
    -19.444  0.3850E-02  0.3850E-02  0.4642E-02  0.4642E-02
    -19.335  0.3585E-02  0.3585E-02  0.5031E-02  0.5031E-02
    -19.227  0.5951E-02  0.5951E-02  0.5677E-02  0.5677E-02
    -19.118  0.5240E-02  0.5240E-02  0.6246E-02  0.6246E-02
    -19.010  0.3024E-02  0.3024E-02  0.6574E-02  0.6574E-02
    -18.901  0.3839E-02  0.3839E-02  0.6991E-02  0.6991E-02
    -18.792  0.6844E-02  0.6844E-02  0.7734E-02  0.7734E-02
    -18.684  0.4678E-02  0.4678E-02  0.8242E-02  0.8242E-02
    -18.575  0.3794E-02  0.3794E-02  0.8654E-02  0.8654E-02
    -18.467  0.2753E-02  0.2753E-02  0.8953E-02  0.8953E-02
    -18.358  0.5965E-02  0.5965E-02  0.9601E-02  0.9601E-02
    -18.249  0.6849E-02  0.6849E-02  0.1034E-01  0.1034E-01
    -18.141  0.3831E-02  0.3831E-02  0.1076E-01  0.1076E-01
    -18.032  0.2958E-02  0.2958E-02  0.1108E-01  0.1108E-01
    -17.924  0.3920E-02  0.3920E-02  0.1151E-01  0.1151E-01
    -17.815  0.5549E-02  0.5549E-02  0.1211E-01  0.1211E-01
    -17.707  0.6884E-02  0.6884E-02  0.1286E-01  0.1286E-01
    -17.598  0.4982E-02  0.4982E-02  0.1340E-01  0.1340E-01
    -17.489  0.3600E-02  0.3600E-02  0.1379E-01  0.1379E-01
    -17.381  0.6354E-02  0.6354E-02  0.1448E-01  0.1448E-01
    -17.272  0.1278E-01  0.1278E-01  0.1587E-01  0.1587E-01
    -17.164  0.1434E-01  0.1434E-01  0.1742E-01  0.1742E-01
    -17.055  0.1424E-01  0.1424E-01  0.1897E-01  0.1897E-01
    -16.947  0.1556E-01  0.1556E-01  0.2066E-01  0.2066E-01
    -16.838  0.1977E-01  0.1977E-01  0.2281E-01  0.2281E-01
    -16.729  0.1508E-01  0.1508E-01  0.2444E-01  0.2444E-01
    -16.621  0.8511E-02  0.8511E-02  0.2537E-01  0.2537E-01
    -16.512  0.9103E-02  0.9103E-02  0.2636E-01  0.2636E-01
    -16.404  0.4967E-02  0.4967E-02  0.2689E-01  0.2689E-01
    -16.295  0.4191E-02  0.4191E-02  0.2735E-01  0.2735E-01
    -16.186  0.3601E-02  0.3601E-02  0.2774E-01  0.2774E-01
    -16.078  0.4054E-02  0.4054E-02  0.2818E-01  0.2818E-01
    -15.969  0.3017E-02  0.3017E-02  0.2851E-01  0.2851E-01
    -15.861  0.6171E-02  0.6171E-02  0.2918E-01  0.2918E-01
    -15.752  0.8824E-02  0.8824E-02  0.3014E-01  0.3014E-01
    -15.644  0.4999E-02  0.4999E-02  0.3068E-01  0.3068E-01
    -15.535  0.3599E-02  0.3599E-02  0.3107E-01  0.3107E-01
    -15.426  0.3232E-02  0.3232E-02  0.3142E-01  0.3142E-01
    -15.318  0.3694E-02  0.3694E-02  0.3182E-01  0.3182E-01
    -15.209  0.5354E-02  0.5354E-02  0.3240E-01  0.3240E-01
    -15.101  0.6825E-02  0.6825E-02  0.3314E-01  0.3314E-01
    -14.992  0.8879E-02  0.8879E-02  0.3411E-01  0.3411E-01
    -14.883  0.1378E-01  0.1378E-01  0.3560E-01  0.3560E-01
    -14.775  0.1572E-01  0.1572E-01  0.3731E-01  0.3731E-01
    -14.666  0.1749E-01  0.1749E-01  0.3921E-01  0.3921E-01
    -14.558  0.1129E-01  0.1129E-01  0.4044E-01  0.4044E-01
    -14.449  0.8458E-02  0.8458E-02  0.4135E-01  0.4135E-01
    -14.341  0.1550E-01  0.1550E-01  0.4304E-01  0.4304E-01
    -14.232  0.1394E-01  0.1394E-01  0.4455E-01  0.4455E-01
    -14.123  0.8212E-02  0.8212E-02  0.4544E-01  0.4544E-01
    -14.015  0.1102E-01  0.1102E-01  0.4664E-01  0.4664E-01
    -13.906  0.1179E-01  0.1179E-01  0.4792E-01  0.4792E-01
    -13.798  0.1780E-01  0.1780E-01  0.4985E-01  0.4985E-01
    -13.689  0.2278E-01  0.2278E-01  0.5232E-01  0.5232E-01
    -13.581  0.1883E-01  0.1883E-01  0.5437E-01  0.5437E-01
    -13.472  0.1492E-01  0.1492E-01  0.5599E-01  0.5599E-01
    -13.363  0.6831E-02  0.6831E-02  0.5673E-01  0.5673E-01
    -13.255  0.4182E-02  0.4182E-02  0.5719E-01  0.5719E-01
    -13.146  0.5848E-02  0.5848E-02  0.5782E-01  0.5782E-01
    -13.038  0.6889E-02  0.6889E-02  0.5857E-01  0.5857E-01
    -12.929  0.5053E-02  0.5053E-02  0.5912E-01  0.5912E-01
    -12.820  0.5630E-02  0.5630E-02  0.5973E-01  0.5973E-01
    -12.712  0.5928E-02  0.5928E-02  0.6037E-01  0.6037E-01
    -12.603  0.6445E-02  0.6445E-02  0.6107E-01  0.6107E-01
    -12.495  0.5357E-02  0.5357E-02  0.6165E-01  0.6165E-01
    -12.386  0.4051E-02  0.4051E-02  0.6209E-01  0.6209E-01
    -12.278  0.4729E-02  0.4729E-02  0.6261E-01  0.6261E-01
    -12.169  0.7881E-02  0.7881E-02  0.6346E-01  0.6346E-01
    -12.060  0.4494E-02  0.4494E-02  0.6395E-01  0.6395E-01
    -11.952  0.3416E-02  0.3416E-02  0.6432E-01  0.6432E-01
    -11.843  0.3579E-02  0.3579E-02  0.6471E-01  0.6471E-01
    -11.735  0.3935E-02  0.3935E-02  0.6514E-01  0.6514E-01
    -11.626  0.6438E-02  0.6438E-02  0.6584E-01  0.6584E-01
    -11.517  0.6089E-02  0.6089E-02  0.6650E-01  0.6650E-01
    -11.409  0.2404E-02  0.2404E-02  0.6676E-01  0.6676E-01
    -11.300  0.2950E-02  0.2950E-02  0.6708E-01  0.6708E-01
    -11.192  0.6051E-02  0.6051E-02  0.6774E-01  0.6774E-01
    -11.083  0.7736E-02  0.7736E-02  0.6858E-01  0.6858E-01
    -10.975  0.5734E-02  0.5734E-02  0.6920E-01  0.6920E-01
    -10.866  0.5618E-02  0.5618E-02  0.6981E-01  0.6981E-01
    -10.757  0.3836E-02  0.3836E-02  0.7023E-01  0.7023E-01
    -10.649  0.4320E-02  0.4320E-02  0.7069E-01  0.7069E-01
    -10.540  0.7834E-02  0.7834E-02  0.7154E-01  0.7154E-01
    -10.432  0.1324E-01  0.1324E-01  0.7298E-01  0.7298E-01
    -10.323  0.1792E-01  0.1792E-01  0.7493E-01  0.7493E-01
    -10.215  0.1318E-01  0.1318E-01  0.7636E-01  0.7636E-01
    -10.106  0.1361E-01  0.1361E-01  0.7784E-01  0.7784E-01
     -9.997  0.2001E-01  0.2001E-01  0.8001E-01  0.8001E-01
     -9.889  0.1435E-01  0.1435E-01  0.8157E-01  0.8157E-01
     -9.780  0.6256E-02  0.6256E-02  0.8225E-01  0.8225E-01
     -9.672  0.6469E-02  0.6469E-02  0.8295E-01  0.8295E-01
     -9.563  0.1901E-01  0.1901E-01  0.8501E-01  0.8501E-01
     -9.454  0.1937E-01  0.1937E-01  0.8712E-01  0.8712E-01
     -9.346  0.1186E-01  0.1186E-01  0.8840E-01  0.8840E-01
     -9.237  0.1152E-01  0.1152E-01  0.8965E-01  0.8965E-01
     -9.129  0.1422E-01  0.1422E-01  0.9120E-01  0.9120E-01
     -9.020  0.7863E-02  0.7863E-02  0.9205E-01  0.9205E-01
     -8.912  0.1116E-01  0.1116E-01  0.9326E-01  0.9326E-01
     -8.803  0.1752E-01  0.1752E-01  0.9517E-01  0.9517E-01
     -8.694  0.1939E-01  0.1939E-01  0.9727E-01  0.9727E-01
     -8.586  0.1545E-01  0.1545E-01  0.9895E-01  0.9895E-01
     -8.477  0.8773E-02  0.8773E-02  0.9990E-01  0.9990E-01
     -8.369  0.1287E-01  0.1287E-01  0.1013E+00  0.1013E+00
     -8.260  0.2480E-01  0.2480E-01  0.1040E+00  0.1040E+00
     -8.151  0.1725E-01  0.1725E-01  0.1059E+00  0.1059E+00
     -8.043  0.1043E-01  0.1043E-01  0.1070E+00  0.1070E+00
     -7.934  0.1752E-01  0.1752E-01  0.1089E+00  0.1089E+00
     -7.826  0.2419E-01  0.2419E-01  0.1115E+00  0.1115E+00
     -7.717  0.2226E-01  0.2226E-01  0.1139E+00  0.1139E+00
     -7.609  0.1772E-01  0.1772E-01  0.1159E+00  0.1159E+00
     -7.500  0.1437E-01  0.1437E-01  0.1174E+00  0.1174E+00
     -7.391  0.1730E-01  0.1730E-01  0.1193E+00  0.1193E+00
     -7.283  0.1467E-01  0.1467E-01  0.1209E+00  0.1209E+00
     -7.174  0.1314E-01  0.1314E-01  0.1223E+00  0.1223E+00
     -7.066  0.1453E-01  0.1453E-01  0.1239E+00  0.1239E+00
     -6.957  0.1605E-01  0.1605E-01  0.1256E+00  0.1256E+00
     -6.849  0.1523E-01  0.1523E-01  0.1273E+00  0.1273E+00
     -6.740  0.1624E-01  0.1624E-01  0.1291E+00  0.1291E+00
     -6.631  0.2536E-01  0.2536E-01  0.1318E+00  0.1318E+00
     -6.523  0.1908E-01  0.1908E-01  0.1339E+00  0.1339E+00
     -6.414  0.1679E-01  0.1679E-01  0.1357E+00  0.1357E+00
     -6.306  0.1791E-01  0.1791E-01  0.1377E+00  0.1377E+00
     -6.197  0.1356E-01  0.1356E-01  0.1391E+00  0.1391E+00
     -6.088  0.2311E-01  0.2311E-01  0.1416E+00  0.1416E+00
     -5.980  0.2515E-01  0.2515E-01  0.1444E+00  0.1444E+00
     -5.871  0.2339E-01  0.2339E-01  0.1469E+00  0.1469E+00
     -5.763  0.2541E-01  0.2541E-01  0.1497E+00  0.1497E+00
     -5.654  0.2170E-01  0.2170E-01  0.1520E+00  0.1520E+00
     -5.546  0.1899E-01  0.1899E-01  0.1541E+00  0.1541E+00
     -5.437  0.2604E-01  0.2604E-01  0.1569E+00  0.1569E+00
     -5.328  0.2610E-01  0.2610E-01  0.1597E+00  0.1597E+00
     -5.220  0.3291E-01  0.3291E-01  0.1633E+00  0.1633E+00
     -5.111  0.2591E-01  0.2591E-01  0.1661E+00  0.1661E+00
     -5.003  0.1065E-01  0.1065E-01  0.1673E+00  0.1673E+00
     -4.894  0.7574E-02  0.7574E-02  0.1681E+00  0.1681E+00
     -4.785  0.1291E-01  0.1291E-01  0.1695E+00  0.1695E+00
     -4.677  0.1448E-01  0.1448E-01  0.1711E+00  0.1711E+00
     -4.568  0.1246E-01  0.1246E-01  0.1724E+00  0.1724E+00
     -4.460  0.8010E-02  0.8010E-02  0.1733E+00  0.1733E+00
     -4.351  0.8087E-02  0.8087E-02  0.1742E+00  0.1742E+00
     -4.243  0.1610E-01  0.1610E-01  0.1759E+00  0.1759E+00
     -4.134  0.1718E-01  0.1718E-01  0.1778E+00  0.1778E+00
     -4.025  0.1933E-01  0.1933E-01  0.1799E+00  0.1799E+00
     -3.917  0.2572E-01  0.2572E-01  0.1827E+00  0.1827E+00
     -3.808  0.2660E-01  0.2660E-01  0.1856E+00  0.1856E+00
     -3.700  0.2142E-01  0.2142E-01  0.1879E+00  0.1879E+00
     -3.591  0.1628E-01  0.1628E-01  0.1897E+00  0.1897E+00
     -3.483  0.1667E-01  0.1667E-01  0.1915E+00  0.1915E+00
     -3.374  0.1655E-01  0.1655E-01  0.1933E+00  0.1933E+00
     -3.265  0.1727E-01  0.1727E-01  0.1952E+00  0.1952E+00
     -3.157  0.1512E-01  0.1512E-01  0.1968E+00  0.1968E+00
     -3.048  0.1730E-01  0.1730E-01  0.1987E+00  0.1987E+00
     -2.940  0.1663E-01  0.1663E-01  0.2005E+00  0.2005E+00
     -2.831  0.1209E-01  0.1209E-01  0.2018E+00  0.2018E+00
     -2.722  0.1241E-01  0.1241E-01  0.2031E+00  0.2031E+00
     -2.614  0.7520E-02  0.7520E-02  0.2040E+00  0.2040E+00
     -2.505  0.1274E-01  0.1274E-01  0.2053E+00  0.2053E+00
     -2.397  0.1993E-01  0.1993E-01  0.2075E+00  0.2075E+00
     -2.288  0.1045E-01  0.1045E-01  0.2086E+00  0.2086E+00
     -2.180  0.3420E-02  0.3420E-02  0.2090E+00  0.2090E+00
     -2.071  0.5354E-02  0.5354E-02  0.2096E+00  0.2096E+00
     -1.962  0.1061E-01  0.1061E-01  0.2107E+00  0.2107E+00
     -1.854  0.1036E-01  0.1036E-01  0.2119E+00  0.2119E+00
     -1.745  0.1113E-01  0.1113E-01  0.2131E+00  0.2131E+00
     -1.637  0.1123E-01  0.1123E-01  0.2143E+00  0.2143E+00
     -1.528  0.8231E-02  0.8231E-02  0.2152E+00  0.2152E+00
     -1.419  0.6752E-02  0.6752E-02  0.2159E+00  0.2159E+00
     -1.311  0.4422E-02  0.4422E-02  0.2164E+00  0.2164E+00
     -1.202  0.3675E-02  0.3675E-02  0.2168E+00  0.2168E+00
     -1.094  0.3934E-02  0.3934E-02  0.2172E+00  0.2172E+00
     -0.985  0.4220E-02  0.4220E-02  0.2177E+00  0.2177E+00
     -0.877  0.5757E-02  0.5757E-02  0.2183E+00  0.2183E+00
     -0.768  0.2467E-02  0.2467E-02  0.2186E+00  0.2186E+00
     -0.659  0.5036E-03  0.5036E-03  0.2186E+00  0.2186E+00
     -0.551  0.4614E-04  0.4614E-04  0.2186E+00  0.2186E+00
     -0.442  0.1589E-05  0.1589E-05  0.2186E+00  0.2186E+00
     -0.334  0.7382E-04  0.7382E-04  0.2186E+00  0.2186E+00
     -0.225  0.7203E-03  0.7203E-03  0.2187E+00  0.2187E+00
     -0.117  0.9973E-03  0.9973E-03  0.2188E+00  0.2188E+00
     -0.008  0.2010E-03  0.2010E-03  0.2189E+00  0.2189E+00
      0.101  0.5311E-05  0.5311E-05  0.2189E+00  0.2189E+00
      0.209  0.1176E-06  0.1176E-06  0.2189E+00  0.2189E+00
      0.318  0.2699E-04  0.2699E-04  0.2189E+00  0.2189E+00
      0.426  0.8194E-03  0.8194E-03  0.2190E+00  0.2190E+00
      0.535  0.3216E-02  0.3216E-02  0.2193E+00  0.2193E+00
      0.644  0.1853E-02  0.1853E-02  0.2195E+00  0.2195E+00
      0.752  0.1095E-02  0.1095E-02  0.2196E+00  0.2196E+00
      0.861  0.3498E-02  0.3498E-02  0.2200E+00  0.2200E+00
      0.969  0.5299E-02  0.5299E-02  0.2206E+00  0.2206E+00
      1.078  0.9184E-02  0.9184E-02  0.2216E+00  0.2216E+00
      1.186  0.2514E-01  0.2514E-01  0.2243E+00  0.2243E+00
      1.295  0.2040E-01  0.2040E-01  0.2265E+00  0.2265E+00
      1.404  0.4823E-02  0.4823E-02  0.2270E+00  0.2270E+00
      1.512  0.3885E-02  0.3885E-02  0.2275E+00  0.2275E+00
      1.621  0.7900E-02  0.7900E-02  0.2283E+00  0.2283E+00
      1.729  0.1260E-01  0.1260E-01  0.2297E+00  0.2297E+00
      1.838  0.1897E-01  0.1897E-01  0.2317E+00  0.2317E+00
      1.947  0.1428E-01  0.1428E-01  0.2333E+00  0.2333E+00
      2.055  0.7052E-02  0.7052E-02  0.2341E+00  0.2341E+00
      2.164  0.8071E-02  0.8071E-02  0.2349E+00  0.2349E+00
      2.272  0.1000E-01  0.1000E-01  0.2360E+00  0.2360E+00
      2.381  0.7710E-02  0.7710E-02  0.2369E+00  0.2369E+00
      2.489  0.9107E-02  0.9107E-02  0.2379E+00  0.2379E+00
      2.598  0.7171E-02  0.7171E-02  0.2386E+00  0.2386E+00
      2.707  0.7539E-02  0.7539E-02  0.2394E+00  0.2394E+00
      2.815  0.1135E-01  0.1135E-01  0.2407E+00  0.2407E+00
      2.924  0.9284E-02  0.9284E-02  0.2417E+00  0.2417E+00
      3.032  0.6959E-02  0.6959E-02  0.2424E+00  0.2424E+00
      3.141  0.9788E-02  0.9788E-02  0.2435E+00  0.2435E+00
      3.249  0.1040E-01  0.1040E-01  0.2446E+00  0.2446E+00
      3.358  0.9957E-02  0.9957E-02  0.2457E+00  0.2457E+00
      3.467  0.9309E-02  0.9308E-02  0.2467E+00  0.2467E+00
      3.575  0.9652E-02  0.9651E-02  0.2478E+00  0.2478E+00
      3.684  0.9094E-02  0.9095E-02  0.2488E+00  0.2488E+00
      3.792  0.1689E-01  0.1689E-01  0.2506E+00  0.2506E+00
      3.901  0.1992E-01  0.1992E-01  0.2528E+00  0.2528E+00
      4.010  0.1477E-01  0.1477E-01  0.2544E+00  0.2544E+00
      4.118  0.1198E-01  0.1198E-01  0.2557E+00  0.2557E+00
      4.227  0.1689E-01  0.1689E-01  0.2575E+00  0.2575E+00
      4.335  0.2506E-01  0.2505E-01  0.2602E+00  0.2602E+00
      4.444  0.2455E-01  0.2455E-01  0.2629E+00  0.2629E+00
      4.552  0.2106E-01  0.2106E-01  0.2652E+00  0.2652E+00
      4.661  0.2292E-01  0.2292E-01  0.2677E+00  0.2677E+00
      4.770  0.3044E-01  0.3044E-01  0.2710E+00  0.2710E+00
      4.878  0.2454E-01  0.2454E-01  0.2736E+00  0.2736E+00
      4.987  0.2484E-01  0.2484E-01  0.2763E+00  0.2763E+00
      5.095  0.2624E-01  0.2624E-01  0.2792E+00  0.2792E+00
      5.204  0.2513E-01  0.2514E-01  0.2819E+00  0.2819E+00
      5.313  0.2461E-01  0.2460E-01  0.2846E+00  0.2846E+00
      5.421  0.2738E-01  0.2738E-01  0.2876E+00  0.2876E+00
      5.530  0.2020E-01  0.2020E-01  0.2897E+00  0.2897E+00
      5.638  0.2209E-01  0.2209E-01  0.2921E+00  0.2921E+00
      5.747  0.2346E-01  0.2346E-01  0.2947E+00  0.2947E+00
      5.855  0.2173E-01  0.2173E-01  0.2970E+00  0.2970E+00
      5.964  0.2207E-01  0.2207E-01  0.2994E+00  0.2994E+00
      6.073  0.2127E-01  0.2127E-01  0.3018E+00  0.3018E+00
      6.181  0.1668E-01  0.1668E-01  0.3036E+00  0.3036E+00
      6.290  0.1791E-01  0.1791E-01  0.3055E+00  0.3055E+00
      6.398  0.2347E-01  0.2347E-01  0.3081E+00  0.3081E+00
      6.507  0.1983E-01  0.1983E-01  0.3102E+00  0.3102E+00
      6.615  0.1771E-01  0.1771E-01  0.3121E+00  0.3121E+00
      6.724  0.2271E-01  0.2271E-01  0.3146E+00  0.3146E+00
      6.833  0.2875E-01  0.2875E-01  0.3177E+00  0.3177E+00
      6.941  0.2484E-01  0.2484E-01  0.3204E+00  0.3204E+00
      7.050  0.2700E-01  0.2700E-01  0.3234E+00  0.3234E+00
      7.158  0.2820E-01  0.2820E-01  0.3264E+00  0.3264E+00
      7.267  0.2442E-01  0.2442E-01  0.3291E+00  0.3291E+00
      7.376  0.1974E-01  0.1974E-01  0.3312E+00  0.3312E+00
      7.484  0.2491E-01  0.2491E-01  0.3339E+00  0.3339E+00
      7.593  0.2142E-01  0.2142E-01  0.3362E+00  0.3362E+00
      7.701  0.2012E-01  0.2012E-01  0.3384E+00  0.3384E+00
      7.810  0.2421E-01  0.2421E-01  0.3411E+00  0.3411E+00
      7.918  0.1779E-01  0.1779E-01  0.3430E+00  0.3430E+00
      8.027  0.2251E-01  0.2251E-01  0.3454E+00  0.3454E+00
      8.136  0.3180E-01  0.3181E-01  0.3489E+00  0.3489E+00
      8.244  0.3079E-01  0.3079E-01  0.3522E+00  0.3522E+00
      8.353  0.3407E-01  0.3407E-01  0.3559E+00  0.3559E+00
      8.461  0.3307E-01  0.3307E-01  0.3595E+00  0.3595E+00
      8.570  0.3165E-01  0.3164E-01  0.3630E+00  0.3630E+00
      8.679  0.3245E-01  0.3245E-01  0.3665E+00  0.3665E+00
      8.787  0.2495E-01  0.2495E-01  0.3692E+00  0.3692E+00
      8.896  0.2145E-01  0.2145E-01  0.3715E+00  0.3715E+00
      9.004  0.1799E-01  0.1799E-01  0.3735E+00  0.3735E+00
      9.113  0.9161E-02  0.9161E-02  0.3745E+00  0.3745E+00
      9.221  0.4202E-02  0.4202E-02  0.3749E+00  0.3749E+00
      9.330  0.7314E-03  0.7314E-03  0.3750E+00  0.3750E+00
      9.439  0.2177E-04  0.2178E-04  0.3750E+00  0.3750E+00
      9.547  0.8394E-07  0.8396E-07  0.3750E+00  0.3750E+00
      9.656  0.3625E-10  0.3626E-10  0.3750E+00  0.3750E+00
      9.764  0.1626E-14  0.1627E-14  0.3750E+00  0.3750E+00
      9.873  0.0000E+00  0.0000E+00  0.3750E+00  0.3750E+00
      9.981  0.0000E+00  0.0000E+00  0.3750E+00  0.3750E+00
     10.090  0.0000E+00  0.0000E+00  0.3750E+00  0.3750E+00
     10.199  0.0000E+00  0.0000E+00  0.3750E+00  0.3750E+00
     10.307  0.0000E+00  0.0000E+00  0.3750E+00  0.3750E+00
     10.416  0.0000E+00  0.0000E+00  0.3750E+00  0.3750E+00
     10.524  0.0000E+00  0.0000E+00  0.3750E+00  0.3750E+00
     10.633  0.0000E+00  0.0000E+00  0.3750E+00  0.3750E+00
