   8   8   0   0
  0.4338553E+02  0.5169000E-09  0.5169000E-09  0.1500000E-08  0.5000000E-15
  1.000000000000000E-004
  CAR 
 BC3                                     
      9.52876615    -21.28552112  301     -3.47822751      1.00000000
    -21.286  0.0000E+00  0.0000E+00
    -21.183  0.0000E+00  0.0000E+00
    -21.080  0.0000E+00  0.0000E+00
    -20.977  0.0000E+00  0.0000E+00
    -20.875  0.0000E+00  0.0000E+00
    -20.772  0.0000E+00  0.0000E+00
    -20.669  0.0000E+00  0.0000E+00
    -20.567  0.0000E+00  0.0000E+00
    -20.464  0.1787E-18  0.1835E-19
    -20.361  0.1489E-13  0.1530E-14
    -20.258  0.1445E-09  0.1484E-10
    -20.156  0.1914E-06  0.1967E-07
    -20.053  0.3713E-04  0.3833E-05
    -19.950  0.1199E-02  0.1270E-03
    -19.848  0.8108E-02  0.9597E-03
    -19.745  0.1714E-01  0.2720E-02
    -19.642  0.2080E-01  0.4856E-02
    -19.539  0.2343E-01  0.7263E-02
    -19.437  0.2879E-01  0.1022E-01
    -19.334  0.3994E-01  0.1432E-01
    -19.231  0.3925E-01  0.1835E-01
    -19.129  0.1456E-01  0.1985E-01
    -19.026  0.1437E-02  0.2000E-01
    -18.923  0.2907E-04  0.2000E-01
    -18.820  0.9799E-07  0.2000E-01
    -18.718  0.4833E-10  0.2000E-01
    -18.615  0.3249E-14  0.2000E-01
    -18.512  0.0000E+00  0.2000E-01
    -18.410  0.0000E+00  0.2000E-01
    -18.307  0.0000E+00  0.2000E-01
    -18.204  0.6700E-19  0.2000E-01
    -18.101  0.8440E-14  0.2000E-01
    -17.999  0.9808E-10  0.2000E-01
    -17.896  0.1555E-06  0.2000E-01
    -17.793  0.3585E-04  0.2000E-01
    -17.691  0.1359E-02  0.2014E-01
    -17.588  0.1058E-01  0.2123E-01
    -17.485  0.2527E-01  0.2383E-01
    -17.382  0.3226E-01  0.2714E-01
    -17.280  0.2730E-01  0.2994E-01
    -17.177  0.1971E-01  0.3197E-01
    -17.074  0.1845E-01  0.3386E-01
    -16.972  0.1914E-01  0.3583E-01
    -16.869  0.2009E-01  0.3789E-01
    -16.766  0.2147E-01  0.4010E-01
    -16.663  0.2364E-01  0.4252E-01
    -16.561  0.2774E-01  0.4537E-01
    -16.458  0.3441E-01  0.4891E-01
    -16.355  0.3401E-01  0.5240E-01
    -16.253  0.2593E-01  0.5507E-01
    -16.150  0.2057E-01  0.5718E-01
    -16.047  0.1644E-01  0.5887E-01
    -15.944  0.9090E-02  0.5980E-01
    -15.842  0.1860E-02  0.5999E-01
    -15.739  0.8760E-04  0.6000E-01
    -15.636  0.7274E-06  0.6000E-01
    -15.534  0.9223E-09  0.6000E-01
    -15.431  0.1644E-12  0.6000E-01
    -15.328  0.3886E-17  0.6000E-01
    -15.225  0.0000E+00  0.6000E-01
    -15.123  0.0000E+00  0.6000E-01
    -15.020  0.0000E+00  0.6000E-01
    -14.917  0.0000E+00  0.6000E-01
    -14.815  0.0000E+00  0.6000E-01
    -14.712  0.1275E-15  0.6000E-01
    -14.609  0.2967E-11  0.6000E-01
    -14.506  0.9260E-08  0.6000E-01
    -14.404  0.4147E-05  0.6000E-01
    -14.301  0.2995E-03  0.6003E-01
    -14.198  0.4133E-02  0.6046E-01
    -14.096  0.1422E-01  0.6192E-01
    -13.993  0.2118E-01  0.6409E-01
    -13.890  0.2399E-01  0.6656E-01
    -13.787  0.3042E-01  0.6968E-01
    -13.685  0.3484E-01  0.7326E-01
    -13.582  0.2783E-01  0.7612E-01
    -13.479  0.1850E-01  0.7802E-01
    -13.377  0.1507E-01  0.7957E-01
    -13.274  0.1528E-01  0.8113E-01
    -13.171  0.1296E-01  0.8247E-01
    -13.068  0.1408E-01  0.8391E-01
    -12.966  0.1202E-01  0.8515E-01
    -12.863  0.1355E-01  0.8654E-01
    -12.760  0.1349E-01  0.8792E-01
    -12.658  0.1937E-01  0.8991E-01
    -12.555  0.1951E-01  0.9192E-01
    -12.452  0.1887E-01  0.9386E-01
    -12.349  0.1769E-01  0.9567E-01
    -12.247  0.1581E-01  0.9730E-01
    -12.144  0.1524E-01  0.9886E-01
    -12.041  0.1437E-01  0.1003E+00
    -11.939  0.1299E-01  0.1017E+00
    -11.836  0.9771E-02  0.1027E+00
    -11.733  0.6866E-02  0.1034E+00
    -11.630  0.3424E-02  0.1037E+00
    -11.528  0.4628E-02  0.1042E+00
    -11.425  0.6120E-02  0.1048E+00
    -11.322  0.3518E-02  0.1052E+00
    -11.220  0.5763E-02  0.1058E+00
    -11.117  0.1009E-01  0.1068E+00
    -11.014  0.7392E-02  0.1076E+00
    -10.911  0.8256E-02  0.1084E+00
    -10.809  0.1539E-01  0.1100E+00
    -10.706  0.1565E-01  0.1116E+00
    -10.603  0.1387E-01  0.1130E+00
    -10.501  0.1881E-01  0.1150E+00
    -10.398  0.2134E-01  0.1172E+00
    -10.295  0.2051E-01  0.1193E+00
    -10.192  0.2195E-01  0.1215E+00
    -10.090  0.1829E-01  0.1234E+00
     -9.987  0.1307E-01  0.1248E+00
     -9.884  0.1622E-01  0.1264E+00
     -9.782  0.2566E-01  0.1291E+00
     -9.679  0.2753E-01  0.1319E+00
     -9.576  0.2296E-01  0.1342E+00
     -9.473  0.1955E-01  0.1363E+00
     -9.371  0.1916E-01  0.1382E+00
     -9.268  0.1788E-01  0.1401E+00
     -9.165  0.2161E-01  0.1423E+00
     -9.063  0.2054E-01  0.1444E+00
     -8.960  0.2362E-01  0.1468E+00
     -8.857  0.2740E-01  0.1496E+00
     -8.754  0.2548E-01  0.1522E+00
     -8.652  0.2452E-01  0.1548E+00
     -8.549  0.3128E-01  0.1580E+00
     -8.446  0.2819E-01  0.1609E+00
     -8.344  0.2297E-01  0.1632E+00
     -8.241  0.2061E-01  0.1653E+00
     -8.138  0.2014E-01  0.1674E+00
     -8.035  0.2468E-01  0.1699E+00
     -7.933  0.3126E-01  0.1732E+00
     -7.830  0.4078E-01  0.1773E+00
     -7.727  0.4279E-01  0.1817E+00
     -7.625  0.4467E-01  0.1863E+00
     -7.522  0.3823E-01  0.1903E+00
     -7.419  0.2604E-01  0.1929E+00
     -7.316  0.1754E-01  0.1947E+00
     -7.214  0.1977E-01  0.1968E+00
     -7.111  0.2103E-01  0.1989E+00
     -7.008  0.1757E-01  0.2007E+00
     -6.906  0.1609E-01  0.2024E+00
     -6.803  0.1607E-01  0.2040E+00
     -6.700  0.1914E-01  0.2060E+00
     -6.597  0.2595E-01  0.2087E+00
     -6.495  0.4291E-01  0.2131E+00
     -6.392  0.6753E-01  0.2200E+00
     -6.289  0.7946E-01  0.2282E+00
     -6.187  0.5843E-01  0.2342E+00
     -6.084  0.3896E-01  0.2382E+00
     -5.981  0.2743E-01  0.2410E+00
     -5.878  0.2328E-01  0.2434E+00
     -5.776  0.2307E-01  0.2458E+00
     -5.673  0.2518E-01  0.2483E+00
     -5.570  0.2502E-01  0.2509E+00
     -5.468  0.2545E-01  0.2535E+00
     -5.365  0.2983E-01  0.2566E+00
     -5.262  0.2779E-01  0.2594E+00
     -5.159  0.3345E-01  0.2629E+00
     -5.057  0.3731E-01  0.2667E+00
     -4.954  0.4112E-01  0.2709E+00
     -4.851  0.4389E-01  0.2754E+00
     -4.749  0.4731E-01  0.2803E+00
     -4.646  0.4616E-01  0.2850E+00
     -4.543  0.3938E-01  0.2891E+00
     -4.440  0.2844E-01  0.2920E+00
     -4.338  0.1564E-01  0.2936E+00
     -4.235  0.1304E-01  0.2950E+00
     -4.132  0.1186E-01  0.2962E+00
     -4.030  0.1175E-01  0.2974E+00
     -3.927  0.1111E-01  0.2985E+00
     -3.824  0.9464E-02  0.2995E+00
     -3.721  0.4333E-02  0.2999E+00
     -3.619  0.6012E-03  0.3000E+00
     -3.516  0.1709E-04  0.3000E+00
     -3.413  0.4893E-06  0.3000E+00
     -3.311  0.5280E-04  0.3000E+00
     -3.208  0.1234E-02  0.3001E+00
     -3.105  0.7051E-02  0.3009E+00
     -3.002  0.1328E-01  0.3022E+00
     -2.900  0.1575E-01  0.3038E+00
     -2.797  0.1940E-01  0.3058E+00
     -2.694  0.2128E-01  0.3080E+00
     -2.592  0.2908E-01  0.3110E+00
     -2.489  0.2127E-01  0.3132E+00
     -2.386  0.1589E-01  0.3148E+00
     -2.283  0.1378E-01  0.3162E+00
     -2.181  0.8921E-02  0.3172E+00
     -2.078  0.8511E-02  0.3180E+00
     -1.975  0.7213E-02  0.3188E+00
     -1.873  0.3436E-02  0.3191E+00
     -1.770  0.3525E-02  0.3195E+00
     -1.667  0.2329E-02  0.3197E+00
     -1.564  0.1225E-02  0.3198E+00
     -1.462  0.1195E-02  0.3200E+00
     -1.359  0.3078E-03  0.3200E+00
     -1.256  0.4879E-03  0.3201E+00
     -1.154  0.1319E-02  0.3202E+00
     -1.051  0.1280E-02  0.3203E+00
     -0.948  0.2929E-02  0.3206E+00
     -0.845  0.3266E-02  0.3210E+00
     -0.743  0.3237E-02  0.3213E+00
     -0.640  0.6129E-02  0.3219E+00
     -0.537  0.5826E-02  0.3225E+00
     -0.435  0.6080E-02  0.3231E+00
     -0.332  0.1182E-01  0.3244E+00
     -0.229  0.1428E-01  0.3258E+00
     -0.126  0.2654E-01  0.3285E+00
     -0.024  0.3173E-01  0.3318E+00
      0.079  0.2041E-01  0.3339E+00
      0.182  0.1656E-01  0.3356E+00
      0.284  0.1553E-01  0.3372E+00
      0.387  0.1374E-01  0.3386E+00
      0.490  0.1374E-01  0.3400E+00
      0.593  0.1527E-01  0.3416E+00
      0.695  0.1408E-01  0.3430E+00
      0.798  0.1119E-01  0.3442E+00
      0.901  0.1347E-01  0.3456E+00
      1.003  0.1791E-01  0.3474E+00
      1.106  0.1886E-01  0.3493E+00
      1.209  0.1929E-01  0.3513E+00
      1.312  0.2039E-01  0.3534E+00
      1.414  0.2061E-01  0.3555E+00
      1.517  0.2313E-01  0.3579E+00
      1.620  0.2377E-01  0.3604E+00
      1.722  0.2502E-01  0.3629E+00
      1.825  0.2281E-01  0.3653E+00
      1.928  0.2714E-01  0.3681E+00
      2.031  0.3189E-01  0.3713E+00
      2.133  0.2997E-01  0.3744E+00
      2.236  0.2990E-01  0.3775E+00
      2.339  0.3782E-01  0.3814E+00
      2.441  0.3897E-01  0.3854E+00
      2.544  0.3925E-01  0.3894E+00
      2.647  0.3672E-01  0.3932E+00
      2.750  0.3885E-01  0.3972E+00
      2.852  0.4067E-01  0.4013E+00
      2.955  0.3587E-01  0.4050E+00
      3.058  0.3868E-01  0.4090E+00
      3.160  0.3769E-01  0.4129E+00
      3.263  0.4016E-01  0.4170E+00
      3.366  0.3451E-01  0.4205E+00
      3.469  0.4052E-01  0.4247E+00
      3.571  0.3834E-01  0.4286E+00
      3.674  0.3467E-01  0.4322E+00
      3.777  0.4036E-01  0.4363E+00
      3.879  0.3990E-01  0.4404E+00
      3.982  0.3880E-01  0.4444E+00
      4.085  0.3788E-01  0.4483E+00
      4.188  0.3465E-01  0.4519E+00
      4.290  0.3429E-01  0.4554E+00
      4.393  0.4029E-01  0.4595E+00
      4.496  0.4819E-01  0.4645E+00
      4.598  0.5185E-01  0.4698E+00
      4.701  0.4802E-01  0.4747E+00
      4.804  0.4536E-01  0.4794E+00
      4.907  0.5520E-01  0.4851E+00
      5.009  0.6421E-01  0.4917E+00
      5.112  0.5834E-01  0.4977E+00
      5.215  0.6232E-01  0.5041E+00
      5.317  0.7429E-01  0.5117E+00
      5.420  0.7817E-01  0.5197E+00
      5.523  0.7660E-01  0.5276E+00
      5.626  0.7510E-01  0.5353E+00
      5.728  0.6319E-01  0.5418E+00
      5.831  0.6519E-01  0.5485E+00
      5.934  0.7713E-01  0.5564E+00
      6.036  0.8015E-01  0.5646E+00
      6.139  0.7387E-01  0.5722E+00
      6.242  0.6563E-01  0.5790E+00
      6.345  0.6905E-01  0.5861E+00
      6.447  0.7933E-01  0.5942E+00
      6.550  0.7100E-01  0.6015E+00
      6.653  0.6037E-01  0.6077E+00
      6.755  0.6111E-01  0.6140E+00
      6.858  0.6912E-01  0.6211E+00
      6.961  0.6085E-01  0.6273E+00
      7.064  0.4516E-01  0.6320E+00
      7.166  0.3055E-01  0.6351E+00
      7.269  0.1368E-01  0.6365E+00
      7.372  0.8321E-02  0.6374E+00
      7.474  0.8901E-02  0.6383E+00
      7.577  0.5658E-02  0.6389E+00
      7.680  0.2415E-02  0.6391E+00
      7.783  0.1809E-02  0.6393E+00
      7.885  0.2793E-02  0.6396E+00
      7.988  0.1834E-02  0.6398E+00
      8.091  0.1523E-02  0.6399E+00
      8.193  0.5687E-03  0.6400E+00
      8.296  0.8504E-04  0.6400E+00
      8.399  0.3626E-05  0.6400E+00
      8.502  0.2598E-07  0.6400E+00
      8.604  0.2571E-10  0.6400E+00
      8.707  0.3303E-14  0.6400E+00
      8.810  0.4466E-19  0.6400E+00
      8.912  0.0000E+00  0.6400E+00
      9.015  0.0000E+00  0.6400E+00
      9.118  0.0000E+00  0.6400E+00
      9.221  0.0000E+00  0.6400E+00
      9.323  0.0000E+00  0.6400E+00
      9.426  0.0000E+00  0.6400E+00
      9.529  0.0000E+00  0.6400E+00
