 ----------------------------------------------------
    OOO  PPPP  EEEEE N   N M   M PPPP
   O   O P   P E     NN  N MM MM P   P
   O   O PPPP  EEEEE N N N M M M PPPP   -- VERSION
   O   O P     E     N  NN M   M P
    OOO  P     EEEEE N   N M   M P
 ----------------------------------------------------
 running   48 mpi-ranks, with    1 threads/rank
 distrk:  each k-point on   48 cores,    1 groups
 distr:  one band on    1 cores,   48 groups
 vasp.6.3.2 27Jun22 (build Dec 22 2022 13:13:19) complex                        
  
 POSCAR found type information on POSCAR B C 
 POSCAR found :  2 types and      15 ions
 Reading from existing POTCAR
 scaLAPACK will be used
 Reading from existing POTCAR
 LDA part: xc-table for Pade appr. of Perdew
 POSCAR found type information on POSCAR B C 
 POSCAR found :  2 types and      15 ions
 POSCAR, INCAR and KPOINTS ok, starting setup
 FFT: planning ... GRIDC
 FFT: planning ... GRID_SOFT
 FFT: planning ... GRID
 WAVECAR not read
 entering main loop
       N       E                     dE             d eps       ncg     rms          rms(c)
DAV:   1     0.197714833721E+03    0.19771E+03   -0.25902E+04 35040   0.863E+02
DAV:   2    -0.122628686909E+03   -0.32034E+03   -0.31917E+03 50016   0.163E+02
DAV:   3    -0.135639787143E+03   -0.13011E+02   -0.13007E+02 64896   0.430E+01
DAV:   4    -0.135666199641E+03   -0.26412E-01   -0.26412E-01 50064   0.188E+00
DAV:   5    -0.135666260654E+03   -0.61014E-04   -0.61014E-04 61920   0.912E-02    0.173E+01
DAV:   6    -0.127885591865E+03    0.77807E+01   -0.15692E+01 65424   0.104E+01    0.962E+00
DAV:   7    -0.125770271005E+03    0.21153E+01   -0.40914E+00 70080   0.616E+00    0.383E+00
DAV:   8    -0.125588432469E+03    0.18184E+00   -0.65118E-01 68016   0.243E+00    0.102E+00
DAV:   9    -0.125564517574E+03    0.23915E-01   -0.37881E-02 56016   0.650E-01    0.176E-01
DAV:  10    -0.125554670632E+03    0.98469E-02   -0.54177E-03 67584   0.193E-01    0.125E-01
DAV:  11    -0.125547130998E+03    0.75396E-02   -0.12175E-02 60192   0.226E-01    0.848E-02
DAV:  12    -0.125548316031E+03   -0.11850E-02   -0.59088E-04 40512   0.646E-02    0.440E-02
DAV:  13    -0.125550478885E+03   -0.21629E-02   -0.50370E-04 60576   0.625E-02    0.173E-02
DAV:  14    -0.125552078364E+03   -0.15995E-02   -0.14343E-04 58704   0.271E-02    0.951E-03
DAV:  15    -0.125553123278E+03   -0.10449E-02   -0.15728E-04 53184   0.226E-02    0.570E-03
DAV:  16    -0.125553278692E+03   -0.15541E-03   -0.19048E-05 53904   0.805E-03    0.146E-03
DAV:  17    -0.125553301487E+03   -0.22794E-04   -0.14435E-06 53424   0.246E-03    0.513E-04
DAV:  18    -0.125553305084E+03   -0.35974E-05   -0.16244E-07 56976   0.871E-04    0.116E-04
DAV:  19    -0.125553305335E+03   -0.25089E-06   -0.58041E-09 54528   0.222E-04
   1 F= -.12713521E+03 E0= -.12713505E+03  d E =-.308605E-03
 writing wavefunctions
