   8   8   0  16
  0.4142730E+02  0.5051000E-09  0.5051000E-09  0.1500000E-08  0.5000000E-15
  1.000000000000000E-004
  CAR 
 Lattice                                 
     13.31050493    -19.37554139  301     -2.22074090      1.00000000
    -19.376  0.0000E+00  0.0000E+00
    -19.267  0.0000E+00  0.0000E+00
    -19.158  0.0000E+00  0.0000E+00
    -19.049  0.0000E+00  0.0000E+00
    -18.940  0.0000E+00  0.0000E+00
    -18.831  0.0000E+00  0.0000E+00
    -18.722  0.0000E+00  0.0000E+00
    -18.613  0.0000E+00  0.0000E+00
    -18.504  0.0000E+00  0.0000E+00
    -18.395  0.2477E-15  0.2699E-16
    -18.286  0.7173E-11  0.7816E-12
    -18.177  0.2188E-07  0.2384E-08
    -18.068  0.7565E-05  0.8266E-06
    -17.959  0.3427E-03  0.3816E-04
    -17.850  0.2659E-02  0.3278E-03
    -17.741  0.5612E-02  0.9393E-03
    -17.632  0.6410E-02  0.1638E-02
    -17.523  0.6599E-02  0.2357E-02
    -17.414  0.6838E-02  0.3102E-02
    -17.305  0.7209E-02  0.3887E-02
    -17.196  0.7875E-02  0.4745E-02
    -17.088  0.9413E-02  0.5771E-02
    -16.979  0.9192E-02  0.6772E-02
    -16.870  0.5523E-02  0.7374E-02
    -16.761  0.2799E-02  0.7679E-02
    -16.652  0.1181E-02  0.7808E-02
    -16.543  0.1082E-02  0.7925E-02
    -16.434  0.2646E-02  0.8214E-02
    -16.325  0.5668E-02  0.8831E-02
    -16.216  0.8667E-02  0.9775E-02
    -16.107  0.7066E-02  0.1055E-01
    -15.998  0.5911E-02  0.1119E-01
    -15.889  0.4530E-02  0.1168E-01
    -15.780  0.4586E-02  0.1218E-01
    -15.671  0.3522E-02  0.1257E-01
    -15.562  0.3619E-02  0.1296E-01
    -15.453  0.3138E-02  0.1330E-01
    -15.344  0.2587E-02  0.1358E-01
    -15.235  0.2973E-02  0.1391E-01
    -15.126  0.1968E-02  0.1412E-01
    -15.017  0.2206E-02  0.1436E-01
    -14.908  0.2151E-02  0.1460E-01
    -14.799  0.1299E-02  0.1474E-01
    -14.691  0.2226E-02  0.1498E-01
    -14.582  0.4262E-02  0.1545E-01
    -14.473  0.6002E-02  0.1610E-01
    -14.364  0.7561E-02  0.1692E-01
    -14.255  0.7810E-02  0.1777E-01
    -14.146  0.8726E-02  0.1873E-01
    -14.037  0.1162E-01  0.1999E-01
    -13.928  0.1209E-01  0.2131E-01
    -13.819  0.8913E-02  0.2228E-01
    -13.710  0.6685E-02  0.2301E-01
    -13.601  0.3551E-02  0.2339E-01
    -13.492  0.6311E-03  0.2346E-01
    -13.383  0.3118E-03  0.2350E-01
    -13.274  0.8346E-03  0.2359E-01
    -13.165  0.4877E-03  0.2364E-01
    -13.056  0.1039E-02  0.2376E-01
    -12.947  0.1433E-02  0.2391E-01
    -12.838  0.1519E-02  0.2408E-01
    -12.729  0.4662E-02  0.2458E-01
    -12.620  0.9545E-02  0.2562E-01
    -12.511  0.1096E-01  0.2682E-01
    -12.403  0.5962E-02  0.2747E-01
    -12.294  0.8021E-02  0.2834E-01
    -12.185  0.4455E-02  0.2883E-01
    -12.076  0.2611E-02  0.2911E-01
    -11.967  0.5851E-02  0.2975E-01
    -11.858  0.3232E-02  0.3010E-01
    -11.749  0.1388E-02  0.3025E-01
    -11.640  0.5423E-02  0.3084E-01
    -11.531  0.1177E-01  0.3213E-01
    -11.422  0.9827E-02  0.3320E-01
    -11.313  0.1024E-01  0.3431E-01
    -11.204  0.7636E-02  0.3514E-01
    -11.095  0.6950E-02  0.3590E-01
    -10.986  0.1113E-01  0.3711E-01
    -10.877  0.7616E-02  0.3794E-01
    -10.768  0.6949E-02  0.3870E-01
    -10.659  0.1013E-01  0.3980E-01
    -10.550  0.5875E-02  0.4044E-01
    -10.441  0.7423E-02  0.4125E-01
    -10.332  0.7808E-02  0.4210E-01
    -10.223  0.5256E-02  0.4268E-01
    -10.114  0.6775E-02  0.4342E-01
    -10.006  0.5503E-02  0.4401E-01
     -9.897  0.7735E-02  0.4486E-01
     -9.788  0.6522E-02  0.4557E-01
     -9.679  0.6725E-02  0.4630E-01
     -9.570  0.5519E-02  0.4690E-01
     -9.461  0.3517E-02  0.4729E-01
     -9.352  0.2685E-02  0.4758E-01
     -9.243  0.2567E-02  0.4786E-01
     -9.134  0.4719E-02  0.4837E-01
     -9.025  0.4393E-02  0.4885E-01
     -8.916  0.4435E-02  0.4933E-01
     -8.807  0.6100E-02  0.5000E-01
     -8.698  0.9530E-02  0.5104E-01
     -8.589  0.1277E-01  0.5243E-01
     -8.480  0.1681E-01  0.5426E-01
     -8.371  0.1465E-01  0.5585E-01
     -8.262  0.6945E-02  0.5661E-01
     -8.153  0.4308E-02  0.5708E-01
     -8.044  0.4469E-02  0.5757E-01
     -7.935  0.4160E-02  0.5802E-01
     -7.826  0.4734E-02  0.5854E-01
     -7.718  0.4461E-02  0.5902E-01
     -7.609  0.4904E-02  0.5956E-01
     -7.500  0.5671E-02  0.6017E-01
     -7.391  0.5865E-02  0.6081E-01
     -7.282  0.6679E-02  0.6154E-01
     -7.173  0.3996E-02  0.6198E-01
     -7.064  0.5002E-02  0.6252E-01
     -6.955  0.4497E-02  0.6301E-01
     -6.846  0.4067E-02  0.6346E-01
     -6.737  0.4086E-02  0.6390E-01
     -6.628  0.5326E-02  0.6448E-01
     -6.519  0.6279E-02  0.6516E-01
     -6.410  0.1099E-01  0.6636E-01
     -6.301  0.1435E-01  0.6793E-01
     -6.192  0.1380E-01  0.6943E-01
     -6.083  0.1374E-01  0.7093E-01
     -5.974  0.1346E-01  0.7239E-01
     -5.865  0.1871E-01  0.7443E-01
     -5.756  0.1969E-01  0.7658E-01
     -5.647  0.1099E-01  0.7777E-01
     -5.538  0.7131E-02  0.7855E-01
     -5.429  0.6514E-02  0.7926E-01
     -5.321  0.7510E-02  0.8008E-01
     -5.212  0.4269E-02  0.8054E-01
     -5.103  0.4630E-02  0.8105E-01
     -4.994  0.5303E-02  0.8163E-01
     -4.885  0.3767E-02  0.8204E-01
     -4.776  0.5392E-02  0.8262E-01
     -4.667  0.5618E-02  0.8324E-01
     -4.558  0.6472E-02  0.8394E-01
     -4.449  0.5015E-02  0.8449E-01
     -4.340  0.5262E-02  0.8506E-01
     -4.231  0.7484E-02  0.8588E-01
     -4.122  0.4922E-02  0.8641E-01
     -4.013  0.4194E-02  0.8687E-01
     -3.904  0.6505E-02  0.8758E-01
     -3.795  0.4910E-02  0.8811E-01
     -3.686  0.4579E-02  0.8861E-01
     -3.577  0.4522E-02  0.8911E-01
     -3.468  0.4921E-02  0.8964E-01
     -3.359  0.5103E-02  0.9020E-01
     -3.250  0.6227E-02  0.9088E-01
     -3.141  0.4729E-02  0.9139E-01
     -3.033  0.3945E-02  0.9182E-01
     -2.924  0.3032E-02  0.9215E-01
     -2.815  0.2604E-02  0.9243E-01
     -2.706  0.1962E-02  0.9265E-01
     -2.597  0.2677E-02  0.9294E-01
     -2.488  0.2106E-02  0.9317E-01
     -2.379  0.7291E-03  0.9325E-01
     -2.270  0.2751E-02  0.9355E-01
     -2.161  0.3667E-02  0.9395E-01
     -2.052  0.2991E-02  0.9427E-01
     -1.943  0.6024E-02  0.9493E-01
     -1.834  0.6171E-02  0.9560E-01
     -1.725  0.5103E-02  0.9616E-01
     -1.616  0.5117E-02  0.9672E-01
     -1.507  0.5311E-02  0.9730E-01
     -1.398  0.6558E-02  0.9801E-01
     -1.289  0.8002E-02  0.9888E-01
     -1.180  0.5355E-02  0.9947E-01
     -1.071  0.1768E-02  0.9966E-01
     -0.962  0.3677E-02  0.1001E+00
     -0.853  0.7208E-02  0.1008E+00
     -0.744  0.8285E-02  0.1017E+00
     -0.636  0.3529E-02  0.1021E+00
     -0.527  0.3415E-02  0.1025E+00
     -0.418  0.4811E-02  0.1030E+00
     -0.309  0.6627E-02  0.1037E+00
     -0.200  0.7167E-02  0.1045E+00
     -0.091  0.5801E-02  0.1052E+00
      0.018  0.5474E-02  0.1058E+00
      0.127  0.5189E-02  0.1063E+00
      0.236  0.5331E-02  0.1069E+00
      0.345  0.7411E-02  0.1077E+00
      0.454  0.9015E-02  0.1087E+00
      0.563  0.9029E-02  0.1097E+00
      0.672  0.6212E-02  0.1104E+00
      0.781  0.4414E-02  0.1108E+00
      0.890  0.1049E-01  0.1120E+00
      0.999  0.2051E-01  0.1142E+00
      1.108  0.1804E-01  0.1162E+00
      1.217  0.1500E-01  0.1178E+00
      1.326  0.1359E-01  0.1193E+00
      1.435  0.1031E-01  0.1204E+00
      1.544  0.1253E-01  0.1218E+00
      1.652  0.2033E-01  0.1240E+00
      1.761  0.2353E-01  0.1266E+00
      1.870  0.1751E-01  0.1285E+00
      1.979  0.1321E-01  0.1299E+00
      2.088  0.1364E-01  0.1314E+00
      2.197  0.1592E-01  0.1331E+00
      2.306  0.2008E-01  0.1353E+00
      2.415  0.2185E-01  0.1377E+00
      2.524  0.2176E-01  0.1401E+00
      2.633  0.2032E-01  0.1423E+00
      2.742  0.2247E-01  0.1447E+00
      2.851  0.2114E-01  0.1470E+00
      2.960  0.1937E-01  0.1491E+00
      3.069  0.2191E-01  0.1515E+00
      3.178  0.2717E-01  0.1545E+00
      3.287  0.2571E-01  0.1573E+00
      3.396  0.1948E-01  0.1594E+00
      3.505  0.2100E-01  0.1617E+00
      3.614  0.2237E-01  0.1641E+00
      3.723  0.2145E-01  0.1665E+00
      3.832  0.1924E-01  0.1686E+00
      3.941  0.2500E-01  0.1713E+00
      4.049  0.2769E-01  0.1743E+00
      4.158  0.2170E-01  0.1767E+00
      4.267  0.2140E-01  0.1790E+00
      4.376  0.2607E-01  0.1819E+00
      4.485  0.2219E-01  0.1843E+00
      4.594  0.2113E-01  0.1866E+00
      4.703  0.2332E-01  0.1891E+00
      4.812  0.2570E-01  0.1919E+00
      4.921  0.2711E-01  0.1949E+00
      5.030  0.2628E-01  0.1977E+00
      5.139  0.2865E-01  0.2008E+00
      5.248  0.2954E-01  0.2041E+00
      5.357  0.3009E-01  0.2073E+00
      5.466  0.2681E-01  0.2103E+00
      5.575  0.1928E-01  0.2124E+00
      5.684  0.1984E-01  0.2145E+00
      5.793  0.2743E-01  0.2175E+00
      5.902  0.2651E-01  0.2204E+00
      6.011  0.2776E-01  0.2234E+00
      6.120  0.2204E-01  0.2258E+00
      6.229  0.2063E-01  0.2281E+00
      6.337  0.2549E-01  0.2309E+00
      6.446  0.2762E-01  0.2339E+00
      6.555  0.2687E-01  0.2368E+00
      6.664  0.2428E-01  0.2394E+00
      6.773  0.2372E-01  0.2420E+00
      6.882  0.2115E-01  0.2443E+00
      6.991  0.2562E-01  0.2471E+00
      7.100  0.2765E-01  0.2501E+00
      7.209  0.2576E-01  0.2529E+00
      7.318  0.2314E-01  0.2555E+00
      7.427  0.2361E-01  0.2580E+00
      7.536  0.2225E-01  0.2605E+00
      7.645  0.2573E-01  0.2633E+00
      7.754  0.2540E-01  0.2660E+00
      7.863  0.2232E-01  0.2685E+00
      7.972  0.1544E-01  0.2701E+00
      8.081  0.1080E-01  0.2713E+00
      8.190  0.1693E-01  0.2732E+00
      8.299  0.2644E-01  0.2760E+00
      8.408  0.2482E-01  0.2787E+00
      8.517  0.1881E-01  0.2808E+00
      8.626  0.1698E-01  0.2826E+00
      8.734  0.2161E-01  0.2850E+00
      8.843  0.2636E-01  0.2879E+00
      8.952  0.3131E-01  0.2913E+00
      9.061  0.3235E-01  0.2948E+00
      9.170  0.3393E-01  0.2985E+00
      9.279  0.3645E-01  0.3025E+00
      9.388  0.3353E-01  0.3061E+00
      9.497  0.3043E-01  0.3094E+00
      9.606  0.3554E-01  0.3133E+00
      9.715  0.3506E-01  0.3171E+00
      9.824  0.4041E-01  0.3215E+00
      9.933  0.4096E-01  0.3260E+00
     10.042  0.3239E-01  0.3295E+00
     10.151  0.3479E-01  0.3333E+00
     10.260  0.3785E-01  0.3374E+00
     10.369  0.3991E-01  0.3418E+00
     10.478  0.3928E-01  0.3461E+00
     10.587  0.3451E-01  0.3498E+00
     10.696  0.2801E-01  0.3529E+00
     10.805  0.2355E-01  0.3555E+00
     10.914  0.2320E-01  0.3580E+00
     11.022  0.2386E-01  0.3606E+00
     11.131  0.2434E-01  0.3632E+00
     11.240  0.2759E-01  0.3662E+00
     11.349  0.2679E-01  0.3692E+00
     11.458  0.2198E-01  0.3716E+00
     11.567  0.1458E-01  0.3731E+00
     11.676  0.9561E-02  0.3742E+00
     11.785  0.5530E-02  0.3748E+00
     11.894  0.1694E-02  0.3750E+00
     12.003  0.2683E-03  0.3750E+00
     12.112  0.8881E-05  0.3750E+00
     12.221  0.3634E-07  0.3750E+00
     12.330  0.1569E-10  0.3750E+00
     12.439  0.6753E-15  0.3750E+00
     12.548  0.0000E+00  0.3750E+00
     12.657  0.0000E+00  0.3750E+00
     12.766  0.0000E+00  0.3750E+00
     12.875  0.0000E+00  0.3750E+00
     12.984  0.0000E+00  0.3750E+00
     13.093  0.0000E+00  0.3750E+00
     13.202  0.0000E+00  0.3750E+00
     13.311  0.0000E+00  0.3750E+00
