       N       E                     dE             d eps       ncg     rms          rms(c)
DAV:   1     0.186290708026E+03    0.18629E+03   -0.25257E+04  8256   0.861E+02
DAV:   2    -0.118194448883E+03   -0.30449E+03   -0.30365E+03 12960   0.157E+02
DAV:   3    -0.127551795438E+03   -0.93573E+01   -0.93308E+01 14016   0.366E+01
DAV:   4    -0.127579287890E+03   -0.27492E-01   -0.27491E-01 12384   0.178E+00
DAV:   5    -0.127579329709E+03   -0.41819E-04   -0.41819E-04 13152   0.772E-02    0.225E+01
DAV:   6    -0.944110419473E+02    0.33168E+02   -0.57897E+01 10560   0.216E+01    0.122E+01
DAV:   7    -0.105603841802E+03   -0.11193E+02   -0.13832E+01 12576   0.110E+01    0.667E+00
DAV:   8    -0.111454488169E+03   -0.58506E+01   -0.51163E+00 12336   0.646E+00    0.373E+00
DAV:   9    -0.116722880340E+03   -0.52684E+01   -0.27725E+00 10272   0.468E+00    0.253E+00
DAV:  10    -0.120891133720E+03   -0.41683E+01   -0.32315E+00 12192   0.473E+00    0.135E+00
DAV:  11    -0.122769718705E+03   -0.18786E+01   -0.14693E+00 11856   0.284E+00    0.817E-01
DAV:  12    -0.123757403470E+03   -0.98768E+00   -0.78980E-01 13200   0.193E+00    0.404E-01
DAV:  13    -0.124063860985E+03   -0.30646E+00   -0.19135E-01 12000   0.966E-01    0.195E-01
DAV:  14    -0.124118202560E+03   -0.54342E-01   -0.30109E-02 10992   0.405E-01    0.108E-01
DAV:  15    -0.124141218165E+03   -0.23016E-01   -0.14350E-02  9888   0.295E-01    0.576E-02
DAV:  16    -0.124142734906E+03   -0.15167E-02   -0.22979E-03  9888   0.177E-01    0.364E-02
DAV:  17    -0.124143447729E+03   -0.71282E-03   -0.73103E-04  9072   0.929E-02    0.154E-02
DAV:  18    -0.124143471819E+03   -0.24090E-04   -0.17321E-04  9120   0.479E-02    0.839E-03
DAV:  19    -0.124143518787E+03   -0.46968E-04   -0.37475E-05  8544   0.275E-02    0.498E-03
DAV:  20    -0.124143545665E+03   -0.26878E-04   -0.20008E-05  8736   0.185E-02    0.361E-03
DAV:  21    -0.124143593288E+03   -0.47624E-04   -0.17041E-05  8544   0.163E-02    0.226E-03
DAV:  22    -0.124143618317E+03   -0.25028E-04   -0.55253E-06 10176   0.925E-03    0.133E-03
DAV:  23    -0.124143622286E+03   -0.39688E-05   -0.19589E-06 10704   0.538E-03    0.626E-04
DAV:  24    -0.124143625476E+03   -0.31903E-05   -0.41265E-07 12864   0.238E-03    0.330E-04
DAV:  25    -0.124143626796E+03   -0.13197E-05   -0.18799E-07 10032   0.159E-03    0.173E-04
DAV:  26    -0.124143627151E+03   -0.35552E-06   -0.98188E-08 13200   0.125E-03    0.888E-05
DAV:  27    -0.124143627227E+03   -0.76246E-07   -0.39739E-08 12240   0.826E-04    0.441E-05
DAV:  28    -0.124143627243E+03   -0.15852E-07   -0.15449E-08 12240   0.519E-04    0.208E-05
DAV:  29    -0.124143627243E+03    0.32833E-09   -0.37193E-09 13968   0.268E-04
   1 F= -.12562483E+03 E0= -.12562180E+03  d E =-.125625E+03  mag=    -0.0000
       N       E                     dE             d eps       ncg     rms          rms(c)
DAV:   1    -0.124145535768E+03   -0.19085E-02   -0.31873E-01  8448   0.144E+00    0.188E-01
DAV:   2    -0.124143998032E+03    0.15377E-02   -0.75313E-03 12576   0.213E-01    0.833E-02
DAV:   3    -0.124143749889E+03    0.24814E-03   -0.12095E-03 13824   0.753E-02    0.228E-02
DAV:   4    -0.124143740868E+03    0.90205E-05   -0.87234E-05 11328   0.227E-02    0.831E-03
DAV:   5    -0.124143740843E+03    0.24983E-07   -0.52350E-06 12624   0.580E-03    0.246E-03
DAV:   6    -0.124143741444E+03   -0.60104E-06   -0.16668E-06  9312   0.284E-03    0.686E-04
DAV:   7    -0.124143742475E+03   -0.10305E-05   -0.10309E-07  9936   0.872E-04    0.405E-04
DAV:   8    -0.124143743041E+03   -0.56591E-06   -0.26383E-08  9936   0.407E-04    0.214E-04
DAV:   9    -0.124143743561E+03   -0.52065E-06   -0.33343E-08  9840   0.347E-04    0.156E-04
DAV:  10    -0.124143743822E+03   -0.26041E-06   -0.22888E-08 11088   0.302E-04    0.842E-05
DAV:  11    -0.124143743925E+03   -0.10279E-06   -0.11726E-08 10272   0.286E-04    0.372E-05
DAV:  12    -0.124143743941E+03   -0.16622E-07   -0.43068E-09 12864   0.260E-04    0.292E-05
DAV:  13    -0.124143743949E+03   -0.79999E-08   -0.29467E-09 10224   0.223E-04
   2 F= -.12562513E+03 E0= -.12562211E+03  d E =-.301719E-03  mag=    -0.0000
       N       E                     dE             d eps       ncg     rms          rms(c)
DAV:   1    -0.124145060385E+03   -0.13164E-02   -0.68233E-02  8448   0.666E-01    0.868E-02
DAV:   2    -0.124144734805E+03    0.32558E-03   -0.16149E-03 12864   0.990E-02    0.385E-02
DAV:   3    -0.124144682068E+03    0.52737E-04   -0.26259E-04 13920   0.349E-02    0.104E-02
DAV:   4    -0.124144680333E+03    0.17357E-05   -0.18425E-05 12528   0.104E-02    0.385E-03
DAV:   5    -0.124144680400E+03   -0.67851E-07   -0.11077E-06 13584   0.265E-03    0.115E-03
DAV:   6    -0.124144680451E+03   -0.50679E-07   -0.34878E-07 10368   0.135E-03    0.315E-04
DAV:   7    -0.124144680571E+03   -0.12010E-06   -0.23192E-08  9936   0.533E-04    0.189E-04
DAV:   8    -0.124144680642E+03   -0.71017E-07   -0.11247E-08 10656   0.388E-04    0.102E-04
DAV:   9    -0.124144680712E+03   -0.69985E-07   -0.78291E-09 10176   0.276E-04    0.713E-05
DAV:  10    -0.124144680755E+03   -0.42280E-07   -0.65717E-09 10368   0.263E-04    0.379E-05
DAV:  11    -0.124144680770E+03   -0.15168E-07   -0.50893E-09 11472   0.285E-04    0.190E-05
DAV:  12    -0.124144680773E+03   -0.33128E-08   -0.33009E-09 10656   0.246E-04
   3 F= -.12562599E+03 E0= -.12562297E+03  d E =-.115334E-02  mag=     0.0000
       N       E                     dE             d eps       ncg     rms          rms(c)
DAV:   1    -0.124144687377E+03   -0.66075E-05   -0.45758E-03  8352   0.250E-01    0.118E-02
DAV:   2    -0.124144686583E+03    0.79413E-06   -0.52960E-05  9984   0.285E-02    0.730E-03
DAV:   3    -0.124144685938E+03    0.64524E-06   -0.65808E-06  9216   0.879E-03    0.183E-03
DAV:   4    -0.124144685975E+03   -0.37217E-07   -0.86425E-07 13248   0.322E-03    0.754E-04
DAV:   5    -0.124144685978E+03   -0.28904E-08   -0.41613E-08 11616   0.797E-04
   4 F= -.12562604E+03 E0= -.12562302E+03  d E =-.505948E-04  mag=    -0.0000
       N       E                     dE             d eps       ncg     rms          rms(c)
DAV:   1    -0.124144713008E+03   -0.27033E-04   -0.41196E-02  8256   0.749E-01    0.354E-02
DAV:   2    -0.124144705961E+03    0.70473E-05   -0.47735E-04  9408   0.857E-02    0.219E-02
DAV:   3    -0.124144699796E+03    0.61647E-05   -0.60199E-05 10848   0.265E-02    0.538E-03
DAV:   4    -0.124144700319E+03   -0.52249E-06   -0.71548E-06  9408   0.933E-03    0.228E-03
DAV:   5    -0.124144700472E+03   -0.15319E-06   -0.40827E-07  9120   0.239E-03    0.462E-04
DAV:   6    -0.124144700454E+03    0.17690E-07   -0.11484E-07 11280   0.140E-03    0.295E-04
DAV:   7    -0.124144700468E+03   -0.13921E-07   -0.49751E-08 10944   0.920E-04    0.149E-04
DAV:   8    -0.124144700551E+03   -0.82457E-07   -0.28416E-08  9984   0.694E-04    0.112E-04
DAV:   9    -0.124144700622E+03   -0.70892E-07   -0.33861E-08 10512   0.793E-04    0.658E-05
DAV:  10    -0.124144700681E+03   -0.59207E-07   -0.54145E-08 10128   0.102E-03    0.352E-05
DAV:  11    -0.124144700692E+03   -0.11245E-07   -0.23659E-08 11040   0.662E-04    0.355E-05
DAV:  12    -0.124144700698E+03   -0.60686E-08   -0.11471E-09 12528   0.136E-04
   5 F= -.12562619E+03 E0= -.12562317E+03  d E =-.201689E-03  mag=    -0.0000
       N       E                     dE             d eps       ncg     rms          rms(c)
DAV:   1    -0.124144775733E+03   -0.75041E-04   -0.16473E-01  8256   0.150E+00    0.710E-02
DAV:   2    -0.124144750001E+03    0.25732E-04   -0.19038E-03  9312   0.171E-01    0.438E-02
DAV:   3    -0.124144722492E+03    0.27508E-04   -0.24352E-04 11328   0.532E-02    0.107E-02
DAV:   4    -0.124144723906E+03   -0.14141E-05   -0.27378E-05  9408   0.183E-02    0.459E-03
DAV:   5    -0.124144724551E+03   -0.64467E-06   -0.13669E-06  8544   0.396E-03    0.811E-04
DAV:   6    -0.124144724447E+03    0.10390E-06   -0.26899E-07 14448   0.140E-03    0.445E-04
DAV:   7    -0.124144724532E+03   -0.84603E-07   -0.29718E-08 10848   0.556E-04    0.252E-04
DAV:   8    -0.124144724736E+03   -0.20413E-06   -0.16339E-08  9888   0.363E-04    0.208E-04
DAV:   9    -0.124144724973E+03   -0.23656E-06   -0.10060E-08 10176   0.215E-04    0.113E-04
DAV:  10    -0.124144725218E+03   -0.24551E-06   -0.18847E-08 10176   0.297E-04    0.663E-05
DAV:  11    -0.124144725268E+03   -0.49602E-07   -0.53138E-09 11280   0.259E-04    0.622E-05
DAV:  12    -0.124144725291E+03   -0.23050E-07   -0.39352E-09 10272   0.233E-04    0.191E-05
DAV:  13    -0.124144725294E+03   -0.36839E-08   -0.27216E-09 13584   0.220E-04
   6 F= -.12562649E+03 E0= -.12562347E+03  d E =-.499931E-03  mag=     0.0000
       N       E                     dE             d eps       ncg     rms          rms(c)
DAV:   1    -0.124144961041E+03   -0.23575E-03   -0.65891E-01  8256   0.299E+00    0.142E-01
DAV:   2    -0.124144870301E+03    0.90740E-04   -0.76359E-03  9984   0.342E-01    0.875E-02
DAV:   3    -0.124144752816E+03    0.11748E-03   -0.95889E-04 11328   0.105E-01    0.214E-02
DAV:   4    -0.124144756374E+03   -0.35581E-05   -0.11167E-04 12048   0.366E-02    0.918E-03
DAV:   5    -0.124144755851E+03    0.52304E-06   -0.46894E-06 10176   0.706E-03    0.164E-03
DAV:   6    -0.124144755231E+03    0.61979E-06   -0.11258E-06 12528   0.280E-03    0.862E-04
DAV:   7    -0.124144755911E+03   -0.67951E-06   -0.17913E-07  9168   0.138E-03    0.484E-04
DAV:   8    -0.124144757156E+03   -0.12449E-05   -0.10137E-07 10128   0.105E-03    0.422E-04
DAV:   9    -0.124144758649E+03   -0.14927E-05   -0.78959E-08 10080   0.683E-04    0.212E-04
DAV:  10    -0.124144760182E+03   -0.15337E-05   -0.15252E-07 10032   0.817E-04    0.167E-04
DAV:  11    -0.124144760378E+03   -0.19602E-06   -0.63977E-08 12768   0.104E-03    0.964E-05
DAV:  12    -0.124144760424E+03   -0.45625E-07   -0.62587E-08 11040   0.108E-03    0.356E-05
DAV:  13    -0.124144760425E+03   -0.78217E-09   -0.13653E-08 12768   0.499E-04
   7 F= -.12562707E+03 E0= -.12562405E+03  d E =-.108597E-02  mag=     0.0000
       N       E                     dE             d eps       ncg     rms          rms(c)
DAV:   1    -0.124145556281E+03   -0.79586E-03   -0.26354E+00  8256   0.599E+00    0.284E-01
DAV:   2    -0.124145206884E+03    0.34940E-03   -0.30632E-02 10560   0.685E-01    0.175E-01
DAV:   3    -0.124144743625E+03    0.46326E-03   -0.38254E-03 11520   0.209E-01    0.425E-02
DAV:   4    -0.124144751600E+03   -0.79746E-05   -0.42735E-04 14688   0.721E-02    0.186E-02
DAV:   5    -0.124144746161E+03    0.54393E-05   -0.17103E-05  9792   0.131E-02    0.336E-03
DAV:   6    -0.124144744907E+03    0.12540E-05   -0.44532E-06 14064   0.550E-03    0.172E-03
DAV:   7    -0.124144746773E+03   -0.18660E-05   -0.72540E-07  9936   0.229E-03    0.977E-04
DAV:   8    -0.124144749418E+03   -0.26449E-05   -0.17064E-07 10848   0.959E-04    0.811E-04
DAV:   9    -0.124144752489E+03   -0.30715E-05   -0.14142E-07  9888   0.783E-04    0.378E-04
DAV:  10    -0.124144758325E+03   -0.58362E-05   -0.61917E-07  9888   0.117E-03    0.338E-04
DAV:  11    -0.124144759676E+03   -0.13508E-05   -0.12618E-07 11184   0.787E-04    0.151E-04
DAV:  12    -0.124144759875E+03   -0.19860E-06   -0.60174E-08 12384   0.955E-04    0.485E-05
DAV:  13    -0.124144759877E+03   -0.19850E-08   -0.29854E-08 11904   0.756E-04
   8 F= -.12562819E+03 E0= -.12562517E+03  d E =-.220176E-02  mag=     0.0000
       N       E                     dE             d eps       ncg     rms          rms(c)
DAV:   1    -0.124147568420E+03   -0.28085E-02   -0.10537E+01  8256   0.120E+01    0.567E-01
DAV:   2    -0.124146315409E+03    0.12530E-02   -0.12289E-01  9792   0.137E+00    0.350E-01
DAV:   3    -0.124144435947E+03    0.18795E-02   -0.15452E-02 12576   0.421E-01    0.856E-02
DAV:   4    -0.124144462102E+03   -0.26155E-04   -0.15927E-03 14160   0.141E-01    0.378E-02
DAV:   5    -0.124144432784E+03    0.29318E-04   -0.70905E-05 10752   0.264E-02    0.701E-03
DAV:   6    -0.124144428531E+03    0.42531E-05   -0.17810E-05 13728   0.111E-02    0.346E-03
DAV:   7    -0.124144435589E+03   -0.70579E-05   -0.29137E-06 10608   0.476E-03    0.200E-03
DAV:   8    -0.124144441840E+03   -0.62509E-05   -0.69878E-07 10896   0.245E-03    0.172E-03
DAV:   9    -0.124144449028E+03   -0.71887E-05   -0.51254E-07 10368   0.173E-03    0.784E-04
DAV:  10    -0.124144459433E+03   -0.10404E-04   -0.11400E-06 10368   0.211E-03    0.625E-04
DAV:  11    -0.124144465361E+03   -0.59283E-05   -0.86957E-07  9984   0.256E-03    0.308E-04
DAV:  12    -0.124144466615E+03   -0.12536E-05   -0.57762E-07 11856   0.310E-03    0.125E-04
DAV:  13    -0.124144466626E+03   -0.11016E-07   -0.18110E-07 12384   0.185E-03    0.467E-05
DAV:  14    -0.124144466634E+03   -0.87011E-08   -0.10061E-08 12384   0.430E-04
   9 F= -.12563019E+03 E0= -.12562718E+03  d E =-.420128E-02  mag=     0.0000
       N       E                     dE             d eps       ncg     rms          rms(c)
DAV:   1    -0.124154474399E+03   -0.10008E-01   -0.42085E+01  8256   0.239E+01    0.113E+00
DAV:   2    -0.124150332992E+03    0.41414E-02   -0.49701E-01  8928   0.277E+00    0.703E-01
DAV:   3    -0.124142751707E+03    0.75813E-02   -0.62286E-02 13920   0.846E-01    0.173E-01
DAV:   4    -0.124142819151E+03   -0.67444E-04   -0.57030E-03 13440   0.270E-01    0.776E-02
DAV:   5    -0.124142722874E+03    0.96276E-04   -0.30036E-04 11616   0.533E-02    0.149E-02
DAV:   6    -0.124142709778E+03    0.13097E-04   -0.68661E-05 12672   0.219E-02    0.701E-03
DAV:   7    -0.124142732586E+03   -0.22808E-04   -0.12695E-05 10080   0.944E-03    0.395E-03
DAV:   8    -0.124142754318E+03   -0.21732E-04   -0.27725E-06 11472   0.354E-03    0.305E-03
DAV:   9    -0.124142772106E+03   -0.17788E-04   -0.14201E-06 10944   0.263E-03    0.137E-03
DAV:  10    -0.124142790350E+03   -0.18245E-04   -0.19569E-06 10320   0.266E-03    0.113E-03
DAV:  11    -0.124142800341E+03   -0.99911E-05   -0.10986E-06 10464   0.209E-03    0.495E-04
DAV:  12    -0.124142806293E+03   -0.59520E-05   -0.90065E-07 10080   0.199E-03    0.167E-04
DAV:  13    -0.124142806652E+03   -0.35884E-06   -0.16558E-07 14112   0.171E-03    0.795E-05
DAV:  14    -0.124142806693E+03   -0.40814E-07   -0.55653E-08 10944   0.103E-03    0.407E-05
DAV:  15    -0.124142806703E+03   -0.10121E-07   -0.86192E-09 14256   0.401E-04    0.207E-05
DAV:  16    -0.124142806705E+03   -0.16739E-08   -0.14464E-09 12864   0.163E-04
  10 F= -.12563336E+03 E0= -.12563037E+03  d E =-.737589E-02  mag=     0.0000
       N       E                     dE             d eps       ncg     rms          rms(c)
DAV:   1    -0.124173542637E+03   -0.30736E-01   -0.16735E+02  8256   0.477E+01    0.225E+00
DAV:   2    -0.124164894441E+03    0.86482E-02   -0.20540E+00  8832   0.569E+00    0.141E+00
DAV:   3    -0.124135132184E+03    0.29762E-01   -0.24113E-01 14208   0.166E+00    0.368E-01
DAV:   4    -0.124135441117E+03   -0.30893E-03   -0.20900E-02 13152   0.516E-01    0.160E-01
DAV:   5    -0.124134961184E+03    0.47993E-03   -0.13852E-03 13152   0.104E-01    0.314E-02
DAV:   6    -0.124134912167E+03    0.49017E-04   -0.22591E-04 13440   0.403E-02    0.145E-02
DAV:   7    -0.124134975019E+03   -0.62852E-04   -0.61008E-05 10368   0.211E-02    0.861E-03
DAV:   8    -0.124135029207E+03   -0.54187E-04   -0.94459E-06 10944   0.730E-03    0.621E-03
DAV:   9    -0.124135075449E+03   -0.46242E-04   -0.56805E-06 10944   0.523E-03    0.264E-03
DAV:  10    -0.124135109946E+03   -0.34497E-04   -0.39564E-06 10560   0.389E-03    0.207E-03
DAV:  11    -0.124135134128E+03   -0.24182E-04   -0.34887E-06 10896   0.351E-03    0.108E-03
DAV:  12    -0.124135143539E+03   -0.94112E-05   -0.11628E-06 10032   0.192E-03    0.296E-04
DAV:  13    -0.124135145881E+03   -0.23411E-05   -0.16333E-07 11232   0.797E-04    0.143E-04
DAV:  14    -0.124135146633E+03   -0.75288E-06   -0.46305E-08 10656   0.477E-04    0.647E-05
DAV:  15    -0.124135146758E+03   -0.12504E-06   -0.97084E-09 14160   0.292E-04    0.357E-05
DAV:  16    -0.124135146772E+03   -0.13806E-07   -0.22546E-09 11184   0.194E-04    0.187E-05
DAV:  17    -0.124135146777E+03   -0.45738E-08   -0.83138E-10 13584   0.109E-04
  11 F= -.12563645E+03 E0= -.12563354E+03  d E =-.104694E-01  mag=    -0.0000
       N       E                     dE             d eps       ncg     rms          rms(c)
DAV:   1    -0.124135146563E+03    0.20896E-06   -0.11190E-05  9168   0.123E-02    0.580E-04
DAV:   2    -0.124135146562E+03    0.13315E-08   -0.13278E-07 15168   0.141E-03    0.359E-04
DAV:   3    -0.124135146560E+03    0.15571E-08   -0.16048E-08 13488   0.422E-04
  12 F= -.12563646E+03 E0= -.12563355E+03  d E =-.276043E-05  mag=     0.0000
       N       E                     dE             d eps       ncg     rms          rms(c)
DAV:   1    -0.124135145942E+03    0.61955E-06   -0.10104E-04  9072   0.371E-02    0.179E-03
DAV:   2    -0.124135145920E+03    0.22110E-07   -0.11220E-06  9504   0.415E-03    0.110E-03
DAV:   3    -0.124135145906E+03    0.14322E-07   -0.15080E-07 11616   0.133E-03    0.263E-04
DAV:   4    -0.124135145907E+03   -0.68712E-09   -0.19192E-08 11376   0.535E-04
  13 F= -.12563647E+03 E0= -.12563356E+03  d E =-.110379E-04  mag=     0.0000
       N       E                     dE             d eps       ncg     rms          rms(c)
DAV:   1    -0.124135144737E+03    0.11690E-05   -0.40307E-04  8880   0.740E-02    0.352E-03
DAV:   2    -0.124135144647E+03    0.90106E-07   -0.45135E-06  9216   0.836E-03    0.216E-03
DAV:   3    -0.124135144595E+03    0.51387E-07   -0.59597E-07 10176   0.269E-03    0.528E-04
DAV:   4    -0.124135144601E+03   -0.53997E-08   -0.92205E-08 10080   0.125E-03
  14 F= -.12563648E+03 E0= -.12563357E+03  d E =-.275975E-04  mag=     0.0000
       N       E                     dE             d eps       ncg     rms          rms(c)
DAV:   1    -0.124135142474E+03    0.21215E-05   -0.16117E-03  8256   0.148E-01    0.703E-03
DAV:   2    -0.124135142150E+03    0.32441E-06   -0.18586E-05  9024   0.171E-02    0.435E-03
DAV:   3    -0.124135141969E+03    0.18093E-06   -0.24136E-06  9600   0.550E-03    0.109E-03
DAV:   4    -0.124135142011E+03   -0.42045E-07   -0.44333E-07  9792   0.288E-03    0.469E-04
DAV:   5    -0.124135142055E+03   -0.44626E-07   -0.25489E-07  8736   0.227E-03    0.207E-04
DAV:   6    -0.124135141968E+03    0.87336E-07   -0.10760E-07  9120   0.145E-03    0.655E-05
DAV:   7    -0.124135141971E+03   -0.26939E-08   -0.84574E-09 11088   0.389E-04
  15 F= -.12563652E+03 E0= -.12563361E+03  d E =-.607098E-04  mag=    -0.0000
       N       E                     dE             d eps       ncg     rms          rms(c)
DAV:   1    -0.124135138792E+03    0.31759E-05   -0.64431E-03  8256   0.296E-01    0.140E-02
DAV:   2    -0.124135137435E+03    0.13574E-05   -0.73899E-05  9024   0.339E-02    0.867E-03
DAV:   3    -0.124135136564E+03    0.87083E-06   -0.94729E-06 10032   0.106E-02    0.213E-03
DAV:   4    -0.124135136673E+03   -0.10935E-06   -0.12111E-06  9168   0.392E-03    0.888E-04
DAV:   5    -0.124135136726E+03   -0.52312E-07   -0.11775E-07  9216   0.148E-03    0.214E-04
DAV:   6    -0.124135136701E+03    0.24275E-07   -0.61233E-08 10080   0.108E-03    0.120E-04
DAV:   7    -0.124135136704E+03   -0.23351E-08   -0.16517E-08 11040   0.531E-04
  16 F= -.12563658E+03 E0= -.12563367E+03  d E =-.126977E-03  mag=     0.0000
       N       E                     dE             d eps       ncg     rms          rms(c)
DAV:   1    -0.124135134419E+03    0.22819E-05   -0.25770E-02  8256   0.592E-01    0.281E-02
DAV:   2    -0.124135128966E+03    0.54529E-05   -0.29560E-04  9120   0.677E-02    0.173E-02
DAV:   3    -0.124135125574E+03    0.33926E-05   -0.37683E-05 10032   0.211E-02    0.426E-03
DAV:   4    -0.124135125926E+03   -0.35199E-06   -0.48941E-06  9552   0.768E-03    0.176E-03
DAV:   5    -0.124135126097E+03   -0.17142E-06   -0.31558E-07  9072   0.226E-03    0.358E-04
DAV:   6    -0.124135126077E+03    0.20455E-07   -0.16000E-07 10224   0.173E-03    0.226E-04
DAV:   7    -0.124135126077E+03    0.27558E-09   -0.66238E-08 10560   0.109E-03
  17 F= -.12563671E+03 E0= -.12563380E+03  d E =-.259595E-03  mag=    -0.0000
       N       E                     dE             d eps       ncg     rms          rms(c)
DAV:   1    -0.124135137694E+03   -0.11617E-04   -0.10308E-01  8256   0.118E+00    0.562E-02
DAV:   2    -0.124135118367E+03    0.19327E-04   -0.11834E-03  9120   0.135E-01    0.347E-02
DAV:   3    -0.124135102073E+03    0.16294E-04   -0.15159E-04 10848   0.421E-02    0.846E-03
DAV:   4    -0.124135103704E+03   -0.16311E-05   -0.18026E-05  9072   0.148E-02    0.358E-03
DAV:   5    -0.124135104188E+03   -0.48378E-06   -0.10499E-06 10464   0.390E-03    0.672E-04
DAV:   6    -0.124135104195E+03   -0.71668E-08   -0.43207E-07 11184   0.275E-03    0.425E-04
DAV:   7    -0.124135104250E+03   -0.55362E-07   -0.23227E-07 10272   0.206E-03    0.228E-04
DAV:   8    -0.124135104544E+03   -0.29386E-06   -0.87273E-08  9888   0.122E-03    0.189E-04
DAV:   9    -0.124135104860E+03   -0.31628E-06   -0.58883E-08 10272   0.991E-04    0.914E-05
DAV:  10    -0.124135105049E+03   -0.18893E-06   -0.44006E-08  9888   0.841E-04    0.668E-05
DAV:  11    -0.124135105124E+03   -0.74483E-07   -0.10958E-08 11952   0.385E-04    0.590E-05
DAV:  12    -0.124135105141E+03   -0.17636E-07   -0.19693E-09 11568   0.164E-04    0.235E-05
DAV:  13    -0.124135105148E+03   -0.64392E-08   -0.64700E-10 12336   0.767E-05
  18 F= -.12563698E+03 E0= -.12563407E+03  d E =-.525934E-03  mag=     0.0000
       N       E                     dE             d eps       ncg     rms          rms(c)
DAV:   1    -0.124135192436E+03   -0.87295E-04   -0.41230E-01  8256   0.237E+00    0.112E-01
DAV:   2    -0.124135129412E+03    0.63024E-04   -0.47404E-03  9120   0.270E-01    0.693E-02
DAV:   3    -0.124135056871E+03    0.72541E-04   -0.61302E-04 12384   0.840E-02    0.167E-02
DAV:   4    -0.124135059332E+03   -0.24612E-05   -0.64930E-05 11424   0.281E-02    0.732E-03
DAV:   5    -0.124135059640E+03   -0.30785E-06   -0.29894E-06  9792   0.566E-03    0.131E-03
DAV:   6    -0.124135059341E+03    0.29922E-06   -0.70926E-07 14016   0.222E-03    0.663E-04
DAV:   7    -0.124135059699E+03   -0.35847E-06   -0.99769E-08  9792   0.881E-04    0.433E-04
DAV:   8    -0.124135060285E+03   -0.58579E-06   -0.17152E-08 10368   0.306E-04    0.339E-04
DAV:   9    -0.124135061715E+03   -0.14302E-05   -0.79687E-08  9888   0.448E-04    0.103E-04
DAV:  10    -0.124135062597E+03   -0.88205E-06   -0.59586E-08 10368   0.360E-04    0.151E-04
DAV:  11    -0.124135062763E+03   -0.16505E-06   -0.10257E-08 11520   0.223E-04    0.628E-05
DAV:  12    -0.124135062797E+03   -0.34761E-07   -0.38623E-09 12528   0.219E-04    0.214E-05
DAV:  13    -0.124135062804E+03   -0.70559E-08   -0.15837E-09 11712   0.153E-04
  19 F= -.12563752E+03 E0= -.12563461E+03  d E =-.106110E-02  mag=    -0.0000
       N       E                     dE             d eps       ncg     rms          rms(c)
DAV:   1    -0.124135488668E+03   -0.42587E-03   -0.16491E+00  8256   0.474E+00    0.224E-01
DAV:   2    -0.124135244662E+03    0.24401E-03   -0.18998E-02  9696   0.541E-01    0.139E-01
DAV:   3    -0.124134960798E+03    0.28386E-03   -0.24296E-03 11520   0.167E-01    0.336E-02
DAV:   4    -0.124134966921E+03   -0.61235E-05   -0.27422E-04 13920   0.572E-02    0.146E-02
DAV:   5    -0.124134964102E+03    0.28196E-05   -0.10855E-05 10176   0.104E-02    0.272E-03
DAV:   6    -0.124134963414E+03    0.68810E-06   -0.26324E-06 14256   0.427E-03    0.142E-03
DAV:   7    -0.124134964031E+03   -0.61687E-06   -0.30423E-07 10176   0.158E-03    0.846E-04
DAV:   8    -0.124134965675E+03   -0.16440E-05   -0.14651E-07 10704   0.102E-03    0.708E-04
DAV:   9    -0.124134969054E+03   -0.33791E-05   -0.20593E-07 10224   0.847E-04    0.222E-04
DAV:  10    -0.124134971739E+03   -0.26854E-05   -0.17970E-07 10176   0.698E-04    0.301E-04
DAV:  11    -0.124134973226E+03   -0.14865E-05   -0.11164E-07  9888   0.549E-04    0.194E-04
DAV:  12    -0.124134973498E+03   -0.27272E-06   -0.17601E-08 12384   0.316E-04    0.590E-05
DAV:  13    -0.124134973552E+03   -0.53699E-07   -0.56595E-09 11904   0.247E-04    0.243E-05
DAV:  14    -0.124134973559E+03   -0.72546E-08   -0.16944E-09 13056   0.163E-04
  20 F= -.12563859E+03 E0= -.12563568E+03  d E =-.213907E-02  mag=    -0.0000
       N       E                     dE             d eps       ncg     rms          rms(c)
DAV:   1    -0.124136791950E+03   -0.18184E-02   -0.65946E+00  8256   0.947E+00    0.449E-01
DAV:   2    -0.124135869140E+03    0.92281E-03   -0.76236E-02  9216   0.108E+00    0.277E-01
DAV:   3    -0.124134755763E+03    0.11134E-02   -0.98017E-03 13056   0.335E-01    0.670E-02
DAV:   4    -0.124134767181E+03   -0.11418E-04   -0.94971E-04 13968   0.108E-01    0.298E-02
DAV:   5    -0.124134750096E+03    0.17085E-04   -0.46079E-05 10656   0.211E-02    0.557E-03
DAV:   6    -0.124134748171E+03    0.19246E-05   -0.11233E-05 12816   0.887E-03    0.262E-03
DAV:   7    -0.124134752939E+03   -0.47680E-05   -0.19249E-06  9648   0.377E-03    0.177E-03
DAV:   8    -0.124134757653E+03   -0.47142E-05   -0.29797E-07 11232   0.144E-03    0.116E-03
DAV:   9    -0.124134763677E+03   -0.60239E-05   -0.44105E-07 10272   0.140E-03    0.439E-04
DAV:  10    -0.124134769200E+03   -0.55229E-05   -0.46764E-07 10512   0.122E-03    0.542E-04
DAV:  11    -0.124134772456E+03   -0.32556E-05   -0.27851E-07  9600   0.988E-04    0.251E-04
DAV:  12    -0.124134773626E+03   -0.11704E-05   -0.13643E-07 11424   0.104E-03    0.746E-05
DAV:  13    -0.124134773699E+03   -0.73080E-07   -0.30416E-08 13824   0.721E-04    0.423E-05
DAV:  14    -0.124134773712E+03   -0.12978E-07   -0.21517E-09 11760   0.186E-04    0.261E-05
DAV:  15    -0.124134773715E+03   -0.27680E-08   -0.38787E-10 13680   0.784E-05
  21 F= -.12564078E+03 E0= -.12563787E+03  d E =-.432365E-02  mag=     0.0000
       N       E                     dE             d eps       ncg     rms          rms(c)
DAV:   1    -0.124142037710E+03   -0.72640E-02   -0.26353E+01  8256   0.189E+01    0.895E-01
DAV:   2    -0.124138922005E+03    0.31157E-02   -0.30732E-01  8448   0.218E+00    0.556E-01
DAV:   3    -0.124134261950E+03    0.46601E-02   -0.39523E-02 13632   0.674E-01    0.135E-01
DAV:   4    -0.124134320127E+03   -0.58177E-04   -0.36043E-03 13536   0.212E-01    0.606E-02
DAV:   5    -0.124134268043E+03    0.52084E-04   -0.18996E-04 11328   0.420E-02    0.119E-02
DAV:   6    -0.124134261119E+03    0.69245E-05   -0.45210E-05 13056   0.179E-02    0.527E-03
DAV:   7    -0.124134277678E+03   -0.16559E-04   -0.78202E-06  9312   0.768E-03    0.361E-03
DAV:   8    -0.124134292881E+03   -0.15203E-04   -0.13557E-06 12240   0.275E-03    0.210E-03
DAV:   9    -0.124134306959E+03   -0.14078E-04   -0.12391E-06  9984   0.225E-03    0.915E-04
DAV:  10    -0.124134317312E+03   -0.10353E-04   -0.96129E-07 11472   0.178E-03    0.969E-04
DAV:  11    -0.124134323800E+03   -0.64879E-05   -0.60549E-07 10176   0.139E-03    0.460E-04
DAV:  12    -0.124134327489E+03   -0.36882E-05   -0.38118E-07 10128   0.953E-04    0.118E-04
DAV:  13    -0.124134327932E+03   -0.44359E-06   -0.24242E-08 13104   0.323E-04    0.786E-05
DAV:  14    -0.124134328009E+03   -0.76614E-07   -0.39300E-09 11280   0.162E-04    0.350E-05
DAV:  15    -0.124134328023E+03   -0.13833E-07   -0.11027E-09 13584   0.117E-04    0.126E-05
DAV:  16    -0.124134328025E+03   -0.25757E-08   -0.42546E-10 13104   0.806E-05
  22 F= -.12564531E+03 E0= -.12564240E+03  d E =-.885276E-02  mag=     0.0000
       N       E                     dE             d eps       ncg     rms          rms(c)
DAV:   1    -0.124160318856E+03   -0.25991E-01   -0.10502E+02  8256   0.378E+01    0.178E+00
DAV:   2    -0.124151224500E+03    0.90944E-02   -0.12604E+00  8832   0.444E+00    0.111E+00
DAV:   3    -0.124133198174E+03    0.18026E-01   -0.15402E-01 13632   0.133E+00    0.282E-01
DAV:   4    -0.124133399484E+03   -0.20131E-03   -0.13784E-02 13344   0.416E-01    0.125E-01
DAV:   5    -0.124133133046E+03    0.26644E-03   -0.81761E-04 12576   0.829E-02    0.255E-02
DAV:   6    -0.124133107572E+03    0.25474E-04   -0.15574E-04 12288   0.335E-02    0.112E-02
DAV:   7    -0.124133154293E+03   -0.46721E-04   -0.33451E-05  9648   0.161E-02    0.723E-03
DAV:   8    -0.124133198623E+03   -0.44330E-04   -0.64253E-06 11664   0.621E-03    0.409E-03
DAV:   9    -0.124133229361E+03   -0.30738E-04   -0.35116E-06 10656   0.400E-03    0.179E-03
DAV:  10    -0.124133251997E+03   -0.22636E-04   -0.25427E-06 11472   0.310E-03    0.154E-03
DAV:  11    -0.124133266539E+03   -0.14542E-04   -0.17790E-06 10512   0.246E-03    0.903E-04
DAV:  12    -0.124133273340E+03   -0.68005E-05   -0.73536E-07 10848   0.160E-03    0.217E-04
DAV:  13    -0.124133274854E+03   -0.15137E-05   -0.93140E-08 11328   0.777E-04    0.133E-04
DAV:  14    -0.124133275665E+03   -0.81139E-06   -0.51871E-08 10464   0.522E-04    0.594E-05
DAV:  15    -0.124133275811E+03   -0.14634E-06   -0.12200E-08 12672   0.346E-04    0.281E-05
DAV:  16    -0.124133275824E+03   -0.12772E-07   -0.28800E-09 12480   0.216E-04    0.133E-05
DAV:  17    -0.124133275827E+03   -0.25661E-08   -0.41035E-10 13584   0.763E-05
  23 F= -.12565508E+03 E0= -.12565218E+03  d E =-.186286E-01  mag=    -0.0000
       N       E                     dE             d eps       ncg     rms          rms(c)
DAV:   1    -0.124195776798E+03   -0.62501E-01   -0.41393E+02  8256   0.748E+01    0.352E+00
DAV:   2    -0.124204320895E+03   -0.85441E-02   -0.53835E+00  8544   0.937E+00    0.224E+00
DAV:   3    -0.124129217160E+03    0.75104E-01   -0.56153E-01 14112   0.256E+00    0.661E-01
DAV:   4    -0.124130967381E+03   -0.17502E-02   -0.45843E-02 13632   0.770E-01    0.259E-01
DAV:   5    -0.124129887746E+03    0.10796E-02   -0.42024E-03 13248   0.164E-01    0.479E-02
DAV:   6    -0.124129802555E+03    0.85191E-04   -0.44228E-04 11760   0.597E-02    0.226E-02
DAV:   7    -0.124129937361E+03   -0.13481E-03   -0.16991E-04  9312   0.378E-02    0.147E-02
DAV:   8    -0.124130026898E+03   -0.89536E-04   -0.19403E-05 11520   0.117E-02    0.103E-02
DAV:   9    -0.124130101894E+03   -0.74996E-04   -0.12727E-05 10128   0.868E-03    0.415E-03
DAV:  10    -0.124130152597E+03   -0.50703E-04   -0.79475E-06 11472   0.597E-03    0.349E-03
DAV:  11    -0.124130185065E+03   -0.32468E-04   -0.58902E-06 11424   0.487E-03    0.216E-03
DAV:  12    -0.124130196492E+03   -0.11427E-04   -0.14808E-06 11520   0.268E-03    0.503E-04
DAV:  13    -0.124130199652E+03   -0.31598E-05   -0.16675E-07 10800   0.964E-04    0.271E-04
DAV:  14    -0.124130201345E+03   -0.16929E-05   -0.73942E-08 10848   0.583E-04    0.143E-04
DAV:  15    -0.124130202551E+03   -0.12062E-05   -0.85345E-08  9792   0.456E-04    0.541E-05
DAV:  16    -0.124130202676E+03   -0.12471E-06   -0.64892E-09 14064   0.162E-04    0.309E-05
DAV:  17    -0.124130202692E+03   -0.16474E-07   -0.10841E-09 10992   0.737E-05    0.185E-05
DAV:  18    -0.124130202697E+03   -0.43815E-08   -0.46786E-10 14256   0.495E-05
  24 F= -.12567767E+03 E0= -.12567478E+03  d E =-.412187E-01  mag=    -0.0000
       N       E                     dE             d eps       ncg     rms          rms(c)
DAV:   1    -0.123878355528E+03    0.25185E+00   -0.15604E+03  8256   0.143E+02    0.681E+00
DAV:   2    -0.124432029804E+03   -0.55367E+00   -0.25556E+01  8640   0.210E+01    0.447E+00
DAV:   3    -0.124135496521E+03    0.29653E+00   -0.16937E+00 13824   0.457E+00    0.186E+00
DAV:   4    -0.124120940697E+03    0.14556E-01   -0.20234E-01 14592   0.166E+00    0.489E-01
DAV:   5    -0.124117108398E+03    0.38323E-02   -0.23176E-02 13056   0.416E-01    0.888E-02
DAV:   6    -0.124116855944E+03    0.25245E-03   -0.10224E-03 14496   0.100E-01    0.467E-02
DAV:   7    -0.124117117844E+03   -0.26190E-03   -0.73422E-04  9408   0.778E-02    0.257E-02
DAV:   8    -0.124117321950E+03   -0.20411E-03   -0.10932E-04  8928   0.267E-02    0.140E-02
DAV:   9    -0.124117479740E+03   -0.15779E-03   -0.56151E-05 10272   0.196E-02    0.110E-02
DAV:  10    -0.124117551341E+03   -0.71601E-04   -0.17287E-05 11424   0.899E-03    0.830E-03
DAV:  11    -0.124117595351E+03   -0.44010E-04   -0.17559E-05 10800   0.976E-03    0.263E-03
DAV:  12    -0.124117614715E+03   -0.19364E-04   -0.31548E-06 12384   0.469E-03    0.127E-03
DAV:  13    -0.124117621538E+03   -0.68227E-05   -0.60982E-07 12576   0.192E-03    0.102E-03
DAV:  14    -0.124117624234E+03   -0.26962E-05   -0.12127E-07 10896   0.870E-04    0.456E-04
DAV:  15    -0.124117626118E+03   -0.18842E-05   -0.10988E-07 10272   0.716E-04    0.144E-04
DAV:  16    -0.124117626521E+03   -0.40251E-06   -0.97670E-09 12624   0.205E-04    0.828E-05
DAV:  17    -0.124117626943E+03   -0.42210E-06   -0.20183E-08  9888   0.233E-04    0.361E-05
DAV:  18    -0.124117626992E+03   -0.48522E-07   -0.47034E-09 12144   0.109E-04    0.222E-05
DAV:  19    -0.124117626999E+03   -0.71068E-08   -0.38658E-10 12048   0.338E-05
  25 F= -.12573710E+03 E0= -.12573424E+03  d E =-.100642E+00  mag=     0.0000
       N       E                     dE             d eps       ncg     rms          rms(c)
DAV:   1    -0.119340479531E+03    0.47771E+01   -0.49803E+03  8256   0.235E+02    0.149E+01
DAV:   2    -0.125348627825E+03   -0.60081E+01   -0.12251E+02  8352   0.468E+01    0.891E+00
DAV:   3    -0.124398762140E+03    0.94987E+00   -0.38322E+00 15168   0.748E+00    0.596E+00
DAV:   4    -0.123940015645E+03    0.45875E+00   -0.23408E+00 14208   0.487E+00    0.819E-01
DAV:   5    -0.123942907177E+03   -0.28915E-02   -0.80639E-02 10656   0.108E+00    0.460E-01
DAV:   6    -0.123937348685E+03    0.55585E-02   -0.27040E-02 13824   0.483E-01    0.986E-02
DAV:   7    -0.123936550505E+03    0.79818E-03   -0.23604E-03 13248   0.162E-01    0.458E-02
DAV:   8    -0.123936743766E+03   -0.19326E-03   -0.11677E-03 11904   0.893E-02    0.342E-02
DAV:   9    -0.123936913106E+03   -0.16934E-03   -0.20017E-04 12768   0.394E-02    0.161E-02
DAV:  10    -0.123937023640E+03   -0.11053E-03   -0.84728E-05 10848   0.241E-02    0.181E-02
DAV:  11    -0.123937060400E+03   -0.36760E-04   -0.20907E-05 12384   0.106E-02    0.104E-02
DAV:  12    -0.123937087717E+03   -0.27317E-04   -0.23732E-05  9888   0.127E-02    0.739E-03
DAV:  13    -0.123937098007E+03   -0.10290E-04   -0.25603E-06 13776   0.487E-03    0.216E-03
DAV:  14    -0.123937103348E+03   -0.53412E-05   -0.81571E-07 12096   0.258E-03    0.958E-04
DAV:  15    -0.123937105834E+03   -0.24863E-05   -0.20388E-07 12576   0.115E-03    0.620E-04
DAV:  16    -0.123937107525E+03   -0.16912E-05   -0.16648E-07 11136   0.882E-04    0.272E-04
DAV:  17    -0.123937108189E+03   -0.66396E-06   -0.37456E-08 11856   0.390E-04    0.132E-04
DAV:  18    -0.123937108689E+03   -0.49957E-06   -0.25082E-08 11760   0.277E-04    0.760E-05
DAV:  19    -0.123937109049E+03   -0.36065E-06   -0.22307E-08 10848   0.217E-04    0.434E-05
DAV:  20    -0.123937109176E+03   -0.12655E-06   -0.56782E-09 13056   0.118E-04    0.275E-05
DAV:  21    -0.123937109230E+03   -0.54156E-07   -0.14129E-09 11424   0.633E-05    0.211E-05
DAV:  22    -0.123937109249E+03   -0.18548E-07   -0.26899E-10 12192   0.336E-05    0.102E-05
DAV:  23    -0.123937109253E+03   -0.41027E-08   -0.77062E-11 13392   0.200E-05
  26 F= -.12581915E+03 E0= -.12581650E+03  d E =-.182693E+00  mag=     0.0000
       N       E                     dE             d eps       ncg     rms          rms(c)
DAV:   1    -0.123553731648E+03    0.38338E+00   -0.20408E+03  8256   0.163E+02    0.793E+00
DAV:   2    -0.124526012767E+03   -0.97228E+00   -0.36126E+01  9024   0.256E+01    0.520E+00
DAV:   3    -0.124133308762E+03    0.39270E+00   -0.19421E+00 13920   0.493E+00    0.249E+00
DAV:   4    -0.124092528989E+03    0.40780E-01   -0.34684E-01 13824   0.211E+00    0.570E-01
DAV:   5    -0.124089708442E+03    0.28205E-02   -0.33243E-02 12096   0.565E-01    0.122E-01
DAV:   6    -0.124089123601E+03    0.58484E-03   -0.22997E-03 14112   0.146E-01    0.681E-02
DAV:   7    -0.124089021517E+03    0.10208E-03   -0.82373E-04 10560   0.954E-02    0.324E-02
DAV:   8    -0.124089088806E+03   -0.67289E-04   -0.12301E-04 11328   0.292E-02    0.154E-02
DAV:   9    -0.124089230813E+03   -0.14201E-03   -0.54864E-05 11664   0.200E-02    0.132E-02
DAV:  10    -0.124089377193E+03   -0.14638E-03   -0.10778E-05 12912   0.812E-03    0.102E-02
DAV:  11    -0.124089516221E+03   -0.13903E-03   -0.10940E-05 12384   0.849E-03    0.366E-03
DAV:  12    -0.124089580408E+03   -0.64187E-04   -0.17846E-06 12000   0.433E-03    0.170E-03
DAV:  13    -0.124089612197E+03   -0.31789E-04   -0.58166E-07 13344   0.222E-03    0.156E-03
DAV:  14    -0.124089621991E+03   -0.97937E-05   -0.16099E-07 13200   0.972E-04    0.456E-04
DAV:  15    -0.124089625676E+03   -0.36855E-05   -0.70129E-08 12336   0.558E-04    0.259E-04
DAV:  16    -0.124089626706E+03   -0.10300E-05   -0.26026E-08 12768   0.299E-04    0.151E-04
DAV:  17    -0.124089626972E+03   -0.26588E-06   -0.19093E-08 10800   0.237E-04    0.855E-05
DAV:  18    -0.124089627066E+03   -0.93488E-07   -0.49609E-09 12672   0.113E-04    0.411E-05
DAV:  19    -0.124089627229E+03   -0.16302E-06   -0.10471E-08  9696   0.144E-04    0.437E-05
DAV:  20    -0.124089627256E+03   -0.27431E-07   -0.85220E-10 12624   0.493E-05    0.296E-05
DAV:  21    -0.124089627265E+03   -0.85065E-08   -0.25823E-10 12192   0.321E-05
  27 F= -.12579809E+03 E0= -.12579537E+03  d E =-.161639E+00  mag=    -0.0000
       N       E                     dE             d eps       ncg     rms          rms(c)
DAV:   1    -0.124119928466E+03   -0.30301E-01   -0.55244E+02  8256   0.865E+01    0.407E+00
DAV:   2    -0.124144193160E+03   -0.24265E-01   -0.74665E+00 10320   0.111E+01    0.259E+00
DAV:   3    -0.124042201673E+03    0.10199E+00   -0.65049E-01 13824   0.275E+00    0.837E-01
DAV:   4    -0.124043738920E+03   -0.15372E-02   -0.62589E-02 13248   0.902E-01    0.292E-01
DAV:   5    -0.124042509105E+03    0.12298E-02   -0.58448E-03 14352   0.196E-01    0.540E-02
DAV:   6    -0.124042393271E+03    0.11583E-03   -0.46876E-04 12912   0.646E-02    0.246E-02
DAV:   7    -0.124042493513E+03   -0.10024E-03   -0.12061E-04 12288   0.333E-02    0.148E-02
DAV:   8    -0.124042593133E+03   -0.99621E-04   -0.52729E-05 10032   0.181E-02    0.146E-02
DAV:   9    -0.124042683069E+03   -0.89936E-04   -0.21579E-05 10656   0.114E-02    0.645E-03
DAV:  10    -0.124042752395E+03   -0.69325E-04   -0.18153E-05 10608   0.997E-03    0.436E-03
DAV:  11    -0.124042776365E+03   -0.23970E-04   -0.52413E-06 11904   0.512E-03    0.282E-03
DAV:  12    -0.124042785015E+03   -0.86501E-05   -0.14327E-06 12096   0.306E-03    0.126E-03
DAV:  13    -0.124042790666E+03   -0.56506E-05   -0.60524E-07 12672   0.187E-03    0.674E-04
DAV:  14    -0.124042792705E+03   -0.20386E-05   -0.12289E-07 13008   0.856E-04    0.383E-04
DAV:  15    -0.124042793517E+03   -0.81268E-06   -0.34414E-08 12000   0.430E-04    0.177E-04
DAV:  16    -0.124042793955E+03   -0.43800E-06   -0.18203E-08 11664   0.285E-04    0.778E-05
DAV:  17    -0.124042794299E+03   -0.34394E-06   -0.12135E-08 12048   0.206E-04    0.412E-05
DAV:  18    -0.124042794410E+03   -0.11037E-06   -0.69364E-09 11664   0.139E-04    0.235E-05
DAV:  19    -0.124042794425E+03   -0.15497E-07   -0.87747E-10 14064   0.473E-05    0.160E-05
DAV:  20    -0.124042794448E+03   -0.23111E-07   -0.84139E-10 10800   0.447E-05    0.778E-06
DAV:  21    -0.124042794454E+03   -0.62182E-08   -0.18737E-10 12048   0.246E-05
  28 F= -.12583074E+03 E0= -.12582826E+03  d E =-.194280E+00  mag=    -0.0000
       N       E                     dE             d eps       ncg     rms          rms(c)
DAV:   1    -0.124036848645E+03    0.59458E-02   -0.14091E+02  8256   0.440E+01    0.207E+00
DAV:   2    -0.124024757920E+03    0.12091E-01   -0.17252E+00 10560   0.522E+00    0.129E+00
DAV:   3    -0.124000884883E+03    0.23873E-01   -0.18608E-01 14544   0.146E+00    0.350E-01
DAV:   4    -0.124000960193E+03   -0.75310E-04   -0.17632E-02 14208   0.469E-01    0.140E-01
DAV:   5    -0.124000658818E+03    0.30137E-03   -0.11056E-03 15264   0.970E-02    0.281E-02
DAV:   6    -0.124000626384E+03    0.32434E-04   -0.17189E-04 11136   0.385E-02    0.122E-02
DAV:   7    -0.124000672318E+03   -0.45934E-04   -0.48546E-05 12480   0.216E-02    0.744E-03
DAV:   8    -0.124000712439E+03   -0.40121E-04   -0.10833E-05 10800   0.875E-03    0.623E-03
DAV:   9    -0.124000740341E+03   -0.27902E-04   -0.37766E-06 11424   0.483E-03    0.320E-03
DAV:  10    -0.124000769398E+03   -0.29057E-04   -0.56706E-06 11856   0.492E-03    0.173E-03
DAV:  11    -0.124000779176E+03   -0.97776E-05   -0.11823E-06 11328   0.221E-03    0.134E-03
DAV:  12    -0.124000785551E+03   -0.63750E-05   -0.89695E-07 13248   0.196E-03    0.654E-04
DAV:  13    -0.124000787557E+03   -0.20059E-05   -0.15562E-07 12288   0.844E-04    0.319E-04
DAV:  14    -0.124000788609E+03   -0.10528E-05   -0.82275E-08 12000   0.613E-04    0.163E-04
DAV:  15    -0.124000788893E+03   -0.28363E-06   -0.12467E-08 12912   0.258E-04    0.102E-04
DAV:  16    -0.124000789205E+03   -0.31231E-06   -0.11550E-08 12192   0.214E-04    0.423E-05
DAV:  17    -0.124000789304E+03   -0.98174E-07   -0.33197E-09 12384   0.107E-04    0.262E-05
DAV:  18    -0.124000789332E+03   -0.28494E-07   -0.21028E-09 12720   0.699E-05    0.224E-05
DAV:  19    -0.124000789345E+03   -0.13055E-07   -0.45791E-10 11856   0.311E-05    0.127E-05
DAV:  20    -0.124000789354E+03   -0.86193E-08   -0.23997E-10 11520   0.250E-05
  29 F= -.12583408E+03 E0= -.12583159E+03  d E =-.197624E+00  mag=     0.0000
       N       E                     dE             d eps       ncg     rms          rms(c)
DAV:   1    -0.119749761399E+03    0.42510E+01   -0.10804E+04 12384   0.281E+02    0.213E+01
DAV:   2    -0.127831165323E+03   -0.80814E+01   -0.20525E+02  9024   0.588E+01    0.125E+01
DAV:   3    -0.125161614925E+03    0.26696E+01   -0.53913E+00 15168   0.899E+00    0.832E+00
DAV:   4    -0.124118977208E+03    0.10426E+01   -0.74298E+00 13344   0.792E+00    0.104E+00
DAV:   5    -0.124126558953E+03   -0.75817E-02   -0.17636E-01 11904   0.156E+00    0.615E-01
DAV:   6    -0.124134228943E+03   -0.76700E-02   -0.40907E-02 14688   0.700E-01    0.169E-01
DAV:   7    -0.124133757420E+03    0.47152E-03   -0.37613E-03 11424   0.232E-01    0.648E-02
DAV:   8    -0.124133500223E+03    0.25720E-03   -0.18321E-03 12864   0.112E-01    0.601E-02
DAV:   9    -0.124134033374E+03   -0.53315E-03   -0.65357E-04  9216   0.694E-02    0.249E-02
DAV:  10    -0.124134741122E+03   -0.70775E-03   -0.15562E-04 10368   0.333E-02    0.251E-02
DAV:  11    -0.124134936687E+03   -0.19556E-03   -0.89423E-06 11664   0.116E-02    0.101E-02
DAV:  12    -0.124135116238E+03   -0.17955E-03   -0.13583E-05 10512   0.120E-02    0.944E-03
DAV:  13    -0.124135134135E+03   -0.17897E-04   -0.13502E-06 12672   0.349E-03    0.460E-03
DAV:  14    -0.124135143951E+03   -0.98159E-05   -0.83451E-07 10608   0.250E-03    0.520E-04
DAV:  15    -0.124135145652E+03   -0.17007E-05   -0.13325E-07 13248   0.134E-03    0.460E-04
DAV:  16    -0.124135146431E+03   -0.77879E-06   -0.58686E-08 10752   0.766E-04    0.306E-04
DAV:  17    -0.124135146724E+03   -0.29353E-06   -0.43713E-08 10752   0.622E-04    0.115E-04
DAV:  18    -0.124135146757E+03   -0.32586E-07   -0.12798E-08 13920   0.439E-04    0.586E-05
DAV:  19    -0.124135146772E+03   -0.15524E-07   -0.67008E-09 10272   0.297E-04    0.428E-05
DAV:  20    -0.124135146776E+03   -0.37080E-08   -0.26757E-09 11328   0.219E-04
  30 F= -.12563645E+03 E0= -.12563354E+03  d E =0.673026E-09  mag=    -0.0000
