Lattice                                 
           1
     4.122281    2.380000    0.000000
    -4.122281    2.380000    0.000000
     0.000000    0.000000   15.000000
   B    C 
     4    11
Direct configuration=     1
   0.00415361  0.00267210  0.12034134
   0.35695335  0.00285503  0.09748893
   0.00423858  0.35550699  0.09749256
   0.65142295  0.65006557  0.09747688
   0.32808646  0.32671938  0.10030508
   0.68027775  0.00278085  0.10027562
   0.00416530  0.67883808  0.10026559
   0.16666600  0.33333300  0.33720000
   0.33333300  0.16666600  0.33720000
   0.16666600  0.83333300  0.33720000
   0.33333300  0.66666600  0.33720000
   0.66666600  0.33333300  0.33720000
   0.83333300  0.16666600  0.33720000
   0.66666600  0.83333300  0.33720000
   0.83333300  0.66666600  0.33720000
Direct configuration=     2
   0.00419052  0.00276874  0.11962575
   0.35650693  0.00279384  0.09767600
   0.00418533  0.35507616  0.09767915
   0.65183777  0.65044272  0.09767089
   0.32652891  0.32511911  0.10030202
   0.68185788  0.00280495  0.10028144
   0.00420644  0.68044283  0.10027413
   0.16661061  0.33343156  0.33725166
   0.33343216  0.16661362  0.33725261
   0.16681205  0.83337505  0.33725434
   0.33333466  0.66667230  0.33711007
   0.66667135  0.33333120  0.33711006
   0.83337254  0.16680951  0.33725432
   0.66656642  0.83318536  0.33725225
   0.83318043  0.66656703  0.33725131
Direct configuration=     3
   0.00417206  0.00272041  0.11998359
   0.35673017  0.00282444  0.09758246
   0.00421195  0.35529161  0.09758584
   0.65163033  0.65025412  0.09757387
   0.32730779  0.32591935  0.10030355
   0.68106771  0.00279290  0.10027853
   0.00418587  0.67964035  0.10026986
   0.16663831  0.33338228  0.33722582
   0.33338258  0.16663981  0.33722630
   0.16673902  0.83335402  0.33722717
   0.33333383  0.66666915  0.33715504
   0.66666867  0.33333210  0.33715503
   0.83335277  0.16673775  0.33722716
   0.66661622  0.83325919  0.33722612
   0.83325673  0.66661652  0.33722565
Direct configuration=     4
   0.00419448  0.00279942  0.11917976
   0.35711629  0.00276406  0.09780202
   0.00416723  0.35570599  0.09780467
   0.65124752  0.64983095  0.09780210
   0.32734712  0.32592059  0.10027986
   0.68104408  0.00279680  0.10026598
   0.00420975  0.67963884  0.10026032
   0.16670774  0.33327961  0.33728479
   0.33327798  0.16670874  0.33728628
   0.16656445  0.83328793  0.33728895
   0.33332978  0.66666052  0.33706626
   0.66665985  0.33333233  0.33706625
   0.83328781  0.16656717  0.33728890
   0.66671325  0.83342662  0.33728566
   0.83342669  0.66671442  0.33728421
Direct configuration=     5
   0.00423473  0.00294131  0.11773616
   0.35780972  0.00265561  0.09819633
   0.00408690  0.35645018  0.09819765
   0.65056002  0.64907098  0.09821196
   0.32741774  0.32592282  0.10023732
   0.68100164  0.00280380  0.10024343
   0.00425264  0.67963614  0.10024320
   0.16683242  0.33309524  0.33739069
   0.33309015  0.16683252  0.33739400
   0.16625095  0.83316925  0.33739991
   0.33332250  0.66664503  0.33690682
   0.66664399  0.33333274  0.33690679
   0.83317116  0.16626084  0.33739978
   0.66688751  0.83372731  0.33739259
   0.83373194  0.66689025  0.33738938
Direct configuration=     6
   0.00423783  0.00295358  0.11749521
   0.35789273  0.00264523  0.09825361
   0.00408170  0.35654037  0.09825474
   0.65048103  0.64898380  0.09827135
   0.32747280  0.32597249  0.10023888
   0.68094988  0.00280052  0.10024805
   0.00425372  0.67958897  0.10024860
   0.16678820  0.33313984  0.33740473
   0.33313484  0.16678884  0.33740825
   0.16633999  0.83320948  0.33741450
   0.33332155  0.66664768  0.33689185
   0.66664590  0.33333074  0.33689182
   0.83321007  0.16634872  0.33741436
   0.66684203  0.83363871  0.33740672
   0.83364173  0.66684503  0.33740332
Direct configuration=     7
   0.00424710  0.00299039  0.11677238
   0.35814175  0.00261412  0.09842544
   0.00406611  0.35681094  0.09842601
   0.65024406  0.64872228  0.09844952
   0.32763801  0.32612149  0.10024357
   0.68079461  0.00279067  0.10026191
   0.00425695  0.67944747  0.10026480
   0.16665552  0.33327364  0.33744685
   0.33326891  0.16665781  0.33745099
   0.16660710  0.83333017  0.33745830
   0.33331872  0.66665562  0.33684694
   0.66665164  0.33332475  0.33684691
   0.83332681  0.16661236  0.33745812
   0.66670559  0.83337289  0.33744912
   0.83337111  0.66670939  0.33744514
Direct configuration=     8
   0.00426564  0.00306400  0.11532670
   0.35863981  0.00255189  0.09876911
   0.00403493  0.35735209  0.09876855
   0.64977013  0.64819924  0.09880587
   0.32796843  0.32641950  0.10025296
   0.68048406  0.00277098  0.10028964
   0.00426341  0.67916446  0.10029720
   0.16639017  0.33354125  0.33753109
   0.33353706  0.16639574  0.33753648
   0.16714132  0.83357155  0.33754589
   0.33331306  0.66667150  0.33675711
   0.66666312  0.33331276  0.33675710
   0.83356029  0.16713966  0.33754562
   0.66643272  0.83284127  0.33753391
   0.83282985  0.66643811  0.33752877
Direct configuration=     9
   0.00425402  0.00301788  0.11623256
   0.35832773  0.00259088  0.09855377
   0.00405447  0.35701301  0.09855391
   0.65006710  0.64852698  0.09858258
   0.32776139  0.32623277  0.10024708
   0.68067865  0.00278332  0.10027226
   0.00425936  0.67934179  0.10027690
   0.16655644  0.33337357  0.33747831
   0.33336904  0.16655996  0.33748291
   0.16680658  0.83342030  0.33749101
   0.33331661  0.66666155  0.33681340
   0.66665593  0.33332027  0.33681338
   0.83341399  0.16680925  0.33749079
   0.66660370  0.83317439  0.33748078
   0.83316900  0.66660810  0.33747636
Direct configuration=    10
   0.00425086  0.00300434  0.11599873
   0.35828744  0.00260134  0.09858679
   0.00406876  0.35697354  0.09858691
   0.65011361  0.64857676  0.09861618
   0.32781944  0.32629979  0.10027208
   0.68062007  0.00277387  0.10029925
   0.00424904  0.67928123  0.10030426
   0.16657795  0.33338882  0.33748184
   0.33338449  0.16658274  0.33748638
   0.16679396  0.83339464  0.33749432
   0.33331824  0.66666166  0.33683056
   0.66665579  0.33332105  0.33683055
   0.83338808  0.16679663  0.33749409
   0.66658762  0.83318513  0.33748420
   0.83317865  0.66659247  0.33747987
Direct configuration=    11
   0.00424135  0.00296372  0.11529723
   0.35816658  0.00263271  0.09868587
   0.00411165  0.35685515  0.09868588
   0.65025317  0.64872609  0.09871697
   0.32799360  0.32650086  0.10034708
   0.68044432  0.00274552  0.10038019
   0.00421806  0.67909953  0.10038634
   0.16664246  0.33343460  0.33749243
   0.33343084  0.16665111  0.33749678
   0.16675612  0.83331765  0.33750426
   0.33332315  0.66666198  0.33688206
   0.66665539  0.33332339  0.33688208
   0.83331034  0.16675875  0.33750398
   0.66653936  0.83321735  0.33749446
   0.83320760  0.66654559  0.33749039
Direct configuration=    12
   0.00422235  0.00288249  0.11389423
   0.35792486  0.00269545  0.09888402
   0.00419744  0.35661835  0.09888383
   0.65053227  0.64902477  0.09891856
   0.32834192  0.32690300  0.10049708
   0.68009283  0.00268882  0.10054208
   0.00415612  0.67873614  0.10055050
   0.16677148  0.33352615  0.33751361
   0.33352354  0.16678784  0.33751758
   0.16668044  0.83316368  0.33752415
   0.33333296  0.66666263  0.33698507
   0.66665458  0.33332807  0.33698512
   0.83315486  0.16668300  0.33752377
   0.66644285  0.83328179  0.33751499
   0.83326550  0.66645183  0.33751142
Direct configuration=    13
   0.00423343  0.00286384  0.11340383
   0.35799999  0.00274571  0.09893475
   0.00423000  0.35665611  0.09893510
   0.65044362  0.64896803  0.09896663
   0.32834835  0.32693156  0.10056694
   0.68006599  0.00271232  0.10061214
   0.00416303  0.67868229  0.10062039
   0.16657182  0.33322527  0.33750489
   0.33321498  0.16657742  0.33750823
   0.16664316  0.83339574  0.33751357
   0.33330089  0.66665177  0.33707885
   0.66664558  0.33331320  0.33707891
   0.83338778  0.16665182  0.33751315
   0.66673569  0.83331693  0.33750576
   0.83330969  0.66674200  0.33750287
Direct configuration=    14
   0.00423302  0.00286453  0.11342203
   0.35799720  0.00274384  0.09893287
   0.00422879  0.35665471  0.09893320
   0.65044691  0.64897013  0.09896484
   0.32834811  0.32693050  0.10056434
   0.68006699  0.00271145  0.10060954
   0.00416278  0.67868429  0.10061779
   0.16657923  0.33323644  0.33750521
   0.33322643  0.16658523  0.33750858
   0.16664454  0.83338712  0.33751396
   0.33330208  0.66665217  0.33707537
   0.66664591  0.33331375  0.33707543
   0.83337913  0.16665298  0.33751355
   0.66672482  0.83331562  0.33750610
   0.83330805  0.66673123  0.33750319
Direct configuration=    15
   0.00423963  0.00285103  0.11318700
   0.35819760  0.00277896  0.09895128
   0.00423526  0.35681367  0.09895225
   0.65022775  0.64878153  0.09897897
   0.32827397  0.32686233  0.10060177
   0.68013156  0.00275453  0.10064349
   0.00418908  0.67872461  0.10065087
   0.16657867  0.33325828  0.33749065
   0.33324873  0.16658399  0.33749338
   0.16665483  0.83338913  0.33749762
   0.33330277  0.66664504  0.33716074
   0.66663532  0.33331446  0.33716078
   0.83338097  0.16666512  0.33749716
   0.66669720  0.83330527  0.33749114
   0.83330064  0.66670603  0.33748890
Direct configuration=    16
   0.00425042  0.00282899  0.11280344
   0.35852465  0.00283626  0.09898133
   0.00424581  0.35707309  0.09898333
   0.64987009  0.64847374  0.09900202
   0.32815297  0.32675109  0.10066285
   0.68023695  0.00282483  0.10069891
   0.00423201  0.67879042  0.10070485
   0.16657776  0.33329393  0.33746688
   0.33328512  0.16658198  0.33746857
   0.16667163  0.83339241  0.33747094
   0.33330390  0.66663341  0.33730007
   0.66661804  0.33331562  0.33730008
   0.83338397  0.16668494  0.33747042
   0.66665212  0.83328837  0.33746671
   0.83328856  0.66666492  0.33746559
Direct configuration=    17
   0.00420378  0.00276472  0.11273766
   0.35851986  0.00281968  0.09900248
   0.00422847  0.35708625  0.09900426
   0.64990634  0.64850542  0.09902076
   0.32819578  0.32678354  0.10065247
   0.68024248  0.00281131  0.10068483
   0.00422347  0.67881244  0.10069009
   0.16669750  0.33335955  0.33746763
   0.33334843  0.16671021  0.33746922
   0.16664794  0.83323997  0.33747143
   0.33330064  0.66666943  0.33732018
   0.66666586  0.33330817  0.33732019
   0.83322704  0.16665117  0.33747082
   0.66660308  0.83330386  0.33746747
   0.83328333  0.66660827  0.33746651
Direct configuration=    18
   0.00422294  0.00279112  0.11276469
   0.35852183  0.00282649  0.09899379
   0.00423559  0.35708084  0.09899566
   0.64989145  0.64849240  0.09901306
   0.32817819  0.32677021  0.10065674
   0.68024021  0.00281687  0.10069061
   0.00422698  0.67880339  0.10069615
   0.16664830  0.33333259  0.33746732
   0.33332242  0.16665753  0.33746895
   0.16665767  0.83330260  0.33747123
   0.33330198  0.66665463  0.33731192
   0.66664621  0.33331123  0.33731193
   0.83329152  0.16666505  0.33747066
   0.66662323  0.83329750  0.33746716
   0.83328548  0.66663154  0.33746613
Direct configuration=    19
   0.00419398  0.00275547  0.11273017
   0.35848518  0.00280930  0.09901360
   0.00422214  0.35706234  0.09901525
   0.64995339  0.64854505  0.09903057
   0.32822331  0.32680619  0.10063941
   0.68022744  0.00280186  0.10066935
   0.00421817  0.67880530  0.10067410
   0.16663278  0.33333730  0.33747168
   0.33332871  0.16664663  0.33747332
   0.16665392  0.83330829  0.33747567
   0.33331169  0.66665312  0.33731778
   0.66664499  0.33331801  0.33731778
   0.83329874  0.16666216  0.33747503
   0.66661860  0.83329512  0.33747165
   0.83328095  0.66662786  0.33747066
Direct configuration=    20
   0.00416487  0.00271965  0.11269549
   0.35844836  0.00279201  0.09903350
   0.00420862  0.35704374  0.09903493
   0.65001563  0.64859795  0.09904816
   0.32826864  0.32684234  0.10062200
   0.68021461  0.00278679  0.10064798
   0.00420933  0.67880722  0.10065194
   0.16661719  0.33334202  0.33747606
   0.33333504  0.16663569  0.33747770
   0.16665014  0.83331401  0.33748013
   0.33332145  0.66665161  0.33732367
   0.66664377  0.33332482  0.33732366
   0.83330601  0.16665925  0.33747944
   0.66661394  0.83329273  0.33747615
   0.83327640  0.66662416  0.33747520
Direct configuration=    21
   0.00420001  0.00277418  0.11264857
   0.35843933  0.00279604  0.09905186
   0.00421422  0.35702565  0.09905344
   0.65001005  0.64858713  0.09906261
   0.32826417  0.32683850  0.10060592
   0.68019386  0.00279664  0.10062546
   0.00421906  0.67877888  0.10062818
   0.16662063  0.33329886  0.33748435
   0.33328605  0.16662546  0.33748602
   0.16666421  0.83333955  0.33748858
   0.33328984  0.66664694  0.33732747
   0.66663548  0.33330409  0.33732746
   0.83332664  0.16667392  0.33748785
   0.66664764  0.83329076  0.33748460
   0.83328282  0.66665739  0.33748364
Direct configuration=    22
   0.00419780  0.00277076  0.11265151
   0.35843989  0.00279579  0.09905071
   0.00421387  0.35702679  0.09905228
   0.65001040  0.64858781  0.09906170
   0.32826445  0.32683874  0.10060692
   0.68019516  0.00279602  0.10062687
   0.00421845  0.67878066  0.10062967
   0.16662041  0.33330157  0.33748383
   0.33328912  0.16662610  0.33748550
   0.16666332  0.83333795  0.33748805
   0.33329182  0.66664723  0.33732723
   0.66663600  0.33330539  0.33732722
   0.83332534  0.16667300  0.33748732
   0.66664553  0.83329088  0.33748407
   0.83328242  0.66665530  0.33748311
Direct configuration=    23
   0.00424441  0.00283880  0.11260015
   0.35845927  0.00280617  0.09905925
   0.00422588  0.35703133  0.09906108
   0.64996702  0.64854247  0.09906660
   0.32823642  0.32681522  0.10059949
   0.68018823  0.00281010  0.10061310
   0.00423094  0.67876071  0.10061463
   0.16662676  0.33331907  0.33749375
   0.33330795  0.16663430  0.33749547
   0.16665349  0.83332744  0.33749816
   0.33329659  0.66664098  0.33732983
   0.66662698  0.33330882  0.33732983
   0.83331579  0.16666519  0.33749743
   0.66662363  0.83329759  0.33749412
   0.83329064  0.66663581  0.33749312
Direct configuration=    24
   0.00425684  0.00285695  0.11258644
   0.35846443  0.00280894  0.09906153
   0.00422909  0.35703254  0.09906342
   0.64995544  0.64853038  0.09906791
   0.32822894  0.32680895  0.10059751
   0.68018639  0.00281385  0.10060942
   0.00423427  0.67875538  0.10061062
   0.16662845  0.33332374  0.33749640
   0.33331297  0.16663648  0.33749814
   0.16665087  0.83332464  0.33750086
   0.33329786  0.66663931  0.33733053
   0.66662457  0.33330974  0.33733052
   0.83331324  0.16666311  0.33750012
   0.66661779  0.83329938  0.33749680
   0.83329284  0.66663061  0.33749579
Direct configuration=    25
   0.00425876  0.00285971  0.11252962
   0.35848745  0.00280689  0.09906179
   0.00423141  0.35705952  0.09906372
   0.64993608  0.64850813  0.09906579
   0.32822414  0.32680415  0.10059687
   0.68019662  0.00281081  0.10060324
   0.00423410  0.67876648  0.10060331
   0.16662016  0.33332900  0.33750712
   0.33331827  0.16663454  0.33750891
   0.16665286  0.83331476  0.33751172
   0.33330436  0.66664755  0.33733437
   0.66663683  0.33331340  0.33733437
   0.83330320  0.16666339  0.33751099
   0.66661628  0.83328801  0.33750762
   0.83327349  0.66662769  0.33750656
Direct configuration=    26
   0.00426400  0.00286725  0.11237404
   0.35855047  0.00280125  0.09906250
   0.00423776  0.35713337  0.09906452
   0.64988306  0.64844723  0.09906000
   0.32821099  0.32679100  0.10059510
   0.68022466  0.00280248  0.10058631
   0.00423363  0.67879685  0.10058329
   0.16659745  0.33334340  0.33753649
   0.33333278  0.16662921  0.33753842
   0.16665831  0.83328773  0.33754147
   0.33332214  0.66667012  0.33734489
   0.66667037  0.33332342  0.33734491
   0.83327571  0.16666415  0.33754075
   0.66661215  0.83325688  0.33753726
   0.83322052  0.66661967  0.33753605
Direct configuration=    27
   0.00426098  0.00286266  0.11234886
   0.35855787  0.00279974  0.09906197
   0.00423779  0.35714313  0.09906399
   0.64988008  0.64844320  0.09905867
   0.32821424  0.32679364  0.10059509
   0.68022668  0.00280044  0.10058419
   0.00423283  0.67880049  0.10058073
   0.16659740  0.33333968  0.33754104
   0.33332874  0.16662825  0.33754299
   0.16665520  0.83328992  0.33754607
   0.33331985  0.66666738  0.33734728
   0.66666637  0.33332210  0.33734730
   0.83327769  0.16666189  0.33754536
   0.66661320  0.83326002  0.33754184
   0.83322509  0.66662145  0.33754061
Direct configuration=    28
   0.00425190  0.00284891  0.11227332
   0.35858005  0.00279521  0.09906039
   0.00423789  0.35717241  0.09906242
   0.64987114  0.64843114  0.09905471
   0.32822400  0.32680154  0.10059507
   0.68023273  0.00279433  0.10057781
   0.00423043  0.67881141  0.10057306
   0.16659724  0.33332852  0.33755471
   0.33331662  0.16662538  0.33755669
   0.16664585  0.83329651  0.33755986
   0.33331299  0.66665915  0.33735445
   0.66665438  0.33331814  0.33735446
   0.83328363  0.16665511  0.33755917
   0.66661636  0.83326943  0.33755559
   0.83323878  0.66662681  0.33755431
Direct configuration=    29
   0.00423373  0.00282142  0.11212223
   0.35862441  0.00278615  0.09905722
   0.00423810  0.35723096  0.09905926
   0.64985326  0.64840701  0.09904677
   0.32824351  0.32681734  0.10059503
   0.68024485  0.00278211  0.10056505
   0.00422563  0.67883326  0.10055771
   0.16659693  0.33330620  0.33758204
   0.33329238  0.16661963  0.33758409
   0.16662716  0.83330969  0.33758745
   0.33329926  0.66664270  0.33736878
   0.66663041  0.33331022  0.33736880
   0.83329552  0.16664155  0.33758680
   0.66662268  0.83328825  0.33758308
   0.83326616  0.66663752  0.33758170
Direct configuration=    30
   0.00419741  0.00276642  0.11182006
   0.35871313  0.00276803  0.09905088
   0.00423852  0.35734806  0.09905295
   0.64981751  0.64835875  0.09903090
   0.32828253  0.32684895  0.10059494
   0.68026908  0.00275766  0.10053953
   0.00421604  0.67887695  0.10052701
   0.16659631  0.33326157  0.33763671
   0.33324390  0.16660814  0.33763888
   0.16658978  0.83333604  0.33764262
   0.33327180  0.66660980  0.33739743
   0.66658246  0.33329438  0.33739746
   0.83331928  0.16661442  0.33764206
   0.66663532  0.83332589  0.33763807
   0.83332093  0.66665894  0.33763649
Direct configuration=    31
   0.00422124  0.00280251  0.11201833
   0.35865492  0.00277992  0.09905504
   0.00423825  0.35727122  0.09905709
   0.64984097  0.64839042  0.09904132
   0.32825692  0.32682821  0.10059500
   0.68025318  0.00277370  0.10055627
   0.00422233  0.67884828  0.10054715
   0.16659672  0.33329086  0.33760084
   0.33327571  0.16661568  0.33760293
   0.16661430  0.83331875  0.33760642
   0.33328982  0.66663139  0.33737863
   0.66661392  0.33330477  0.33737865
   0.83330369  0.16663222  0.33760580
   0.66662703  0.83330119  0.33760199
   0.83328500  0.66664488  0.33760054
Direct configuration=    32
   0.00422236  0.00280134  0.11192974
   0.35866193  0.00278236  0.09905280
   0.00424060  0.35727514  0.09905497
   0.64984311  0.64839264  0.09903741
   0.32827623  0.32684556  0.10059261
   0.68023948  0.00277685  0.10054831
   0.00422563  0.67883456  0.10053805
   0.16660305  0.33329243  0.33761575
   0.33327475  0.16661707  0.33761784
   0.16662434  0.83332076  0.33762128
   0.33327673  0.66662586  0.33739216
   0.66660486  0.33329611  0.33739218
   0.83330288  0.16664339  0.33762069
   0.66661680  0.83329392  0.33761685
   0.83328124  0.66663602  0.33761536
Direct configuration=    33
   0.00422572  0.00279783  0.11166395
   0.35868298  0.00278967  0.09904609
   0.00424764  0.35728691  0.09904863
   0.64984954  0.64839930  0.09902570
   0.32833413  0.32689762  0.10058547
   0.68019838  0.00278628  0.10052441
   0.00423552  0.67879340  0.10051075
   0.16662203  0.33329713  0.33766047
   0.33327187  0.16662124  0.33766258
   0.16665445  0.83332677  0.33766584
   0.33323748  0.66660925  0.33743276
   0.66657769  0.33327010  0.33743278
   0.83330044  0.16667692  0.33766536
   0.66658614  0.83327213  0.33766141
   0.83326997  0.66660944  0.33765981
Direct configuration=    34
   0.00423244  0.00279082  0.11113237
   0.35872508  0.00280429  0.09903267
   0.00426173  0.35731045  0.09903595
   0.64986239  0.64841263  0.09900229
   0.32844994  0.32700174  0.10057117
   0.68011618  0.00280516  0.10047661
   0.00425531  0.67871108  0.10045614
   0.16666001  0.33330653  0.33774991
   0.33326610  0.16662958  0.33775205
   0.16671467  0.83333881  0.33775498
   0.33315898  0.66657605  0.33751395
   0.66652335  0.33321810  0.33751397
   0.83329558  0.16674397  0.33775470
   0.66652480  0.83322853  0.33775054
   0.83324744  0.66655627  0.33774871
Direct configuration=    35
   0.00422744  0.00279605  0.11152841
   0.35869371  0.00279340  0.09904267
   0.00425123  0.35729291  0.09904540
   0.64985282  0.64840270  0.09901973
   0.32836366  0.32692417  0.10058182
   0.68017742  0.00279110  0.10051222
   0.00424057  0.67877241  0.10049682
   0.16663172  0.33329953  0.33768327
   0.33327040  0.16662337  0.33768539
   0.16666980  0.83332984  0.33768857
   0.33321747  0.66660079  0.33745346
   0.66656384  0.33325684  0.33745348
   0.83329920  0.16669401  0.33768814
   0.66657050  0.83326101  0.33768414
   0.83326423  0.66659588  0.33768247
Direct configuration=    36
   0.00424509  0.00281517  0.11140379
   0.35868841  0.00280501  0.09904132
   0.00425784  0.35727489  0.09904430
   0.64985534  0.64840864  0.09901762
   0.32837706  0.32693635  0.10057184
   0.68016309  0.00280586  0.10049744
   0.00425190  0.67874781  0.10048106
   0.16660373  0.33330044  0.33770319
   0.33327442  0.16661320  0.33770528
   0.16664353  0.83331390  0.33770821
   0.33324222  0.66661069  0.33747904
   0.66657981  0.33327270  0.33747905
   0.83328668  0.16666778  0.33770785
   0.66657509  0.83326116  0.33770385
   0.83324979  0.66660039  0.33770215
Direct configuration=    37
   0.00426425  0.00283594  0.11126848
   0.35868265  0.00281762  0.09903985
   0.00426502  0.35725532  0.09904312
   0.64985808  0.64841510  0.09901533
   0.32839162  0.32694957  0.10056100
   0.68014753  0.00282190  0.10048138
   0.00426421  0.67872110  0.10046394
   0.16657334  0.33330144  0.33772483
   0.33327878  0.16660216  0.33772687
   0.16661500  0.83329659  0.33772954
   0.33326910  0.66662145  0.33750682
   0.66659716  0.33328992  0.33750683
   0.83327309  0.16663930  0.33772925
   0.66658008  0.83326132  0.33772525
   0.83323411  0.66660528  0.33772352
Direct configuration=    38
   0.00426623  0.00283808  0.11125454
   0.35868206  0.00281891  0.09903969
   0.00426576  0.35725330  0.09904299
   0.64985837  0.64841576  0.09901509
   0.32839312  0.32695093  0.10055989
   0.68014593  0.00282355  0.10047973
   0.00426547  0.67871835  0.10046218
   0.16657021  0.33330154  0.33772706
   0.33327923  0.16660102  0.33772910
   0.16661206  0.83329481  0.33773173
   0.33327187  0.66662256  0.33750968
   0.66659894  0.33329170  0.33750969
   0.83327169  0.16663637  0.33773146
   0.66658060  0.83326134  0.33772746
   0.83323249  0.66660578  0.33772572
Direct configuration=    39
   0.00427017  0.00284236  0.11122666
   0.35868087  0.00282151  0.09903939
   0.00426724  0.35724927  0.09904275
   0.64985893  0.64841709  0.09901462
   0.32839612  0.32695365  0.10055765
   0.68014272  0.00282685  0.10047642
   0.00426801  0.67871285  0.10045865
   0.16656395  0.33330175  0.33773151
   0.33328013  0.16659875  0.33773355
   0.16660618  0.83329124  0.33773613
   0.33327741  0.66662477  0.33751540
   0.66660252  0.33329525  0.33751541
   0.83326889  0.16663050  0.33773586
   0.66658162  0.83326137  0.33773187
   0.83322926  0.66660679  0.33773012
Direct configuration=    40
   0.00427682  0.00284766  0.11117639
   0.35868041  0.00282791  0.09904128
   0.00427027  0.35724475  0.09904468
   0.64985466  0.64841471  0.09901856
   0.32839069  0.32694840  0.10054380
   0.68015344  0.00283358  0.10046529
   0.00427306  0.67871659  0.10044806
   0.16657117  0.33329011  0.33773886
   0.33326570  0.16660306  0.33774081
   0.16660132  0.83328756  0.33774315
   0.33326808  0.66662392  0.33753303
   0.66660167  0.33328956  0.33753303
   0.83326266  0.16662528  0.33774290
   0.66658995  0.83326642  0.33773893
   0.83323409  0.66661448  0.33773723
Direct configuration=    41
   0.00428482  0.00285405  0.11111584
   0.35867986  0.00283562  0.09904356
   0.00427393  0.35723932  0.09904702
   0.64984952  0.64841185  0.09902330
   0.32838416  0.32694207  0.10052712
   0.68016635  0.00284169  0.10045188
   0.00427914  0.67872109  0.10043530
   0.16657987  0.33327609  0.33774770
   0.33324833  0.16660826  0.33774957
   0.16659547  0.83328313  0.33775160
   0.33325686  0.66662290  0.33755425
   0.66660066  0.33328271  0.33755426
   0.83325517  0.16661900  0.33775138
   0.66659997  0.83327250  0.33774744
   0.83323989  0.66662374  0.33774579
Direct configuration=    42
   0.00428031  0.00284361  0.11107500
   0.35869759  0.00283889  0.09904629
   0.00427594  0.35725652  0.09904966
   0.64983984  0.64840225  0.09903041
   0.32838508  0.32694314  0.10050609
   0.68017498  0.00284201  0.10043863
   0.00427993  0.67872956  0.10042367
   0.16657614  0.33328640  0.33775353
   0.33325902  0.16660113  0.33775529
   0.16660769  0.83329593  0.33775705
   0.33325009  0.66661200  0.33757463
   0.66658284  0.33327790  0.33757464
   0.83326792  0.16663502  0.33775684
   0.66657859  0.83326308  0.33775291
   0.83323804  0.66660653  0.33775135
Direct configuration=    43
   0.00427770  0.00283758  0.11105139
   0.35870784  0.00284078  0.09904787
   0.00427710  0.35726647  0.09905118
   0.64983425  0.64839670  0.09903452
   0.32838562  0.32694376  0.10049393
   0.68017997  0.00284221  0.10043098
   0.00428038  0.67873446  0.10041695
   0.16657398  0.33329236  0.33775690
   0.33326520  0.16659701  0.33775860
   0.16661476  0.83330334  0.33776020
   0.33324617  0.66660571  0.33758641
   0.66657254  0.33327513  0.33758642
   0.83327529  0.16664429  0.33776000
   0.66656624  0.83325763  0.33775607
   0.83323697  0.66659659  0.33775457
Direct configuration=    44
   0.00427660  0.00283504  0.11104146
   0.35871216  0.00284157  0.09904853
   0.00427758  0.35727066  0.09905183
   0.64983189  0.64839436  0.09903625
   0.32838584  0.32694402  0.10048881
   0.68018207  0.00284229  0.10042776
   0.00428057  0.67873652  0.10041413
   0.16657307  0.33329487  0.33775832
   0.33326780  0.16659528  0.33775999
   0.16661773  0.83330645  0.33776152
   0.33324453  0.66660306  0.33759137
   0.66656820  0.33327396  0.33759138
   0.83327840  0.16664819  0.33776133
   0.66656104  0.83325534  0.33775740
   0.83323652  0.66659240  0.33775592
Direct configuration=    45
   0.00426961  0.00282153  0.11100018
   0.35874359  0.00284416  0.09904920
   0.00428096  0.35730129  0.09905230
   0.64981794  0.64837904  0.09904355
   0.32839133  0.32695005  0.10046061
   0.68018301  0.00284012  0.10041295
   0.00428034  0.67874131  0.10040214
   0.16657090  0.33328996  0.33776541
   0.33326120  0.16659698  0.33776697
   0.16661118  0.83329504  0.33776821
   0.33324538  0.66660898  0.33761482
   0.66657782  0.33327466  0.33761483
   0.83326543  0.16663994  0.33776801
   0.66656765  0.83325370  0.33776408
   0.83322767  0.66659724  0.33776272
Direct configuration=    46
   0.00427029  0.00282284  0.11100420
   0.35874053  0.00284391  0.09904913
   0.00428063  0.35729831  0.09905225
   0.64981929  0.64838053  0.09904284
   0.32839079  0.32694947  0.10046336
   0.68018292  0.00284033  0.10041439
   0.00428036  0.67874084  0.10040330
   0.16657111  0.33329044  0.33776472
   0.33326184  0.16659681  0.33776629
   0.16661182  0.83329615  0.33776756
   0.33324529  0.66660840  0.33761254
   0.66657689  0.33327459  0.33761255
   0.83326669  0.16664074  0.33776736
   0.66656701  0.83325386  0.33776343
   0.83322853  0.66659677  0.33776206
Direct configuration=    47
   0.00427641  0.00283253  0.11100835
   0.35873714  0.00284429  0.09904532
   0.00428226  0.35729379  0.09904839
   0.64982072  0.64838143  0.09903972
   0.32838819  0.32694716  0.10046305
   0.68017982  0.00284148  0.10041703
   0.00428197  0.67873663  0.10040654
   0.16657020  0.33328126  0.33776568
   0.33325269  0.16659990  0.33776727
   0.16659657  0.83328681  0.33776865
   0.33325092  0.66661383  0.33761001
   0.66658597  0.33327850  0.33761002
   0.83325774  0.16662424  0.33776842
   0.66658076  0.83326322  0.33776446
   0.83323265  0.66660892  0.33776309
Direct configuration=    48
   0.00427660  0.00283283  0.11100848
   0.35873703  0.00284430  0.09904521
   0.00428231  0.35729365  0.09904827
   0.64982076  0.64838146  0.09903962
   0.32838811  0.32694709  0.10046304
   0.68017973  0.00284152  0.10041711
   0.00428202  0.67873650  0.10040664
   0.16657017  0.33328098  0.33776570
   0.33325241  0.16660000  0.33776730
   0.16659611  0.83328653  0.33776868
   0.33325109  0.66661399  0.33760994
   0.66658625  0.33327862  0.33760994
   0.83325747  0.16662373  0.33776845
   0.66658118  0.83326351  0.33776449
   0.83323277  0.66660929  0.33776312
Direct configuration=    49
   0.00428075  0.00283965  0.11101189
   0.35873502  0.00284381  0.09903991
   0.00428382  0.35729178  0.09904286
   0.64982305  0.64838259  0.09903590
   0.32838794  0.32694685  0.10045955
   0.68017704  0.00284151  0.10041919
   0.00428316  0.67873388  0.10040987
   0.16656714  0.33328234  0.33776764
   0.33325396  0.16659812  0.33776927
   0.16659622  0.83328656  0.33777076
   0.33325241  0.66661412  0.33760851
   0.66658640  0.33327943  0.33760851
   0.83325766  0.16662406  0.33777050
   0.66657941  0.83326150  0.33776650
   0.83323002  0.66660778  0.33776515
Direct configuration=    50
   0.00429225  0.00285853  0.11102131
   0.35872944  0.00284246  0.09902526
   0.00428800  0.35728660  0.09902790
   0.64982937  0.64838571  0.09902562
   0.32838748  0.32694620  0.10044990
   0.68016961  0.00284151  0.10042495
   0.00428633  0.67872663  0.10041878
   0.16655874  0.33328608  0.33777298
   0.33325825  0.16659292  0.33777469
   0.16659653  0.83328664  0.33777653
   0.33325606  0.66661449  0.33760455
   0.66658682  0.33328168  0.33760456