   8   8   0  16
  0.4338553E+02  0.5169000E-09  0.5169000E-09  0.1500000E-08  0.5000000E-15
  1.000000000000000E-004
  CAR 
 Lattice                                 
      6.52645527    -21.14251011  301     -3.47638207      1.00000000
    -21.143  0.0000E+00  0.0000E+00
    -21.050  0.0000E+00  0.0000E+00
    -20.958  0.0000E+00  0.0000E+00
    -20.866  0.0000E+00  0.0000E+00
    -20.774  0.0000E+00  0.0000E+00
    -20.681  0.0000E+00  0.0000E+00
    -20.589  0.0000E+00  0.0000E+00
    -20.497  0.0000E+00  0.0000E+00
    -20.405  0.1423E-15  0.1313E-16
    -20.312  0.1283E-11  0.1184E-12
    -20.220  0.2279E-08  0.2103E-09
    -20.128  0.8256E-06  0.7636E-07
    -20.036  0.6471E-04  0.6044E-05
    -19.944  0.1212E-02  0.1178E-03
    -19.851  0.6425E-02  0.7104E-03
    -19.759  0.1299E-01  0.1908E-02
    -19.667  0.1590E-01  0.3375E-02
    -19.575  0.1759E-01  0.4997E-02
    -19.482  0.2035E-01  0.6873E-02
    -19.390  0.2644E-01  0.9312E-02
    -19.298  0.3387E-01  0.1244E-01
    -19.206  0.2587E-01  0.1482E-01
    -19.113  0.7918E-02  0.1555E-01
    -19.021  0.7766E-03  0.1562E-01
    -18.929  0.2040E-04  0.1562E-01
    -18.837  0.1247E-06  0.1562E-01
    -18.745  0.1623E-09  0.1562E-01
    -18.652  0.4262E-13  0.1562E-01
    -18.560  0.1896E-17  0.1562E-01
    -18.468  0.0000E+00  0.1562E-01
    -18.376  0.0000E+00  0.1562E-01
    -18.283  0.0000E+00  0.1562E-01
    -18.191  0.4122E-18  0.1562E-01
    -18.099  0.9340E-14  0.1563E-01
    -18.007  0.4400E-10  0.1563E-01
    -17.914  0.4133E-07  0.1563E-01
    -17.822  0.8085E-05  0.1563E-01
    -17.730  0.3542E-03  0.1566E-01
    -17.638  0.3940E-02  0.1602E-01
    -17.546  0.1387E-01  0.1730E-01
    -17.453  0.2269E-01  0.1939E-01
    -17.361  0.2522E-01  0.2172E-01
    -17.269  0.2015E-01  0.2358E-01
    -17.177  0.1519E-01  0.2498E-01
    -17.084  0.1440E-01  0.2631E-01
    -16.992  0.1484E-01  0.2768E-01
    -16.900  0.1548E-01  0.2910E-01
    -16.808  0.1635E-01  0.3061E-01
    -16.715  0.1757E-01  0.3223E-01
    -16.623  0.1956E-01  0.3404E-01
    -16.531  0.2338E-01  0.3619E-01
    -16.439  0.2779E-01  0.3875E-01
    -16.347  0.2582E-01  0.4114E-01
    -16.254  0.2008E-01  0.4299E-01
    -16.162  0.1627E-01  0.4449E-01
    -16.070  0.1350E-01  0.4573E-01
    -15.978  0.9006E-02  0.4656E-01
    -15.885  0.3022E-02  0.4684E-01
    -15.793  0.3387E-03  0.4687E-01
    -15.701  0.9951E-05  0.4687E-01
    -15.609  0.6675E-07  0.4687E-01
    -15.516  0.9427E-10  0.4687E-01
    -15.424  0.2673E-13  0.4687E-01
    -15.332  0.1401E-17  0.4687E-01
    -15.240  0.0000E+00  0.4687E-01
    -15.148  0.0000E+00  0.4687E-01
    -15.055  0.0000E+00  0.4687E-01
    -14.963  0.0000E+00  0.4687E-01
    -14.871  0.0000E+00  0.4687E-01
    -14.779  0.0000E+00  0.4687E-01
    -14.686  0.1284E-14  0.4687E-01
    -14.594  0.8047E-11  0.4688E-01
    -14.502  0.1003E-07  0.4688E-01
    -14.410  0.2580E-05  0.4688E-01
    -14.317  0.1462E-03  0.4689E-01
    -14.225  0.2042E-02  0.4708E-01
    -14.133  0.8524E-02  0.4786E-01
    -14.041  0.1490E-01  0.4924E-01
    -13.949  0.1766E-01  0.5087E-01
    -13.856  0.2026E-01  0.5274E-01
    -13.764  0.2506E-01  0.5505E-01
    -13.672  0.2748E-01  0.5758E-01
    -13.580  0.2079E-01  0.5950E-01
    -13.487  0.1447E-01  0.6083E-01
    -13.395  0.1232E-01  0.6197E-01
    -13.303  0.1147E-01  0.6303E-01
    -13.211  0.1097E-01  0.6404E-01
    -13.119  0.1054E-01  0.6501E-01
    -13.026  0.1020E-01  0.6595E-01
    -12.934  0.9917E-02  0.6687E-01
    -12.842  0.1002E-01  0.6779E-01
    -12.750  0.1167E-01  0.6887E-01
    -12.657  0.1469E-01  0.7022E-01
    -12.565  0.1564E-01  0.7166E-01
    -12.473  0.1487E-01  0.7303E-01
    -12.381  0.1389E-01  0.7432E-01
    -12.288  0.1293E-01  0.7551E-01
    -12.196  0.1216E-01  0.7663E-01
    -12.104  0.1148E-01  0.7769E-01
    -12.012  0.1090E-01  0.7869E-01
    -11.920  0.9916E-02  0.7961E-01
    -11.827  0.7436E-02  0.8029E-01
    -11.735  0.4447E-02  0.8071E-01
    -11.643  0.3589E-02  0.8104E-01
    -11.551  0.3507E-02  0.8136E-01
    -11.458  0.3710E-02  0.8170E-01
    -11.366  0.3685E-02  0.8204E-01
    -11.274  0.4407E-02  0.8245E-01
    -11.182  0.5257E-02  0.8293E-01
    -11.089  0.6638E-02  0.8355E-01
    -10.997  0.6562E-02  0.8415E-01
    -10.905  0.8225E-02  0.8491E-01
    -10.813  0.9927E-02  0.8582E-01
    -10.721  0.1206E-01  0.8694E-01
    -10.628  0.1268E-01  0.8811E-01
    -10.536  0.1346E-01  0.8935E-01
    -10.444  0.1471E-01  0.9070E-01
    -10.352  0.1605E-01  0.9219E-01
    -10.259  0.1840E-01  0.9388E-01
    -10.167  0.1647E-01  0.9540E-01
    -10.075  0.1229E-01  0.9654E-01
     -9.983  0.1022E-01  0.9748E-01
     -9.890  0.1283E-01  0.9866E-01
     -9.798  0.2002E-01  0.1005E+00
     -9.706  0.2148E-01  0.1025E+00
     -9.614  0.1846E-01  0.1042E+00
     -9.522  0.1663E-01  0.1057E+00
     -9.429  0.1513E-01  0.1071E+00
     -9.337  0.1459E-01  0.1085E+00
     -9.245  0.1477E-01  0.1098E+00
     -9.153  0.1551E-01  0.1113E+00
     -9.060  0.1724E-01  0.1128E+00
     -8.968  0.1898E-01  0.1146E+00
     -8.876  0.2042E-01  0.1165E+00
     -8.784  0.1981E-01  0.1183E+00
     -8.691  0.1956E-01  0.1201E+00
     -8.599  0.2270E-01  0.1222E+00
     -8.507  0.2336E-01  0.1244E+00
     -8.415  0.2063E-01  0.1263E+00
     -8.323  0.1751E-01  0.1279E+00
     -8.230  0.1584E-01  0.1293E+00
     -8.138  0.1565E-01  0.1308E+00
     -8.046  0.1903E-01  0.1325E+00
     -7.954  0.2375E-01  0.1347E+00
     -7.861  0.2956E-01  0.1375E+00
     -7.769  0.3408E-01  0.1406E+00
     -7.677  0.3414E-01  0.1438E+00
     -7.585  0.3344E-01  0.1468E+00
     -7.492  0.2732E-01  0.1494E+00
     -7.400  0.1799E-01  0.1510E+00
     -7.308  0.1327E-01  0.1522E+00
     -7.216  0.1578E-01  0.1537E+00
     -7.124  0.1657E-01  0.1552E+00
     -7.031  0.1401E-01  0.1565E+00
     -6.939  0.1276E-01  0.1577E+00
     -6.847  0.1259E-01  0.1589E+00
     -6.755  0.1320E-01  0.1601E+00
     -6.662  0.1640E-01  0.1616E+00
     -6.570  0.2418E-01  0.1638E+00
     -6.478  0.3624E-01  0.1672E+00
     -6.386  0.5563E-01  0.1723E+00
     -6.293  0.6228E-01  0.1780E+00
     -6.201  0.4700E-01  0.1824E+00
     -6.109  0.3326E-01  0.1854E+00
     -6.017  0.2325E-01  0.1876E+00
     -5.925  0.1862E-01  0.1893E+00
     -5.832  0.1825E-01  0.1910E+00
     -5.740  0.1864E-01  0.1927E+00
     -5.648  0.1925E-01  0.1945E+00
     -5.556  0.1986E-01  0.1963E+00
     -5.463  0.2080E-01  0.1982E+00
     -5.371  0.2167E-01  0.2002E+00
     -5.279  0.2310E-01  0.2023E+00
     -5.187  0.2478E-01  0.2046E+00
     -5.095  0.2771E-01  0.2072E+00
     -5.002  0.3140E-01  0.2101E+00
     -4.910  0.3335E-01  0.2132E+00
     -4.818  0.3488E-01  0.2164E+00
     -4.726  0.3752E-01  0.2198E+00
     -4.633  0.3540E-01  0.2231E+00
     -4.541  0.3045E-01  0.2259E+00
     -4.449  0.2230E-01  0.2280E+00
     -4.357  0.1334E-01  0.2292E+00
     -4.264  0.1015E-01  0.2301E+00
     -4.172  0.9550E-02  0.2310E+00
     -4.080  0.9234E-02  0.2319E+00
     -3.988  0.8944E-02  0.2327E+00
     -3.896  0.8493E-02  0.2335E+00
     -3.803  0.6613E-02  0.2341E+00
     -3.711  0.2724E-02  0.2343E+00
     -3.619  0.3893E-03  0.2344E+00
     -3.527  0.1495E-04  0.2344E+00
     -3.434  0.2163E-06  0.2344E+00
     -3.342  0.1125E-04  0.2344E+00
     -3.250  0.3507E-03  0.2344E+00
     -3.158  0.2885E-02  0.2347E+00
     -3.065  0.8009E-02  0.2354E+00
     -2.973  0.1131E-01  0.2365E+00
     -2.881  0.1289E-01  0.2376E+00
     -2.789  0.1477E-01  0.2390E+00
     -2.697  0.1805E-01  0.2407E+00
     -2.604  0.2128E-01  0.2426E+00
     -2.512  0.1851E-01  0.2443E+00
     -2.420  0.1379E-01  0.2456E+00
     -2.328  0.1057E-01  0.2466E+00
     -2.235  0.8781E-02  0.2474E+00
     -2.143  0.7237E-02  0.2481E+00
     -2.051  0.6096E-02  0.2486E+00
     -1.959  0.4686E-02  0.2491E+00
     -1.866  0.3288E-02  0.2494E+00
     -1.774  0.2351E-02  0.2496E+00
     -1.682  0.1809E-02  0.2497E+00
     -1.590  0.1330E-02  0.2499E+00
     -1.498  0.8516E-03  0.2499E+00
     -1.405  0.4573E-03  0.2500E+00
     -1.313  0.2997E-03  0.2500E+00
     -1.221  0.5503E-03  0.2501E+00
     -1.129  0.9984E-03  0.2502E+00
     -1.036  0.1457E-02  0.2503E+00
     -0.944  0.2007E-02  0.2505E+00
     -0.852  0.2472E-02  0.2507E+00
     -0.760  0.3150E-02  0.2510E+00
     -0.667  0.3665E-02  0.2513E+00
     -0.575  0.4562E-02  0.2518E+00
     -0.483  0.5222E-02  0.2522E+00
     -0.391  0.6605E-02  0.2528E+00
     -0.299  0.8376E-02  0.2536E+00
     -0.206  0.1465E-01  0.2550E+00
     -0.114  0.2262E-01  0.2571E+00
     -0.022  0.2295E-01  0.2592E+00
      0.070  0.1696E-01  0.2607E+00
      0.163  0.1375E-01  0.2620E+00
      0.255  0.1167E-01  0.2631E+00
      0.347  0.1086E-01  0.2641E+00
      0.439  0.1079E-01  0.2651E+00
      0.532  0.1174E-01  0.2662E+00
      0.624  0.1164E-01  0.2672E+00
      0.716  0.1007E-01  0.2682E+00
      0.808  0.8803E-02  0.2690E+00
      0.900  0.1088E-01  0.2700E+00
      0.993  0.1375E-01  0.2712E+00
      1.085  0.1460E-01  0.2726E+00
      1.177  0.1503E-01  0.2740E+00
      1.269  0.1550E-01  0.2754E+00
      1.362  0.1609E-01  0.2769E+00
      1.454  0.1693E-01  0.2785E+00
      1.546  0.1836E-01  0.2802E+00
      1.638  0.1896E-01  0.2819E+00
      1.731  0.1842E-01  0.2836E+00
      1.823  0.1886E-01  0.2853E+00
      1.915  0.2133E-01  0.2873E+00
      2.007  0.2353E-01  0.2895E+00
      2.099  0.2327E-01  0.2916E+00
      2.192  0.2386E-01  0.2938E+00
      2.284  0.2597E-01  0.2962E+00
      2.376  0.2890E-01  0.2989E+00
      2.468  0.3057E-01  0.3017E+00
      2.561  0.2992E-01  0.3045E+00
      2.653  0.3037E-01  0.3073E+00
      2.745  0.3000E-01  0.3100E+00
      2.837  0.2986E-01  0.3128E+00
      2.929  0.3007E-01  0.3156E+00
      3.022  0.2968E-01  0.3183E+00
      3.114  0.2979E-01  0.3210E+00
      3.206  0.2979E-01  0.3238E+00
      3.298  0.2952E-01  0.3265E+00
      3.391  0.2980E-01  0.3293E+00
      3.483  0.2967E-01  0.3320E+00
      3.575  0.2948E-01  0.3347E+00
      3.667  0.2965E-01  0.3374E+00
      3.760  0.2949E-01  0.3402E+00
      3.852  0.3046E-01  0.3430E+00
      3.944  0.3094E-01  0.3458E+00
      4.036  0.3197E-01  0.3488E+00
      4.128  0.2800E-01  0.3514E+00
      4.221  0.2407E-01  0.3536E+00
      4.313  0.2593E-01  0.3560E+00
      4.405  0.2954E-01  0.3587E+00
      4.497  0.2953E-01  0.3614E+00
      4.590  0.2428E-01  0.3637E+00
      4.682  0.1942E-01  0.3655E+00
      4.774  0.1759E-01  0.3671E+00
      4.866  0.1940E-01  0.3689E+00
      4.959  0.2189E-01  0.3709E+00
      5.051  0.1834E-01  0.3726E+00
      5.143  0.1266E-01  0.3737E+00
      5.235  0.8781E-02  0.3746E+00
      5.327  0.4016E-02  0.3749E+00
      5.420  0.7886E-03  0.3750E+00
      5.512  0.4908E-04  0.3750E+00
      5.604  0.7595E-06  0.3750E+00
      5.696  0.2529E-08  0.3750E+00
      5.789  0.1686E-11  0.3750E+00
      5.881  0.2171E-15  0.3750E+00
      5.973  0.0000E+00  0.3750E+00
      6.065  0.0000E+00  0.3750E+00
      6.158  0.0000E+00  0.3750E+00
      6.250  0.0000E+00  0.3750E+00
      6.342  0.0000E+00  0.3750E+00
      6.434  0.0000E+00  0.3750E+00
      6.526  0.0000E+00  0.3750E+00
