    8    8  128    1
  0.4338553E+02  0.5169000E-09  0.5169000E-09  0.1500000E-08  0.5000000E-15
  1.000000000000000E-004
  CAR 
 Lattice                                 
     30    685     24
 
  0.0000000E+00  0.0000000E+00  0.0000000E+00  0.7304602E-03
      1        -19.884830   1.000000
      2        -15.983237   1.000000
      3        -15.983061   1.000000
      4        -13.641849   1.000000
      5        -13.641796   1.000000
      6        -12.573343   1.000000
      7        -11.250047   1.000000
      8         -8.688724   1.000000
      9         -8.456706   1.000000
     10         -6.304380   1.000000
     11         -6.304196   1.000000
     12         -4.480791   1.000000
     13         -4.480702   1.000000
     14         -3.791988   0.999996
     15         -3.791810   0.999996
     16         -1.963908   0.000000
     17         -0.227794   0.000000
     18         -0.227766   0.000000
     19          0.431686   0.000000
     20          0.840553   0.000000
     21          1.842843   0.000000
     22          2.261546   0.000000
     23          4.228384   0.000000
     24          4.855324   0.000000
 
  0.2702703E-01  0.1315118E-17  0.0000000E+00  0.1460920E-02
      1        -19.881953   1.000000
      2        -15.997882   1.000000
      3        -15.987900   1.000000
      4        -13.645680   1.000000
      5        -13.631158   1.000000
      6        -12.559111   1.000000
      7        -11.232605   1.000000
      8         -8.684375   1.000000
      9         -8.462622   1.000000
     10         -6.317429   1.000000
     11         -6.306966   1.000000
     12         -4.494073   1.000000
     13         -4.482977   1.000000
     14         -3.807086   0.999999
     15         -3.799345   0.999998
     16         -1.989991   0.000000
     17         -0.221354   0.000000
     18         -0.189276   0.000000
     19          0.443599   0.000000
     20          0.846011   0.000000
     21          1.848748   0.000000
     22          2.267030   0.000000
     23          4.233769   0.000000
     24          4.861237   0.000000
 
 -0.4196058E-18  0.2702703E-01  0.0000000E+00  0.1460920E-02
      1        -19.881953   1.000000
      2        -15.997848   1.000000
      3        -15.987934   1.000000
      4        -13.645705   1.000000
      5        -13.631133   1.000000
      6        -12.559111   1.000000
      7        -11.232605   1.000000
      8         -8.684375   1.000000
      9         -8.462622   1.000000
     10         -6.317406   1.000000
     11         -6.306989   1.000000
     12         -4.494046   1.000000
     13         -4.483004   1.000000
     14         -3.807109   0.999999
     15         -3.799322   0.999998
     16         -1.989992   0.000000
     17         -0.221330   0.000000
     18         -0.189299   0.000000
     19          0.443599   0.000000
     20          0.846011   0.000000
     21          1.848748   0.000000
     22          2.267030   0.000000
     23          4.233769   0.000000
     24          4.861238   0.000000
 
 -0.2702703E-01  0.2702703E-01  0.0000000E+00  0.1460920E-02
      1        -19.881953   1.000000
      2        -15.997993   1.000000
      3        -15.987789   1.000000
      4        -13.645658   1.000000
      5        -13.631178   1.000000
      6        -12.559114   1.000000
      7        -11.232604   1.000000
      8         -8.684375   1.000000
      9         -8.462622   1.000000
     10         -6.317553   1.000000
     11         -6.306842   1.000000
     12         -4.494122   1.000000
     13         -4.482929   1.000000
     14         -3.807228   0.999999
     15         -3.799203   0.999998
     16         -1.989993   0.000000
     17         -0.221347   0.000000
     18         -0.189278   0.000000
     19          0.443597   0.000000
     20          0.846011   0.000000
     21          1.848748   0.000000
     22          2.267030   0.000000
     23          4.233769   0.000000
     24          4.861237   0.000000
 
  0.5405405E-01  0.2644308E-17  0.0000000E+00  0.1460920E-02
      1        -19.873340   1.000000
      2        -16.041044   1.000000
      3        -16.001758   1.000000
      4        -13.657669   1.000000
      5        -13.599521   1.000000
      6        -12.516355   1.000000
      7        -11.181128   1.000000
      8         -8.671326   1.000000
      9         -8.480669   1.000000
     10         -6.356762   1.000000
     11         -6.314529   1.000000
     12         -4.533993   1.000000
     13         -4.489670   1.000000
     14         -3.852437   1.000000
     15         -3.821353   0.999999
     16         -2.060749   0.000000
     17         -0.202494   0.000000
     18         -0.082925   0.000000
     19          0.480510   0.000000
     20          0.862372   0.000000
     21          1.866501   0.000000
     22          2.283479   0.000000
     23          4.249929   0.000000
     24          4.878590   0.000000
 
  0.2644308E-17  0.5405405E-01  0.0000000E+00  0.1460920E-02
      1        -19.873340   1.000000
      2        -16.041011   1.000000
      3        -16.001791   1.000000
      4        -13.657693   1.000000
      5        -13.599497   1.000000
      6        -12.516353   1.000000
      7        -11.181129   1.000000
      8         -8.671326   1.000000
      9         -8.480669   1.000000
     10         -6.356739   1.000000
     11         -6.314552   1.000000
     12         -4.533966   1.000000
     13         -4.489697   1.000000
     14         -3.852459   1.000000
     15         -3.821331   0.999999
     16         -2.060750   0.000000
     17         -0.202471   0.000000
     18         -0.082946   0.000000
     19          0.480510   0.000000
     20          0.862372   0.000000
     21          1.866501   0.000000
     22          2.283479   0.000000
     23          4.249929   0.000000
     24          4.878590   0.000000
 
 -0.5405405E-01  0.5405405E-01  0.0000000E+00  0.1460920E-02
      1        -19.873339   1.000000
      2        -16.041155   1.000000
      3        -16.001647   1.000000
      4        -13.657644   1.000000
      5        -13.599540   1.000000
      6        -12.516362   1.000000
      7        -11.181125   1.000000
      8         -8.671326   1.000000
      9         -8.480670   1.000000
     10         -6.356887   1.000000
     11         -6.314404   1.000000
     12         -4.534040   1.000000
     13         -4.489621   1.000000
     14         -3.852578   1.000000
     15         -3.821212   0.999999
     16         -2.060756   0.000000
     17         -0.202488   0.000000
     18         -0.082914   0.000000
     19          0.480500   0.000000
     20          0.862372   0.000000
     21          1.866500   0.000000
     22          2.283479   0.000000
     23          4.249929   0.000000
     24          4.878588   0.000000
 
  0.8108108E-01  0.1151825E-16  0.0000000E+00  0.1460920E-02
      1        -19.859063   1.000000
      2        -16.109542   1.000000
      3        -16.023815   1.000000
      4        -13.678504   1.000000
      5        -13.547936   1.000000
      6        -12.445266   1.000000
      7        -11.097808   1.000000
      8         -8.649610   1.000000
      9         -8.511168   1.000000
     10         -6.421270   1.000000
     11         -6.325780   1.000000
     12         -4.599307   1.000000
     13         -4.500437   1.000000
     14         -3.927302   1.000000
     15         -3.857436   1.000000
     16         -2.160202   0.000000
     17         -0.171378   0.000000
     18          0.069107   0.000000
     19          0.546999   0.000000
     20          0.889619   0.000000
     21          1.896220   0.000000
     22          2.310880   0.000000
     23          4.276853   0.000000
     24          4.906516   0.000000
 
 -0.3186110E-17  0.8108108E-01  0.0000000E+00  0.1460920E-02
      1        -19.859063   1.000000
      2        -16.109510   1.000000
      3        -16.023847   1.000000
      4        -13.678528   1.000000
      5        -13.547913   1.000000
      6        -12.445263   1.000000
      7        -11.097810   1.000000
      8         -8.649610   1.000000
      9         -8.511169   1.000000
     10         -6.421247   1.000000
     11         -6.325802   1.000000
     12         -4.599281   1.000000
     13         -4.500464   1.000000
     14         -3.927323   1.000000
     15         -3.857414   1.000000
     16         -2.160203   0.000000
     17         -0.171355   0.000000
     18          0.069087   0.000000
     19          0.546998   0.000000
     20          0.889619   0.000000
     21          1.896221   0.000000
     22          2.310880   0.000000
     23          4.276853   0.000000
     24          4.906517   0.000000
 
 -0.8108108E-01  0.8108108E-01  0.0000000E+00  0.1460920E-02
      1        -19.859062   1.000000
      2        -16.109652   1.000000
      3        -16.023706   1.000000
      4        -13.678476   1.000000
      5        -13.547953   1.000000
      6        -12.445281   1.000000
      7        -11.097803   1.000000
      8         -8.649610   1.000000
      9         -8.511170   1.000000
     10         -6.421395   1.000000
     11         -6.325654   1.000000
     12         -4.599353   1.000000
     13         -4.500388   1.000000
     14         -3.927440   1.000000
     15         -3.857297   1.000000
     16         -2.160215   0.000000
     17         -0.171371   0.000000
     18          0.069139   0.000000
     19          0.546972   0.000000
     20          0.889619   0.000000
     21          1.896219   0.000000
     22          2.310880   0.000000
     23          4.276853   0.000000
     24          4.906513   0.000000
 
  0.1081081E+00  0.9983845E-17  0.0000000E+00  0.1460920E-02
      1        -19.839238   1.000000
      2        -16.199104   1.000000
      3        -16.052720   1.000000
      4        -13.708222   1.000000
      5        -13.477937   1.000000
      6        -12.347126   1.000000
      7        -10.985701   1.000000
      8         -8.619290   1.000000
      9         -8.554794   1.000000
     10         -6.509602   1.000000
     11         -6.338840   1.000000
     12         -4.688242   1.000000
     13         -4.514899   1.000000
     14         -4.030403   1.000000
     15         -3.906904   1.000000
     16         -2.273029   0.000000
     17         -0.128873   0.000000
     18          0.238467   0.000000
     19          0.653808   0.000000
     20          0.927720   0.000000
     21          1.938155   0.000000
     22          2.349215   0.000000
     23          4.314529   0.000000
     24          4.944052   0.000000
 
  0.2218381E-17  0.1081081E+00  0.0000000E+00  0.1460920E-02
      1        -19.839238   1.000000
      2        -16.199073   1.000000
      3        -16.052751   1.000000
      4        -13.708245   1.000000
      5        -13.477914   1.000000
      6        -12.347122   1.000000
      7        -10.985704   1.000000
      8         -8.619290   1.000000
      9         -8.554795   1.000000
     10         -6.509579   1.000000
     11         -6.338861   1.000000
     12         -4.688217   1.000000
     13         -4.514925   1.000000
     14         -4.030424   1.000000
     15         -3.906882   1.000000
     16         -2.273030   0.000000
     17         -0.128850   0.000000
     18          0.238451   0.000000
     19          0.653805   0.000000
     20          0.927720   0.000000
     21          1.938156   0.000000
     22          2.349215   0.000000
     23          4.314529   0.000000
     24          4.944053   0.000000
 
 -0.1081081E+00  0.1081081E+00  0.0000000E+00  0.1460920E-02
      1        -19.839236   1.000000
      2        -16.199213   1.000000
      3        -16.052613   1.000000
      4        -13.708190   1.000000
      5        -13.477951   1.000000
      6        -12.347149   1.000000
      7        -10.985692   1.000000
      8         -8.619289   1.000000
      9         -8.554797   1.000000
     10         -6.509727   1.000000
     11         -6.338713   1.000000
     12         -4.688286   1.000000
     13         -4.514851   1.000000
     14         -4.030538   1.000000
     15         -3.906768   1.000000
     16         -2.273048   0.000000
     17         -0.128865   0.000000
     18          0.238528   0.000000
     19          0.653759   0.000000
     20          0.927720   0.000000
     21          1.938153   0.000000
     22          2.349215   0.000000
     23          4.314529   0.000000
     24          4.944048   0.000000
 
  0.1351351E+00  0.1763200E-16  0.0000000E+00  0.1460920E-02
      1        -19.814051   1.000000
      2        -16.305052   1.000000
      3        -16.086876   1.000000
      4        -13.745729   1.000000
      5        -13.391374   1.000000
      6        -12.224529   1.000000
      7        -10.848112   1.000000
      8         -8.612207   1.000000
      9         -8.580466   1.000000
     10         -6.620003   1.000000
     11         -6.351502   1.000000
     12         -4.798294   1.000000
     13         -4.532489   1.000000
     14         -4.160119   1.000000
     15         -3.968410   1.000000
     16         -2.388383   0.000000
     17         -0.076400   0.000000
     18          0.395854   0.000000
     19          0.815541   0.000000
     20          0.976643   0.000000
     21          1.992771   0.000000
     22          2.398466   0.000000
     23          4.362924   0.000000
     24          4.990402   0.000000
 
  0.1763200E-16  0.1351351E+00  0.0000000E+00  0.1460920E-02
      1        -19.814051   1.000000
      2        -16.305021   1.000000
      3        -16.086906   1.000000
      4        -13.745752   1.000000
      5        -13.391352   1.000000
      6        -12.224524   1.000000
      7        -10.848116   1.000000
      8         -8.612209   1.000000
      9         -8.580466   1.000000
     10         -6.619981   1.000000
     11         -6.351522   1.000000
     12         -4.798270   1.000000
     13         -4.532515   1.000000
     14         -4.160140   1.000000
     15         -3.968389   1.000000
     16         -2.388385   0.000000
     17         -0.076377   0.000000
     18          0.395843   0.000000
     19          0.815535   0.000000
     20          0.976643   0.000000
     21          1.992772   0.000000
     22          2.398466   0.000000
     23          4.362924   0.000000
     24          4.990403   0.000000
 
 -0.1351351E+00  0.1351351E+00  0.0000000E+00  0.1460920E-02
      1        -19.814049   1.000000
      2        -16.305159   1.000000
      3        -16.086772   1.000000
      4        -13.745695   1.000000
      5        -13.391384   1.000000
      6        -12.224560   1.000000
      7        -10.848100   1.000000
      8         -8.612211   1.000000
      9         -8.580464   1.000000
     10         -6.620129   1.000000
     11         -6.351374   1.000000
     12         -4.798336   1.000000
     13         -4.532441   1.000000
     14         -4.160250   1.000000
     15         -3.968278   1.000000
     16         -2.388408   0.000000
     17         -0.076392   0.000000
     18          0.395938   0.000000
     19          0.815477   0.000000
     20          0.976643   0.000000
     21          1.992767   0.000000
     22          2.398466   0.000000
     23          4.362924   0.000000
     24          4.990398   0.000000
 
  0.1621622E+00  0.2303649E-16  0.0000000E+00  0.1460920E-02
      1        -19.783745   1.000000
      2        -16.422866   1.000000
      3        -16.124644   1.000000
      4        -13.789084   1.000000
      5        -13.290241   1.000000
      6        -12.080915   1.000000
      7        -10.688238   1.000000
      8         -8.683872   1.000000
      9         -8.533244   1.000000
     10         -6.750318   1.000000
     11         -6.361494   1.000000
     12         -4.926539   1.000000
     13         -4.552608   1.000000
     14         -4.314537   1.000000
     15         -4.040748   1.000000
     16         -2.499894   0.000000
     17         -0.014931   0.000000
     18          0.529681   0.000000
     19          1.032531   0.000000
     20          1.036351   0.000000
     21          2.060969   0.000000
     22          2.458613   0.000000
     23          4.422007   0.000000
     24          5.044843   0.000000
 
 -0.6372221E-17  0.1621622E+00  0.0000000E+00  0.1460920E-02
      1        -19.783746   1.000000
      2        -16.422836   1.000000
      3        -16.124673   1.000000
      4        -13.789106   1.000000
      5        -13.290221   1.000000
      6        -12.080909   1.000000
      7        -10.688244   1.000000
      8         -8.683875   1.000000
      9         -8.533244   1.000000
     10         -6.750296   1.000000
     11         -6.361512   1.000000
     12         -4.926517   1.000000
     13         -4.552634   1.000000
     14         -4.314557   1.000000
     15         -4.040727   1.000000
     16         -2.499896   0.000000
     17         -0.014908   0.000000
     18          0.529674   0.000000
     19          1.032522   0.000000
     20          1.036351   0.000000
     21          2.060969   0.000000
     22          2.458613   0.000000
     23          4.422007   0.000000
     24          5.044843   0.000000
 
 -0.1621622E+00  0.1621622E+00  0.0000000E+00  0.1460920E-02
      1        -19.783742   1.000000
      2        -16.422971   1.000000
      3        -16.124543   1.000000
      4        -13.789048   1.000000
      5        -13.290248   1.000000
      6        -12.080952   1.000000
      7        -10.688222   1.000000
      8         -8.683877   1.000000
      9         -8.533242   1.000000
     10         -6.750445   1.000000
     11         -6.361364   1.000000
     12         -4.926579   1.000000
     13         -4.552560   1.000000
     14         -4.314663   1.000000
     15         -4.040620   1.000000
     16         -2.499924   0.000000
     17         -0.014922   0.000000
     18          0.529771   0.000000
     19          1.032467   0.000000
     20          1.036351   0.000000
     21          2.060961   0.000000
     22          2.458613   0.000000
     23          4.422007   0.000000
     24          5.044840   0.000000
 
  0.1891892E+00  0.2067552E-16  0.0000000E+00  0.1460920E-02
      1        -19.748655   1.000000
      2        -16.548483   1.000000
      3        -16.164451   1.000000
      4        -13.836038   1.000000
      5        -13.176579   1.000000
      6        -11.919922   1.000000
      7        -10.509031   1.000000
      8         -8.769813   1.000000
      9         -8.477848   1.000000
     10         -6.898109   1.000000
     11         -6.366683   1.000000
     12         -5.069683   1.000000
     13         -4.574512   1.000000
     14         -4.491606   1.000000
     15         -4.122250   1.000000
     16         -2.604074   0.000000
     17          0.053838   0.000000
     18          0.648464   0.000000
     19          1.106803   0.000000
     20          1.286488   0.000000
     21          2.144551   0.000000
     22          2.529633   0.000000
     23          4.491691   0.000000
     24          5.106392   0.000000
 
 -0.8733193E-17  0.1891892E+00  0.0000000E+00  0.1460920E-02
      1        -19.748656   1.000000
      2        -16.548453   1.000000
      3        -16.164479   1.000000
      4        -13.836058   1.000000
      5        -13.176559   1.000000
      6        -11.919914   1.000000
      7        -10.509038   1.000000
      8         -8.769817   1.000000
      9         -8.477849   1.000000
     10         -6.898087   1.000000
     11         -6.366700   1.000000
     12         -5.069661   1.000000
     13         -4.574537   1.000000
     14         -4.491624   1.000000
     15         -4.122230   1.000000
     16         -2.604075   0.000000
     17          0.053860   0.000000
     18          0.648459   0.000000
     19          1.106803   0.000000
     20          1.286476   0.000000
     21          2.144552   0.000000
     22          2.529633   0.000000
     23          4.491692   0.000000
     24          5.106391   0.000000
 
 -0.1891892E+00  0.1891892E+00  0.0000000E+00  0.1460920E-02
      1        -19.748651   1.000000
      2        -16.548587   1.000000
      3        -16.164352   1.000000
      4        -13.836000   1.000000
      5        -13.176582   1.000000
      6        -11.919964   1.000000
      7        -10.509011   1.000000
      8         -8.769820   1.000000
      9         -8.477846   1.000000
     10         -6.898238   1.000000
     11         -6.366552   1.000000
     12         -5.069721   1.000000
     13         -4.574464   1.000000
     14         -4.491727   1.000000
     15         -4.122127   1.000000
     16         -2.604109   0.000000
     17          0.053847   0.000000
     18          0.648551   0.000000
     19          1.106803   0.000000
     20          1.286435   0.000000
     21          2.144538   0.000000
     22          2.529632   0.000000
     23          4.491692   0.000000
     24          5.106391   0.000000
 
  0.2162162E+00  0.4385461E-16  0.0000000E+00  0.1460920E-02
      1        -19.709214   1.000000
      2        -16.678361   1.000000
      3        -16.204891   1.000000
      4        -13.884459   1.000000
      5        -13.052420   1.000000
      6        -11.744902   1.000000
      7        -10.313177   1.000000
      8         -8.869676   1.000000
      9         -8.414495   1.000000
     10         -7.060875   1.000000
     11         -6.365442   1.000000
     12         -5.224262   1.000000
     13         -4.689104   1.000000
     14         -4.597508   1.000000
     15         -4.211346   1.000000
     16         -2.699316   0.000000
     17          0.128110   0.000000
     18          0.761583   0.000000
     19          1.187963   0.000000
     20          1.557737   0.000000
     21          2.247361   0.000000
     22          2.611507   0.000000
     23          4.571855   0.000000
     24          5.173248   0.000000
 
  0.2997682E-16  0.2162162E+00  0.0000000E+00  0.1460920E-02
      1        -19.709215   1.000000
      2        -16.678333   1.000000
      3        -16.204918   1.000000
      4        -13.884479   1.000000
      5        -13.052402   1.000000
      6        -11.744894   1.000000
      7        -10.313185   1.000000
      8         -8.869681   1.000000
      9         -8.414495   1.000000
     10         -7.060854   1.000000
     11         -6.365458   1.000000
     12         -5.224242   1.000000
     13         -4.689122   1.000000
     14         -4.597533   1.000000
     15         -4.211327   1.000000
     16         -2.699317   0.000000
     17          0.128132   0.000000
     18          0.761580   0.000000
     19          1.187963   0.000000
     20          1.557725   0.000000
     21          2.247363   0.000000
     22          2.611507   0.000000
     23          4.571855   0.000000
     24          5.173245   0.000000
 
 -0.2162162E+00  0.2162162E+00  0.0000000E+00  0.1460920E-02
      1        -19.709208   1.000000
      2        -16.678465   1.000000
      3        -16.204795   1.000000
      4        -13.884421   1.000000
      5        -13.052420   1.000000
      6        -11.744948   1.000000
      7        -10.313153   1.000000
      8         -8.869685   1.000000
      9         -8.414492   1.000000
     10         -7.061007   1.000000
     11         -6.365309   1.000000
     12         -5.224299   1.000000
     13         -4.689220   1.000000
     14         -4.597461   1.000000
     15         -4.211230   1.000000
     16         -2.699354   0.000000
     17          0.128121   0.000000
     18          0.761667   0.000000
     19          1.187962   0.000000
     20          1.557699   0.000000
     21          2.247341   0.000000
     22          2.611507   0.000000
     23          4.571856   0.000000
     24          5.173249   0.000000
 
  0.2432432E+00  0.1208492E-16  0.0000000E+00  0.1460920E-02
      1        -19.665977   1.000000
      2        -16.809426   1.000000
      3        -16.244738   1.000000
      4        -13.932508   1.000000
      5        -12.919792   1.000000
      6        -11.558735   1.000000
      7        -10.103265   1.000000
      8         -8.982247   1.000000
      9         -8.343510   1.000000
     10         -7.235823   1.000000
     11         -6.356676   1.000000
     12         -5.386975   1.000000
     13         -4.904584   1.000000
     14         -4.620849   1.000000
     15         -4.306075   1.000000
     16         -2.785071   0.000000
     17          0.206045   0.000000
     18          0.872951   0.000000
     19          1.279798   0.000000
     20          1.828162   0.000000
     21          2.377701   0.000000
     22          2.704222   0.000000
     23          4.662232   0.000000
     24          5.007273   0.000000
 
  0.1208492E-16  0.2432432E+00  0.0000000E+00  0.1460920E-02
      1        -19.665979   1.000000
      2        -16.809398   1.000000
      3        -16.244764   1.000000
      4        -13.932527   1.000000
      5        -12.919774   1.000000
      6        -11.558725   1.000000
      7        -10.103275   1.000000
      8         -8.982252   1.000000
      9         -8.343511   1.000000
     10         -7.235801   1.000000
     11         -6.356690   1.000000
     12         -5.386956   1.000000
     13         -4.904601   1.000000
     14         -4.620874   1.000000
     15         -4.306056   1.000000
     16         -2.785071   0.000000
     17          0.206067   0.000000
     18          0.872949   0.000000
     19          1.279798   0.000000
     20          1.828149   0.000000
     21          2.377703   0.000000
     22          2.704222   0.000000
     23          4.662233   0.000000
     24          5.007272   0.000000
 
 -0.2432432E+00  0.2432432E+00  0.0000000E+00  0.1460920E-02
      1        -19.665970   1.000000
      2        -16.809530   1.000000
      3        -16.244644   1.000000
      4        -13.932470   1.000000
      5        -12.919788   1.000000
      6        -11.558783   1.000000
      7        -10.103237   1.000000
      8         -8.982256   1.000000
      9         -8.343506   1.000000
     10         -7.235958   1.000000
     11         -6.356540   1.000000
     12         -5.387011   1.000000
     13         -4.904696   1.000000
     14         -4.620803   1.000000
     15         -4.305964   1.000000
     16         -2.785112   0.000000
     17          0.206057   0.000000
     18          0.873032   0.000000
     19          1.279797   0.000000
     20          1.828142   0.000000
     21          2.377668   0.000000
     22          2.704222   0.000000
     23          4.662235   0.000000
     24          5.007277   0.000000
 
  0.2702703E+00  0.3526400E-16  0.0000000E+00  0.1460920E-02
      1        -19.619668   1.000000
      2        -16.938947   1.000000
      3        -16.282961   1.000000
      4        -13.978706   1.000000
      5        -12.780810   1.000000
      6        -11.363816   1.000000
      7         -9.882035   1.000000
      8         -9.105796   1.000000
      9         -8.265343   1.000000
     10         -7.419877   1.000000
     11         -6.340031   1.000000
     12         -5.554598   1.000000
     13         -5.135846   1.000000
     14         -4.643907   1.000000
     15         -4.404586   1.000000
     16         -2.861321   0.000000
     17          0.285350   0.000000
     18          0.983015   0.000000
     19          1.382280   0.000000
     20          2.076629   0.000000
     21          2.550931   0.000000
     22          2.807764   0.000000
     23          4.723396   0.000000
     24          4.762124   0.000000
 
  0.3526400E-16  0.2702703E+00  0.0000000E+00  0.1460920E-02
      1        -19.619670   1.000000
      2        -16.938919   1.000000
      3        -16.282987   1.000000
      4        -13.978724   1.000000
      5        -12.780793   1.000000
      6        -11.363806   1.000000
      7         -9.882046   1.000000
      8         -9.105803   1.000000
      9         -8.265344   1.000000
     10         -7.419856   1.000000
     11         -6.340045   1.000000
     12         -5.554580   1.000000
     13         -5.135861   1.000000
     14         -4.643931   1.000000
     15         -4.404568   1.000000
     16         -2.861321   0.000000
     17          0.285371   0.000000
     18          0.983014   0.000000
     19          1.382280   0.000000
     20          2.076617   0.000000
     21          2.550932   0.000000
     22          2.807764   0.000000
     23          4.723397   0.000000
     24          4.762125   0.000000
 
 -0.2702703E+00  0.2702703E+00  0.0000000E+00  0.1460920E-02
      1        -19.619659   1.000000
      2        -16.939051   1.000000
      3        -16.282870   1.000000
      4        -13.978668   1.000000
      5        -12.780802   1.000000
      6        -11.363866   1.000000
      7         -9.882002   1.000000
      8         -9.105808   1.000000
      9         -8.265338   1.000000
     10         -7.420019   1.000000
     11         -6.339893   1.000000
     12         -5.554634   1.000000
     13         -5.135952   1.000000
     14         -4.643861   1.000000
     15         -4.404482   1.000000
     16         -2.861364   0.000000
     17          0.285362   0.000000
     18          0.983095   0.000000
     19          1.382280   0.000000
     20          2.076630   0.000000
     21          2.550882   0.000000
     22          2.807764   0.000000
     23          4.723399   0.000000
     24          4.762130   0.000000
 
  0.2972973E+00  0.3290303E-16  0.0000000E+00  0.1460920E-02
      1        -19.571212   1.000000
      2        -17.064411   1.000000
      3        -16.318706   1.000000
      4        -14.021888   1.000000
      5        -12.637749   1.000000
      6        -11.162139   1.000000
      7         -9.652844   1.000000