Relaxation_HSE06                        
           1
     4.374294    2.525500    0.000000
    -4.374294    2.525500    0.000000
     0.000000    0.000000   15.000000
   B 
     8
Direct configuration=     1
   0.66893173  0.00000000  0.10000000
   0.33106727  0.00000000  0.10000000
   0.00000000  0.33106727  0.10000000
   0.00000000  0.66893173  0.10000000
   0.33106727  0.33106727  0.10000000
   0.66893173  0.66893173  0.10000000
   0.66666600  0.33333300  0.09995611
   0.33333300  0.66666600  0.10004389
Relaxation_HSE06                        
           1
     4.344638    2.508378    0.000000
    -4.344638    2.508378    0.000000
     0.000000    0.000000   15.000000
   B 
     8
Direct configuration=     2
   0.66744912  0.00000000  0.10000000
   0.33254988  0.00000000  0.10000000
  -0.00000000  0.33254988  0.10000000
   0.00000000  0.66744912  0.10000000
   0.33254988  0.33254988  0.10000000
   0.66744912  0.66744912  0.10000000
   0.66666600  0.33333300  0.09995628
   0.33333300  0.66666600  0.10004372
Relaxation_HSE06                        
           1
     4.362199    2.518517    0.000000
    -4.362199    2.518517    0.000000
     0.000000    0.000000   15.000000
   B 
     8
Direct configuration=     3
   0.66833308  0.00000000  0.10000000
   0.33166592 -0.00000000  0.10000000
  -0.00000000  0.33166592  0.10000000
   0.00000000  0.66833308  0.10000000
   0.33166592  0.33166592  0.10000000
   0.66833308  0.66833308  0.10000000
   0.66666600  0.33333300  0.09995618
   0.33333300  0.66666600  0.10004382
Relaxation_HSE06                        
           1
     4.362167    2.518498    0.000000
    -4.362167    2.518498    0.000000
     0.000000    0.000000   15.000000
   B 
     8
Direct configuration=     4
   0.66833144  0.00000000  0.10000000
   0.33166756 -0.00000000  0.10000000
  -0.00000000  0.33166756  0.10000000
   0.00000000  0.66833144  0.10000000
   0.33166756  0.33166756  0.10000000
   0.66833144  0.66833144  0.10000000
   0.66666600  0.33333300  0.09995618
   0.33333300  0.66666600  0.10004382
Relaxation_HSE06                        
           1
     4.362183    2.518508    0.000000
    -4.362183    2.518508    0.000000
     0.000000    0.000000   15.000000
   B 
     8
Direct configuration=     5
   0.66833228  0.00000000  0.10000000
   0.33166672 -0.00000000  0.10000000
  -0.00000000  0.33166672  0.10000000
   0.00000000  0.66833228  0.10000000
   0.33166672  0.33166672  0.10000000
   0.66833228  0.66833228  0.10000000
   0.66666600  0.33333300  0.09995618
   0.33333300  0.66666600  0.10004382
Relaxation_HSE06                        
           1
     4.363767    2.519422    0.000000
    -4.363767    2.519422    0.000000
     0.000000    0.000000   15.000000
   B 
     8
Direct configuration=     6
   0.66811086  0.00000000  0.10000000
   0.33188814 -0.00000000  0.10000000
  -0.00000000  0.33188814  0.10000000
   0.00000000  0.66811086  0.10000000
   0.33188814  0.33188814  0.10000000
   0.66811086  0.66811086  0.10000000
   0.66666600  0.33333300  0.09995588
   0.33333300  0.66666600  0.10004412
Relaxation_HSE06                        
           1
     4.363457    2.519243    0.000000
    -4.363457    2.519243    0.000000
     0.000000    0.000000   15.000000
   B 
     8
Direct configuration=     7
   0.66815423  0.00000000  0.10000000
   0.33184477 -0.00000000  0.10000000
  -0.00000000  0.33184477  0.10000000
   0.00000000  0.66815423  0.10000000
   0.33184477  0.33184477  0.10000000
   0.66815423  0.66815423  0.10000000
   0.66666600  0.33333300  0.09995594
   0.33333300  0.66666600  0.10004406
Relaxation_HSE06                        
           1
     4.363339    2.519175    0.000000
    -4.363339    2.519175    0.000000
     0.000000    0.000000   15.000000
   B 
     8
Direct configuration=     8
   0.66817067  0.00000000  0.10000000
   0.33182833 -0.00000000  0.10000000
  -0.00000000  0.33182833  0.10000000
   0.00000000  0.66817067  0.10000000
   0.33182833  0.33182833  0.10000000
   0.66817067  0.66817067  0.10000000
   0.66666600  0.33333300  0.09995596
   0.33333300  0.66666600  0.10004404
Relaxation_HSE06                        
           1
     4.363367    2.519191    0.000000
    -4.363367    2.519191    0.000000
     0.000000    0.000000   15.000000
   B 
     8
Direct configuration=     9
   0.66816676  0.00000000  0.10000000
   0.33183224 -0.00000000  0.10000000
  -0.00000000  0.33183224  0.10000000
   0.00000000  0.66816676  0.10000000
   0.33183224  0.33183224  0.10000000
   0.66816676  0.66816676  0.10000000
   0.66666600  0.33333300  0.09995596
   0.33333300  0.66666600  0.10004404
Relaxation_HSE06                        
           1
     4.363412    2.519217    0.000000
    -4.363412    2.519217    0.000000
     0.000000    0.000000   15.000000
   B 
     8
Direct configuration=    10
   0.66816049  0.00000000  0.10000000
   0.33183851 -0.00000000  0.10000000
  -0.00000000  0.33183851  0.10000000
   0.00000000  0.66816049  0.10000000
   0.33183851  0.33183851  0.10000000
   0.66816049  0.66816049  0.10000000
   0.66666600  0.33333300  0.09995595
   0.33333300  0.66666600  0.10004405
