Lattice                                 
           1
     4.260845    2.460000    0.000000
    -4.260845    2.460000    0.000000
     0.000000    0.000000   15.000000
   B    C 
     8     8
Direct configuration=     1
   0.66888689  0.00000000  0.10000000
   0.33111211  0.00000000  0.10000000
   0.00000000  0.33111211  0.10000000
   0.00000000  0.66888689  0.10000000
   0.33111211  0.33111211  0.10000000
   0.66888689  0.66888689  0.10000000
   0.66666600  0.33333300  0.09922189
   0.33333300  0.66666600  0.10077811
   0.16666600  0.33333300  0.46773333
   0.33333300  0.16666600  0.46773333
   0.16666600  0.83333300  0.46773333
   0.33333300  0.66666600  0.46773333
   0.66666600  0.33333300  0.46773333
   0.83333300  0.16666600  0.46773333
   0.66666600  0.83333300  0.46773333
   0.83333300  0.66666600  0.46773333
Direct configuration=     2
   0.67217633  0.00000009  0.10002747
   0.32782276  0.00000009  0.10002747
  -0.00000009  0.32782267  0.10002747
  -0.00000009  0.67217624  0.10002747
   0.32782276  0.32782267  0.10002747
   0.67217633  0.67217624  0.10002747
   0.66666600  0.33333300  0.09922726
   0.33333300  0.66666600  0.10083177
   0.16666358  0.33332817  0.46770534
   0.33332829  0.16666364  0.46770536
   0.16666358  0.83333542  0.46770534
   0.33333300  0.66666600  0.46770532
   0.66666600  0.33333300  0.46770540
   0.83333536  0.16666364  0.46770536
   0.66667083  0.83333542  0.46770534
   0.83333536  0.66667071  0.46770536
Direct configuration=     3
   0.67040459  0.00000004  0.10001267
   0.32959445  0.00000004  0.10001267
  -0.00000004  0.32959441  0.10001267
  -0.00000004  0.67040455  0.10001267
   0.32959445  0.32959441  0.10001267
   0.67040459  0.67040455  0.10001267
   0.66666600  0.33333300  0.09922437
   0.33333300  0.66666600  0.10080287
   0.16666489  0.33333077  0.46772042
   0.33333083  0.16666491  0.46772043
   0.16666489  0.83333411  0.46772042
   0.33333300  0.66666600  0.46772041
   0.66666600  0.33333300  0.46772045
   0.83333409  0.16666491  0.46772043
   0.66666823  0.83333411  0.46772042
   0.83333409  0.66666817  0.46772043
Direct configuration=     4
   0.67040562  0.00000004  0.10001268
   0.32959342  0.00000004  0.10001268
  -0.00000004  0.32959338  0.10001268
  -0.00000004  0.67040558  0.10001268
   0.32959342  0.32959338  0.10001268
   0.67040562  0.67040558  0.10001268
   0.66666600  0.33333300  0.09922437
   0.33333300  0.66666600  0.10080289
   0.16666488  0.33333077  0.46772041
   0.33333082  0.16666491  0.46772042
   0.16666488  0.83333412  0.46772041
   0.33333300  0.66666600  0.46772040
   0.66666600  0.33333300  0.46772044
   0.83333409  0.16666491  0.46772042
   0.66666823  0.83333412  0.46772041
   0.83333409  0.66666818  0.46772042
Direct configuration=     5
   0.67040551  0.00000001  0.10003736
   0.32959350  0.00000001  0.10003736
  -0.00000001  0.32959349  0.10003736
  -0.00000001  0.67040550  0.10003736
   0.32959350  0.32959349  0.10003736
   0.67040551  0.67040550  0.10003736
   0.66666600  0.33333300  0.09923427
   0.33333300  0.66666600  0.10084475
   0.16666662  0.33333424  0.46769541
   0.33333421  0.16666660  0.46769544
   0.16666662  0.83333238  0.46769541
   0.33333300  0.66666600  0.46769541
   0.66666600  0.33333300  0.46769551
   0.83333240  0.16666660  0.46769544
   0.66666476  0.83333238  0.46769541
   0.83333240  0.66666479  0.46769544
Direct configuration=     6
   0.67040518 -0.00000008  0.10011140
   0.32959374 -0.00000008  0.10011140
   0.00000008  0.32959382  0.10011140
   0.00000008  0.67040526  0.10011140
   0.32959374  0.32959382  0.10011140
   0.67040518  0.67040526  0.10011140
   0.66666600  0.33333300  0.09926398
   0.33333300  0.66666600  0.10097032
   0.16667183  0.33334465  0.46762043
   0.33334436  0.16667168  0.46762051
   0.16667183  0.83332717  0.46762043
   0.33333300  0.66666600  0.46762044
   0.66666600  0.33333300  0.46762071
   0.83332732  0.16667168  0.46762051
   0.66665435  0.83332717  0.46762043
   0.83332732  0.66665464  0.46762051
Direct configuration=     7
   0.67040451 -0.00000027  0.10025948
   0.32959422 -0.00000027  0.10025948
   0.00000027  0.32959449  0.10025948
   0.00000027  0.67040478  0.10025948
   0.32959422  0.32959449  0.10025948
   0.67040451  0.67040478  0.10025948
   0.66666600  0.33333300  0.09932339
   0.33333300  0.66666600  0.10122147
   0.16668224  0.33336548  0.46747046
   0.33336467  0.16668184  0.46747065
   0.16668224  0.83331676  0.46747046
   0.33333300  0.66666600  0.46747050
   0.66666600  0.33333300  0.46747113
   0.83331716  0.16668184  0.46747065
   0.66663352  0.83331676  0.46747046
   0.83331716  0.66663433  0.46747065
Direct configuration=     8
   0.67040318 -0.00000065  0.10055563
   0.32959517 -0.00000065  0.10055563
   0.00000065  0.32959582  0.10055563
   0.00000065  0.67040383  0.10055563
   0.32959517  0.32959582  0.10055563
   0.67040318  0.67040383  0.10055563
   0.66666600  0.33333300  0.09944221
   0.33333300  0.66666600  0.10172378
   0.16670306  0.33340713  0.46717051
   0.33340529  0.16670214  0.46717092
   0.16670306  0.83329594  0.46717051
   0.33333300  0.66666600  0.46717063
   0.66666600  0.33333300  0.46717196
   0.83329686  0.16670214  0.46717092
   0.66659187  0.83329594  0.46717051
   0.83329686  0.66659371  0.46717092
Direct configuration=     9
   0.67040052 -0.00000140  0.10114794
   0.32959708 -0.00000140  0.10114794
   0.00000140  0.32959848  0.10114794
   0.00000140  0.67040192  0.10114794
   0.32959708  0.32959848  0.10114794
   0.67040052  0.67040192  0.10114794
   0.66666600  0.33333300  0.09967987
   0.33333300  0.66666600  0.10272839
   0.16674472  0.33349043  0.46657062
   0.33348652  0.16674276  0.46657147
   0.16674472  0.83325428  0.46657062
   0.33333300  0.66666600  0.46657087
   0.66666600  0.33333300  0.46657362
   0.83325624  0.16674276  0.46657147
   0.66650857  0.83325428  0.46657062
   0.83325624  0.66651248  0.46657147
Direct configuration=    10
   0.67039520 -0.00000290  0.10233257
   0.32960090 -0.00000290  0.10233257
   0.00000290  0.32960380  0.10233257
   0.00000290  0.67039810  0.10233257
   0.32960090  0.32960380  0.10233257
   0.67039520  0.67039810  0.10233257
   0.66666600  0.33333300  0.10015517
   0.33333300  0.66666600  0.10473760
   0.16682802  0.33365703  0.46537084
   0.33364898  0.16682399  0.46537256
   0.16682802  0.83317098  0.46537084
   0.33333300  0.66666600  0.46537137
   0.66666600  0.33333300  0.46537694
   0.83317501  0.16682399  0.46537256
   0.66634197  0.83317098  0.46537084
   0.83317501  0.66635002  0.46537256
Direct configuration=    11
   0.67038456 -0.00000591  0.10470181
   0.32960853 -0.00000591  0.10470181
   0.00000591  0.32961444  0.10470181
   0.00000591  0.67039047  0.10470181
   0.32960853  0.32961444  0.10470181
   0.67038456  0.67039047  0.10470181
   0.66666600  0.33333300  0.10110578
   0.33333300  0.66666600  0.10875604
   0.16699462  0.33399024  0.46297128
   0.33397390  0.16698645  0.46297474
   0.16699462  0.83300438  0.46297128
   0.33333300  0.66666600  0.46297235
   0.66666600  0.33333300  0.46298357
   0.83301255  0.16698645  0.46297474
   0.66600876  0.83300438  0.46297128
   0.83301255  0.66602510  0.46297474
Direct configuration=    12
   0.67036328 -0.00001192  0.10944030
   0.32962380 -0.00001192  0.10944030
   0.00001192  0.32963572  0.10944030
   0.00001192  0.67037520  0.10944030
   0.32962380  0.32963572  0.10944030
   0.67036328  0.67037520  0.10944030
   0.66666600  0.33333300  0.10300700
   0.33333300  0.66666600  0.11679291
   0.16732783  0.33465665  0.45817217
   0.33462375  0.16731138  0.45817910
   0.16732783  0.83267117  0.45817217
   0.33333300  0.66666600  0.45817433
   0.66666600  0.33333300  0.45819685
   0.83268762  0.16731138  0.45817910
   0.66534235  0.83267117  0.45817217
   0.83268762  0.66537525  0.45817910
Direct configuration=    13
   0.67032072 -0.00002394  0.11891727
   0.32965434 -0.00002394  0.11891727
   0.00002394  0.32967828  0.11891727
   0.00002394  0.67034466  0.11891727
   0.32965434  0.32967828  0.11891727
   0.67032072  0.67034466  0.11891727
   0.66666600  0.33333300  0.10680943
   0.33333300  0.66666600  0.13286665
   0.16799424  0.33598948  0.44857393
   0.33592345  0.16796123  0.44858784
   0.16799424  0.83200476  0.44857393
   0.33333300  0.66666600  0.44857827
   0.66666600  0.33333300  0.44862340
   0.83203777  0.16796123  0.44858784
   0.66400952  0.83200476  0.44857393
   0.83203777  0.66407555  0.44858784
Direct configuration=    14
   0.67023560 -0.00004798  0.13787122
   0.32971541 -0.00004798  0.13787122
   0.00004798  0.32976340  0.13787122
   0.00004798  0.67028359  0.13787122
   0.32971541  0.32976340  0.13787122
   0.67023560  0.67028359  0.13787122
   0.66666600  0.33333300  0.11441429
   0.33333300  0.66666600  0.16501413
   0.16932707  0.33865513  0.42937746
   0.33852285  0.16926092  0.42940530
   0.16932707  0.83067193  0.42937746
   0.33333300  0.66666600  0.42938617
   0.66666600  0.33333300  0.42947649
   0.83073808  0.16926092  0.42940530
   0.66134387  0.83067193  0.42937746
   0.83073808  0.66147615  0.42940530
Direct configuration=    15
   0.67031621 -0.00002522  0.11992305
   0.32965758 -0.00002522  0.11992305
   0.00002522  0.32968279  0.11992305
   0.00002522  0.67034142  0.11992305
   0.32965758  0.32968279  0.11992305
   0.67031621  0.67034142  0.11992305
   0.66666600  0.33333300  0.10721297
   0.33333300  0.66666600  0.13457254
   0.16806497  0.33613093  0.44755528
   0.33606139  0.16803019  0.44756993
   0.16806497  0.83193403  0.44755528
   0.33333300  0.66666600  0.44755986
   0.66666600  0.33333300  0.44760738
   0.83196881  0.16803019  0.44756993
   0.66386807  0.83193403  0.44755528
   0.83196881  0.66393761  0.44756993
Direct configuration=    16
   0.67030413 -0.00002863  0.12261189
   0.32966624 -0.00002863  0.12261189
   0.00002863  0.32969487  0.12261189
   0.00002863  0.67033276  0.12261189
   0.32966624  0.32969487  0.12261189
   0.67030413  0.67033276  0.12261189
   0.66666600  0.33333300  0.10829181
   0.33333300  0.66666600  0.13913304
   0.16825404  0.33650908  0.44483204
   0.33643014  0.16821457  0.44484866
   0.16825404  0.83174496  0.44483204
   0.33333300  0.66666600  0.44483723
   0.66666600  0.33333300  0.44489116
   0.83178443  0.16821457  0.44484866
   0.66348992  0.83174496  0.44483204
   0.83178443  0.66356886  0.44484866
Direct configuration=    17
   0.67030411 -0.00002863  0.12261264
   0.32966626 -0.00002863  0.12261264
   0.00002863  0.32969489  0.12261264
   0.00002863  0.67033274  0.12261264
   0.32966626  0.32969489  0.12261264
   0.67030411  0.67033274  0.12261264
   0.66666600  0.33333300  0.10829211
   0.33333300  0.66666600  0.13913430
   0.16825407  0.33650913  0.44483128
   0.33643019  0.16821459  0.44484790
   0.16825407  0.83174493  0.44483128
   0.33333300  0.66666600  0.44483647
   0.66666600  0.33333300  0.44489041
   0.83178441  0.16821459  0.44484790
   0.66348987  0.83174493  0.44483128
   0.83178441  0.66356881  0.44484790
Direct configuration=    18
   0.67030407 -0.00002864  0.12261487
   0.32966629 -0.00002864  0.12261487
   0.00002864  0.32969493  0.12261487
   0.00002864  0.67033271  0.12261487
   0.32966629  0.32969493  0.12261487
   0.67030407  0.67033271  0.12261487
   0.66666600  0.33333300  0.10829301
   0.33333300  0.66666600  0.13913809
   0.16825414  0.33650928  0.44482902
   0.33643033  0.16821467  0.44484564
   0.16825414  0.83174486  0.44482902
   0.33333300  0.66666600  0.44483421
   0.66666600  0.33333300  0.44488815
   0.83178433  0.16821467  0.44484564
   0.66348972  0.83174486  0.44482902
   0.83178433  0.66356867  0.44484564
Direct configuration=    19
   0.67030397 -0.00002866  0.12261935
   0.32966637 -0.00002866  0.12261935
   0.00002866  0.32969503  0.12261935
   0.00002866  0.67033263  0.12261935
   0.32966637  0.32969503  0.12261935
   0.67030397  0.67033263  0.12261935
   0.66666600  0.33333300  0.10829481
   0.33333300  0.66666600  0.13914567
   0.16825429  0.33650957  0.44482449
   0.33643062  0.16821481  0.44484111
   0.16825429  0.83174471  0.44482449
   0.33333300  0.66666600  0.44482968
   0.66666600  0.33333300  0.44488363
   0.83178419  0.16821481  0.44484111
   0.66348943  0.83174471  0.44482449
   0.83178419  0.66356838  0.44484111
Direct configuration=    20
   0.67030378 -0.00002869  0.12262830
   0.32966653 -0.00002869  0.12262830
   0.00002869  0.32969522  0.12262830
   0.00002869  0.67033247  0.12262830
   0.32966653  0.32969522  0.12262830
   0.67030378  0.67033247  0.12262830
   0.66666600  0.33333300  0.10829839
   0.33333300  0.66666600  0.13916084
   0.16825458  0.33651016  0.44481542
   0.33643119  0.16821510  0.44483206
   0.16825458  0.83174442  0.44481542
   0.33333300  0.66666600  0.44482062
   0.66666600  0.33333300  0.44487459
   0.83178390  0.16821510  0.44483206
   0.66348884  0.83174442  0.44481542
   0.83178390  0.66356781  0.44483206
Direct configuration=    21
   0.67030340 -0.00002877  0.12264620
   0.32966684 -0.00002877  0.12264620
   0.00002877  0.32969560  0.12264620
   0.00002877  0.67033216  0.12264620
   0.32966684  0.32969560  0.12264620
   0.67030340  0.67033216  0.12264620
   0.66666600  0.33333300  0.10830557
   0.33333300  0.66666600  0.13919117
   0.16825517  0.33651133  0.44479730
   0.33643233  0.16821567  0.44481394
   0.16825517  0.83174383  0.44479730
   0.33333300  0.66666600  0.44480250
   0.66666600  0.33333300  0.44485651
   0.83178333  0.16821567  0.44481394
   0.66348767  0.83174383  0.44479730
   0.83178333  0.66356667  0.44481394
Direct configuration=    22
   0.67030263 -0.00002891  0.12268200
   0.32966746 -0.00002891  0.12268200
   0.00002891  0.32969637  0.12268200
   0.00002891  0.67033154  0.12268200
   0.32966746  0.32969637  0.12268200
   0.67030263  0.67033154  0.12268200
   0.66666600  0.33333300  0.10831993
   0.33333300  0.66666600  0.13925183
   0.16825634  0.33651367  0.44476105
   0.33643462  0.16821681  0.44477772
   0.16825634  0.83174266  0.44476105
   0.33333300  0.66666600  0.44476626
   0.66666600  0.33333300  0.44482035
   0.83178219  0.16821681  0.44477772
   0.66348533  0.83174266  0.44476105
   0.83178219  0.66356438  0.44477772
Direct configuration=    23
   0.67030110 -0.00002921  0.12275360
   0.32966869 -0.00002921  0.12275360
   0.00002921  0.32969790  0.12275360
   0.00002921  0.67033031  0.12275360
   0.32966869  0.32969790  0.12275360
   0.67030110  0.67033031  0.12275360
   0.66666600  0.33333300  0.10834864
   0.33333300  0.66666600  0.13937314
   0.16825868  0.33651836  0.44468856
   0.33643920  0.16821910  0.44470528
   0.16825868  0.83174032  0.44468856
   0.33333300  0.66666600  0.44469377
   0.66666600  0.33333300  0.44474803
   0.83177990  0.16821910  0.44470528
   0.66348064  0.83174032  0.44468856
   0.83177990  0.66355980  0.44470528
Direct configuration=    24
   0.67029804 -0.00002979  0.12289680
   0.32967117 -0.00002979  0.12289680
   0.00002979  0.32970096  0.12289680
   0.00002979  0.67032783  0.12289680
   0.32967117  0.32970096  0.12289680
   0.67029804  0.67032783  0.12289680
   0.66666600  0.33333300  0.10840605
   0.33333300  0.66666600  0.13961577
   0.16826337  0.33652773  0.44454357
   0.33644834  0.16822367  0.44456039
   0.16826337  0.83173563  0.44454357
   0.33333300  0.66666600  0.44454881
   0.66666600  0.33333300  0.44460338
   0.83177533  0.16822367  0.44456039
   0.66347127  0.83173563  0.44454357
   0.83177533  0.66355066  0.44456039
Direct configuration=    25
   0.67029192 -0.00003096  0.12318320
   0.32967612 -0.00003096  0.12318320
   0.00003096  0.32970708  0.12318320
   0.00003096  0.67032288  0.12318320
   0.32967612  0.32970708  0.12318320
   0.67029192  0.67032288  0.12318320
   0.66666600  0.33333300  0.10852089
   0.33333300  0.66666600  0.14010104
   0.16827274  0.33654648  0.44425359
   0.33646664  0.16823282  0.44427061
   0.16827274  0.83172626  0.44425359
   0.33333300  0.66666600  0.44425887
   0.66666600  0.33333300  0.44431409
   0.83176618  0.16823282  0.44427061
   0.66345252  0.83172626  0.44425359
   0.83176618  0.66353236  0.44427061
Direct configuration=    26
   0.67027967 -0.00003330  0.12375600
   0.32968603 -0.00003330  0.12375600
   0.00003330  0.32971933  0.12375600
   0.00003330  0.67031297  0.12375600
   0.32968603  0.32971933  0.12375600
   0.67027967  0.67031297  0.12375600
   0.66666600  0.33333300  0.10875057
   0.33333300  0.66666600  0.14107156
   0.16829149  0.33658397  0.44367363
   0.33650324  0.16825112  0.44369105
   0.16829149  0.83170751  0.44367363
   0.33333300  0.66666600  0.44367901
   0.66666600  0.33333300  0.44373552
   0.83174788  0.16825112  0.44369105
   0.66341503  0.83170751  0.44367363
   0.83174788  0.66349576  0.44369105
Direct configuration=    27
   0.67025517 -0.00003799  0.12490159
   0.32970584 -0.00003799  0.12490159
   0.00003799  0.32974383  0.12490159
   0.00003799  0.67029316  0.12490159
   0.32970584  0.32974383  0.12490159
   0.67025517  0.67029316  0.12490159
   0.66666600  0.33333300  0.10920992
   0.33333300  0.66666600  0.14301262
   0.16832898  0.33665895  0.44251372
   0.33657642  0.16828771  0.44253192
   0.16832898  0.83167002  0.44251372
   0.33333300  0.66666600  0.44251928
   0.66666600  0.33333300  0.44257836
   0.83171129  0.16828771  0.44253192
   0.66334005  0.83167002  0.44251372
   0.83171129  0.66342258  0.44253192
Direct configuration=    28
   0.67020618 -0.00004736  0.12719279
   0.32974546 -0.00004736  0.12719279
   0.00004736  0.32979282  0.12719279
   0.00004736  0.67025354  0.12719279
   0.32974546  0.32979282  0.12719279
   0.67020618  0.67025354  0.12719279
   0.66666600  0.33333300  0.11012861
   0.33333300  0.66666600  0.14689472
   0.16840396  0.33680892  0.44019389
   0.33672280  0.16836090  0.44021368
   0.16840396  0.83159504  0.44019389
   0.33333300  0.66666600  0.44019982
   0.66666600  0.33333300  0.44026405
   0.83163810  0.16836090  0.44021368
   0.66319008  0.83159504  0.44019389
   0.83163810  0.66327620  0.44021368
Direct configuration=    29
   0.67018455 -0.00005118  0.12730280
   0.32976327 -0.00005118  0.12730280
   0.00005118  0.32981445  0.12730280
   0.00005118  0.67023573  0.12730280
   0.32976327  0.32981445  0.12730280
   0.67018455  0.67023573  0.12730280
   0.66666600  0.33333300  0.11017412
   0.33333300  0.66666600  0.14707707
   0.16836983  0.33674066  0.44008289
   0.33665633  0.16832767  0.44010271
   0.16836983  0.83162917  0.44008289
   0.33333300  0.66666600  0.44008876
   0.66666600  0.33333300  0.44015310
   0.83167133  0.16832767  0.44010271
   0.66325834  0.83162917  0.44008289
   0.83167133  0.66334267  0.44010271
Direct configuration=    30
   0.67011966 -0.00006265  0.12763283
   0.32981669 -0.00006265  0.12763283
   0.00006265  0.32987934  0.12763283
   0.00006265  0.67018231  0.12763283
   0.32981669  0.32987934  0.12763283
   0.67011966  0.67018231  0.12763283
   0.66666600  0.33333300  0.11031065
   0.33333300  0.66666600  0.14762410
   0.16826744  0.33653587  0.43974990
   0.33645693  0.16822797  0.43976981
   0.16826744  0.83173156  0.43974990
   0.33333300  0.66666600  0.43975559
   0.66666600  0.33333300  0.43982024
   0.83177103  0.16822797  0.43976981
   0.66346313  0.83173156  0.43974990
   0.83177103  0.66354207  0.43976981
Direct configuration=    31
   0.66998988 -0.00008558  0.12829288
   0.32992354 -0.00008558  0.12829288
   0.00008558  0.33000912  0.12829288
   0.00008558  0.67007546  0.12829288
   0.32992354  0.33000912  0.12829288
   0.66998988  0.67007546  0.12829288
   0.66666600  0.33333300  0.11058371
   0.33333300  0.66666600  0.14871817
   0.16806265  0.33612629  0.43908393
   0.33605813  0.16802856  0.43910400
   0.16806265  0.83193635  0.43908393
   0.33333300  0.66666600  0.43908925
   0.66666600  0.33333300  0.43915451
   0.83197044  0.16802856  0.43910400
   0.66387271  0.83193635  0.43908393
   0.83197044  0.66394087  0.43910400
Direct configuration=    32
   0.66973031 -0.00013144  0.12961298
   0.33013724 -0.00013144  0.12961298
   0.00013144  0.33026869  0.12961298
   0.00013144  0.66986176  0.12961298
   0.33013724  0.33026869  0.12961298
   0.66973031  0.66986176  0.12961298
   0.66666600  0.33333300  0.11112983
   0.33333300  0.66666600  0.15090630
   0.16765307  0.33530714  0.43775197
   0.33526052  0.16762976  0.43777238
   0.16765307  0.83234593  0.43775197
   0.33333300  0.66666600  0.43775657
   0.66666600  0.33333300  0.43782306
   0.83236924  0.16762976  0.43777238
   0.66469186  0.83234593  0.43775197
   0.83236924  0.66473848  0.43777238
Direct configuration=    33
   0.66921119 -0.00022317  0.13225318
   0.33056465 -0.00022317  0.13225318
   0.00022317  0.33078781  0.13225318
   0.00022317  0.66943435  0.13225318
   0.33056465  0.33078781  0.13225318
   0.66921119  0.66943435  0.13225318
   0.66666600  0.33333300  0.11222206
   0.33333300  0.66666600  0.15528257
   0.16683391  0.33366883  0.43508806
   0.33366530  0.16683215  0.43510915
   0.16683391  0.83316509  0.43508806
   0.33333300  0.66666600  0.43509121
   0.66666600  0.33333300  0.43516015
   0.83316685  0.16683215  0.43510915
   0.66633017  0.83316509  0.43508806
   0.83316685  0.66633370  0.43510915
Direct configuration=    34
   0.66909162 -0.00024429  0.13286128
   0.33066309 -0.00024429  0.13286128
   0.00024429  0.33090738  0.13286128
   0.00024429  0.66933591  0.13286128
   0.33066309  0.33090738  0.13286128
   0.66909162  0.66933591  0.13286128
   0.66666600  0.33333300  0.11247362
   0.33333300  0.66666600  0.15629053
   0.16664524  0.33329148  0.43447450
   0.33329788  0.16664844  0.43449574
   0.16664524  0.83335376  0.43447450
   0.33333300  0.66666600  0.43447731
   0.66666600  0.33333300  0.43454682
   0.83335056  0.16664844  0.43449574
   0.66670752  0.83335376  0.43447450
   0.83335056  0.66670112  0.43449574
Direct configuration=    35
   0.66897140 -0.00025962  0.13287522
   0.33076797 -0.00025962  0.13287522
   0.00025962  0.33102760  0.13287522
   0.00025962  0.66923103  0.13287522
   0.33076797  0.33102760  0.13287522
   0.66897140  0.66923103  0.13287522
   0.66666600  0.33333300  0.11252876
   0.33333300  0.66666600  0.15622800
   0.16664732  0.33329565  0.43446565
   0.33330254  0.16665077  0.43448630
   0.16664732  0.83335168  0.43446565
   0.33333300  0.66666600  0.43446748
   0.66666600  0.33333300  0.43453524
   0.83334823  0.16665077  0.43448630
   0.66670335  0.83335168  0.43446565
   0.83334823  0.66669646  0.43448630
Direct configuration=    36
   0.66861075 -0.00030562  0.13291705
   0.33108263 -0.00030562  0.13291705
   0.00030562  0.33138825  0.13291705
   0.00030562  0.66891637  0.13291705
   0.33108263  0.33138825  0.13291705
   0.66861075  0.66891637  0.13291705
   0.66666600  0.33333300  0.11269417
   0.33333300  0.66666600  0.15604041
   0.16665357  0.33330814  0.43443911
   0.33331650  0.16665775  0.43445799
   0.16665357  0.83334543  0.43443911
   0.33333300  0.66666600  0.43443796
   0.66666600  0.33333300  0.43450053
   0.83334125  0.16665775  0.43445799
   0.66669086  0.83334543  0.43443911
   0.83334125  0.66668250  0.43445799
Direct configuration=    37
   0.66788946 -0.00039760  0.13300070
   0.33171194 -0.00039760  0.13300070
   0.00039760  0.33210954  0.13300070
   0.00039760  0.66828706  0.13300070
   0.33171194  0.33210954  0.13300070
   0.66788946  0.66828706  0.13300070
   0.66666600  0.33333300  0.11302499
   0.33333300  0.66666600  0.15566523
   0.16666606  0.33333312  0.43438604
   0.33334442  0.16667171  0.43440136
   0.16666606  0.83333294  0.43438604
   0.33333300  0.66666600  0.43437894
   0.66666600  0.33333300  0.43443109
   0.83332729  0.16667171  0.43440136
   0.66666588  0.83333294  0.43438604
   0.83332729  0.66665458  0.43440136
Direct configuration=    38
   0.66760863 -0.00043341  0.13303327
   0.33195696 -0.00043341  0.13303327
   0.00043341  0.33239037  0.13303327
   0.00043341  0.66804204  0.13303327
   0.33195696  0.33239037  0.13303327
   0.66760863  0.66804204  0.13303327
   0.66666600  0.33333300  0.11315379
   0.33333300  0.66666600  0.15551916
   0.16667092  0.33334284  0.43436538
   0.33335530  0.16667715  0.43437931
   0.16667092  0.83332808  0.43436538
   0.33333300  0.66666600  0.43435596
   0.66666600  0.33333300  0.43440405
   0.83332185  0.16667715  0.43437931
   0.66665616  0.83332808  0.43436538
   0.83332185  0.66664370  0.43437931
Direct configuration=    39
   0.66769815 -0.00037801  0.13308305
   0.33192284 -0.00037801  0.13308305
   0.00037801  0.33230085  0.13308305
   0.00037801  0.66807616  0.13308305
   0.33192284  0.33230085  0.13308305
   0.66769815  0.66807616  0.13308305
   0.66666600  0.33333300  0.11339737
   0.33333300  0.66666600  0.15523210
   0.16666716  0.33333531  0.43433590
   0.33334511  0.16667206  0.43434744
   0.16666716  0.83333184  0.43433590
   0.33333300  0.66666600  0.43432401
   0.66666600  0.33333300  0.43436489
   0.83332694  0.16667206  0.43434744
   0.66666369  0.83333184  0.43433590
   0.83332694  0.66665389  0.43434744
Direct configuration=    40
   0.66796673 -0.00021180  0.13323236
   0.33182048 -0.00021180  0.13323236
   0.00021180  0.33203227  0.13323236
   0.00021180  0.66817852  0.13323236
   0.33182048  0.33203227  0.13323236
   0.66796673  0.66817852  0.13323236
   0.66666600  0.33333300  0.11412810
   0.33333300  0.66666600  0.15437093
   0.16665586  0.33331271  0.43424748
   0.33331456  0.16665678  0.43425183
   0.16665586  0.83334314  0.43424748
   0.33333300  0.66666600  0.43422815
   0.66666600  0.33333300  0.43424739
   0.83334222  0.16665678  0.43425183
   0.66668629  0.83334314  0.43424748
   0.83334222  0.66668444  0.43425183
Direct configuration=    41
   0.66850387  0.00012062  0.13353099
   0.33161575  0.00012062  0.13353099
  -0.00012062  0.33149513  0.13353099
  -0.00012062  0.66838325  0.13353099
   0.33161575  0.33149513  0.13353099
   0.66850387  0.66838325  0.13353099
   0.66666600  0.33333300  0.11558957
   0.33333300  0.66666600  0.15264859
   0.16663326  0.33326752  0.43407063
   0.33325347  0.16662623  0.43406061
   0.16663326  0.83336574  0.43407063
   0.33333300  0.66666600  0.43403644
   0.66666600  0.33333300  0.43401241
   0.83337277  0.16662623  0.43406061
   0.66673148  0.83336574  0.43407063
   0.83337277  0.66674553  0.43406061
Direct configuration=    42
   0.66957817  0.00078546  0.13412825
   0.33120629  0.00078546  0.13412825
  -0.00078546  0.33042083  0.13412825
  -0.00078546  0.66879271  0.13412825
   0.33120629  0.33042083  0.13412825
   0.66957817  0.66879271  0.13412825
   0.66666600  0.33333300  0.11851250
   0.33333300  0.66666600  0.14920390
   0.16658806  0.33317713  0.43371694
   0.33313128  0.16656514  0.43367816
   0.16658806  0.83341094  0.43371694
   0.33333300  0.66666600  0.43365302
   0.66666600  0.33333300  0.43354244
   0.83343386  0.16656514  0.43367816
   0.66682187  0.83341094  0.43371694
   0.83343386  0.66686772  0.43367816
Direct configuration=    43
   0.66920438 -0.00008233  0.13432600
   0.33071229 -0.00008233  0.13432600
   0.00008233  0.33079462  0.13432600
   0.00008233  0.66928671  0.13432600
   0.33071229  0.33079462  0.13432600
   0.66920438  0.66928671  0.13432600
   0.66666600  0.33333300  0.11924504
   0.33333300  0.66666600  0.14833893
   0.16671446  0.33342992  0.43357928
   0.33346476  0.16673188  0.43354107
   0.16671446  0.83328454  0.43357928
   0.33333300  0.66666600  0.43353754
   0.66666600  0.33333300  0.43342810
   0.83326712  0.16673188  0.43354107
   0.66656908  0.83328454  0.43357928
   0.83326712  0.66653424  0.43354107
Direct configuration=    44
   0.66929745  0.00013375  0.13427676
   0.33083530  0.00013375  0.13427676
  -0.00013375  0.33070155  0.13427676
  -0.00013375  0.66916370  0.13427676
   0.33083530  0.33070155  0.13427676
   0.66929745  0.66916370  0.13427676
   0.66666600  0.33333300  0.11906264
   0.33333300  0.66666600  0.14855431
   0.16668299  0.33336697  0.43361356
   0.33338173  0.16669036  0.43357520
   0.16668299  0.83331601  0.43361356
   0.33333300  0.66666600  0.43356629
   0.66666600  0.33333300  0.43345657
   0.83330864  0.16669036  0.43357520
   0.66663203  0.83331601  0.43361356
   0.83330864  0.66661727  0.43357520
Direct configuration=    45
   0.66918122  0.00008427  0.13429732
   0.33090205  0.00008427  0.13429732
  -0.00008427  0.33081778  0.13429732
  -0.00008427  0.66909695  0.13429732
   0.33090205  0.33081778  0.13429732
   0.66918122  0.66909695  0.13429732
   0.66666600  0.33333300  0.11904513
   0.33333300  0.66666600  0.14866932
   0.16664352  0.33328803  0.43357493
   0.33328194  0.16664047  0.43354418
   0.16664352  0.83335548  0.43357493
   0.33333300  0.66666600  0.43354929
   0.66666600  0.33333300  0.43346173
   0.83335853  0.16664047  0.43354418
   0.66671097  0.83335548  0.43357493
   0.83335853  0.66671706  0.43354418
Direct configuration=    46
   0.66900264  0.00000824  0.13432889
   0.33100461  0.00000824  0.13432889
  -0.00000824  0.33099636  0.13432889
  -0.00000824  0.66899439  0.13432889
   0.33100461  0.33099636  0.13432889
   0.66900264  0.66899439  0.13432889
   0.66666600  0.33333300  0.11901822
   0.33333300  0.66666600  0.14884602
   0.16658287  0.33316674  0.43351558
   0.33312863  0.16656382  0.43349651
   0.16658287  0.83341613  0.43351558
   0.33333300  0.66666600  0.43352317
   0.66666600  0.33333300  0.43346965
   0.83343518  0.16656382  0.43349651
   0.66683226  0.83341613  0.43351558
   0.83343518  0.66687037  0.43349651
Direct configuration=    47
   0.66898025  0.00000163  0.13434071
   0.33102038  0.00000163  0.13434071
  -0.00000163  0.33101875  0.13434071
  -0.00000163  0.66897862  0.13434071
   0.33102038  0.33101875  0.13434071
   0.66898025  0.66897862  0.13434071
   0.66666600  0.33333300  0.11901166
   0.33333300  0.66666600  0.14890636
   0.16658979  0.33318059  0.43349534
   0.33314568  0.16657234  0.43347976
   0.16658979  0.83340921  0.43349534
   0.33333300  0.66666600  0.43351113
   0.66666600  0.33333300  0.43346795