       N       E                     dE             d eps       ncg     rms          rms(c)
DAV:   1     0.202000321695E+03    0.20200E+03   -0.25662E+04 14208   0.859E+02
DAV:   2    -0.116459451055E+03   -0.31846E+03   -0.31710E+03 20448   0.162E+02
DAV:   3    -0.129224860065E+03   -0.12765E+02   -0.12748E+02 26496   0.427E+01
DAV:   4    -0.129251901595E+03   -0.27042E-01   -0.27041E-01 20112   0.186E+00
DAV:   5    -0.129251963021E+03   -0.61427E-04   -0.61427E-04 25680   0.908E-02    0.243E+01
DAV:   6    -0.919653422334E+02    0.37287E+02   -0.72428E+01 25296   0.255E+01    0.138E+01
DAV:   7    -0.100374994560E+03   -0.84097E+01   -0.97431E+00 21984   0.100E+01    0.807E+00
DAV:   8    -0.110463960483E+03   -0.10089E+02   -0.89243E+00 24384   0.900E+00    0.433E+00
DAV:   9    -0.117153818599E+03   -0.66899E+01   -0.38493E+00 18816   0.607E+00    0.276E+00
DAV:  10    -0.123462756005E+03   -0.63089E+01   -0.80940E+00 23808   0.702E+00    0.160E+00
DAV:  11    -0.125275745564E+03   -0.18130E+01   -0.29186E+00 25008   0.386E+00    0.996E-01
DAV:  12    -0.125429935419E+03   -0.15419E+00   -0.21862E-01 19680   0.134E+00    0.472E-01
DAV:  13    -0.125456181313E+03   -0.26246E-01   -0.22999E-02 17712   0.548E-01    0.190E-01
DAV:  14    -0.125479372339E+03   -0.23191E-01   -0.61568E-03 21168   0.282E-01    0.845E-02
DAV:  15    -0.125487073228E+03   -0.77009E-02   -0.31412E-03 19056   0.157E-01    0.445E-02
DAV:  16    -0.125489069795E+03   -0.19966E-02   -0.63674E-04 15840   0.803E-02    0.222E-02
DAV:  17    -0.125490333542E+03   -0.12637E-02   -0.17500E-04 14784   0.516E-02    0.171E-02
DAV:  18    -0.125491024361E+03   -0.69082E-03   -0.82731E-05 16368   0.373E-02    0.124E-02
DAV:  19    -0.125491468124E+03   -0.44376E-03   -0.40593E-05 19776   0.241E-02    0.727E-03
DAV:  20    -0.125491517872E+03   -0.49747E-04   -0.21492E-05 22272   0.175E-02    0.446E-03
DAV:  21    -0.125491538929E+03   -0.21057E-04   -0.60957E-06 20736   0.944E-03    0.221E-03
DAV:  22    -0.125491559861E+03   -0.20932E-04   -0.21274E-06 21216   0.543E-03    0.139E-03
DAV:  23    -0.125491575747E+03   -0.15886E-04   -0.17220E-06 21552   0.395E-03    0.731E-04
DAV:  24    -0.125491578978E+03   -0.32307E-05   -0.33187E-07 23040   0.208E-03    0.381E-04
DAV:  25    -0.125491579952E+03   -0.97440E-06   -0.11598E-07 21648   0.111E-03
   1 F= -.12707745E+03 E0= -.12707667E+03  d E =-.127077E+03  mag=    -0.0000
       N       E                     dE             d eps       ncg     rms          rms(c)
DAV:   1    -0.125502903024E+03   -0.11324E-01   -0.34137E+00 14208   0.563E+00    0.501E-01
DAV:   2    -0.125493963940E+03    0.89391E-02   -0.68603E-02 26448   0.729E-01    0.220E-01
DAV:   3    -0.125492969353E+03    0.99459E-03   -0.55027E-03 20256   0.203E-01    0.866E-02
DAV:   4    -0.125492927760E+03    0.41593E-04   -0.65048E-04 27216   0.710E-02    0.223E-02
DAV:   5    -0.125492931321E+03   -0.35615E-05   -0.17882E-05 24096   0.130E-02    0.745E-03
DAV:   6    -0.125492931309E+03    0.12356E-07   -0.36774E-06 23568   0.551E-03
   2 F= -.12707815E+03 E0= -.12707737E+03  d E =-.705342E-03  mag=    -0.0000
       N       E                     dE             d eps       ncg     rms          rms(c)
DAV:   1    -0.125502424794E+03   -0.94935E-02   -0.81681E-01 14208   0.276E+00    0.245E-01
DAV:   2    -0.125500231992E+03    0.21928E-02   -0.16333E-02 26304   0.354E-01    0.107E-01
DAV:   3    -0.125500002366E+03    0.22963E-03   -0.12957E-03 23664   0.994E-02    0.429E-02
DAV:   4    -0.125499992607E+03    0.97590E-05   -0.14756E-04 22704   0.337E-02    0.107E-02
DAV:   5    -0.125499993384E+03   -0.77713E-06   -0.48890E-06 22368   0.677E-03
   3 F= -.12708553E+03 E0= -.12708474E+03  d E =-.807829E-02  mag=    -0.0000
       N       E                     dE             d eps       ncg     rms          rms(c)
DAV:   1    -0.125507147637E+03   -0.71550E-02   -0.34510E-01 14208   0.202E+00    0.121E-01
DAV:   2    -0.125507219542E+03   -0.71905E-04   -0.21142E-03 27936   0.181E-01    0.712E-02
DAV:   3    -0.125507217813E+03    0.17297E-05   -0.20636E-04 21600   0.500E-02    0.156E-02
DAV:   4    -0.125507218980E+03   -0.11668E-05   -0.26719E-05 26976   0.192E-02    0.616E-03
DAV:   5    -0.125507219322E+03   -0.34292E-06   -0.10315E-06 22272   0.431E-03
   4 F= -.12709258E+03 E0= -.12709180E+03  d E =-.705669E-02  mag=    -0.0000
       N       E                     dE             d eps       ncg     rms          rms(c)
DAV:   1    -0.125517469470E+03   -0.10250E-01   -0.31254E+00 14208   0.606E+00    0.362E-01
DAV:   2    -0.125518270903E+03   -0.80143E-03   -0.19600E-02 27168   0.549E-01    0.213E-01
DAV:   3    -0.125518242585E+03    0.28318E-04   -0.19058E-03 21360   0.151E-01    0.466E-02
DAV:   4    -0.125518254429E+03   -0.11844E-04   -0.24058E-04 27840   0.571E-02    0.186E-02
DAV:   5    -0.125518257971E+03   -0.35422E-05   -0.86922E-06 21888   0.124E-02    0.850E-03
DAV:   6    -0.125518258197E+03   -0.22555E-06   -0.60775E-06 25152   0.888E-03
   5 F= -.12710311E+03 E0= -.12710233E+03  d E =-.175837E-01  mag=     0.0000
       N       E                     dE             d eps       ncg     rms          rms(c)
DAV:   1    -0.125521182216E+03   -0.29242E-02   -0.68099E-02 14448   0.101E+00    0.588E-02
DAV:   2    -0.125521184442E+03   -0.22255E-05   -0.62186E-04 27216   0.108E-01    0.326E-02
DAV:   3    -0.125521176491E+03    0.79505E-05   -0.63836E-05 21936   0.303E-02    0.103E-02
DAV:   4    -0.125521176942E+03   -0.45055E-06   -0.10272E-05 26256   0.119E-02    0.446E-03
DAV:   5    -0.125521177500E+03   -0.55866E-06   -0.50616E-07 24528   0.287E-03
   6 F= -.12710596E+03 E0= -.12710518E+03  d E =-.285253E-02  mag=     0.0000
       N       E                     dE             d eps       ncg     rms          rms(c)
DAV:   1    -0.125526045677E+03   -0.48687E-02   -0.61404E-01 14208   0.303E+00    0.176E-01
DAV:   2    -0.125526064324E+03   -0.18647E-04   -0.55369E-03 27744   0.323E-01    0.974E-02
DAV:   3    -0.125525993251E+03    0.71073E-04   -0.56072E-04 21696   0.896E-02    0.304E-02
DAV:   4    -0.125525995644E+03   -0.23934E-05   -0.88412E-05 26496   0.344E-02    0.131E-02
DAV:   5    -0.125525997264E+03   -0.16202E-05   -0.31480E-06 20640   0.748E-03    0.518E-03
DAV:   6    -0.125525996964E+03    0.30079E-06   -0.16803E-06 26016   0.508E-03
   7 F= -.12711056E+03 E0= -.12710978E+03  d E =-.744561E-02  mag=     0.0000
       N       E                     dE             d eps       ncg     rms          rms(c)
DAV:   1    -0.125526305907E+03   -0.30864E-03   -0.48546E-02 14208   0.852E-01    0.493E-02
DAV:   2    -0.125526307313E+03   -0.14062E-05   -0.44612E-04 25056   0.916E-02    0.274E-02
DAV:   3    -0.125526302191E+03    0.51217E-05   -0.46846E-05 22560   0.259E-02    0.864E-03
DAV:   4    -0.125526302499E+03   -0.30709E-06   -0.71623E-06 22320   0.986E-03
   8 F= -.12711079E+03 E0= -.12711001E+03  d E =-.768054E-02  mag=    -0.0000
       N       E                     dE             d eps       ncg     rms          rms(c)
DAV:   1    -0.125528382879E+03   -0.20807E-02   -0.88713E-02 14304   0.975E-01    0.563E-02
DAV:   2    -0.125528402072E+03   -0.19193E-04   -0.46877E-04 24000   0.787E-02    0.337E-02
DAV:   3    -0.125528400647E+03    0.14241E-05   -0.57296E-05 21408   0.231E-02    0.534E-03
DAV:   4    -0.125528400755E+03   -0.10797E-06   -0.36837E-06 23904   0.749E-03
   9 F= -.12711275E+03 E0= -.12711197E+03  d E =-.195611E-02  mag=     0.0000
       N       E                     dE             d eps       ncg     rms          rms(c)
DAV:   1    -0.125532983460E+03   -0.45828E-02   -0.79996E-01 14208   0.293E+00    0.167E-01
DAV:   2    -0.125533168589E+03   -0.18513E-03   -0.41473E-03 27840   0.234E-01    0.100E-01
DAV:   3    -0.125533145433E+03    0.23155E-04   -0.51761E-04 21120   0.681E-02    0.151E-02
DAV:   4    -0.125533145215E+03    0.21862E-06   -0.30713E-05 24096   0.218E-02    0.813E-03
DAV:   5    -0.125533143370E+03    0.18447E-05   -0.40192E-06 21840   0.765E-03    0.302E-03
DAV:   6    -0.125533142799E+03    0.57135E-06   -0.13429E-06 23616   0.412E-03
  10 F= -.12711707E+03 E0= -.12711628E+03  d E =-.627614E-02  mag=     0.0000
       N       E                     dE             d eps       ncg     rms          rms(c)
DAV:   1    -0.125535858554E+03   -0.27152E-02   -0.32023E+00 14208   0.584E+00    0.330E-01
DAV:   2    -0.125536617766E+03   -0.75921E-03   -0.16021E-02 26784   0.463E-01    0.198E-01
DAV:   3    -0.125536530482E+03    0.87284E-04   -0.21071E-03 22032   0.137E-01    0.281E-02
DAV:   4    -0.125536527367E+03    0.31150E-05   -0.12144E-04 23040   0.434E-02    0.159E-02
DAV:   5    -0.125536522008E+03    0.53589E-05   -0.15500E-05 23904   0.152E-02    0.531E-03
DAV:   6    -0.125536520779E+03    0.12290E-05   -0.50637E-06 25728   0.813E-03    0.234E-03
DAV:   7    -0.125536522565E+03   -0.17860E-05   -0.18950E-06 21888   0.443E-03    0.190E-03
DAV:   8    -0.125536526741E+03   -0.41761E-05   -0.23262E-06 19776   0.469E-03    0.100E-03
DAV:   9    -0.125536531429E+03   -0.46871E-05   -0.56196E-07 18768   0.228E-03    0.484E-04
DAV:  10    -0.125536534693E+03   -0.32641E-05   -0.18799E-07 21696   0.114E-03    0.283E-04
DAV:  11    -0.125536536945E+03   -0.22526E-05   -0.87288E-08 20064   0.636E-04    0.165E-04
DAV:  12    -0.125536537747E+03   -0.80214E-06   -0.23212E-08 23520   0.384E-04
  11 F= -.12711964E+03 E0= -.12711887E+03  d E =-.884810E-02  mag=     0.0000
       N       E                     dE             d eps       ncg     rms          rms(c)
DAV:   1    -0.125539062740E+03   -0.25258E-02   -0.24417E-01 14208   0.186E+00    0.979E-02
DAV:   2    -0.125539116422E+03   -0.53682E-04   -0.18278E-03 26784   0.181E-01    0.575E-02
DAV:   3    -0.125539102231E+03    0.14192E-04   -0.19391E-04 19104   0.510E-02    0.157E-02
DAV:   4    -0.125539102760E+03   -0.52918E-06   -0.30510E-05 24624   0.202E-02    0.708E-03
DAV:   5    -0.125539103160E+03   -0.40014E-06   -0.10316E-06 22368   0.427E-03
  12 F= -.12712201E+03 E0= -.12712123E+03  d E =-.237059E-02  mag=     0.0000
       N       E                     dE             d eps       ncg     rms          rms(c)
DAV:   1    -0.125540050775E+03   -0.94801E-03   -0.23772E-01 14208   0.183E+00    0.965E-02
DAV:   2    -0.125540103051E+03   -0.52276E-04   -0.17509E-03 26496   0.177E-01    0.566E-02
DAV:   3    -0.125540088908E+03    0.14142E-04   -0.19106E-04 22032   0.505E-02    0.154E-02
DAV:   4    -0.125540089083E+03   -0.17464E-06   -0.29119E-05 24288   0.198E-02    0.702E-03
DAV:   5    -0.125540089535E+03   -0.45175E-06   -0.11099E-06 24480   0.445E-03
  13 F= -.12712279E+03 E0= -.12712201E+03  d E =-.315578E-02  mag=     0.0000
       N       E                     dE             d eps       ncg     rms          rms(c)
DAV:   1    -0.125540505856E+03   -0.41677E-03   -0.81072E-03 15264   0.371E-01    0.214E-02
DAV:   2    -0.125540499144E+03    0.67125E-05   -0.10278E-04 27552   0.398E-02    0.104E-02
DAV:   3    -0.125540498133E+03    0.10104E-05   -0.83041E-06 20160   0.110E-02    0.399E-03
DAV:   4    -0.125540498675E+03   -0.54164E-06   -0.11386E-06 23088   0.428E-03
  14 F= -.12712318E+03 E0= -.12712240E+03  d E =-.385906E-03  mag=    -0.0000
       N       E                     dE             d eps       ncg     rms          rms(c)
DAV:   1    -0.125540881904E+03   -0.38377E-03   -0.31541E-02 14592   0.733E-01    0.423E-02
DAV:   2    -0.125540854582E+03    0.27322E-04   -0.39882E-04 27744   0.784E-02    0.205E-02
DAV:   3    -0.125540849093E+03    0.54890E-05   -0.32133E-05 20208   0.216E-02    0.786E-03
DAV:   4    -0.125540849470E+03   -0.37692E-06   -0.43019E-06 23808   0.823E-03
  15 F= -.12712348E+03 E0= -.12712270E+03  d E =-.689793E-03  mag=    -0.0000
       N       E                     dE             d eps       ncg     rms          rms(c)
DAV:   1    -0.125541146720E+03   -0.29763E-03   -0.10317E-02 14304   0.420E-01    0.221E-02
DAV:   2    -0.125541142739E+03    0.39813E-05   -0.88370E-05 28320   0.391E-02    0.118E-02
DAV:   3    -0.125541141043E+03    0.16953E-05   -0.87288E-06 21600   0.114E-02    0.415E-03
DAV:   4    -0.125541141212E+03   -0.16867E-06   -0.12651E-06 21072   0.479E-03
  16 F= -.12712376E+03 E0= -.12712298E+03  d E =-.275710E-03  mag=     0.0000
       N       E                     dE             d eps       ncg     rms          rms(c)
DAV:   1    -0.125541243754E+03   -0.10271E-03   -0.88741E-03 14592   0.390E-01    0.205E-02
DAV:   2    -0.125541240470E+03    0.32837E-05   -0.75463E-05 27744   0.361E-02    0.108E-02
DAV:   3    -0.125541238973E+03    0.14977E-05   -0.73164E-06 22800   0.106E-02    0.388E-03
DAV:   4    -0.125541238930E+03    0.43005E-07   -0.11394E-06 21264   0.487E-03
  17 F= -.12712384E+03 E0= -.12712306E+03  d E =-.358194E-03  mag=     0.0000
       N       E                     dE             d eps       ncg     rms          rms(c)
DAV:   1    -0.125541335150E+03   -0.96178E-04   -0.39417E-03 19296   0.234E-01    0.153E-02
DAV:   2    -0.125541329046E+03    0.61042E-05   -0.58611E-05 16512   0.272E-02    0.737E-03
DAV:   3    -0.125541328161E+03    0.88490E-06   -0.66996E-06 20400   0.922E-03
  18 F= -.12712392E+03 E0= -.12712314E+03  d E =-.815294E-04  mag=     0.0000
       N       E                     dE             d eps       ncg     rms          rms(c)
DAV:   1    -0.125541356203E+03   -0.27156E-04   -0.21335E-03 21408   0.172E-01    0.118E-02
DAV:   2    -0.125541352746E+03    0.34561E-05   -0.30946E-05 17616   0.199E-02    0.575E-03
DAV:   3    -0.125541352266E+03    0.48072E-06   -0.38258E-06 18768   0.735E-03
  19 F= -.12712394E+03 E0= -.12712316E+03  d E =-.999740E-04  mag=    -0.0000
       N       E                     dE             d eps       ncg     rms          rms(c)
DAV:   1    -0.125541409191E+03   -0.56444E-04   -0.12060E-03 17232   0.147E-01    0.754E-03
DAV:   2    -0.125541409091E+03    0.99993E-07   -0.13780E-05 16656   0.162E-02    0.409E-03
DAV:   3    -0.125541409087E+03    0.33006E-08   -0.17387E-06 15504   0.632E-03
  20 F= -.12712397E+03 E0= -.12712319E+03  d E =-.306091E-04  mag=     0.0000
       N       E                     dE             d eps       ncg     rms          rms(c)
DAV:   1    -0.125541444681E+03   -0.35590E-04   -0.11284E-03 14400   0.143E-01    0.766E-03
DAV:   2    -0.125541444760E+03   -0.79073E-07   -0.13395E-05 19872   0.160E-02    0.429E-03
DAV:   3    -0.125541444727E+03    0.32632E-07   -0.16254E-06 15456   0.590E-03
  21 F= -.12712398E+03 E0= -.12712320E+03  d E =-.408044E-04  mag=    -0.0000
       N       E                     dE             d eps       ncg     rms          rms(c)
DAV:   1    -0.125541499550E+03   -0.54790E-04   -0.70306E-04 14208   0.102E-01    0.583E-03
DAV:   2    -0.125541499675E+03   -0.12464E-06   -0.82835E-06 19776   0.117E-02
  22 F= -.12712401E+03 E0= -.12712322E+03  d E =-.234045E-04  mag=    -0.0000
       N       E                     dE             d eps       ncg     rms          rms(c)
DAV:   1    -0.125541626867E+03   -0.12732E-03   -0.62908E-03 14208   0.305E-01    0.175E-02
DAV:   2    -0.125541626664E+03    0.20324E-06   -0.68462E-05 20832   0.329E-02    0.999E-03
DAV:   3    -0.125541626122E+03    0.54225E-06   -0.54106E-06 18624   0.908E-03
  23 F= -.12712404E+03 E0= -.12712326E+03  d E =-.553253E-04  mag=     0.0000
       N       E                     dE             d eps       ncg     rms          rms(c)
DAV:   1    -0.125541710821E+03   -0.84157E-04   -0.17796E-03 14208   0.167E-01    0.819E-03
DAV:   2    -0.125541711377E+03   -0.55614E-06   -0.16004E-05 20208   0.178E-02    0.521E-03
DAV:   3    -0.125541711611E+03   -0.23428E-06   -0.24146E-06 14208   0.758E-03
  24 F= -.12712407E+03 E0= -.12712329E+03  d E =-.315526E-04  mag=    -0.0000
       N       E                     dE             d eps       ncg     rms          rms(c)
DAV:   1    -0.125541874069E+03   -0.16269E-03   -0.10737E-02 14208   0.411E-01    0.192E-02
DAV:   2    -0.125541877280E+03   -0.32109E-05   -0.91728E-05 24624   0.414E-02    0.121E-02
DAV:   3    -0.125541876820E+03    0.46009E-06   -0.96710E-06 17280   0.129E-02
  25 F= -.12712410E+03 E0= -.12712332E+03  d E =-.643498E-04  mag=    -0.0000
       N       E                     dE             d eps       ncg     rms          rms(c)
DAV:   1    -0.125541915297E+03   -0.38016E-04   -0.32576E-04 14496   0.687E-02    0.401E-03
DAV:   2    -0.125541915292E+03    0.41591E-08   -0.34618E-06 20592   0.870E-03
  26 F= -.12712412E+03 E0= -.12712333E+03  d E =-.140930E-04  mag=     0.0000
       N       E                     dE             d eps       ncg     rms          rms(c)
DAV:   1    -0.125542027155E+03   -0.11186E-03   -0.28823E-03 14208   0.203E-01    0.102E-02
DAV:   2    -0.125542027833E+03   -0.67787E-06   -0.23900E-05 14208   0.211E-02    0.637E-03
DAV:   3    -0.125542028819E+03   -0.98671E-06   -0.38226E-06 15360   0.951E-03
  27 F= -.12712416E+03 E0= -.12712338E+03  d E =-.545030E-04  mag=     0.0000
       N       E                     dE             d eps       ncg     rms          rms(c)
DAV:   1    -0.125542232014E+03   -0.20418E-03   -0.11592E-02 14208   0.407E-01    0.194E-02
DAV:   2    -0.125542236051E+03   -0.40376E-05   -0.91143E-05 19488   0.397E-02    0.121E-02
DAV:   3    -0.125542236775E+03   -0.72366E-06   -0.79765E-06 15408   0.121E-02
  28 F= -.12712422E+03 E0= -.12712344E+03  d E =-.116380E-03  mag=    -0.0000
       N       E                     dE             d eps       ncg     rms          rms(c)
DAV:   1    -0.125542569928E+03   -0.33388E-03   -0.46389E-02 14208   0.814E-01    0.388E-02
DAV:   2    -0.125542585864E+03   -0.15936E-04   -0.34688E-04 23328   0.774E-02    0.243E-02
DAV:   3    -0.125542586066E+03   -0.20268E-06   -0.27237E-05 16800   0.204E-02    0.505E-03
DAV:   4    -0.125542586033E+03    0.33241E-07   -0.79891E-06 15072   0.142E-02
  29 F= -.12712428E+03 E0= -.12712349E+03  d E =-.173723E-03  mag=     0.0000
       N       E                     dE             d eps       ncg     rms          rms(c)
DAV:   1    -0.125542658299E+03   -0.72233E-04   -0.12332E-03 17616   0.142E-01    0.719E-03
DAV:   2    -0.125542658461E+03   -0.16191E-06   -0.13251E-05 23472   0.166E-02    0.447E-03
DAV:   3    -0.125542659397E+03   -0.93637E-06   -0.26519E-06 17280   0.856E-03
  30 F= -.12712430E+03 E0= -.12712352E+03  d E =-.278391E-04  mag=     0.0000
       N       E                     dE             d eps       ncg     rms          rms(c)
DAV:   1    -0.125542809144E+03   -0.15068E-03   -0.86761E-03 14208   0.376E-01    0.180E-02
DAV:   2    -0.125542813042E+03   -0.38979E-05   -0.92777E-05 20592   0.415E-02    0.113E-02
DAV:   3    -0.125542813165E+03   -0.12256E-06   -0.90232E-06 14736   0.132E-02
  31 F= -.12712434E+03 E0= -.12712355E+03  d E =-.601875E-04  mag=     0.0000
       N       E                     dE             d eps       ncg     rms          rms(c)
DAV:   1    -0.125542863648E+03   -0.50606E-04   -0.55088E-04 14208   0.914E-02    0.487E-03
DAV:   2    -0.125542863804E+03   -0.15605E-06   -0.58657E-06 15168   0.109E-02
  32 F= -.12712436E+03 E0= -.12712357E+03  d E =-.189333E-04  mag=     0.0000
       N       E                     dE             d eps       ncg     rms          rms(c)
DAV:   1    -0.125543006608E+03   -0.14296E-03   -0.48932E-03 14208   0.272E-01    0.129E-02
DAV:   2    -0.125543008492E+03   -0.18838E-05   -0.45033E-05 14352   0.282E-02    0.818E-03
DAV:   3    -0.125543009816E+03   -0.13237E-05   -0.51166E-06 20640   0.108E-02    0.224E-03
DAV:   4    -0.125543009587E+03    0.22843E-06   -0.35994E-06 14208   0.961E-03
  33 F= -.12712441E+03 E0= -.12712362E+03  d E =-.696440E-04  mag=     0.0000
       N       E                     dE             d eps       ncg     rms          rms(c)
DAV:   1    -0.125543251888E+03   -0.24207E-03   -0.19686E-02 14208   0.544E-01    0.247E-02
DAV:   2    -0.125543261315E+03   -0.94273E-05   -0.17762E-04 23520   0.542E-02    0.157E-02
DAV:   3    -0.125543261681E+03   -0.36609E-06   -0.10671E-05 22272   0.119E-02    0.381E-03
DAV:   4    -0.125543262032E+03   -0.35125E-06   -0.14704E-06 16080   0.538E-03
  34 F= -.12712447E+03 E0= -.12712369E+03  d E =-.132157E-03  mag=     0.0000
       N       E                     dE             d eps       ncg     rms          rms(c)
DAV:   1    -0.125543589143E+03   -0.32746E-03   -0.78767E-02 14208   0.109E+00    0.494E-02
DAV:   2    -0.125543623797E+03   -0.34654E-04   -0.67257E-04 22416   0.105E-01    0.311E-02
DAV:   3    -0.125543623405E+03    0.39176E-06   -0.41963E-05 20304   0.234E-02    0.738E-03
DAV:   4    -0.125543624500E+03   -0.10950E-05   -0.57468E-06 14496   0.103E-02    0.254E-03
DAV:   5    -0.125543624846E+03   -0.34606E-06   -0.17374E-06 19776   0.652E-03
  35 F= -.12712445E+03 E0= -.12712367E+03  d E =-.115710E-03  mag=     0.0000
       N       E                     dE             d eps       ncg     rms          rms(c)
DAV:   1    -0.125543422269E+03    0.20223E-03   -0.27299E-02 14208   0.640E-01    0.290E-02
DAV:   2    -0.125543434028E+03   -0.11759E-04   -0.23989E-04 23232   0.630E-02    0.183E-02
DAV:   3    -0.125543433962E+03    0.65383E-07   -0.14995E-05 20544   0.144E-02    0.440E-03
DAV:   4    -0.125543434399E+03   -0.43712E-06   -0.26380E-06 14496   0.774E-03
  36 F= -.12712449E+03 E0= -.12712370E+03  d E =-.148541E-03  mag=     0.0000
       N       E                     dE             d eps       ncg     rms          rms(c)
DAV:   1    -0.125543544876E+03   -0.11091E-03   -0.33013E-03 14208   0.231E-01    0.106E-02
DAV:   2    -0.125543545360E+03   -0.48360E-06   -0.33106E-05 15504   0.251E-02    0.649E-03
DAV:   3    -0.125543545423E+03   -0.63060E-07   -0.42897E-06 15312   0.955E-03
  37 F= -.12712452E+03 E0= -.12712374E+03  d E =-.378323E-04  mag=    -0.0000
       N       E                     dE             d eps       ncg     rms          rms(c)
DAV:   1    -0.125543655267E+03   -0.10991E-03   -0.52991E-03 14208   0.293E-01    0.141E-02
DAV:   2    -0.125543656522E+03   -0.12549E-05   -0.52283E-05 15456   0.316E-02    0.872E-03
DAV:   3    -0.125543656730E+03   -0.20840E-06   -0.65710E-06 14736   0.115E-02
  38 F= -.12712454E+03 E0= -.12712376E+03  d E =-.565022E-04  mag=     0.0000
       N       E                     dE             d eps       ncg     rms          rms(c)
DAV:   1    -0.125543772888E+03   -0.11637E-03   -0.38396E-03 14208   0.252E-01    0.118E-02
DAV:   2    -0.125543773771E+03   -0.88304E-06   -0.34745E-05 16176   0.258E-02    0.736E-03
DAV:   3    -0.125543774161E+03   -0.38951E-06   -0.42909E-06 14880   0.977E-03
  39 F= -.12712458E+03 E0= -.12712380E+03  d E =-.371478E-04  mag=    -0.0000
       N       E                     dE             d eps       ncg     rms          rms(c)
DAV:   1    -0.125543883562E+03   -0.10979E-03   -0.53910E-03 14208   0.298E-01    0.138E-02
DAV:   2    -0.125543884966E+03   -0.14041E-05   -0.49108E-05 19296   0.306E-02    0.862E-03
DAV:   3    -0.125543885376E+03   -0.41029E-06   -0.56466E-06 14832   0.111E-02
  40 F= -.12712460E+03 E0= -.12712381E+03  d E =-.532031E-04  mag=     0.0000
       N       E                     dE             d eps       ncg     rms          rms(c)
DAV:   1    -0.125543990230E+03   -0.10526E-03   -0.34412E-03 14208   0.236E-01    0.117E-02
DAV:   2    -0.125543990230E+03    0.42292E-09   -0.34841E-05 18000   0.253E-02    0.718E-03
DAV:   3    -0.125543990523E+03   -0.29326E-06   -0.46519E-06 14976   0.102E-02
  41 F= -.12712462E+03 E0= -.12712384E+03  d E =-.237305E-04  mag=    -0.0000
       N       E                     dE             d eps       ncg     rms          rms(c)
DAV:   1    -0.125544034498E+03   -0.44268E-04   -0.87751E-04 14208   0.120E-01    0.607E-03
DAV:   2    -0.125544034146E+03    0.35182E-06   -0.10361E-05 17424   0.150E-02    0.377E-03
DAV:   3    -0.125544034875E+03   -0.72939E-06   -0.29997E-06 15696   0.872E-03
  42 F= -.12712462E+03 E0= -.12712384E+03  d E =-.270581E-04  mag=     0.0000
       N       E                     dE             d eps       ncg     rms          rms(c)
DAV:   1    -0.125544102988E+03   -0.68842E-04   -0.18514E-03 14640   0.182E-01    0.879E-03
DAV:   2    -0.125544103220E+03   -0.23161E-06   -0.20230E-05 20304   0.203E-02    0.540E-03
DAV:   3    -0.125544103433E+03   -0.21310E-06   -0.26928E-06 15696   0.835E-03
  43 F= -.12712463E+03 E0= -.12712385E+03  d E =-.996054E-05  mag=     0.0000
       N       E                     dE             d eps       ncg     rms          rms(c)
DAV:   1    -0.125544104972E+03   -0.17530E-05   -0.32394E-06 14208   0.932E-03    0.917E-04
DAV:   2    -0.125544104787E+03    0.18541E-06   -0.90464E-07 16656   0.481E-03
  44 F= -.12712463E+03 E0= -.12712385E+03  d E =-.966901E-05  mag=     0.0000
       N       E                     dE             d eps       ncg     rms          rms(c)
DAV:   1    -0.125544165429E+03   -0.60457E-04   -0.13325E-03 14208   0.154E-01    0.680E-03
DAV:   2    -0.125544165694E+03   -0.26448E-06   -0.12951E-05 18336   0.153E-02    0.422E-03
DAV:   3    -0.125544165769E+03   -0.75351E-07   -0.92832E-07 15552   0.414E-03
  45 F= -.12712464E+03 E0= -.12712386E+03  d E =-.108322E-04  mag=    -0.0000
       N       E                     dE             d eps       ncg     rms          rms(c)
DAV:   1    -0.125544226194E+03   -0.60500E-04   -0.16781E-03 14208   0.173E-01    0.769E-03
DAV:   2    -0.125544226495E+03   -0.30179E-06   -0.15950E-05 15360   0.172E-02    0.474E-03
DAV:   3    -0.125544226617E+03   -0.12158E-06   -0.12951E-06 16992   0.509E-03
  46 F= -.12712465E+03 E0= -.12712386E+03  d E =-.154444E-04  mag=     0.0000
       N       E                     dE             d eps       ncg     rms          rms(c)
DAV:   1    -0.125544298058E+03   -0.71562E-04   -0.20489E-03 14208   0.191E-01    0.851E-03
DAV:   2    -0.125544298644E+03   -0.58606E-06   -0.21573E-05 14208   0.206E-02    0.545E-03
DAV:   3    -0.125544298670E+03   -0.25641E-07   -0.21950E-06 16272   0.709E-03
  47 F= -.12712466E+03 E0= -.12712387E+03  d E =-.100126E-04  mag=     0.0000
       N       E                     dE             d eps       ncg     rms          rms(c)
DAV:   1    -0.125544331687E+03   -0.33043E-04   -0.53794E-04 14208   0.980E-02    0.452E-03
DAV:   2    -0.125544331809E+03   -0.12184E-06   -0.60379E-06 14208   0.115E-02
  48 F= -.12712466E+03 E0= -.12712388E+03  d E =-.113948E-04  mag=    -0.0000
       N       E                     dE             d eps       ncg     rms          rms(c)
DAV:   1    -0.125544375947E+03   -0.44260E-04   -0.63917E-04 19632   0.107E-01    0.508E-03
DAV:   2    -0.125544375904E+03    0.42774E-07   -0.53144E-06 14640   0.108E-02
  49 F= -.12712467E+03 E0= -.12712388E+03  d E =-.742654E-05  mag=     0.0000
       N       E                     dE             d eps       ncg     rms          rms(c)
DAV:   1    -0.125544498429E+03   -0.12248E-03   -0.57440E-03 14208   0.321E-01    0.133E-02
DAV:   2    -0.125544500514E+03   -0.20856E-05   -0.55756E-05 14208   0.328E-02    0.886E-03
DAV:   3    -0.125544501212E+03   -0.69785E-06   -0.57603E-06 16368   0.119E-02
  50 F= -.12712468E+03 E0= -.12712390E+03  d E =-.226501E-04  mag=    -0.0000
       N       E                     dE             d eps       ncg     rms          rms(c)
DAV:   1    -0.125544705741E+03   -0.20523E-03   -0.23140E-02 14208   0.643E-01    0.261E-02
DAV:   2    -0.125544715326E+03   -0.95849E-05   -0.21828E-04 16512   0.636E-02    0.173E-02
DAV:   3    -0.125544715624E+03   -0.29827E-06   -0.16642E-05 15504   0.187E-02    0.475E-03
DAV:   4    -0.125544715916E+03   -0.29166E-06   -0.75027E-06 14208   0.141E-02
  51 F= -.12712468E+03 E0= -.12712389E+03  d E =-.173154E-04  mag=    -0.0000
       N       E                     dE             d eps       ncg     rms          rms(c)
DAV:   1    -0.125544575057E+03    0.14057E-03   -0.10073E-02 14208   0.424E-01    0.167E-02
DAV:   2    -0.125544578779E+03   -0.37219E-05   -0.98764E-05 18000   0.427E-02    0.111E-02
DAV:   3    -0.125544578688E+03    0.90879E-07   -0.76561E-06 21264   0.127E-02
  52 F= -.12712468E+03 E0= -.12712390E+03  d E =-.254176E-04  mag=     0.0000
       N       E                     dE             d eps       ncg     rms          rms(c)
DAV:   1    -0.125544642960E+03   -0.64181E-04   -0.13321E-03 14208   0.154E-01    0.599E-03
DAV:   2    -0.125544643102E+03   -0.14208E-06   -0.17364E-05 18720   0.195E-02    0.395E-03
DAV:   3    -0.125544643347E+03   -0.24455E-06   -0.29293E-06 14208   0.877E-03
  53 F= -.12712469E+03 E0= -.12712391E+03  d E =-.866511E-05  mag=    -0.0000
       N       E                     dE             d eps       ncg     rms          rms(c)
DAV:   1    -0.125544821880E+03   -0.17878E-03   -0.11955E-02 14208   0.461E-01    0.195E-02
DAV:   2    -0.125544826399E+03   -0.45186E-05   -0.12334E-04 18048   0.477E-02    0.129E-02
DAV:   3    -0.125544826197E+03    0.20157E-06   -0.92472E-06 14880   0.138E-02
  54 F= -.12712471E+03 E0= -.12712392E+03  d E =-.235922E-04  mag=     0.0000
       N       E                     dE             d eps       ncg     rms          rms(c)
DAV:   1    -0.125544902663E+03   -0.76264E-04   -0.18429E-03 14208   0.183E-01    0.815E-03
DAV:   2    -0.125544903131E+03   -0.46773E-06   -0.20454E-05 14208   0.215E-02    0.550E-03
DAV:   3    -0.125544904208E+03   -0.10772E-05   -0.44450E-06 14592   0.112E-02    0.184E-03
DAV:   4    -0.125544903320E+03    0.88752E-06   -0.39730E-06 14448   0.100E-02
  55 F= -.12712472E+03 E0= -.12712394E+03  d E =-.118185E-04  mag=     0.0000
       N       E                     dE             d eps       ncg     rms          rms(c)
DAV:   1    -0.125545094899E+03   -0.19069E-03   -0.14665E-02 14496   0.514E-01    0.213E-02
DAV:   2    -0.125545101700E+03   -0.68007E-05   -0.14280E-04 22656   0.509E-02    0.143E-02
DAV:   3    -0.125545100568E+03    0.11318E-05   -0.87739E-06 25248   0.115E-02    0.359E-03
DAV:   4    -0.125545100607E+03   -0.39508E-07   -0.12214E-06 15360   0.474E-03
  56 F= -.12712473E+03 E0= -.12712395E+03  d E =-.247418E-04  mag=     0.0000
       N       E                     dE             d eps       ncg     rms          rms(c)
DAV:   1    -0.125545143425E+03   -0.42858E-04   -0.61162E-04 14400   0.105E-01    0.438E-03
DAV:   2    -0.125545143705E+03   -0.27959E-06   -0.58971E-06 17952   0.106E-02
  57 F= -.12712474E+03 E0= -.12712395E+03  d E =-.486137E-05  mag=    -0.0000
       N       E                     dE             d eps       ncg     rms          rms(c)
DAV:   1    -0.125545267946E+03   -0.12452E-03   -0.54591E-03 14208   0.314E-01    0.133E-02
DAV:   2    -0.125545270227E+03   -0.22817E-05   -0.49363E-05 14592   0.303E-02    0.893E-03
DAV:   3    -0.125545270118E+03    0.10908E-06   -0.33857E-06 14208   0.806E-03
  58 F= -.12712475E+03 E0= -.12712397E+03  d E =-.167237E-04  mag=    -0.0000
       N       E                     dE             d eps       ncg     rms          rms(c)
DAV:   1    -0.125545500266E+03   -0.23004E-03   -0.21946E-02 14208   0.628E-01    0.257E-02
DAV:   2    -0.125545510480E+03   -0.10214E-04   -0.19904E-04 15360   0.607E-02    0.174E-02
DAV:   3    -0.125545509346E+03    0.11340E-05   -0.12615E-05 17712   0.148E-02    0.436E-03
DAV:   4    -0.125545509419E+03   -0.72740E-07   -0.21683E-06 15264   0.690E-03
  59 F= -.12712476E+03 E0= -.12712398E+03  d E =-.269921E-04  mag=    -0.0000
       N       E                     dE             d eps       ncg     rms          rms(c)
DAV:   1    -0.125545566209E+03   -0.56863E-04   -0.10725E-03 14208   0.140E-01    0.595E-03
DAV:   2    -0.125545566573E+03   -0.36333E-06   -0.11812E-05 15360   0.156E-02    0.397E-03
DAV:   3    -0.125545566806E+03   -0.23294E-06   -0.14172E-06 14832   0.618E-03
  60 F= -.12712477E+03 E0= -.12712399E+03  d E =-.124767E-04  mag=     0.0000
       N       E                     dE             d eps       ncg     rms          rms(c)
DAV:   1    -0.125545685469E+03   -0.11890E-03   -0.61879E-03 14208   0.336E-01    0.143E-02
DAV:   2    -0.125545687748E+03   -0.22790E-05   -0.62238E-05 14304   0.346E-02    0.937E-03
DAV:   3    -0.125545687677E+03    0.70377E-07   -0.53639E-06 14304   0.106E-02
  61 F= -.12712478E+03 E0= -.12712400E+03  d E =-.250492E-04  mag=    -0.0000
