  16  16   0   4
  0.2065628E+02  0.5044000E-09  0.5044000E-09  0.1500000E-08  0.5000000E-15
  1.000000000000000E-004
  CAR 
 Lattice                                 
      9.68953554    -21.32661924  301     -0.98563358      1.00000000
    -21.327  0.0000E+00  0.0000E+00
    -21.223  0.0000E+00  0.0000E+00
    -21.120  0.0000E+00  0.0000E+00
    -21.016  0.0000E+00  0.0000E+00
    -20.913  0.0000E+00  0.0000E+00
    -20.810  0.0000E+00  0.0000E+00
    -20.706  0.0000E+00  0.0000E+00
    -20.603  0.0000E+00  0.0000E+00
    -20.500  0.1165E-18  0.1205E-19
    -20.396  0.7043E-14  0.7282E-15
    -20.293  0.6876E-10  0.7110E-11
    -20.189  0.9301E-07  0.9623E-08
    -20.086  0.1884E-04  0.1957E-05
    -19.983  0.6302E-03  0.6711E-04
    -19.879  0.4257E-02  0.5072E-03
    -19.776  0.8810E-02  0.1418E-02
    -19.672  0.9811E-02  0.2432E-02
    -19.569  0.1034E-01  0.3501E-02
    -19.466  0.9294E-02  0.4462E-02
    -19.362  0.1135E-01  0.5636E-02
    -19.259  0.8562E-02  0.6521E-02
    -19.155  0.1049E-01  0.7606E-02
    -19.052  0.1184E-01  0.8830E-02
    -18.949  0.7336E-02  0.9588E-02
    -18.845  0.1060E-01  0.1068E-01
    -18.742  0.1274E-01  0.1200E-01
    -18.639  0.8921E-02  0.1292E-01
    -18.535  0.6750E-02  0.1362E-01
    -18.432  0.1344E-01  0.1501E-01
    -18.328  0.1208E-01  0.1626E-01
    -18.225  0.8497E-02  0.1714E-01
    -18.122  0.6754E-02  0.1784E-01
    -18.018  0.1280E-01  0.1916E-01
    -17.915  0.2136E-01  0.2137E-01
    -17.811  0.2145E-01  0.2359E-01
    -17.708  0.2179E-01  0.2584E-01
    -17.605  0.2535E-01  0.2846E-01
    -17.501  0.3185E-01  0.3175E-01
    -17.398  0.3879E-01  0.3576E-01
    -17.295  0.4129E-01  0.4003E-01
    -17.191  0.2577E-01  0.4270E-01
    -17.088  0.1249E-01  0.4399E-01
    -16.984  0.1463E-01  0.4550E-01
    -16.881  0.1360E-01  0.4691E-01
    -16.778  0.1115E-01  0.4806E-01
    -16.674  0.9235E-02  0.4901E-01
    -16.571  0.5559E-02  0.4959E-01
    -16.467  0.8361E-02  0.5045E-01
    -16.364  0.1849E-01  0.5237E-01
    -16.261  0.1287E-01  0.5370E-01
    -16.157  0.9614E-02  0.5469E-01
    -16.054  0.8628E-02  0.5558E-01
    -15.950  0.8456E-02  0.5646E-01
    -15.847  0.7409E-02  0.5722E-01
    -15.744  0.1692E-01  0.5897E-01
    -15.640  0.2157E-01  0.6120E-01
    -15.537  0.2360E-01  0.6364E-01
    -15.434  0.3041E-01  0.6679E-01
    -15.330  0.3205E-01  0.7010E-01
    -15.227  0.2618E-01  0.7281E-01
    -15.123  0.2911E-01  0.7582E-01
    -15.020  0.3526E-01  0.7946E-01
    -14.917  0.3247E-01  0.8282E-01
    -14.813  0.2564E-01  0.8547E-01
    -14.710  0.1930E-01  0.8746E-01
    -14.606  0.1944E-01  0.8947E-01
    -14.503  0.3084E-01  0.9266E-01
    -14.400  0.3773E-01  0.9656E-01
    -14.296  0.3059E-01  0.9973E-01
    -14.193  0.2208E-01  0.1020E+00
    -14.090  0.1797E-01  0.1039E+00
    -13.986  0.1594E-01  0.1055E+00
    -13.883  0.1776E-01  0.1074E+00
    -13.779  0.1469E-01  0.1089E+00
    -13.676  0.8232E-02  0.1097E+00
    -13.573  0.9331E-02  0.1107E+00
    -13.469  0.8839E-02  0.1116E+00
    -13.366  0.1195E-01  0.1128E+00
    -13.262  0.1201E-01  0.1141E+00
    -13.159  0.1243E-01  0.1154E+00
    -13.056  0.1624E-01  0.1170E+00
    -12.952  0.1489E-01  0.1186E+00
    -12.849  0.1695E-01  0.1203E+00
    -12.745  0.1214E-01  0.1216E+00
    -12.642  0.1335E-01  0.1230E+00
    -12.539  0.1107E-01  0.1241E+00
    -12.435  0.7748E-02  0.1249E+00
    -12.332  0.1675E-01  0.1266E+00
    -12.229  0.1275E-01  0.1280E+00
    -12.125  0.9998E-02  0.1290E+00
    -12.022  0.1901E-01  0.1310E+00
    -11.918  0.2997E-01  0.1341E+00
    -11.815  0.3192E-01  0.1374E+00
    -11.712  0.2770E-01  0.1402E+00
    -11.608  0.2896E-01  0.1432E+00
    -11.505  0.3451E-01  0.1468E+00
    -11.401  0.2538E-01  0.1494E+00
    -11.298  0.1908E-01  0.1514E+00
    -11.195  0.1857E-01  0.1533E+00
    -11.091  0.2181E-01  0.1556E+00
    -10.988  0.1887E-01  0.1575E+00
    -10.885  0.1356E-01  0.1589E+00
    -10.781  0.2398E-01  0.1614E+00
    -10.678  0.3124E-01  0.1646E+00
    -10.574  0.2416E-01  0.1671E+00
    -10.471  0.1392E-01  0.1686E+00
    -10.368  0.1875E-01  0.1705E+00
    -10.264  0.3506E-01  0.1741E+00
    -10.161  0.3451E-01  0.1777E+00
    -10.057  0.2145E-01  0.1799E+00
     -9.954  0.1914E-01  0.1819E+00
     -9.851  0.1824E-01  0.1838E+00
     -9.747  0.2334E-01  0.1862E+00
     -9.644  0.1758E-01  0.1880E+00
     -9.540  0.2222E-01  0.1903E+00
     -9.437  0.2177E-01  0.1925E+00
     -9.334  0.2096E-01  0.1947E+00
     -9.230  0.1991E-01  0.1968E+00
     -9.127  0.6583E-02  0.1975E+00
     -9.024  0.3765E-02  0.1978E+00
     -8.920  0.2161E-01  0.2001E+00
     -8.817  0.3892E-01  0.2041E+00
     -8.713  0.3467E-01  0.2077E+00
     -8.610  0.2086E-01  0.2098E+00
     -8.507  0.1549E-01  0.2114E+00
     -8.403  0.1782E-01  0.2133E+00
     -8.300  0.2605E-01  0.2160E+00
     -8.196  0.4932E-01  0.2211E+00
     -8.093  0.4542E-01  0.2258E+00
     -7.990  0.3822E-01  0.2297E+00
     -7.886  0.3062E-01  0.2329E+00
     -7.783  0.2647E-01  0.2356E+00
     -7.680  0.4155E-01  0.2399E+00
     -7.576  0.5065E-01  0.2452E+00
     -7.473  0.4690E-01  0.2500E+00
     -7.369  0.4503E-01  0.2547E+00
     -7.266  0.5170E-01  0.2600E+00
     -7.163  0.4610E-01  0.2648E+00
     -7.059  0.5080E-01  0.2700E+00
     -6.956  0.4997E-01  0.2752E+00
     -6.852  0.3515E-01  0.2788E+00
     -6.749  0.4621E-01  0.2836E+00
     -6.646  0.5340E-01  0.2891E+00
     -6.542  0.4652E-01  0.2939E+00
     -6.439  0.4914E-01  0.2990E+00
     -6.335  0.4618E-01  0.3038E+00
     -6.232  0.5026E-01  0.3090E+00
     -6.129  0.3887E-01  0.3130E+00
     -6.025  0.3215E-01  0.3163E+00
     -5.922  0.3964E-01  0.3204E+00
     -5.819  0.5202E-01  0.3258E+00
     -5.715  0.4422E-01  0.3304E+00
     -5.612  0.3550E-01  0.3340E+00
     -5.508  0.4392E-01  0.3386E+00
     -5.405  0.5316E-01  0.3441E+00
     -5.302  0.5729E-01  0.3500E+00
     -5.198  0.4047E-01  0.3542E+00
     -5.095  0.2524E-01  0.3568E+00
     -4.991  0.3092E-01  0.3600E+00
     -4.888  0.3703E-01  0.3638E+00
     -4.785  0.3368E-01  0.3673E+00
     -4.681  0.3331E-01  0.3708E+00
     -4.578  0.3479E-01  0.3743E+00
     -4.475  0.3267E-01  0.3777E+00
     -4.371  0.3745E-01  0.3816E+00
     -4.268  0.4603E-01  0.3864E+00
     -4.164  0.6215E-01  0.3928E+00
     -4.061  0.8078E-01  0.4011E+00
     -3.958  0.6621E-01  0.4080E+00
     -3.854  0.4484E-01  0.4126E+00
     -3.751  0.3041E-01  0.4158E+00
     -3.647  0.3122E-01  0.4190E+00
     -3.544  0.3324E-01  0.4224E+00
     -3.441  0.4122E-01  0.4267E+00
     -3.337  0.4141E-01  0.4310E+00
     -3.234  0.2826E-01  0.4339E+00
     -3.130  0.2630E-01  0.4366E+00
     -3.027  0.3684E-01  0.4404E+00
     -2.924  0.5144E-01  0.4457E+00
     -2.820  0.3925E-01  0.4498E+00
     -2.717  0.2044E-01  0.4519E+00
     -2.614  0.2594E-01  0.4546E+00
     -2.510  0.4266E-01  0.4590E+00
     -2.407  0.4059E-01  0.4632E+00
     -2.303  0.3720E-01  0.4670E+00
     -2.200  0.4655E-01  0.4719E+00
     -2.097  0.3368E-01  0.4753E+00
     -1.993  0.9575E-02  0.4763E+00
     -1.890  0.1094E-01  0.4775E+00
     -1.786  0.1485E-01  0.4790E+00
     -1.683  0.1088E-01  0.4801E+00
     -1.580  0.1329E-01  0.4815E+00
     -1.476  0.1232E-01  0.4828E+00
     -1.373  0.8194E-02  0.4836E+00
     -1.270  0.4322E-02  0.4841E+00
     -1.166  0.9256E-03  0.4842E+00
     -1.063  0.5079E-03  0.4842E+00
     -0.959  0.2526E-02  0.4845E+00
     -0.856  0.5134E-02  0.4850E+00
     -0.753  0.6497E-02  0.4857E+00
     -0.649  0.8903E-02  0.4866E+00
     -0.546  0.1766E-01  0.4884E+00
     -0.442  0.1905E-01  0.4904E+00
     -0.339  0.1822E-01  0.4923E+00
     -0.236  0.1991E-01  0.4943E+00
     -0.132  0.2125E-01  0.4965E+00
     -0.029  0.2012E-01  0.4986E+00
      0.075  0.7400E-02  0.4994E+00
      0.178  0.9692E-02  0.5004E+00
      0.281  0.1957E-01  0.5024E+00
      0.385  0.1627E-01  0.5041E+00
      0.488  0.1272E-01  0.5054E+00
      0.591  0.1539E-01  0.5070E+00
      0.695  0.2104E-01  0.5092E+00
      0.798  0.1885E-01  0.5111E+00
      0.902  0.2109E-01  0.5133E+00
      1.005  0.1731E-01  0.5151E+00
      1.108  0.9101E-02  0.5160E+00
      1.212  0.1129E-01  0.5172E+00
      1.315  0.9877E-02  0.5182E+00
      1.419  0.8267E-02  0.5191E+00
      1.522  0.8100E-02  0.5199E+00
      1.625  0.1904E-01  0.5219E+00
      1.729  0.2268E-01  0.5242E+00
      1.832  0.7034E-02  0.5249E+00
      1.935  0.6909E-02  0.5257E+00
      2.039  0.1057E-01  0.5267E+00
      2.142  0.1256E-01  0.5280E+00
      2.246  0.2595E-01  0.5307E+00
      2.349  0.3075E-01  0.5339E+00
      2.452  0.2461E-01  0.5364E+00
      2.556  0.2645E-01  0.5392E+00
      2.659  0.2309E-01  0.5416E+00
      2.763  0.1572E-01  0.5432E+00
      2.866  0.1795E-01  0.5451E+00
      2.969  0.2177E-01  0.5473E+00
      3.073  0.2545E-01  0.5499E+00
      3.176  0.3075E-01  0.5531E+00
      3.280  0.2828E-01  0.5560E+00
      3.383  0.1807E-01  0.5579E+00
      3.486  0.1515E-01  0.5595E+00
      3.590  0.2601E-01  0.5622E+00
      3.693  0.2413E-01  0.5647E+00
      3.796  0.1742E-01  0.5665E+00
      3.900  0.2744E-01  0.5693E+00
      4.003  0.3664E-01  0.5731E+00
      4.107  0.3099E-01  0.5763E+00
      4.210  0.2902E-01  0.5793E+00
      4.313  0.2821E-01  0.5822E+00
      4.417  0.3153E-01  0.5855E+00
      4.520  0.2649E-01  0.5882E+00
      4.624  0.2649E-01  0.5909E+00
      4.727  0.3118E-01  0.5942E+00
      4.830  0.3754E-01  0.5980E+00
      4.934  0.3809E-01  0.6020E+00
      5.037  0.3613E-01  0.6057E+00
      5.140  0.3258E-01  0.6091E+00
      5.244  0.2989E-01  0.6122E+00
      5.347  0.3091E-01  0.6154E+00
      5.451  0.4077E-01  0.6196E+00
      5.554  0.3739E-01  0.6235E+00
      5.657  0.2873E-01  0.6264E+00
      5.761  0.3214E-01  0.6297E+00
      5.864  0.4880E-01  0.6348E+00
      5.968  0.4473E-01  0.6394E+00
      6.071  0.5016E-01  0.6446E+00
      6.174  0.5688E-01  0.6505E+00
      6.278  0.5199E-01  0.6559E+00
      6.381  0.4874E-01  0.6609E+00
      6.485  0.3868E-01  0.6649E+00
      6.588  0.4065E-01  0.6691E+00
      6.691  0.5900E-01  0.6752E+00
      6.795  0.6253E-01  0.6817E+00
      6.898  0.5881E-01  0.6877E+00
      7.001  0.6737E-01  0.6947E+00
      7.105  0.6696E-01  0.7016E+00
      7.208  0.5929E-01  0.7078E+00
      7.312  0.6690E-01  0.7147E+00
      7.415  0.7460E-01  0.7224E+00
      7.518  0.5906E-01  0.7285E+00
      7.622  0.4766E-01  0.7334E+00
      7.725  0.5671E-01  0.7393E+00
      7.829  0.3983E-01  0.7434E+00
      7.932  0.2872E-01  0.7464E+00
      8.035  0.1958E-01  0.7484E+00
      8.139  0.6695E-02  0.7491E+00
      8.242  0.3841E-02  0.7495E+00
      8.346  0.3833E-02  0.7499E+00
      8.449  0.1081E-02  0.7500E+00
      8.552  0.5248E-04  0.7500E+00
      8.656  0.3647E-06  0.7500E+00
      8.759  0.3325E-09  0.7500E+00
      8.862  0.3812E-13  0.7500E+00
      8.966  0.6991E-18  0.7500E+00
      9.069  0.0000E+00  0.7500E+00
      9.173  0.0000E+00  0.7500E+00
      9.276  0.0000E+00  0.7500E+00
      9.379  0.0000E+00  0.7500E+00
      9.483  0.0000E+00  0.7500E+00
      9.586  0.0000E+00  0.7500E+00
      9.690  0.0000E+00  0.7500E+00
