  16  16   0  16
  0.2005463E+02  0.4970000E-09  0.4970000E-09  0.1500000E-08  0.5000000E-15
  1.000000000000000E-004
  CAR 
 Lattice                                 
      9.79983498    -21.14455460  301     -0.27923981      1.00000000
    -21.145  0.0000E+00  0.0000E+00  0.0000E+00  0.0000E+00
    -21.041  0.0000E+00  0.0000E+00  0.0000E+00  0.0000E+00
    -20.938  0.0000E+00  0.0000E+00  0.0000E+00  0.0000E+00
    -20.835  0.0000E+00  0.0000E+00  0.0000E+00  0.0000E+00
    -20.732  0.0000E+00  0.0000E+00  0.0000E+00  0.0000E+00
    -20.629  0.0000E+00  0.0000E+00  0.0000E+00  0.0000E+00
    -20.526  0.0000E+00  0.0000E+00  0.0000E+00  0.0000E+00
    -20.423  0.0000E+00  0.0000E+00  0.0000E+00  0.0000E+00
    -20.319  0.5840E-19  0.5840E-19  0.6023E-20  0.6023E-20
    -20.216  0.3896E-14  0.3897E-14  0.4019E-15  0.4019E-15
    -20.113  0.3630E-10  0.3630E-10  0.3744E-11  0.3744E-11
    -20.010  0.4729E-07  0.4729E-07  0.4882E-08  0.4882E-08
    -19.907  0.9346E-05  0.9346E-05  0.9689E-06  0.9689E-06
    -19.804  0.3088E-03  0.3088E-03  0.3282E-04  0.3282E-04
    -19.700  0.2072E-02  0.2072E-02  0.2465E-03  0.2465E-03
    -19.597  0.4293E-02  0.4293E-02  0.6893E-03  0.6893E-03
    -19.494  0.4747E-02  0.4747E-02  0.1179E-02  0.1179E-02
    -19.391  0.5096E-02  0.5096E-02  0.1705E-02  0.1705E-02
    -19.288  0.4426E-02  0.4426E-02  0.2161E-02  0.2161E-02
    -19.185  0.5562E-02  0.5562E-02  0.2735E-02  0.2735E-02
    -19.082  0.4352E-02  0.4352E-02  0.3184E-02  0.3184E-02
    -18.978  0.4639E-02  0.4639E-02  0.3662E-02  0.3662E-02
    -18.875  0.6124E-02  0.6124E-02  0.4294E-02  0.4294E-02
    -18.772  0.3863E-02  0.3863E-02  0.4692E-02  0.4692E-02
    -18.669  0.4360E-02  0.4360E-02  0.5142E-02  0.5142E-02
    -18.566  0.6350E-02  0.6350E-02  0.5797E-02  0.5797E-02
    -18.463  0.5177E-02  0.5177E-02  0.6331E-02  0.6331E-02
    -18.360  0.3032E-02  0.3032E-02  0.6644E-02  0.6644E-02
    -18.256  0.5170E-02  0.5170E-02  0.7177E-02  0.7177E-02
    -18.153  0.6935E-02  0.6935E-02  0.7892E-02  0.7892E-02
    -18.050  0.4554E-02  0.4554E-02  0.8362E-02  0.8362E-02
    -17.947  0.3756E-02  0.3756E-02  0.8750E-02  0.8750E-02
    -17.844  0.3623E-02  0.3623E-02  0.9123E-02  0.9123E-02
    -17.741  0.7364E-02  0.7364E-02  0.9883E-02  0.9883E-02
    -17.638  0.6237E-02  0.6237E-02  0.1053E-01  0.1053E-01
    -17.534  0.3338E-02  0.3338E-02  0.1087E-01  0.1087E-01
    -17.431  0.3752E-02  0.3752E-02  0.1126E-01  0.1126E-01
    -17.328  0.4617E-02  0.4617E-02  0.1173E-01  0.1173E-01
    -17.225  0.7050E-02  0.7050E-02  0.1246E-01  0.1246E-01
    -17.122  0.6464E-02  0.6464E-02  0.1313E-01  0.1313E-01
    -17.019  0.4370E-02  0.4370E-02  0.1358E-01  0.1358E-01
    -16.915  0.2291E-02  0.2291E-02  0.1381E-01  0.1381E-01
    -16.812  0.4655E-02  0.4655E-02  0.1430E-01  0.1430E-01
    -16.709  0.7213E-02  0.7213E-02  0.1504E-01  0.1504E-01
    -16.606  0.6414E-02  0.6414E-02  0.1570E-01  0.1570E-01
    -16.503  0.5274E-02  0.5274E-02  0.1624E-01  0.1624E-01
    -16.400  0.4467E-02  0.4467E-02  0.1671E-01  0.1671E-01
    -16.297  0.2642E-02  0.2642E-02  0.1698E-01  0.1698E-01
    -16.193  0.3773E-02  0.3773E-02  0.1737E-01  0.1737E-01
    -16.090  0.9148E-02  0.9148E-02  0.1831E-01  0.1831E-01
    -15.987  0.7542E-02  0.7542E-02  0.1909E-01  0.1909E-01
    -15.884  0.8612E-02  0.8612E-02  0.1998E-01  0.1998E-01
    -15.781  0.1001E-01  0.1001E-01  0.2101E-01  0.2101E-01
    -15.678  0.1054E-01  0.1054E-01  0.2210E-01  0.2210E-01
    -15.575  0.9822E-02  0.9822E-02  0.2311E-01  0.2311E-01
    -15.471  0.1313E-01  0.1313E-01  0.2447E-01  0.2447E-01
    -15.368  0.1649E-01  0.1649E-01  0.2617E-01  0.2617E-01
    -15.265  0.1327E-01  0.1327E-01  0.2754E-01  0.2754E-01
    -15.162  0.1282E-01  0.1282E-01  0.2886E-01  0.2886E-01
    -15.059  0.1392E-01  0.1392E-01  0.3029E-01  0.3029E-01
    -14.956  0.1050E-01  0.1050E-01  0.3138E-01  0.3138E-01
    -14.853  0.9511E-02  0.9511E-02  0.3236E-01  0.3236E-01
    -14.749  0.1041E-01  0.1041E-01  0.3343E-01  0.3343E-01
    -14.646  0.1085E-01  0.1085E-01  0.3455E-01  0.3455E-01
    -14.543  0.8463E-02  0.8463E-02  0.3542E-01  0.3542E-01
    -14.440  0.9464E-02  0.9464E-02  0.3640E-01  0.3640E-01
    -14.337  0.8001E-02  0.8001E-02  0.3723E-01  0.3723E-01
    -14.234  0.9508E-02  0.9508E-02  0.3821E-01  0.3821E-01
    -14.130  0.1528E-01  0.1528E-01  0.3978E-01  0.3978E-01
    -14.027  0.1270E-01  0.1270E-01  0.4109E-01  0.4109E-01
    -13.924  0.6580E-02  0.6580E-02  0.4177E-01  0.4177E-01
    -13.821  0.5276E-02  0.5276E-02  0.4232E-01  0.4232E-01
    -13.718  0.4120E-02  0.4120E-02  0.4274E-01  0.4274E-01
    -13.615  0.4228E-02  0.4228E-02  0.4318E-01  0.4318E-01
    -13.512  0.7615E-02  0.7615E-02  0.4396E-01  0.4396E-01
    -13.408  0.8986E-02  0.8986E-02  0.4489E-01  0.4489E-01
    -13.305  0.6778E-02  0.6778E-02  0.4559E-01  0.4559E-01
    -13.202  0.6052E-02  0.6052E-02  0.4621E-01  0.4621E-01
    -13.099  0.7595E-02  0.7595E-02  0.4700E-01  0.4700E-01
    -12.996  0.8267E-02  0.8267E-02  0.4785E-01  0.4785E-01
    -12.893  0.6121E-02  0.6121E-02  0.4848E-01  0.4848E-01
    -12.790  0.8263E-02  0.8263E-02  0.4933E-01  0.4933E-01
    -12.686  0.9068E-02  0.9068E-02  0.5027E-01  0.5027E-01
    -12.583  0.1057E-01  0.1057E-01  0.5136E-01  0.5136E-01
    -12.480  0.1435E-01  0.1435E-01  0.5284E-01  0.5284E-01
    -12.377  0.1130E-01  0.1130E-01  0.5400E-01  0.5400E-01
    -12.274  0.1377E-01  0.1377E-01  0.5542E-01  0.5542E-01
    -12.171  0.1284E-01  0.1284E-01  0.5675E-01  0.5675E-01
    -12.068  0.1281E-01  0.1281E-01  0.5807E-01  0.5807E-01
    -11.964  0.2016E-01  0.2016E-01  0.6015E-01  0.6015E-01
    -11.861  0.1689E-01  0.1689E-01  0.6189E-01  0.6189E-01
    -11.758  0.1146E-01  0.1146E-01  0.6307E-01  0.6307E-01
    -11.655  0.1066E-01  0.1066E-01  0.6417E-01  0.6417E-01
    -11.552  0.9420E-02  0.9420E-02  0.6514E-01  0.6514E-01
    -11.449  0.8005E-02  0.8005E-02  0.6597E-01  0.6597E-01
    -11.345  0.4811E-02  0.4811E-02  0.6647E-01  0.6647E-01
    -11.242  0.3330E-02  0.3330E-02  0.6681E-01  0.6681E-01
    -11.139  0.4980E-02  0.4980E-02  0.6732E-01  0.6732E-01
    -11.036  0.5353E-02  0.5353E-02  0.6788E-01  0.6788E-01
    -10.933  0.5858E-02  0.5858E-02  0.6848E-01  0.6848E-01
    -10.830  0.7538E-02  0.7538E-02  0.6926E-01  0.6926E-01
    -10.727  0.1004E-01  0.1004E-01  0.7029E-01  0.7029E-01
    -10.623  0.9054E-02  0.9054E-02  0.7123E-01  0.7123E-01
    -10.520  0.1380E-01  0.1380E-01  0.7265E-01  0.7265E-01
    -10.417  0.2057E-01  0.2057E-01  0.7477E-01  0.7477E-01
    -10.314  0.1485E-01  0.1485E-01  0.7630E-01  0.7630E-01
    -10.211  0.6959E-02  0.6959E-02  0.7702E-01  0.7702E-01
    -10.108  0.4321E-02  0.4321E-02  0.7747E-01  0.7747E-01
    -10.005  0.1111E-01  0.1111E-01  0.7861E-01  0.7861E-01
     -9.901  0.1726E-01  0.1726E-01  0.8039E-01  0.8039E-01
     -9.798  0.1011E-01  0.1011E-01  0.8144E-01  0.8144E-01
     -9.695  0.5209E-02  0.5209E-02  0.8197E-01  0.8197E-01
     -9.592  0.7406E-02  0.7406E-02  0.8274E-01  0.8274E-01
     -9.489  0.1476E-01  0.1476E-01  0.8426E-01  0.8426E-01
     -9.386  0.1792E-01  0.1792E-01  0.8611E-01  0.8611E-01
     -9.283  0.1612E-01  0.1612E-01  0.8777E-01  0.8777E-01
     -9.179  0.1896E-01  0.1896E-01  0.8973E-01  0.8973E-01
     -9.076  0.1399E-01  0.1399E-01  0.9117E-01  0.9117E-01
     -8.973  0.9505E-02  0.9505E-02  0.9215E-01  0.9215E-01
     -8.870  0.1562E-01  0.1562E-01  0.9376E-01  0.9376E-01
     -8.767  0.1983E-01  0.1983E-01  0.9581E-01  0.9581E-01
     -8.664  0.1264E-01  0.1264E-01  0.9711E-01  0.9711E-01
     -8.561  0.8251E-02  0.8251E-02  0.9796E-01  0.9796E-01
     -8.457  0.1452E-01  0.1452E-01  0.9946E-01  0.9946E-01
     -8.354  0.2100E-01  0.2100E-01  0.1016E+00  0.1016E+00
     -8.251  0.1561E-01  0.1561E-01  0.1032E+00  0.1032E+00
     -8.148  0.8352E-02  0.8352E-02  0.1041E+00  0.1041E+00
     -8.045  0.1492E-01  0.1492E-01  0.1056E+00  0.1056E+00
     -7.942  0.1326E-01  0.1326E-01  0.1070E+00  0.1070E+00
     -7.838  0.1670E-01  0.1670E-01  0.1087E+00  0.1087E+00
     -7.735  0.2664E-01  0.2664E-01  0.1115E+00  0.1115E+00
     -7.632  0.1874E-01  0.1874E-01  0.1134E+00  0.1134E+00
     -7.529  0.1341E-01  0.1341E-01  0.1148E+00  0.1148E+00
     -7.426  0.1437E-01  0.1437E-01  0.1163E+00  0.1163E+00
     -7.323  0.1929E-01  0.1929E-01  0.1183E+00  0.1183E+00
     -7.220  0.1971E-01  0.1971E-01  0.1203E+00  0.1203E+00
     -7.116  0.1555E-01  0.1555E-01  0.1219E+00  0.1219E+00
     -7.013  0.1491E-01  0.1491E-01  0.1234E+00  0.1234E+00
     -6.910  0.1813E-01  0.1813E-01  0.1253E+00  0.1253E+00
     -6.807  0.2343E-01  0.2343E-01  0.1277E+00  0.1277E+00
     -6.704  0.2557E-01  0.2557E-01  0.1304E+00  0.1304E+00
     -6.601  0.2883E-01  0.2883E-01  0.1333E+00  0.1333E+00
     -6.498  0.2783E-01  0.2783E-01  0.1362E+00  0.1362E+00
     -6.394  0.2677E-01  0.2677E-01  0.1390E+00  0.1390E+00
     -6.291  0.2513E-01  0.2513E-01  0.1416E+00  0.1416E+00
     -6.188  0.2097E-01  0.2097E-01  0.1437E+00  0.1437E+00
     -6.085  0.1647E-01  0.1647E-01  0.1454E+00  0.1454E+00
     -5.982  0.1624E-01  0.1624E-01  0.1471E+00  0.1471E+00
     -5.879  0.1472E-01  0.1472E-01  0.1486E+00  0.1486E+00
     -5.776  0.1654E-01  0.1654E-01  0.1503E+00  0.1503E+00
     -5.672  0.2053E-01  0.2053E-01  0.1524E+00  0.1524E+00
     -5.569  0.1307E-01  0.1307E-01  0.1538E+00  0.1538E+00
     -5.466  0.7144E-02  0.7144E-02  0.1545E+00  0.1545E+00
     -5.363  0.1385E-01  0.1385E-01  0.1560E+00  0.1560E+00
     -5.260  0.2036E-01  0.2036E-01  0.1581E+00  0.1581E+00
     -5.157  0.1702E-01  0.1702E-01  0.1598E+00  0.1598E+00
     -5.053  0.1124E-01  0.1124E-01  0.1610E+00  0.1610E+00
     -4.950  0.1482E-01  0.1482E-01  0.1625E+00  0.1625E+00
     -4.847  0.1826E-01  0.1826E-01  0.1644E+00  0.1644E+00
     -4.744  0.1260E-01  0.1260E-01  0.1657E+00  0.1657E+00
     -4.641  0.9713E-02  0.9713E-02  0.1667E+00  0.1667E+00
     -4.538  0.1278E-01  0.1278E-01  0.1680E+00  0.1680E+00
     -4.435  0.1969E-01  0.1969E-01  0.1700E+00  0.1700E+00
     -4.331  0.2001E-01  0.2001E-01  0.1721E+00  0.1721E+00
     -4.228  0.1805E-01  0.1805E-01  0.1740E+00  0.1740E+00
     -4.125  0.1807E-01  0.1807E-01  0.1758E+00  0.1758E+00
     -4.022  0.1953E-01  0.1953E-01  0.1778E+00  0.1778E+00
     -3.919  0.2313E-01  0.2313E-01  0.1802E+00  0.1802E+00
     -3.816  0.2501E-01  0.2501E-01  0.1828E+00  0.1828E+00
     -3.713  0.2775E-01  0.2775E-01  0.1857E+00  0.1857E+00
     -3.609  0.2812E-01  0.2812E-01  0.1886E+00  0.1886E+00
     -3.506  0.2209E-01  0.2209E-01  0.1908E+00  0.1908E+00
     -3.403  0.1494E-01  0.1494E-01  0.1924E+00  0.1924E+00
     -3.300  0.1283E-01  0.1283E-01  0.1937E+00  0.1937E+00
     -3.197  0.1276E-01  0.1276E-01  0.1950E+00  0.1950E+00
     -3.094  0.1074E-01  0.1074E-01  0.1961E+00  0.1961E+00
     -2.991  0.1370E-01  0.1370E-01  0.1975E+00  0.1975E+00
     -2.887  0.1578E-01  0.1578E-01  0.1992E+00  0.1992E+00
     -2.784  0.1125E-01  0.1125E-01  0.2003E+00  0.2003E+00
     -2.681  0.8679E-02  0.8679E-02  0.2012E+00  0.2012E+00
     -2.578  0.9736E-02  0.9735E-02  0.2022E+00  0.2022E+00
     -2.475  0.1741E-01  0.1741E-01  0.2040E+00  0.2040E+00
     -2.372  0.1675E-01  0.1675E-01  0.2058E+00  0.2058E+00
     -2.268  0.7452E-02  0.7452E-02  0.2065E+00  0.2065E+00
     -2.165  0.7831E-02  0.7830E-02  0.2073E+00  0.2073E+00
     -2.062  0.9628E-02  0.9628E-02  0.2083E+00  0.2083E+00
     -1.959  0.8073E-02  0.8074E-02  0.2092E+00  0.2092E+00
     -1.856  0.8262E-02  0.8262E-02  0.2100E+00  0.2100E+00
     -1.753  0.8542E-02  0.8542E-02  0.2109E+00  0.2109E+00
     -1.650  0.7732E-02  0.7732E-02  0.2117E+00  0.2117E+00
     -1.546  0.7615E-02  0.7615E-02  0.2125E+00  0.2125E+00
     -1.443  0.1012E-01  0.1012E-01  0.2135E+00  0.2135E+00
     -1.340  0.6335E-02  0.6335E-02  0.2142E+00  0.2142E+00
     -1.237  0.4914E-02  0.4914E-02  0.2147E+00  0.2147E+00
     -1.134  0.6717E-02  0.6717E-02  0.2154E+00  0.2154E+00
     -1.031  0.6722E-02  0.6722E-02  0.2161E+00  0.2161E+00
     -0.928  0.6912E-02  0.6912E-02  0.2168E+00  0.2168E+00
     -0.824  0.4899E-02  0.4899E-02  0.2173E+00  0.2173E+00
     -0.721  0.2169E-02  0.2169E-02  0.2175E+00  0.2175E+00
     -0.618  0.1141E-02  0.1141E-02  0.2176E+00  0.2176E+00
     -0.515  0.3298E-02  0.3298E-02  0.2180E+00  0.2180E+00
     -0.412  0.4018E-02  0.4018E-02  0.2184E+00  0.2184E+00
     -0.309  0.2843E-02  0.2843E-02  0.2187E+00  0.2187E+00
     -0.206  0.2671E-02  0.2671E-02  0.2189E+00  0.2189E+00
     -0.102  0.3342E-02  0.3342E-02  0.2193E+00  0.2193E+00
      0.001  0.3217E-02  0.3217E-02  0.2196E+00  0.2196E+00
      0.104  0.3002E-02  0.3002E-02  0.2199E+00  0.2199E+00
      0.207  0.6264E-02  0.6264E-02  0.2206E+00  0.2206E+00
      0.310  0.9645E-02  0.9645E-02  0.2216E+00  0.2216E+00
      0.413  0.1108E-01  0.1108E-01  0.2227E+00  0.2227E+00
      0.517  0.1051E-01  0.1051E-01  0.2238E+00  0.2238E+00
      0.620  0.6634E-02  0.6634E-02  0.2245E+00  0.2245E+00
      0.723  0.5285E-02  0.5285E-02  0.2250E+00  0.2250E+00
      0.826  0.1043E-01  0.1043E-01  0.2261E+00  0.2261E+00
      0.929  0.9294E-02  0.9294E-02  0.2271E+00  0.2271E+00
      1.032  0.4673E-02  0.4673E-02  0.2275E+00  0.2275E+00
      1.135  0.6519E-02  0.6519E-02  0.2282E+00  0.2282E+00
      1.239  0.1482E-01  0.1482E-01  0.2297E+00  0.2297E+00
      1.342  0.1769E-01  0.1769E-01  0.2316E+00  0.2316E+00
      1.445  0.1413E-01  0.1413E-01  0.2330E+00  0.2330E+00
      1.548  0.1155E-01  0.1155E-01  0.2342E+00  0.2342E+00
      1.651  0.7625E-02  0.7625E-02  0.2350E+00  0.2350E+00
      1.754  0.7343E-02  0.7343E-02  0.2358E+00  0.2358E+00
      1.857  0.1105E-01  0.1105E-01  0.2369E+00  0.2369E+00
      1.961  0.1035E-01  0.1035E-01  0.2380E+00  0.2380E+00
      2.064  0.1429E-01  0.1429E-01  0.2394E+00  0.2394E+00
      2.167  0.1086E-01  0.1086E-01  0.2406E+00  0.2406E+00
      2.270  0.9608E-02  0.9608E-02  0.2416E+00  0.2416E+00
      2.373  0.9608E-02  0.9608E-02  0.2425E+00  0.2425E+00
      2.476  0.5357E-02  0.5357E-02  0.2431E+00  0.2431E+00
      2.579  0.1089E-01  0.1089E-01  0.2442E+00  0.2442E+00
      2.683  0.1521E-01  0.1521E-01  0.2458E+00  0.2458E+00
      2.786  0.1315E-01  0.1315E-01  0.2472E+00  0.2472E+00
      2.889  0.1169E-01  0.1169E-01  0.2484E+00  0.2484E+00
      2.992  0.8780E-02  0.8784E-02  0.2493E+00  0.2493E+00
      3.095  0.9383E-02  0.9387E-02  0.2502E+00  0.2502E+00
      3.198  0.1746E-01  0.1747E-01  0.2520E+00  0.2520E+00
      3.302  0.2000E-01  0.2000E-01  0.2541E+00  0.2541E+00
      3.405  0.1809E-01  0.1808E-01  0.2560E+00  0.2560E+00
      3.508  0.1294E-01  0.1294E-01  0.2573E+00  0.2573E+00
      3.611  0.1831E-01  0.1832E-01  0.2592E+00  0.2592E+00
      3.714  0.2326E-01  0.2326E-01  0.2616E+00  0.2616E+00
      3.817  0.2001E-01  0.2002E-01  0.2636E+00  0.2636E+00
      3.920  0.1955E-01  0.1955E-01  0.2657E+00  0.2657E+00
      4.024  0.1758E-01  0.1758E-01  0.2675E+00  0.2675E+00
      4.127  0.1805E-01  0.1805E-01  0.2693E+00  0.2693E+00
      4.230  0.2174E-01  0.2174E-01  0.2716E+00  0.2716E+00
      4.333  0.2666E-01  0.2666E-01  0.2743E+00  0.2743E+00
      4.436  0.2298E-01  0.2298E-01  0.2767E+00  0.2767E+00
      4.539  0.1682E-01  0.1682E-01  0.2784E+00  0.2784E+00
      4.642  0.2415E-01  0.2416E-01  0.2809E+00  0.2809E+00
      4.746  0.3002E-01  0.3001E-01  0.2840E+00  0.2840E+00
      4.849  0.1867E-01  0.1869E-01  0.2859E+00  0.2860E+00
      4.952  0.2041E-01  0.2042E-01  0.2881E+00  0.2881E+00
      5.055  0.2782E-01  0.2782E-01  0.2909E+00  0.2909E+00
      5.158  0.3226E-01  0.3227E-01  0.2942E+00  0.2943E+00
      5.261  0.2952E-01  0.2953E-01  0.2973E+00  0.2973E+00
      5.364  0.2667E-01  0.2664E-01  0.3000E+00  0.3001E+00
      5.468  0.2096E-01  0.2097E-01  0.3022E+00  0.3022E+00
      5.571  0.2488E-01  0.2490E-01  0.3048E+00  0.3048E+00
      5.674  0.2925E-01  0.2921E-01  0.3078E+00  0.3078E+00
      5.777  0.2562E-01  0.2560E-01  0.3104E+00  0.3104E+00
      5.880  0.2218E-01  0.2219E-01  0.3127E+00  0.3127E+00
      5.983  0.1886E-01  0.1889E-01  0.3147E+00  0.3147E+00
      6.087  0.2291E-01  0.2294E-01  0.3170E+00  0.3170E+00
      6.190  0.2348E-01  0.2343E-01  0.3195E+00  0.3195E+00
      6.293  0.1795E-01  0.1793E-01  0.3213E+00  0.3213E+00
      6.396  0.1948E-01  0.1948E-01  0.3233E+00  0.3233E+00
      6.499  0.2165E-01  0.2167E-01  0.3255E+00  0.3256E+00
      6.602  0.2352E-01  0.2354E-01  0.3280E+00  0.3280E+00
      6.705  0.2670E-01  0.2669E-01  0.3307E+00  0.3307E+00
      6.809  0.3020E-01  0.3020E-01  0.3338E+00  0.3338E+00
      6.912  0.2898E-01  0.2898E-01  0.3368E+00  0.3368E+00
      7.015  0.2768E-01  0.2767E-01  0.3397E+00  0.3397E+00
      7.118  0.2558E-01  0.2560E-01  0.3423E+00  0.3423E+00
      7.221  0.2954E-01  0.2954E-01  0.3454E+00  0.3454E+00
      7.324  0.3245E-01  0.3245E-01  0.3487E+00  0.3487E+00
      7.427  0.3864E-01  0.3864E-01  0.3527E+00  0.3527E+00
      7.531  0.4117E-01  0.4115E-01  0.3569E+00  0.3570E+00
      7.634  0.3152E-01  0.3152E-01  0.3602E+00  0.3602E+00
      7.737  0.3030E-01  0.3031E-01  0.3633E+00  0.3633E+00
      7.840  0.3568E-01  0.3567E-01  0.3670E+00  0.3670E+00
      7.943  0.3184E-01  0.3183E-01  0.3703E+00  0.3703E+00
      8.046  0.2124E-01  0.2123E-01  0.3725E+00  0.3725E+00
      8.149  0.1604E-01  0.1604E-01  0.3741E+00  0.3741E+00
      8.253  0.7097E-02  0.7068E-02  0.3749E+00  0.3749E+00
      8.356  0.9038E-03  0.8974E-03  0.3750E+00  0.3750E+00
      8.459  0.2918E-03  0.2916E-03  0.3750E+00  0.3750E+00
      8.562  0.8849E-04  0.8833E-04  0.3750E+00  0.3750E+00
      8.665  0.4435E-05  0.4421E-05  0.3750E+00  0.3750E+00
      8.768  0.3158E-07  0.3142E-07  0.3750E+00  0.3750E+00
      8.872  0.2971E-10  0.2951E-10  0.3750E+00  0.3750E+00
      8.975  0.3549E-14  0.3519E-14  0.3750E+00  0.3750E+00
      9.078  0.5840E-19  0.5840E-19  0.3750E+00  0.3750E+00
      9.181  0.0000E+00  0.0000E+00  0.3750E+00  0.3750E+00
      9.284  0.0000E+00  0.0000E+00  0.3750E+00  0.3750E+00
      9.387  0.0000E+00  0.0000E+00  0.3750E+00  0.3750E+00
      9.490  0.0000E+00  0.0000E+00  0.3750E+00  0.3750E+00
      9.594  0.0000E+00  0.0000E+00  0.3750E+00  0.3750E+00
      9.697  0.0000E+00  0.0000E+00  0.3750E+00  0.3750E+00
      9.800  0.0000E+00  0.0000E+00  0.3750E+00  0.3750E+00
