Lattice                                 
           1
     4.304146    2.485000    0.000000
    -4.304146    2.485000    0.000000
     0.000000    0.000000   15.000000
   B    C 
     8     8
Direct configuration=     1
   0.66888689  0.00000000  0.10000000
   0.33111211  0.00000000  0.10000000
   0.00000000  0.33111211  0.10000000
   0.00000000  0.66888689  0.10000000
   0.33111211  0.33111211  0.10000000
   0.66888689  0.66888689  0.10000000
   0.66666600  0.33333300  0.09922189
   0.33333300  0.66666600  0.10077811
   0.24999933  0.24999967  0.46906667
   0.41666633  0.08333267  0.46906667
   0.24999933  0.74999967  0.46906667
   0.41666633  0.58333267  0.46906667
   0.74999933  0.24999967  0.46906667
   0.91666633  0.08333267  0.46906667
   0.74999933  0.74999967  0.46906667
   0.91666633  0.58333267  0.46906667
Direct configuration=     2
   0.67081444 -0.00000016  0.10002648
   0.32918462 -0.00000016  0.10002653
   0.00000016  0.32918456  0.10002648
   0.00000016  0.67081438  0.10002653
   0.32918440  0.32918429  0.10002655
   0.67081471  0.67081460  0.10002655
   0.66666606  0.33333294  0.09924203
   0.33333255  0.66666645  0.10081672
   0.24999506  0.24999481  0.46903971
   0.41666291  0.08333420  0.46903915
   0.24999893  0.75000007  0.46903876
   0.41666704  0.58333196  0.46903939
   0.75000227  0.24999673  0.46903953
   0.91666736  0.08333164  0.46904007
   0.75000419  0.75000394  0.46903971
   0.91666480  0.58333609  0.46903915
Direct configuration=     3
   0.66986016 -0.00000008  0.10001337
   0.33013888 -0.00000008  0.10001340
   0.00000008  0.33013884  0.10001337
   0.00000008  0.66986012  0.10001340
   0.33013876  0.33013871  0.10001340
   0.66986029  0.66986024  0.10001340
   0.66666603  0.33333297  0.09923206
   0.33333277  0.66666623  0.10079760
   0.24999717  0.24999721  0.46905305
   0.41666460  0.08333344  0.46905277
   0.24999913  0.74999987  0.46905258
   0.41666669  0.58333231  0.46905289
   0.75000082  0.24999818  0.46905296
   0.91666685  0.08333215  0.46905324
   0.75000179  0.75000183  0.46905305
   0.91666556  0.58333440  0.46905277
Direct configuration=     4
   0.66986600 -0.00000008  0.10001345
   0.33013303 -0.00000008  0.10001348
   0.00000008  0.33013300  0.10001345
   0.00000008  0.66986597  0.10001348
   0.33013291  0.33013286  0.10001349
   0.66986614  0.66986609  0.10001349
   0.66666603  0.33333297  0.09923212
   0.33333277  0.66666623  0.10079772
   0.24999716  0.24999720  0.46905297
   0.41666459  0.08333344  0.46905269
   0.24999913  0.74999987  0.46905249
   0.41666669  0.58333231  0.46905281
   0.75000083  0.24999817  0.46905288
   0.91666686  0.08333214  0.46905316
   0.75000180  0.75000184  0.46905297
   0.91666556  0.58333441  0.46905269
Direct configuration=     5
   0.66986364 -0.00000008  0.10001342
   0.33013540 -0.00000008  0.10001345
   0.00000008  0.33013536  0.10001342
   0.00000008  0.66986360  0.10001345
   0.33013528  0.33013523  0.10001345
   0.66986377  0.66986372  0.10001345
   0.66666603  0.33333297  0.09923209
   0.33333277  0.66666623  0.10079767
   0.24999717  0.24999720  0.46905301
   0.41666460  0.08333344  0.46905272
   0.24999913  0.74999987  0.46905253
   0.41666669  0.58333231  0.46905284
   0.75000082  0.24999818  0.46905291
   0.91666685  0.08333215  0.46905319
   0.75000180  0.75000183  0.46905301
   0.91666556  0.58333440  0.46905272
Direct configuration=     6
   0.66986190 -0.00000008  0.10001339
   0.33013714 -0.00000008  0.10001342
   0.00000008  0.33013710  0.10001339
   0.00000008  0.66986186  0.10001342
   0.33013702  0.33013697  0.10001343
   0.66986203  0.66986198  0.10001343
   0.66666603  0.33333297  0.09923208
   0.33333277  0.66666623  0.10079764
   0.24999717  0.24999721  0.46905303
   0.41666460  0.08333344  0.46905275
   0.24999913  0.74999987  0.46905255
   0.41666669  0.58333231  0.46905287
   0.75000082  0.24999818  0.46905294
   0.91666685  0.08333215  0.46905321
   0.75000179  0.75000183  0.46905303
   0.91666556  0.58333440  0.46905275
Direct configuration=     7
   0.66986103 -0.00000008  0.10001338
   0.33013801 -0.00000008  0.10001341
   0.00000008  0.33013797  0.10001338
   0.00000008  0.66986099  0.10001341
   0.33013789  0.33013784  0.10001342
   0.66986116  0.66986111  0.10001342
   0.66666603  0.33333297  0.09923207
   0.33333277  0.66666623  0.10079762
   0.24999717  0.24999721  0.46905304
   0.41666460  0.08333344  0.46905276
   0.24999913  0.74999987  0.46905256
   0.41666669  0.58333231  0.46905288
   0.75000082  0.24999818  0.46905295
   0.91666685  0.08333215  0.46905322
   0.75000179  0.75000183  0.46905304
   0.91666556  0.58333440  0.46905276
Direct configuration=     8
   0.66986110 -0.00000009  0.10003747
   0.33013808 -0.00000004  0.10003755
   0.00000009  0.33013790  0.10003747
   0.00000004  0.66986092  0.10003755
   0.33013799  0.33013792  0.10003756
   0.66986108  0.66986101  0.10003756
   0.66666602  0.33333298  0.09925348
   0.33333275  0.66666625  0.10082867
   0.24999991  0.25000119  0.46902858
   0.41666750  0.08333193  0.46902791
   0.24999904  0.74999996  0.46902746
   0.41666651  0.58333249  0.46902820
   0.74999821  0.25000079  0.46902837
   0.91666648  0.08333252  0.46902900
   0.74999781  0.74999909  0.46902858
   0.91666707  0.58333150  0.46902791
Direct configuration=     9
   0.66986134 -0.00000013  0.10010974
   0.33013829  0.00000008  0.10010996
   0.00000013  0.33013766  0.10010974
  -0.00000008  0.66986071  0.10010996
   0.33013827  0.33013817  0.10011001
   0.66986083  0.66986073  0.10011001
   0.66666596  0.33333304  0.09931773
   0.33333268  0.66666632  0.10092181
   0.25000811  0.25001314  0.46895520
   0.41667621  0.08332740  0.46895337
   0.24999876  0.75000024  0.46895213
   0.41666598  0.58333302  0.46895415
   0.74999038  0.25000862  0.46895462
   0.91666535  0.08333365  0.46895635
   0.74998586  0.74999089  0.46895520
   0.91667160  0.58332279  0.46895337
Direct configuration=    10
   0.66986180 -0.00000020  0.10025428
   0.33013872  0.00000033  0.10025479
   0.00000020  0.33013720  0.10025428
  -0.00000033  0.66986028  0.10025479
   0.33013883  0.33013866  0.10025490
   0.66986034  0.66986017  0.10025490
   0.66666586  0.33333314  0.09944623
   0.33333255  0.66666645  0.10110810
   0.25002453  0.25003704  0.46880843
   0.41669361  0.08331833  0.46880428
   0.24999821  0.75000079  0.46880147
   0.41666490  0.58333410  0.46880605
   0.74997473  0.25002427  0.46880711
   0.91666308  0.08333592  0.46881103
   0.74996196  0.74997447  0.46880843
   0.91668067  0.58330539  0.46880428
Direct configuration=    11
   0.66986273 -0.00000033  0.10054335
   0.33013957  0.00000082  0.10054444
   0.00000033  0.33013627  0.10054335
  -0.00000082  0.66985943  0.10054444
   0.33013995  0.33013964  0.10054468
   0.66985936  0.66985905  0.10054468
   0.66666566  0.33333334  0.09970322
   0.33333229  0.66666671  0.10148067
   0.25005735  0.25008483  0.46851489
   0.41672843  0.08330020  0.46850610
   0.24999710  0.75000190  0.46850016
   0.41666276  0.58333624  0.46850985
   0.74994342  0.25005558  0.46851211
   0.91665856  0.08334044  0.46852040
   0.74991417  0.74994165  0.46851489
   0.91669880  0.58327057  0.46850610
Direct configuration=    12
   0.66986458 -0.00000061  0.10112149
   0.33014128  0.00000181  0.10112375
   0.00000061  0.33013442  0.10112149
  -0.00000181  0.66985772  0.10112375
   0.33014220  0.33014160  0.10112425
   0.66985740  0.66985680  0.10112425
   0.66666525  0.33333375  0.10021721
   0.33333176  0.66666724  0.10222581
   0.25012301  0.25018041  0.46792782
   0.41679806  0.08326394  0.46790974
   0.24999488  0.75000412  0.46789753
   0.41665848  0.58334052  0.46791745
   0.74988081  0.25011819  0.46792210
   0.91664951  0.08334949  0.46793914
   0.74981859  0.74987599  0.46792782
   0.91673506  0.58320094  0.46790974
Direct configuration=    13
   0.66986829 -0.00000116  0.10227778
   0.33014469  0.00000379  0.10228237
   0.00000116  0.33013071  0.10227778
  -0.00000379  0.66985431  0.10228237
   0.33014669  0.33014553  0.10228337
   0.66985347  0.66985231  0.10228337
   0.66666443  0.33333457  0.10124519
   0.33333071  0.66666829  0.10371609
   0.25025431  0.25037157  0.46675368
   0.41693732  0.08319142  0.46671701
   0.24999045  0.75000855  0.46669228
   0.41664991  0.58334909  0.46673266
   0.74975559  0.25024341  0.46674208
   0.91663142  0.08336758  0.46677661
   0.74962743  0.74974469  0.46675368
   0.91680758  0.58306168  0.46671701
Direct configuration=    14
   0.66987572 -0.00000226  0.10459036
   0.33015152  0.00000774  0.10459961
   0.00000226  0.33012328  0.10459036
  -0.00000774  0.66984748  0.10459961
   0.33015567  0.33015338  0.10460162
   0.66984562  0.66984333  0.10460162
   0.66666279  0.33333621  0.10330115
   0.33332860  0.66667040  0.10669664
   0.25051692  0.25075388  0.46440539
   0.41721584  0.08304638  0.46433157
   0.24998159  0.75001741  0.46428177
   0.41663277  0.58336623  0.46436307
   0.74950515  0.25049385  0.46438204
   0.91659522  0.08340378  0.46445156
   0.74924512  0.74948208  0.46440539
   0.91695262  0.58278316  0.46433157
Direct configuration=    15
   0.66989056 -0.00000446  0.10921552
   0.33016518  0.00001565  0.10923409
   0.00000446  0.33010844  0.10921552
  -0.00001565  0.66983382  0.10923409
   0.33017363  0.33016909  0.10923813
   0.66982991  0.66982537  0.10923813
   0.66665951  0.33333949  0.10741307
   0.33332439  0.66667461  0.11265776
   0.25104214  0.25151852  0.45970881
   0.41777288  0.08275630  0.45956068
   0.24996387  0.75003513  0.45946076
   0.41659850  0.58340050  0.45962388
   0.74900426  0.25099474  0.45966197
   0.91652284  0.08347616  0.45980146
   0.74848048  0.74895686  0.45970881
   0.91724270  0.58222612  0.45956068
Direct configuration=    16
   0.66989056 -0.00000446  0.10921666
   0.33016518  0.00001564  0.10923524
   0.00000446  0.33010844  0.10921666
  -0.00001564  0.66983382  0.10923524
   0.33017364  0.33016910  0.10923928
   0.66982990  0.66982536  0.10923928
   0.66665951  0.33333949  0.10741409
   0.33332439  0.66667461  0.11265924
   0.25104218  0.25151856  0.45970764
   0.41777290  0.08275629  0.45955949
   0.24996388  0.75003512  0.45945956
   0.41659848  0.58340052  0.45962271
   0.74900424  0.25099476  0.45966080
   0.91652282  0.08347618  0.45980030
   0.74848044  0.74895682  0.45970764
   0.91724271  0.58222610  0.45955949
Direct configuration=    17
   0.66989056 -0.00000447  0.10922011
   0.33016519  0.00001564  0.10923869
   0.00000447  0.33010844  0.10922011
  -0.00001564  0.66983381  0.10923869
   0.33017365  0.33016911  0.10924273
   0.66982989  0.66982535  0.10924273
   0.66665951  0.33333949  0.10741715
   0.33332439  0.66667461  0.11266367
   0.25104229  0.25151866  0.45970415
   0.41777296  0.08275627  0.45955595
   0.24996391  0.75003509  0.45945598
   0.41659845  0.58340055  0.45961918
   0.74900419  0.25099481  0.45965729
   0.91652278  0.08347622  0.45979683
   0.74848034  0.74895671  0.45970415
   0.91724273  0.58222604  0.45955595
Direct configuration=    18
   0.66989056 -0.00000449  0.10922699
   0.33016521  0.00001564  0.10924559
   0.00000449  0.33010844  0.10922699
  -0.00001564  0.66983379  0.10924559
   0.33017367  0.33016914  0.10924963
   0.66982986  0.66982533  0.10924963
   0.66665950  0.33333950  0.10742326
   0.33332438  0.66667462  0.11267254
   0.25104253  0.25151885  0.45969715
   0.41777307  0.08275622  0.45954885
   0.24996396  0.75003504  0.45944882
   0.41659837  0.58340063  0.45961213
   0.74900409  0.25099491  0.45965026
   0.91652269  0.08347631  0.45978990
   0.74848015  0.74895647  0.45969715
   0.91724278  0.58222593  0.45954885
Direct configuration=    19
   0.66989056 -0.00000452  0.10924077
   0.33016525  0.00001563  0.10925939
   0.00000452  0.33010844  0.10924077
  -0.00001563  0.66983375  0.10925939
   0.33017372  0.33016920  0.10926344
   0.66982980  0.66982528  0.10926344
   0.66665950  0.33333950  0.10743547
   0.33332437  0.66667463  0.11269026
   0.25104299  0.25151925  0.45968316
   0.41777330  0.08275613  0.45953466
   0.24996407  0.75003493  0.45943450
   0.41659821  0.58340079  0.45959802
   0.74900387  0.25099513  0.45963621
   0.91652251  0.08347649  0.45977604
   0.74847975  0.74895601  0.45968316
   0.91724287  0.58222570  0.45953466
Direct configuration=    20
   0.66989056 -0.00000458  0.10926831
   0.33016532  0.00001560  0.10928699
   0.00000458  0.33010844  0.10926831
  -0.00001560  0.66983368  0.10928699
   0.33017381  0.33016933  0.10929105
   0.66982967  0.66982519  0.10929105
   0.66665950  0.33333950  0.10745991
   0.33332435  0.66667465  0.11272572
   0.25104392  0.25152004  0.45965518
   0.41777376  0.08275595  0.45950629
   0.24996429  0.75003471  0.45940585
   0.41659789  0.58340111  0.45956981
   0.74900345  0.25099555  0.45960810
   0.91652214  0.08347686  0.45974830
   0.74847896  0.74895508  0.45965518
   0.91724305  0.58222524  0.45950629
Direct configuration=    21
   0.66989056 -0.00000471  0.10932340
   0.33016547  0.00001556  0.10934218
   0.00000471  0.33010844  0.10932340
  -0.00001556  0.66983353  0.10934218
   0.33017400  0.33016957  0.10934627
   0.66982943  0.66982500  0.10934627
   0.66665949  0.33333951  0.10750879
   0.33332430  0.66667470  0.11279663
   0.25104577  0.25152162  0.45959923
   0.41777469  0.08275559  0.45944953
   0.24996472  0.75003428  0.45934857
   0.41659726  0.58340174  0.45951339
   0.74900260  0.25099640  0.45955189
   0.91652142  0.08347758  0.45969284
   0.74847738  0.74895323  0.45959923
   0.91724341  0.58222431  0.45944953
Direct configuration=    22
   0.66989057 -0.00000496  0.10943358
   0.33016576  0.00001547  0.10945258
   0.00000496  0.33010843  0.10943358
  -0.00001547  0.66983324  0.10945258
   0.33017438  0.33017006  0.10945671
   0.66982894  0.66982462  0.10945671
   0.66665948  0.33333952  0.10760654
   0.33332421  0.66667479  0.11293845
   0.25104949  0.25152478  0.45948731
   0.41777654  0.08275487  0.45933602
   0.24996559  0.75003341  0.45923399
   0.41659600  0.58340300  0.45940055
   0.74900091  0.25099809  0.45943947
   0.91651997  0.08347903  0.45958192
   0.74847422  0.74894951  0.45948731
   0.91724413  0.58222246  0.45933602
Direct configuration=    23
   0.66989057 -0.00000546  0.10965394
   0.33016635  0.00001529  0.10967338
   0.00000546  0.33010843  0.10965394
  -0.00001529  0.66983265  0.10967338
   0.33017513  0.33017103  0.10967760
   0.66982797  0.66982387  0.10967760
   0.66665945  0.33333955  0.10780205
   0.33332402  0.66667498  0.11322210
   0.25105691  0.25153111  0.45926348
   0.41778023  0.08275342  0.45910900
   0.24996733  0.75003167  0.45900484
   0.41659347  0.58340553  0.45917486
   0.74899752  0.25100148  0.45921463
   0.91651708  0.08348192  0.45936007
   0.74846789  0.74894209  0.45926348
   0.91724558  0.58221877  0.45910900
Direct configuration=    24
   0.66989059 -0.00000646  0.11009465
   0.33016752  0.00001494  0.11011497
   0.00000646  0.33010841  0.11009465
  -0.00001494  0.66983148  0.11011497
   0.33017664  0.33017298  0.11011937
   0.66982602  0.66982236  0.11011937
   0.66665940  0.33333960  0.10819307
   0.33332365  0.66667535  0.11378940
   0.25107176  0.25154377  0.45881581
   0.41778762  0.08275053  0.45865497
   0.24997080  0.75002820  0.45854653
   0.41658842  0.58341058  0.45872350
   0.74899074  0.25100826  0.45876494
   0.91651129  0.08348771  0.45891637
   0.74845523  0.74892724  0.45881581
   0.91724847  0.58221138  0.45865497
Direct configuration=    25
   0.66989062 -0.00000846  0.11097608
   0.33016987  0.00001423  0.11099814
   0.00000846  0.33010838  0.11097608
  -0.00001423  0.66982913  0.11099814
   0.33017965  0.33017687  0.11100292
   0.66982213  0.66981935  0.11100292
   0.66665929  0.33333971  0.10897510
   0.33332290  0.66667610  0.11492399
   0.25110145  0.25156907  0.45792048
   0.41780241  0.08274476  0.45774689
   0.24997775  0.75002125  0.45762993
   0.41657832  0.58342068  0.45782076
   0.74897717  0.25102183  0.45786556
   0.91649971  0.08349929  0.45802897
   0.74842993  0.74889755  0.45792048
   0.91725424  0.58219659  0.45774689
Direct configuration=    26
   0.66989067 -0.00001247  0.11273894
   0.33017456  0.00001281  0.11276450
   0.00001247  0.33010833  0.11273894
  -0.00001281  0.66982444  0.11276450
   0.33018567  0.33018466  0.11277001
   0.66981434  0.66981333  0.11277001
   0.66665907  0.33333993  0.11053917
   0.33332141  0.66667759  0.11719317
   0.25116084  0.25161969  0.45612981
   0.41783198  0.08273320  0.45593075
   0.24999164  0.75000736  0.45579671
   0.41655812  0.58344088  0.45601528
   0.74895005  0.25104895  0.45606682
   0.91647655  0.08352245  0.45625417
   0.74837931  0.74883816  0.45612981
   0.91726580  0.58216702  0.45593075
Direct configuration=    27
   0.66989078 -0.00002048  0.11626467
   0.33018395  0.00000998  0.11629721
   0.00002048  0.33010822  0.11626467
  -0.00000998  0.66981505  0.11629721
   0.33019772  0.33020023  0.11630420
   0.66979877  0.66980128  0.11630420
   0.66665863  0.33334037  0.11366730
   0.33331842  0.66668058  0.12173154
   0.25127962  0.25172092  0.45254848
   0.41789111  0.08271009  0.45229845
   0.25001942  0.74997958  0.45213027
   0.41651772  0.58348128  0.45240433
   0.74889580  0.25110320  0.45246932
   0.91643023  0.08356877  0.45270458
   0.74827808  0.74871938  0.45254848
   0.91728891  0.58210789  0.45229845
Direct configuration=    28
   0.66989099 -0.00003651  0.12331611
   0.33020272  0.00000430  0.12336263
   0.00003651  0.33010801  0.12331611
  -0.00000430  0.66979628  0.12336263
   0.33022182  0.33023137  0.12337257
   0.66976763  0.66977718  0.12337257
   0.66665776  0.33334124  0.11992356
   0.33331244  0.66668656  0.13080827
   0.25151718  0.25192338  0.44538581
   0.41800939  0.08266387  0.44503386
   0.25007499  0.74992401  0.44479740
   0.41643691  0.58356209  0.44518242
   0.74878730  0.25121170  0.44527432
   0.91633759  0.08366141  0.44560539
   0.74807562  0.74848182  0.44538581
   0.91733513  0.58198961  0.44503386
Direct configuration=    29
   0.66989142 -0.00006857  0.13741900
   0.33024026 -0.00000704  0.13749347
   0.00006857  0.33010758  0.13741900
   0.00000704  0.66975874  0.13749347
   0.33027001  0.33029367  0.13750931
   0.66970533  0.66972899  0.13750931
   0.66665601  0.33334299  0.13243609
   0.33330048  0.66669852  0.14896173
   0.25199229  0.25232829  0.43106048
   0.41824593  0.08257144  0.43050469
   0.25018613  0.74981287  0.43013166
   0.41627530  0.58372370  0.43073860
   0.74857029  0.25142871  0.43088433
   0.91615231  0.08384669  0.43140701
   0.74767071  0.74800671  0.43106048
   0.91742756  0.58175307  0.43050469
Direct configuration=    30
   0.66989229 -0.00013268  0.16562478
   0.33031535 -0.00002973  0.16575516
   0.00013268  0.33010671  0.16562478
   0.00002973  0.66968365  0.16575516
   0.33036640  0.33041825  0.16578280
   0.66958075  0.66963260  0.16578280
   0.66665252  0.33334648  0.15746114
   0.33327657  0.66672243  0.18526865
   0.25294252  0.25313813  0.40240983
   0.41871903  0.08238657  0.40144634
   0.25040841  0.74959059  0.40080018
   0.41595207  0.58404693  0.40185098
   0.74813629  0.25186271  0.40210436
   0.91578175  0.08421725  0.40301025
   0.74686087  0.74705648  0.40240983
   0.91761243  0.58127997  0.40144634
Direct configuration=    31
   0.66989200 -0.00011150  0.15630938
   0.33029055 -0.00002224  0.15642129
   0.00011150  0.33010700  0.15630938
   0.00002224  0.66970845  0.15642129
   0.33033457  0.33037710  0.15644503
   0.66962190  0.66966443  0.15644503
   0.66665368  0.33334532  0.14919622
   0.33328447  0.66671453  0.17327772
   0.25262869  0.25287067  0.41187216
   0.41856278  0.08244762  0.41104331
   0.25033500  0.74966400  0.41048736
   0.41605882  0.58394018  0.41139157
   0.74827963  0.25171937  0.41160940
   0.91590413  0.08409487  0.41238873
   0.74712833  0.74737031  0.41187216
   0.91755138  0.58143622  0.41104331
Direct configuration=    32
   0.66989218 -0.00012480  0.16215981
   0.33030612 -0.00002695  0.16228332
   0.00012480  0.33010682  0.16215981
   0.00002695  0.66969288  0.16228332
   0.33035456  0.33040294  0.16230951
   0.66959606  0.66964444  0.16230951
   0.66665295  0.33334605  0.15438691
   0.33327951  0.66671949  0.18080848
   0.25282579  0.25303864  0.40592945
   0.41866091  0.08240928  0.40501604
   0.25038111  0.74961789  0.40440344
   0.41599178  0.58400722  0.40539971
   0.74818961  0.25180939  0.40563987
   0.91582727  0.08417173  0.40649868
   0.74696036  0.74717321  0.40592945
   0.91758972  0.58133809  0.40501604
Direct configuration=    33
   0.66989221 -0.00012712  0.16317763
   0.33030883 -0.00002776  0.16330316
   0.00012712  0.33010679  0.16317763
   0.00002776  0.66969017  0.16330316
   0.33035804  0.33040744  0.16332978
   0.66959156  0.66964096  0.16332978
   0.66665283  0.33334617  0.15528996
   0.33327864  0.66672036  0.18211864
   0.25286008  0.25306787  0.40489557
   0.41867798  0.08240261  0.40396745
   0.25038913  0.74960987  0.40334499
   0.41598012  0.58401888  0.40435728
   0.74817395  0.25182505  0.40460132
   0.91581390  0.08418510  0.40547397
   0.74693113  0.74713892  0.40489557
   0.91759639  0.58132102  0.40396745
Direct configuration=    34
   0.66970556 -0.00026016  0.16815354
   0.33038305 -0.00014672  0.16828775
   0.00026016  0.33029344  0.16815354
   0.00014672  0.66961595  0.16828775
   0.33042712  0.33057943  0.16831327
   0.66941957  0.66957188  0.16831327
   0.66664847  0.33335053  0.15967456
   0.33326923  0.66672977  0.18846568
   0.25250568  0.25260372  0.39984205
   0.41833591  0.08257528  0.39886635
   0.25036768  0.74963132  0.39821095
   0.41602995  0.58396905  0.39927731
   0.74846938  0.25152962  0.39953254
   0.91587218  0.08412682  0.40044640
   0.74739528  0.74749332  0.39984205
   0.91742372  0.58166309  0.39886635
Direct configuration=    35
   0.66975971 -0.00022156  0.16670987
   0.33036152 -0.00011220  0.16684156
   0.00022156  0.33023929  0.16670987
   0.00011220  0.66963748  0.16684156
   0.33040708  0.33052953  0.16686741
   0.66946947  0.66959192  0.16686741
   0.66664973  0.33334927  0.15840245
   0.33327196  0.66672704  0.18662421
   0.25260850  0.25273838  0.40130823
   0.41843516  0.08252518  0.40034633
   0.25037390  0.74962510  0.39970049
   0.41601550  0.58398350  0.40075117
   0.74838366  0.25161534  0.40100315
   0.91585527  0.08414373  0.40190505
   0.74726062  0.74739050  0.40130823
   0.91747382  0.58156384  0.40034633
Direct configuration=    36
   0.66959776 -0.00032813  0.16632683
   0.33041677 -0.00020924  0.16645639
   0.00032813  0.33040124  0.16632683
   0.00020924  0.66958223  0.16645639
   0.33045134  0.33065430  0.16647818
   0.66934470  0.66954766  0.16647818
   0.66664373  0.33335527  0.15803646
   0.33326529  0.66673371  0.18607391
   0.25218663  0.25226635  0.40169888
   0.41811230  0.08268529  0.40076476
   0.25031620  0.74968280  0.40013640
   0.41611138  0.58388762  0.40116012
   0.74866656  0.25133244  0.40140218
   0.91596329  0.08403571  0.40227420
   0.74773265  0.74781237  0.40169888
   0.91731371  0.58188670  0.40076476
Direct configuration=    37
   0.66911188 -0.00064781  0.16517768
   0.33058252 -0.00050035  0.16530088
   0.00064781  0.33088712  0.16517768
   0.00050035  0.66941648  0.16530088
   0.33058410  0.33102859  0.16531049
   0.66897041  0.66941490  0.16531049
   0.66662572  0.33337328  0.15693851
   0.33324527  0.66675373  0.18442300
   0.25092100  0.25085027  0.40287080
   0.41714372  0.08316559  0.40202004
   0.25014309  0.74985591  0.40144412
   0.41639905  0.58359995  0.40238697
   0.74951523  0.25048377  0.40259928
   0.91628736  0.08371164  0.40338164
   0.74914873  0.74907800  0.40287080
   0.91683341  0.58285528  0.40202004
Direct configuration=    38
   0.66814014 -0.00128719  0.16287940
   0.33091402 -0.00108257  0.16298986
   0.00128719  0.33185886  0.16287940
   0.00108257  0.66908498  0.16298986
   0.33084964  0.33177716  0.16297512
   0.66822184  0.66914936  0.16297512
   0.66658972  0.33340928  0.15474260
   0.33320522  0.66679378  0.18112119
   0.24838974  0.24801810  0.40521466
   0.41520656  0.08412621  0.40453060
   0.24979688  0.75020212  0.40405957
   0.41697439  0.58302461  0.40484068
   0.75121258  0.24878642  0.40499347
   0.91693549  0.08306351  0.40559652
   0.75198090  0.75160926  0.40521466
   0.91587279  0.58479244  0.40453060
Direct configuration=    39
   0.66878001 -0.00086618  0.16439276
   0.33069574 -0.00069920  0.16451161
   0.00086618  0.33121899  0.16439276
   0.00069920  0.66930326  0.16451161
   0.33067479  0.33128424  0.16451290
   0.66871476  0.66932421  0.16451290
   0.66661343  0.33338557  0.15618855
   0.33323159  0.66676741  0.18329535
   0.25005651  0.24988301  0.40367129
   0.41648213  0.08349367  0.40287746
   0.25002485  0.74997415  0.40233736
   0.41659554  0.58340346  0.40322498
   0.75009492  0.24990408  0.40341696
   0.91650871  0.08349029  0.40413808
   0.75011599  0.74994249  0.40367129
   0.91650533  0.58351687  0.40287746
Direct configuration=    40
   0.66865461 -0.00090557  0.16438518
   0.33077971 -0.00074034  0.16450206
   0.00090557  0.33134439  0.16438518
   0.00074034  0.66921929  0.16450206
   0.33074611  0.33137724  0.16449602
   0.66862176  0.66925289  0.16449602
   0.66660908  0.33338992  0.15612913
   0.33322831  0.66677069  0.18319208
   0.24997769  0.24991006  0.40368043
   0.41652922  0.08346162  0.40292770
   0.24997900  0.75002000  0.40241547
   0.41664204  0.58335696  0.40326045
   0.75004863  0.24995037  0.40343668
   0.91657128  0.08342772  0.40411674
   0.75008894  0.75002131  0.40368043
   0.91653738  0.58346978  0.40292770
Direct configuration=    41
   0.66827840 -0.00102373  0.16436243
   0.33103162 -0.00086379  0.16447342
   0.00102373  0.33172060  0.16436243
   0.00086379  0.66896738  0.16447342
   0.33096005  0.33165622  0.16444537
   0.66834278  0.66903895  0.16444537
   0.66659603  0.33340297  0.15595086
   0.33321849  0.66678051  0.18288225
   0.24974124  0.24999119  0.40370786
   0.41667049  0.08336547  0.40307841
   0.24984144  0.75015756  0.40264979
   0.41678152  0.58321748  0.40336687
   0.74990978  0.25008922  0.40349584
   0.91675900  0.08324000  0.40405274
   0.75000781  0.75025776  0.40370786
   0.91663353  0.58332851  0.40307841
Direct configuration=    42
   0.66814377 -0.00106601  0.16435429
   0.33112176 -0.00090796  0.16446318
   0.00106601  0.33185523  0.16435429
   0.00090796  0.66887724  0.16446318
   0.33103661  0.33175606  0.16442724
   0.66824294  0.66896239  0.16442724
   0.66659136  0.33340764  0.15588707
   0.33321497  0.66678403  0.18277138
   0.24965662  0.25002023  0.40371767
   0.41672104  0.08333106  0.40313234
   0.24979222  0.75020678  0.40273365
   0.41683143  0.58316757  0.40340495
   0.74986009  0.25013891  0.40351702
   0.91682617  0.08317283  0.40402983
   0.74997877  0.75034238  0.40371767
   0.91666794  0.58327796  0.40313234
Direct configuration=    43
   0.66803412 -0.00106155  0.16437253
   0.33123896 -0.00091317  0.16447690
   0.00106155  0.33196488  0.16437253
   0.00091317  0.66876004  0.16447690
   0.33113171  0.33182583  0.16442172
   0.66817317  0.66886729  0.16442172
   0.66658350  0.33341550  0.15576846
   0.33321562  0.66678338  0.18257086
   0.24975138  0.25003211  0.40370524
   0.41670590  0.08336342  0.40321453
   0.24984040  0.75015860  0.40287973
   0.41676936  0.58322964  0.40345316
   0.74987515  0.25012385  0.40353022
   0.91676320  0.08323580  0.40394910
   0.74996689  0.75024762  0.40370524
   0.91663558  0.58329310  0.40321453
Direct configuration=    44
   0.66770517 -0.00104818  0.16442724
   0.33159056 -0.00092877  0.16451807
   0.00104818  0.33229383  0.16442724
   0.00092877  0.66840844  0.16451807
   0.33141700  0.33203514  0.16440515
   0.66796386  0.66858200  0.16440515
   0.66655994  0.33343906  0.15541262
   0.33321755  0.66678145  0.18196928
   0.25003566  0.25006774  0.40366794
   0.41666048  0.08346052  0.40346109
   0.24998496  0.75001404  0.40331797
   0.41658315  0.58341585  0.40359778
   0.74992035  0.25007865  0.40356983
   0.91657428  0.08342472  0.40370689
   0.74993126  0.74996334  0.40366794
   0.91653848  0.58333852  0.40346109
Direct configuration=    45
   0.66759959 -0.00104388  0.16444480
   0.33170342 -0.00093378  0.16453128
   0.00104388  0.33239941  0.16444480
   0.00093378  0.66829558  0.16453128
   0.33150857  0.33210232  0.16439983
   0.66789668  0.66849043  0.16439983
   0.66655238  0.33344662  0.15529840
   0.33321818  0.66678082  0.18177619
   0.25012690  0.25007917  0.40365596
   0.41664590  0.08349168  0.40354023
   0.25003136  0.74996764  0.40345863
   0.41652338  0.58347562  0.40364420
   0.74993486  0.25006414  0.40358254
   0.91651364  0.08348536  0.40362915
   0.74991983  0.74987210  0.40365596
   0.91650732  0.58335310  0.40354023
Direct configuration=    46
   0.66788278 -0.00086996  0.16451075
   0.33163031 -0.00077985  0.16458852
   0.00086996  0.33211622  0.16451075
   0.00077985  0.66836869  0.16458852
   0.33142556  0.33185630  0.16441228
   0.66814270  0.66857344  0.16441228
   0.66654714  0.33345186  0.15505519
   0.33324235  0.66675665  0.18140168
   0.25007569  0.25009185  0.40362285
   0.41662259  0.08346346  0.40366254
   0.24997269  0.75002631  0.40368637
   0.41656051  0.58343849  0.40371375
   0.74993570  0.25006330  0.40359469
   0.91652914  0.08346986  0.40348778
   0.74990715  0.74992331  0.40362285
   0.91653554  0.58337641  0.40366254
Direct configuration=    47
   0.66863670 -0.00040695  0.16468632
   0.33143570 -0.00037004  0.16474090
   0.00040695  0.33136230  0.16468632
   0.00037004  0.66856330  0.16474090
   0.33120456  0.33120134  0.16444541
   0.66879766  0.66879444  0.16444541
   0.66653319  0.33346581  0.15440771
   0.33330669  0.66669231  0.18040465
   0.24993936  0.25012558  0.40353469
   0.41656052  0.08338834  0.40398815
   0.24981649  0.75018251  0.40429266
   0.41665937  0.58333963  0.40389891
   0.74993794  0.25006106  0.40362702