       N       E                     dE             d eps       ncg     rms          ort
SDA:   1    -0.123830460720E+03   -0.12383E+03   -0.96103E+01   768   0.240E+02 0.000E+00
DMP:   2    -0.131465415211E+03   -0.76350E+01   -0.64135E+01   768   0.105E+02 0.144E+02
DMP:   3    -0.136246862893E+03   -0.47814E+01   -0.28776E+01   768   0.408E+01 0.815E+01
DMP:   4    -0.138413508887E+03   -0.21666E+01   -0.12506E+01   768   0.170E+01 0.373E+01
DMP:   5    -0.139381035745E+03   -0.96753E+00   -0.56500E+00   768   0.749E+00 0.174E+01
DMP:   6    -0.139826852769E+03   -0.44582E+00   -0.25854E+00   768   0.332E+00 0.824E+00
DMP:   7    -0.140032467486E+03   -0.20561E+00   -0.11614E+00   768   0.143E+00 0.385E+00
DMP:   8    -0.140124756834E+03   -0.92289E-01   -0.50006E-01   768   0.588E-01 0.173E+00
DMP:   9    -0.140164160953E+03   -0.39404E-01   -0.20441E-01   768   0.230E-01 0.735E-01
DMP:  10    -0.140180090513E+03   -0.15930E-01   -0.80138E-02   768   0.875E-02 0.296E-01
DMP:  11    -0.140186252088E+03   -0.61616E-02   -0.30529E-02   768   0.327E-02 0.114E-01
DMP:  12    -0.140188553271E+03   -0.23012E-02   -0.11305E-02   768   0.119E-02 0.428E-02
DMP:  13    -0.140189378824E+03   -0.82555E-03   -0.40669E-03   768   0.423E-03 0.155E-02
DMP:  14    -0.140189661137E+03   -0.28231E-03   -0.14329E-03   768   0.149E-03 0.549E-03
DMP:  15    -0.140189752401E+03   -0.91263E-04   -0.49689E-04   768   0.518E-04 0.190E-03
DMP:  16    -0.140189779627E+03   -0.27226E-04   -0.17362E-04   768   0.185E-04 0.651E-04
DMP:  17    -0.140189786893E+03   -0.72661E-05   -0.63128E-05   768   0.703E-05 0.229E-04
DMP:  18    -0.140189788511E+03   -0.16186E-05   -0.24851E-05   768   0.292E-05 0.863E-05
DMP:  19    -0.140189788787E+03   -0.27577E-06   -0.11128E-05   768   0.138E-05 0.366E-05
DMP:  20    -0.140189788875E+03   -0.88229E-07   -0.58486E-06   768   0.763E-06 0.183E-05
   1 F= -.14018979E+03 E0= -.14018944E+03  d E =-.699132E-03
       N       E                     dE             ncg
DAV:   1     0.749847251495E+03   -0.62033E+04     2256
DAV:   2    -0.702820953605E+04   -0.77781E+04     3072
DAV:   3    -0.859785762020E+04   -0.15696E+04     3072
DAV:   4    -0.887422708712E+04   -0.27637E+03     3072
DAV:   5    -0.891619611129E+04   -0.41969E+02     3072
DAV:   6    -0.892362077452E+04   -0.74247E+01     3072
DAV:   7    -0.892501190432E+04   -0.13911E+01     3072
DAV:   8    -0.892529732282E+04   -0.28542E+00     3072
DAV:   9    -0.892535903634E+04   -0.61714E-01     3072
DAV:  10    -0.892537325060E+04   -0.14214E-01     3072
DAV:  11    -0.892537665768E+04   -0.34071E-02     3072
DAV:  12    -0.892537750899E+04   -0.85131E-03     3072
DAV:  13    -0.892537772740E+04   -0.21840E-03     3072
DAV:  14    -0.892537778439E+04   -0.56994E-04     3072
DAV:  15    -0.892537779942E+04   -0.15032E-04     3072
DAV:  16    -0.892537780335E+04   -0.39290E-05     3072
DAV:  17    -0.892537780439E+04   -0.10348E-05     3072
DAV:  18    -0.892537780466E+04   -0.27150E-06     3072
       N       E                     dE             ncg
DAV:   1     0.560945830536E+03   -0.21061E+05     2304
DAV:   2    -0.738972492948E+04   -0.79507E+04     3072
DAV:   3    -0.895782242613E+04   -0.15681E+04     3072
DAV:   4    -0.914556025721E+04   -0.18774E+03     3072
DAV:   5    -0.916960310262E+04   -0.24043E+02     3072
DAV:   6    -0.917348305809E+04   -0.38800E+01     3072
DAV:   7    -0.917419377458E+04   -0.71072E+00     3072
DAV:   8    -0.917434229151E+04   -0.14852E+00     3072
DAV:   9    -0.917437558744E+04   -0.33296E-01     3072
DAV:  10    -0.917438358202E+04   -0.79946E-02     3072
DAV:  11    -0.917438557034E+04   -0.19883E-02     3072
DAV:  12    -0.917438608211E+04   -0.51178E-03     3072
DAV:  13    -0.917438621615E+04   -0.13403E-03     3072
DAV:  14    -0.917438625182E+04   -0.35674E-04     3072
DAV:  15    -0.917438626126E+04   -0.94444E-05     3072
DAV:  16    -0.917438626371E+04   -0.24508E-05     3072
DAV:  17    -0.917438626435E+04   -0.63241E-06     3072
       N       E                     dE             ncg
DAV:   1     0.608679397462E+03   -0.19760E+05     2304
DAV:   2    -0.740127768405E+04   -0.80100E+04     3072
DAV:   3    -0.896066394267E+04   -0.15594E+04     3072
DAV:   4    -0.914704590838E+04   -0.18638E+03     3072
DAV:   5    -0.917096874996E+04   -0.23923E+02     3072
DAV:   6    -0.917478497357E+04   -0.38162E+01     3072
DAV:   7    -0.917546080595E+04   -0.67583E+00     3072
DAV:   8    -0.917559418694E+04   -0.13338E+00     3072
DAV:   9    -0.917562213312E+04   -0.27946E-01     3072
DAV:  10    -0.917562835357E+04   -0.62205E-02     3072
DAV:  11    -0.917562979162E+04   -0.14380E-02     3072
DAV:  12    -0.917563013658E+04   -0.34496E-03     3072
DAV:  13    -0.917563022164E+04   -0.85064E-04     3072
DAV:  14    -0.917563024309E+04   -0.21452E-04     3072
DAV:  15    -0.917563024857E+04   -0.54729E-05     3072
DAV:  16    -0.917563024994E+04   -0.13713E-05     3072
DAV:  17    -0.917563025029E+04   -0.35022E-06     3072
       N       E                     dE             ncg
DAV:   1     0.615179418153E+03   -0.12809E+05     2304
DAV:   2    -0.723495675194E+04   -0.78501E+04     3072
DAV:   3    -0.880851636742E+04   -0.15736E+04     3072
DAV:   4    -0.903209210060E+04   -0.22358E+03     3072
DAV:   5    -0.906294642002E+04   -0.30854E+02     3072
DAV:   6    -0.906817987096E+04   -0.52335E+01     3072
DAV:   7    -0.906914650010E+04   -0.96663E+00     3072
DAV:   8    -0.906934413034E+04   -0.19763E+00     3072
DAV:   9    -0.906938693643E+04   -0.42806E-01     3072
DAV:  10    -0.906939683223E+04   -0.98958E-02     3072
DAV:  11    -0.906939921879E+04   -0.23866E-02     3072
DAV:  12    -0.906939982019E+04   -0.60140E-03     3072
DAV:  13    -0.906939997679E+04   -0.15661E-03     3072
DAV:  14    -0.906940001833E+04   -0.41534E-04     3072
DAV:  15    -0.906940002953E+04   -0.11202E-04     3072
DAV:  16    -0.906940003253E+04   -0.30010E-05     3072
DAV:  17    -0.906940003335E+04   -0.81514E-06     3072
       N       E                     dE             ncg
DAV:   1     0.466511064422E+04   -0.51875E+03     1152
DAV:   2     0.956958891726E+03   -0.37082E+04     1536
DAV:   3     0.216116376175E+03   -0.74084E+03     1536
DAV:   4     0.621864242574E+02   -0.15393E+03     1536
DAV:   5     0.379730677355E+02   -0.24213E+02     1536
DAV:   6     0.336372269755E+02   -0.43358E+01     1536
DAV:   7     0.328214286245E+02   -0.81580E+00     1536
DAV:   8     0.326527802345E+02   -0.16865E+00     1536
DAV:   9     0.326163663998E+02   -0.36414E-01     1536
DAV:  10     0.326080312007E+02   -0.83352E-02     1536
DAV:  11     0.326060675448E+02   -0.19637E-02     1536
DAV:  12     0.326055871977E+02   -0.48035E-03     1536
DAV:  13     0.326054677077E+02   -0.11949E-03     1536
DAV:  14     0.326054375275E+02   -0.30180E-04     1536
DAV:  15     0.326054297813E+02   -0.77462E-05     1536
DAV:  16     0.326054277978E+02   -0.19835E-05     1536
DAV:  17     0.326054272832E+02   -0.51466E-06     1536
