       N       E                     dE             d eps       ncg     rms          ort
DAV:   1     0.164412388665E+03    0.16441E+03   -0.22558E+04  1584   0.919E+02
DAV:   2    -0.402199482662E+03   -0.56661E+03   -0.56595E+03  1584   0.261E+02
DAV:   3    -0.485071989640E+03   -0.82873E+02   -0.82790E+02  1584   0.108E+02
DAV:   4    -0.495693122699E+03   -0.10621E+02   -0.10612E+02  1584   0.388E+01
DAV:   5    -0.150481183135E+03    0.34521E+03   -0.22474E+01  1584   0.193E+01
SDA:   6    -0.134507849469E+03    0.15973E+02   -0.79994E+01  1584   0.200E+02 0.000E+00
DMP:   7    -0.139078892333E+03   -0.45710E+01   -0.12656E+01  1584   0.207E+01 0.286E+01
DMP:   8    -0.139450974461E+03   -0.37208E+00   -0.58074E+00  1584   0.192E+01-0.124E+01
DMP:   9    -0.139812143927E+03   -0.36117E+00   -0.35793E+00  1584   0.753E+00 0.372E+00
DMP:  10    -0.140035313998E+03   -0.22317E+00   -0.13338E+00  1584   0.248E+00 0.223E+00
DMP:  11    -0.140121040870E+03   -0.85727E-01   -0.61861E-01  1584   0.119E+00 0.943E-01
DMP:  12    -0.140162489844E+03   -0.41449E-01   -0.27001E-01  1584   0.475E-01 0.524E-01
DMP:  13    -0.140180224176E+03   -0.17734E-01   -0.10000E-01  1584   0.169E-01 0.212E-01
DMP:  14    -0.140186874559E+03   -0.66504E-02   -0.39696E-02  1584   0.675E-02 0.830E-02
DMP:  15    -0.140189634229E+03   -0.27597E-02   -0.16157E-02  1584   0.255E-02 0.389E-02
DMP:  16    -0.140190760275E+03   -0.11260E-02   -0.62496E-03  1584   0.954E-03 0.159E-02
DMP:  17    -0.140191199977E+03   -0.43970E-03   -0.25716E-03  1584   0.399E-03 0.639E-03
DMP:  18    -0.140191381330E+03   -0.18135E-03   -0.10224E-03  1584   0.154E-03 0.267E-03
DMP:  19    -0.140191452555E+03   -0.71225E-04   -0.40431E-04  1584   0.618E-04 0.103E-03
DMP:  20    -0.140191481821E+03   -0.29266E-04   -0.18716E-04  1584   0.291E-04 0.463E-04
DMP:  21    -0.140191496173E+03   -0.14353E-04   -0.95972E-05  1584   0.143E-04 0.253E-04
DMP:  22    -0.140191503929E+03   -0.77554E-05   -0.53466E-05  1584   0.772E-05 0.148E-04
DMP:  23    -0.140191508430E+03   -0.45015E-05   -0.31817E-05  1584   0.449E-05 0.908E-05
DMP:  24    -0.140191511176E+03   -0.27461E-05   -0.19494E-05  1584   0.269E-05 0.572E-05
DMP:  25    -0.140191512887E+03   -0.17108E-05   -0.12041E-05  1584   0.162E-05 0.364E-05
DMP:  26    -0.140191513956E+03   -0.10691E-05   -0.74147E-06  1584   0.971E-06 0.231E-05
DMP:  27    -0.140191514623E+03   -0.66723E-06   -0.47295E-06  1584   0.622E-06 0.147E-05
   1 F= -.14019151E+03 E0= -.14019058E+03  d E =-.187474E-02
       N       E                     dE             ncg
DAV:   1     0.176272710603E+04   -0.71729E+04     4608
DAV:   2    -0.142342383862E+05   -0.15997E+05     6336
DAV:   3    -0.175423627193E+05   -0.33081E+04     6336
DAV:   4    -0.181831804977E+05   -0.64082E+03     6336
DAV:   5    -0.182787227298E+05   -0.95542E+02     6336
DAV:   6    -0.182956563984E+05   -0.16934E+02     6336
DAV:   7    -0.182988428465E+05   -0.31864E+01     6336
DAV:   8    -0.182995046707E+05   -0.66182E+00     6336
DAV:   9    -0.182996493486E+05   -0.14468E+00     6336
DAV:  10    -0.182996830689E+05   -0.33720E-01     6336
DAV:  11    -0.182996911980E+05   -0.81291E-02     6336
DAV:  12    -0.182996932395E+05   -0.20415E-02     6336
DAV:  13    -0.182996937629E+05   -0.52333E-03     6336
DAV:  14    -0.182996938991E+05   -0.13626E-03     6336
DAV:  15    -0.182996939351E+05   -0.35992E-04     6336
DAV:  16    -0.182996939446E+05   -0.94674E-05     6336
DAV:  17    -0.182996939471E+05   -0.25044E-05     6336
DAV:  18    -0.182996939478E+05   -0.66227E-06     6336
       N       E                     dE             ncg
DAV:   1     0.120812505269E+04   -0.38176E+05     4752
DAV:   2    -0.151377641603E+05   -0.16346E+05     6336
DAV:   3    -0.183944628612E+05   -0.32567E+04     6336
DAV:   4    -0.188061000168E+05   -0.41164E+03     6336
DAV:   5    -0.188593336256E+05   -0.53234E+02     6336
DAV:   6    -0.188679006299E+05   -0.85670E+01     6336
DAV:   7    -0.188694362375E+05   -0.15356E+01     6336
DAV:   8    -0.188697468321E+05   -0.31059E+00     6336
DAV:   9    -0.188698140550E+05   -0.67223E-01     6336
DAV:  10    -0.188698296603E+05   -0.15605E-01     6336
DAV:  11    -0.188698334392E+05   -0.37789E-02     6336
DAV:  12    -0.188698343897E+05   -0.95049E-03     6336
DAV:  13    -0.188698346343E+05   -0.24464E-03     6336
DAV:  14    -0.188698346984E+05   -0.64032E-04     6336
DAV:  15    -0.188698347151E+05   -0.16781E-04     6336
DAV:  16    -0.188698347195E+05   -0.43351E-05     6336
DAV:  17    -0.188698347206E+05   -0.11169E-05     6336
DAV:  18    -0.188698347209E+05   -0.29236E-06     6336
       N       E                     dE             ncg
DAV:   1     0.124861272413E+04   -0.43301E+05     4752
DAV:   2    -0.152528514488E+05   -0.16501E+05     6336
DAV:   3    -0.184870628884E+05   -0.32342E+04     6336
DAV:   4    -0.188723054715E+05   -0.38524E+03     6336
DAV:   5    -0.189216837691E+05   -0.49378E+02     6336
DAV:   6    -0.189296656765E+05   -0.79819E+01     6336
DAV:   7    -0.189311225493E+05   -0.14569E+01     6336
DAV:   8    -0.189314255229E+05   -0.30297E+00     6336
DAV:   9    -0.189314933157E+05   -0.67793E-01     6336
DAV:  10    -0.189315095592E+05   -0.16243E-01     6336
DAV:  11    -0.189315135848E+05   -0.40257E-02     6336
DAV:  12    -0.189315146157E+05   -0.10308E-02     6336
DAV:  13    -0.189315148836E+05   -0.26796E-03     6336
DAV:  14    -0.189315149544E+05   -0.70796E-04     6336
DAV:  15    -0.189315149731E+05   -0.18679E-04     6336
DAV:  16    -0.189315149780E+05   -0.48433E-05     6336
DAV:  17    -0.189315149792E+05   -0.12515E-05     6336
DAV:  18    -0.189315149795E+05   -0.32991E-06     6336
       N       E                     dE             ncg
DAV:   1     0.129923591282E+04   -0.41007E+05     4752
DAV:   2    -0.151846866228E+05   -0.16484E+05     6336
DAV:   3    -0.184421190152E+05   -0.32574E+04     6336
DAV:   4    -0.188461344038E+05   -0.40402E+03     6336
DAV:   5    -0.188984836703E+05   -0.52349E+02     6336
DAV:   6    -0.189069918836E+05   -0.85082E+01     6336
DAV:   7    -0.189085295026E+05   -0.15376E+01     6336
DAV:   8    -0.189088401664E+05   -0.31066E+00     6336
DAV:   9    -0.189089068697E+05   -0.66703E-01     6336
DAV:  10    -0.189089221141E+05   -0.15244E-01     6336
DAV:  11    -0.189089257294E+05   -0.36153E-02     6336
DAV:  12    -0.189089266197E+05   -0.89028E-03     6336
DAV:  13    -0.189089268444E+05   -0.22476E-03     6336
DAV:  14    -0.189089269024E+05   -0.57972E-04     6336
DAV:  15    -0.189089269175E+05   -0.15057E-04     6336
DAV:  16    -0.189089269213E+05   -0.38248E-05     6336
DAV:  17    -0.189089269223E+05   -0.99099E-06     6336
       N       E                     dE             ncg
DAV:   1     0.128881846735E+04   -0.27514E+05     4752
DAV:   2    -0.149960641064E+05   -0.16285E+05     6336
DAV:   3    -0.182042707067E+05   -0.32082E+04     6336
DAV:   4    -0.186534656740E+05   -0.44919E+03     6336
DAV:   5    -0.187147098183E+05   -0.61244E+02     6336
DAV:   6    -0.187250602819E+05   -0.10350E+02     6336
DAV:   7    -0.187269768531E+05   -0.19166E+01     6336
DAV:   8    -0.187273718698E+05   -0.39502E+00     6336
DAV:   9    -0.187274583183E+05   -0.86448E-01     6336
DAV:  10    -0.187274785333E+05   -0.20215E-01     6336
DAV:  11    -0.187274834609E+05   -0.49276E-02     6336
DAV:  12    -0.187274847141E+05   -0.12532E-02     6336
DAV:  13    -0.187274850427E+05   -0.32863E-03     6336
DAV:  14    -0.187274851304E+05   -0.87682E-04     6336
DAV:  15    -0.187274851540E+05   -0.23609E-04     6336
DAV:  16    -0.187274851603E+05   -0.62975E-05     6336
DAV:  17    -0.187274851620E+05   -0.16949E-05     6336
DAV:  18    -0.187274851625E+05   -0.45964E-06     6336
       N       E                     dE             ncg
DAV:   1     0.396366724859E+04   -0.34411E+04     3888
DAV:   2    -0.861123232918E+04   -0.12575E+05     5184
DAV:   3    -0.111469145936E+05   -0.25357E+04     5184
DAV:   4    -0.116513638237E+05   -0.50445E+03     5184
DAV:   5    -0.117296318987E+05   -0.78268E+02     5184
DAV:   6    -0.117437479289E+05   -0.14116E+02     5184
DAV:   7    -0.117464437287E+05   -0.26958E+01     5184
DAV:   8    -0.117470107405E+05   -0.56701E+00     5184
DAV:   9    -0.117471360434E+05   -0.12530E+00     5184
DAV:  10    -0.117471655312E+05   -0.29488E-01     5184
DAV:  11    -0.117471727185E+05   -0.71873E-02     5184
DAV:  12    -0.117471745436E+05   -0.18251E-02     5184
DAV:  13    -0.117471750174E+05   -0.47383E-03     5184
DAV:  14    -0.117471751424E+05   -0.12502E-03     5184
DAV:  15    -0.117471751759E+05   -0.33471E-04     5184
DAV:  16    -0.117471751847E+05   -0.88299E-05     5184
DAV:  17    -0.117471751871E+05   -0.23400E-05     5184
DAV:  18    -0.117471751877E+05   -0.62217E-06     5184
