   2   2   0  16
  0.3741230E+02  0.2400000E-09  0.2400000E-09  0.1500000E-08  0.5000000E-15
  1.000000000000000E-004
  CAR 
 Graphene                                
     44.91554434    -25.31656299  301     -1.94932677      1.00000000
    -25.317  0.0000E+00  0.0000E+00
    -25.082  0.0000E+00  0.0000E+00
    -24.848  0.0000E+00  0.0000E+00
    -24.614  0.0000E+00  0.0000E+00
    -24.380  0.0000E+00  0.0000E+00
    -24.146  0.0000E+00  0.0000E+00
    -23.912  0.0000E+00  0.0000E+00
    -23.678  0.0000E+00  0.0000E+00
    -23.444  0.0000E+00  0.0000E+00
    -23.210  0.0000E+00  0.0000E+00
    -22.975  0.0000E+00  0.0000E+00
    -22.741  0.0000E+00  0.0000E+00
    -22.507  0.1792E-10  0.4194E-11
    -22.273  0.1043E-04  0.2442E-05
    -22.039  0.9049E-03  0.2143E-03
    -21.805  0.3181E-02  0.9590E-03
    -21.571  0.2672E-02  0.1585E-02
    -21.337  0.4231E-02  0.2575E-02
    -21.103  0.3177E-03  0.2649E-02
    -20.869  0.5598E-02  0.3960E-02
    -20.634  0.2364E-02  0.4513E-02
    -20.400  0.2657E-02  0.5135E-02
    -20.166  0.4209E-03  0.5234E-02
    -19.932  0.5866E-02  0.6607E-02
    -19.698  0.4398E-02  0.7637E-02
    -19.464  0.7995E-03  0.7824E-02
    -19.230  0.2749E-02  0.8468E-02
    -18.996  0.9211E-03  0.8683E-02
    -18.762  0.6153E-02  0.1012E-01
    -18.527  0.5669E-02  0.1145E-01
    -18.293  0.1515E-02  0.1181E-01
    -18.059  0.1285E-03  0.1184E-01
    -17.825  0.3205E-02  0.1259E-01
    -17.591  0.2743E-02  0.1323E-01
    -17.357  0.7613E-02  0.1501E-01
    -17.123  0.8043E-03  0.1520E-01
    -16.889  0.6397E-02  0.1670E-01
    -16.655  0.4909E-03  0.1681E-01
    -16.420  0.1516E-02  0.1717E-01
    -16.186  0.1060E-02  0.1741E-01
    -15.952  0.9503E-02  0.1964E-01
    -15.718  0.1142E-02  0.1991E-01
    -15.484  0.9941E-03  0.2014E-01
    -15.250  0.1967E-02  0.2060E-01
    -15.016  0.2323E-02  0.2114E-01
    -14.782  0.7349E-02  0.2286E-01
    -14.548  0.1410E-02  0.2319E-01
    -14.314  0.2859E-03  0.2326E-01
    -14.079  0.7141E-02  0.2493E-01
    -13.845  0.3255E-02  0.2569E-01
    -13.611  0.5191E-02  0.2691E-01
    -13.377  0.1926E-02  0.2736E-01
    -13.143  0.3336E-03  0.2744E-01
    -12.909  0.2421E-02  0.2801E-01
    -12.675  0.6886E-02  0.2962E-01
    -12.441  0.2221E-02  0.3014E-01
    -12.207  0.6302E-04  0.3015E-01
    -11.972  0.5809E-02  0.3151E-01
    -11.738  0.4619E-02  0.3259E-01
    -11.504  0.7006E-02  0.3423E-01
    -11.270  0.2831E-02  0.3490E-01
    -11.036  0.1035E-02  0.3514E-01
    -10.802  0.4168E-04  0.3515E-01
    -10.568  0.5901E-02  0.3653E-01
    -10.334  0.6460E-02  0.3804E-01
    -10.100  0.5779E-02  0.3940E-01
     -9.865  0.3815E-02  0.4029E-01
     -9.631  0.9513E-02  0.4252E-01
     -9.397  0.8040E-02  0.4440E-01
     -9.163  0.4520E-02  0.4546E-01
     -8.929  0.6265E-02  0.4692E-01
     -8.695  0.8501E-02  0.4891E-01
     -8.461  0.1493E-01  0.5241E-01
     -8.227  0.9752E-02  0.5469E-01
     -7.993  0.6881E-02  0.5630E-01
     -7.759  0.4950E-02  0.5746E-01
     -7.524  0.5377E-02  0.5872E-01
     -7.290  0.7104E-02  0.6038E-01
     -7.056  0.9834E-02  0.6268E-01
     -6.822  0.5546E-02  0.6398E-01
     -6.588  0.3361E-02  0.6477E-01
     -6.354  0.3434E-02  0.6557E-01
     -6.120  0.7546E-02  0.6734E-01
     -5.886  0.1045E-01  0.6979E-01
     -5.652  0.1277E-02  0.7008E-01
     -5.417  0.4082E-02  0.7104E-01
     -5.183  0.5476E-02  0.7232E-01
     -4.949  0.1648E-02  0.7271E-01
     -4.715  0.9958E-02  0.7504E-01
     -4.481  0.7971E-02  0.7690E-01
     -4.247  0.1355E-02  0.7722E-01
     -4.013  0.2240E-04  0.7723E-01
     -3.779  0.2780E-02  0.7788E-01
     -3.545  0.9284E-03  0.7810E-01
     -3.311  0.6297E-02  0.7957E-01
     -3.076  0.6519E-03  0.7972E-01
     -2.842  0.1229E-07  0.7972E-01
     -2.608  0.6323E-17  0.7972E-01
     -2.374  0.2245E-11  0.7972E-01
     -2.140  0.8325E-05  0.7972E-01
     -1.906  0.1726E-02  0.8013E-01
     -1.672  0.6391E-03  0.8028E-01
     -1.438  0.1027E-06  0.8028E-01
     -1.204  0.5472E-15  0.8028E-01
     -0.969  0.4420E-10  0.8028E-01
     -0.735  0.6116E-04  0.8029E-01
     -0.501  0.6475E-02  0.8181E-01
     -0.267  0.4708E-02  0.8291E-01
     -0.033  0.1623E-02  0.8329E-01
      0.201  0.6418E-02  0.8479E-01
      0.435  0.2931E-03  0.8486E-01
      0.669  0.1457E-02  0.8520E-01
      0.903  0.6352E-02  0.8669E-01
      1.138  0.6354E-02  0.8818E-01
      1.372  0.3828E-02  0.8907E-01
      1.606  0.4605E-03  0.8918E-01
      1.840  0.3219E-02  0.8993E-01
      2.074  0.9958E-02  0.9227E-01
      2.308  0.4879E-02  0.9341E-01
      2.542  0.9118E-03  0.9362E-01
      2.776  0.1438E-01  0.9699E-01
      3.010  0.1019E-01  0.9937E-01
      3.244  0.6719E-02  0.1009E+00
      3.479  0.6610E-02  0.1025E+00
      3.713  0.7557E-02  0.1043E+00
      3.947  0.4009E-02  0.1052E+00
      4.181  0.1349E-01  0.1084E+00
      4.415  0.9683E-02  0.1106E+00
      4.649  0.6664E-02  0.1122E+00
      4.883  0.1039E-01  0.1146E+00
      5.117  0.1027E-01  0.1170E+00
      5.351  0.9279E-02  0.1192E+00
      5.586  0.1450E-01  0.1226E+00
      5.820  0.1083E-01  0.1251E+00
      6.054  0.1777E-01  0.1293E+00
      6.288  0.1002E-01  0.1316E+00
      6.522  0.1266E-01  0.1346E+00
      6.756  0.1279E-01  0.1376E+00
      6.990  0.2645E-01  0.1438E+00
      7.224  0.2625E-01  0.1499E+00
      7.458  0.2336E-01  0.1554E+00
      7.693  0.2574E-01  0.1614E+00
      7.927  0.7064E-02  0.1631E+00
      8.161  0.9640E-02  0.1653E+00
      8.395  0.2110E-01  0.1703E+00
      8.629  0.1235E-01  0.1732E+00
      8.863  0.1962E-01  0.1778E+00
      9.097  0.2835E-01  0.1844E+00
      9.331  0.2868E-01  0.1911E+00
      9.565  0.1018E-01  0.1935E+00
      9.799  0.1915E-01  0.1980E+00
     10.034  0.2430E-01  0.2037E+00
     10.268  0.2031E-01  0.2084E+00
     10.502  0.1804E-01  0.2126E+00
     10.736  0.8573E-02  0.2146E+00
     10.970  0.1168E-01  0.2174E+00
     11.204  0.3021E-01  0.2245E+00
     11.438  0.2841E-01  0.2311E+00
     11.672  0.1229E-01  0.2340E+00
     11.906  0.2475E-01  0.2398E+00
     12.141  0.2360E-01  0.2453E+00
     12.375  0.2619E-01  0.2514E+00
     12.609  0.2308E-01  0.2568E+00
     12.843  0.2198E-01  0.2620E+00
     13.077  0.6423E-02  0.2635E+00
     13.311  0.9263E-02  0.2657E+00
     13.545  0.1717E-01  0.2697E+00
     13.779  0.2462E-01  0.2754E+00
     14.013  0.1970E-01  0.2800E+00
     14.248  0.2700E-01  0.2864E+00
     14.482  0.1810E-01  0.2906E+00
     14.716  0.2397E-01  0.2962E+00
     14.950  0.1868E-01  0.3006E+00
     15.184  0.2854E-01  0.3073E+00
     15.418  0.1659E-01  0.3112E+00
     15.652  0.2910E-01  0.3180E+00
     15.886  0.2128E-01  0.3230E+00
     16.120  0.1887E-01  0.3274E+00
     16.354  0.2030E-01  0.3321E+00
     16.589  0.2209E-01  0.3373E+00
     16.823  0.2908E-01  0.3441E+00
     17.057  0.1346E-01  0.3473E+00
     17.291  0.2590E-01  0.3533E+00
     17.525  0.1763E-01  0.3574E+00
     17.759  0.2837E-01  0.3641E+00
     17.993  0.2747E-01  0.3705E+00
     18.227  0.2855E-01  0.3772E+00
     18.461  0.1639E-01  0.3810E+00
     18.696  0.1104E-01  0.3836E+00
     18.930  0.1365E-01  0.3868E+00
     19.164  0.2367E-01  0.3924E+00
     19.398  0.3085E-01  0.3996E+00
     19.632  0.3010E-01  0.4066E+00
     19.866  0.1935E-01  0.4112E+00
     20.100  0.1869E-01  0.4155E+00
     20.334  0.2221E-01  0.4207E+00
     20.568  0.4867E-01  0.4321E+00
     20.803  0.2164E-01  0.4372E+00
     21.037  0.2459E-01  0.4430E+00
     21.271  0.1260E-01  0.4459E+00
     21.505  0.2776E-01  0.4524E+00
     21.739  0.3090E-01  0.4596E+00
     21.973  0.2485E-01  0.4655E+00
     22.207  0.1631E-01  0.4693E+00
     22.441  0.1660E-01  0.4732E+00
     22.675  0.3081E-01  0.4804E+00
     22.909  0.3763E-01  0.4892E+00
     23.144  0.3800E-01  0.4981E+00
     23.378  0.2898E-01  0.5049E+00
     23.612  0.2406E-01  0.5105E+00
     23.846  0.2872E-01  0.5172E+00
     24.080  0.2330E-01  0.5227E+00
     24.314  0.2806E-01  0.5292E+00
     24.548  0.3835E-01  0.5382E+00
     24.782  0.1058E-01  0.5407E+00
     25.016  0.4518E-01  0.5513E+00
     25.251  0.4064E-01  0.5608E+00
     25.485  0.2861E-01  0.5675E+00
     25.719  0.2685E-01  0.5738E+00
     25.953  0.3189E-01  0.5812E+00
     26.187  0.1445E-01  0.5846E+00
     26.421  0.1453E-01  0.5880E+00
     26.655  0.2338E-01  0.5935E+00
     26.889  0.2264E-01  0.5988E+00
     27.123  0.1921E-01  0.6033E+00
     27.358  0.4975E-01  0.6149E+00
     27.592  0.2855E-01  0.6216E+00
     27.826  0.2900E-01  0.6284E+00
     28.060  0.3105E-01  0.6357E+00
     28.294  0.2788E-01  0.6422E+00
     28.528  0.2149E-01  0.6472E+00
     28.762  0.2692E-01  0.6535E+00
     28.996  0.2752E-01  0.6600E+00
     29.230  0.1708E-01  0.6640E+00
     29.464  0.3155E-01  0.6714E+00
     29.699  0.1707E-01  0.6754E+00
     29.933  0.4603E-01  0.6861E+00
     30.167  0.1599E-01  0.6899E+00
     30.401  0.3124E-01  0.6972E+00
     30.635  0.2066E-01  0.7020E+00
     30.869  0.3159E-01  0.7094E+00
     31.103  0.2554E-01  0.7154E+00
     31.337  0.2256E-01  0.7207E+00
     31.571  0.3709E-01  0.7294E+00
     31.806  0.5070E-01  0.7412E+00
     32.040  0.2404E-01  0.7469E+00
     32.274  0.2044E-01  0.7516E+00
     32.508  0.3624E-01  0.7601E+00
     32.742  0.1608E-01  0.7639E+00
     32.976  0.2986E-01  0.7709E+00
     33.210  0.4609E-01  0.7817E+00
     33.444  0.3671E-01  0.7903E+00
     33.678  0.2396E-01  0.7959E+00
     33.913  0.1534E-01  0.7995E+00
     34.147  0.3127E-01  0.8068E+00
     34.381  0.2676E-01  0.8130E+00
     34.615  0.2519E-01  0.8189E+00
     34.849  0.4065E-01  0.8285E+00
     35.083  0.2263E-01  0.8338E+00
     35.317  0.1925E-01  0.8383E+00
     35.551  0.2983E-01  0.8453E+00
     35.785  0.2660E-01  0.8515E+00
     36.019  0.3145E-01  0.8588E+00
     36.254  0.4413E-01  0.8692E+00
     36.488  0.2709E-01  0.8755E+00
     36.722  0.2503E-01  0.8814E+00
     36.956  0.3666E-01  0.8900E+00
     37.190  0.4849E-01  0.9013E+00
     37.424  0.1642E-01  0.9052E+00
     37.658  0.1716E-01  0.9092E+00
     37.892  0.2631E-01  0.9153E+00
     38.126  0.3177E-01  0.9228E+00
     38.361  0.2757E-01  0.9292E+00
     38.595  0.3115E-01  0.9365E+00
     38.829  0.1583E-01  0.9402E+00
     39.063  0.1660E-01  0.9441E+00
     39.297  0.1356E-01  0.9473E+00
     39.531  0.6577E-02  0.9488E+00
     39.765  0.1100E-01  0.9514E+00
     39.999  0.6815E-02  0.9530E+00
     40.233  0.1397E-01  0.9563E+00
     40.468  0.1753E-02  0.9567E+00
     40.702  0.1074E-02  0.9569E+00
     40.936  0.5379E-02  0.9582E+00
     41.170  0.1891E-02  0.9586E+00
     41.404  0.3096E-02  0.9594E+00
     41.638  0.6706E-03  0.9595E+00
     41.872  0.2060E-02  0.9600E+00
     42.106  0.4167E-04  0.9600E+00
     42.340  0.7161E-10  0.9600E+00
     42.574  0.0000E+00  0.9600E+00
     42.809  0.0000E+00  0.9600E+00
     43.043  0.0000E+00  0.9600E+00
     43.277  0.0000E+00  0.9600E+00
     43.511  0.0000E+00  0.9600E+00
     43.745  0.0000E+00  0.9600E+00
     43.979  0.0000E+00  0.9600E+00
     44.213  0.0000E+00  0.9600E+00
     44.447  0.0000E+00  0.9600E+00
     44.681  0.0000E+00  0.9600E+00
     44.916  0.0000E+00  0.9600E+00
