  16  16   0   4
  0.2086978E+02  0.5070000E-09  0.5070000E-09  0.1500000E-08  0.5000000E-15
  1.000000000000000E-004
  CAR 
 Lattice                                 
      9.63714587    -21.22073161  301     -1.01704560      1.00000000
    -21.221  0.0000E+00  0.0000E+00  0.0000E+00  0.0000E+00
    -21.118  0.0000E+00  0.0000E+00  0.0000E+00  0.0000E+00
    -21.015  0.0000E+00  0.0000E+00  0.0000E+00  0.0000E+00
    -20.912  0.0000E+00  0.0000E+00  0.0000E+00  0.0000E+00
    -20.809  0.0000E+00  0.0000E+00  0.0000E+00  0.0000E+00
    -20.706  0.0000E+00  0.0000E+00  0.0000E+00  0.0000E+00
    -20.604  0.0000E+00  0.0000E+00  0.0000E+00  0.0000E+00
    -20.501  0.0000E+00  0.0000E+00  0.0000E+00  0.0000E+00
    -20.398  0.5856E-19  0.5856E-19  0.6023E-20  0.6023E-20
    -20.295  0.4521E-14  0.4521E-14  0.4650E-15  0.4650E-15
    -20.192  0.4047E-10  0.4047E-10  0.4163E-11  0.4163E-11
    -20.089  0.5127E-07  0.5127E-07  0.5278E-08  0.5278E-08
    -19.986  0.9914E-05  0.9915E-05  0.1025E-05  0.1025E-05
    -19.884  0.3222E-03  0.3222E-03  0.3417E-04  0.3417E-04
    -19.781  0.2150E-02  0.2150E-02  0.2554E-03  0.2554E-03
    -19.678  0.4439E-02  0.4439E-02  0.7119E-03  0.7119E-03
    -19.575  0.4957E-02  0.4957E-02  0.1222E-02  0.1222E-02
    -19.472  0.5202E-02  0.5202E-02  0.1757E-02  0.1757E-02
    -19.369  0.4717E-02  0.4717E-02  0.2242E-02  0.2242E-02
    -19.266  0.5704E-02  0.5704E-02  0.2829E-02  0.2829E-02
    -19.164  0.4315E-02  0.4315E-02  0.3273E-02  0.3273E-02
    -19.061  0.5362E-02  0.5362E-02  0.3824E-02  0.3824E-02
    -18.958  0.5889E-02  0.5889E-02  0.4430E-02  0.4430E-02
    -18.855  0.3708E-02  0.3708E-02  0.4811E-02  0.4811E-02
    -18.752  0.5456E-02  0.5456E-02  0.5373E-02  0.5373E-02
    -18.649  0.6372E-02  0.6372E-02  0.6028E-02  0.6028E-02
    -18.546  0.4375E-02  0.4375E-02  0.6478E-02  0.6478E-02
    -18.444  0.3549E-02  0.3549E-02  0.6843E-02  0.6843E-02
    -18.341  0.6893E-02  0.6893E-02  0.7552E-02  0.7552E-02
    -18.238  0.5920E-02  0.5920E-02  0.8161E-02  0.8161E-02
    -18.135  0.4254E-02  0.4254E-02  0.8599E-02  0.8599E-02
    -18.032  0.3744E-02  0.3744E-02  0.8984E-02  0.8984E-02
    -17.929  0.8912E-02  0.8912E-02  0.9900E-02  0.9900E-02
    -17.826  0.1342E-01  0.1342E-01  0.1128E-01  0.1128E-01
    -17.724  0.1170E-01  0.1170E-01  0.1248E-01  0.1248E-01
    -17.621  0.1188E-01  0.1188E-01  0.1371E-01  0.1371E-01
    -17.518  0.1399E-01  0.1399E-01  0.1515E-01  0.1515E-01
    -17.415  0.1901E-01  0.1901E-01  0.1710E-01  0.1710E-01
    -17.312  0.2248E-01  0.2248E-01  0.1941E-01  0.1941E-01
    -17.209  0.1595E-01  0.1595E-01  0.2105E-01  0.2105E-01
    -17.106  0.5281E-02  0.5281E-02  0.2160E-01  0.2160E-01
    -17.003  0.4765E-02  0.4765E-02  0.2209E-01  0.2209E-01
    -16.901  0.7374E-02  0.7374E-02  0.2285E-01  0.2285E-01
    -16.798  0.6724E-02  0.6724E-02  0.2354E-01  0.2354E-01
    -16.695  0.5471E-02  0.5471E-02  0.2410E-01  0.2410E-01
    -16.592  0.4514E-02  0.4514E-02  0.2456E-01  0.2456E-01
    -16.489  0.2573E-02  0.2573E-02  0.2483E-01  0.2483E-01
    -16.386  0.5168E-02  0.5168E-02  0.2536E-01  0.2536E-01
    -16.283  0.9314E-02  0.9314E-02  0.2632E-01  0.2632E-01
    -16.181  0.5985E-02  0.5985E-02  0.2693E-01  0.2693E-01
    -16.078  0.4799E-02  0.4799E-02  0.2743E-01  0.2743E-01
    -15.975  0.4384E-02  0.4384E-02  0.2788E-01  0.2788E-01
    -15.872  0.4044E-02  0.4044E-02  0.2829E-01  0.2829E-01
    -15.769  0.4373E-02  0.4373E-02  0.2874E-01  0.2874E-01
    -15.666  0.1078E-01  0.1078E-01  0.2985E-01  0.2985E-01
    -15.563  0.1439E-01  0.1439E-01  0.3133E-01  0.3133E-01
    -15.461  0.1517E-01  0.1517E-01  0.3289E-01  0.3289E-01
    -15.358  0.1656E-01  0.1656E-01  0.3460E-01  0.3460E-01
    -15.255  0.1336E-01  0.1336E-01  0.3597E-01  0.3597E-01
    -15.152  0.1204E-01  0.1204E-01  0.3721E-01  0.3721E-01
    -15.049  0.1602E-01  0.1602E-01  0.3886E-01  0.3886E-01
    -14.946  0.1856E-01  0.1856E-01  0.4077E-01  0.4077E-01
    -14.843  0.1502E-01  0.1502E-01  0.4231E-01  0.4231E-01
    -14.741  0.1276E-01  0.1276E-01  0.4362E-01  0.4362E-01
    -14.638  0.9647E-02  0.9647E-02  0.4462E-01  0.4462E-01
    -14.535  0.1184E-01  0.1184E-01  0.4583E-01  0.4583E-01
    -14.432  0.1867E-01  0.1867E-01  0.4776E-01  0.4776E-01
    -14.329  0.2013E-01  0.2013E-01  0.4983E-01  0.4983E-01
    -14.226  0.1214E-01  0.1214E-01  0.5107E-01  0.5107E-01
    -14.123  0.8455E-02  0.8455E-02  0.5194E-01  0.5194E-01
    -14.021  0.7647E-02  0.7647E-02  0.5273E-01  0.5273E-01
    -13.918  0.8122E-02  0.8122E-02  0.5357E-01  0.5357E-01
    -13.815  0.6526E-02  0.6526E-02  0.5424E-01  0.5424E-01
    -13.712  0.3480E-02  0.3480E-02  0.5460E-01  0.5460E-01
    -13.609  0.2496E-02  0.2496E-02  0.5485E-01  0.5485E-01
    -13.506  0.4612E-02  0.4612E-02  0.5533E-01  0.5533E-01
    -13.403  0.4757E-02  0.4757E-02  0.5582E-01  0.5582E-01
    -13.301  0.6469E-02  0.6469E-02  0.5648E-01  0.5648E-01
    -13.198  0.5932E-02  0.5932E-02  0.5709E-01  0.5709E-01
    -13.095  0.6624E-02  0.6624E-02  0.5777E-01  0.5777E-01
    -12.992  0.8599E-02  0.8599E-02  0.5866E-01  0.5866E-01
    -12.889  0.8072E-02  0.8072E-02  0.5949E-01  0.5949E-01
    -12.786  0.7788E-02  0.7788E-02  0.6029E-01  0.6029E-01
    -12.683  0.5949E-02  0.5949E-02  0.6090E-01  0.6090E-01
    -12.581  0.7243E-02  0.7243E-02  0.6165E-01  0.6165E-01
    -12.478  0.4749E-02  0.4749E-02  0.6213E-01  0.6213E-01
    -12.375  0.4915E-02  0.4915E-02  0.6264E-01  0.6264E-01
    -12.272  0.8451E-02  0.8451E-02  0.6351E-01  0.6351E-01
    -12.169  0.6721E-02  0.6721E-02  0.6420E-01  0.6420E-01
    -12.066  0.7813E-02  0.7813E-02  0.6500E-01  0.6500E-01
    -11.963  0.1364E-01  0.1364E-01  0.6641E-01  0.6641E-01
    -11.861  0.1627E-01  0.1627E-01  0.6808E-01  0.6808E-01
    -11.758  0.1454E-01  0.1454E-01  0.6958E-01  0.6958E-01
    -11.655  0.1537E-01  0.1537E-01  0.7116E-01  0.7116E-01
    -11.552  0.1783E-01  0.1783E-01  0.7299E-01  0.7299E-01
    -11.449  0.1311E-01  0.1311E-01  0.7434E-01  0.7434E-01
    -11.346  0.7671E-02  0.7671E-02  0.7513E-01  0.7513E-01
    -11.243  0.1046E-01  0.1046E-01  0.7621E-01  0.7621E-01
    -11.140  0.1240E-01  0.1240E-01  0.7748E-01  0.7748E-01
    -11.038  0.1065E-01  0.1065E-01  0.7858E-01  0.7858E-01
    -10.935  0.4738E-02  0.4738E-02  0.7906E-01  0.7906E-01
    -10.832  0.6735E-02  0.6735E-02  0.7976E-01  0.7976E-01
    -10.729  0.1627E-01  0.1627E-01  0.8143E-01  0.8143E-01
    -10.626  0.1798E-01  0.1798E-01  0.8328E-01  0.8328E-01
    -10.523  0.6949E-02  0.6949E-02  0.8399E-01  0.8399E-01
    -10.420  0.7112E-02  0.7112E-02  0.8473E-01  0.8473E-01
    -10.318  0.1374E-01  0.1374E-01  0.8614E-01  0.8614E-01
    -10.215  0.1875E-01  0.1875E-01  0.8807E-01  0.8807E-01
    -10.112  0.1416E-01  0.1416E-01  0.8952E-01  0.8952E-01
    -10.009  0.8863E-02  0.8863E-02  0.9044E-01  0.9044E-01
     -9.906  0.8911E-02  0.8911E-02  0.9135E-01  0.9135E-01
     -9.803  0.1234E-01  0.1234E-01  0.9262E-01  0.9262E-01
     -9.700  0.1004E-01  0.1004E-01  0.9366E-01  0.9366E-01
     -9.598  0.7351E-02  0.7351E-02  0.9441E-01  0.9441E-01
     -9.495  0.9787E-02  0.9787E-02  0.9542E-01  0.9542E-01
     -9.392  0.1137E-01  0.1137E-01  0.9659E-01  0.9659E-01
     -9.289  0.1014E-01  0.1014E-01  0.9763E-01  0.9763E-01
     -9.186  0.8139E-02  0.8139E-02  0.9847E-01  0.9847E-01
     -9.083  0.3428E-02  0.3428E-02  0.9882E-01  0.9882E-01
     -8.980  0.5704E-02  0.5704E-02  0.9941E-01  0.9941E-01
     -8.878  0.1301E-01  0.1301E-01  0.1007E+00  0.1007E+00
     -8.775  0.1918E-01  0.1918E-01  0.1027E+00  0.1027E+00
     -8.672  0.1602E-01  0.1602E-01  0.1044E+00  0.1044E+00
     -8.569  0.9201E-02  0.9201E-02  0.1053E+00  0.1053E+00
     -8.466  0.7965E-02  0.7965E-02  0.1061E+00  0.1061E+00
     -8.363  0.1109E-01  0.1109E-01  0.1073E+00  0.1073E+00
     -8.260  0.1893E-01  0.1893E-01  0.1092E+00  0.1092E+00
     -8.158  0.2132E-01  0.2132E-01  0.1114E+00  0.1114E+00
     -8.055  0.2251E-01  0.2251E-01  0.1137E+00  0.1137E+00
     -7.952  0.1600E-01  0.1600E-01  0.1154E+00  0.1154E+00
     -7.849  0.1373E-01  0.1373E-01  0.1168E+00  0.1168E+00
     -7.746  0.1473E-01  0.1473E-01  0.1183E+00  0.1183E+00
     -7.643  0.2537E-01  0.2537E-01  0.1209E+00  0.1209E+00
     -7.540  0.2960E-01  0.2960E-01  0.1240E+00  0.1240E+00
     -7.438  0.2166E-01  0.2166E-01  0.1262E+00  0.1262E+00
     -7.335  0.1907E-01  0.1907E-01  0.1281E+00  0.1281E+00
     -7.232  0.2409E-01  0.2409E-01  0.1306E+00  0.1306E+00
     -7.129  0.2642E-01  0.2642E-01  0.1333E+00  0.1333E+00
     -7.026  0.2532E-01  0.2532E-01  0.1359E+00  0.1359E+00
     -6.923  0.2183E-01  0.2183E-01  0.1382E+00  0.1382E+00
     -6.820  0.2253E-01  0.2253E-01  0.1405E+00  0.1405E+00
     -6.718  0.2993E-01  0.2993E-01  0.1436E+00  0.1436E+00
     -6.615  0.1989E-01  0.1989E-01  0.1456E+00  0.1456E+00
     -6.512  0.1953E-01  0.1953E-01  0.1476E+00  0.1476E+00
     -6.409  0.2715E-01  0.2715E-01  0.1504E+00  0.1504E+00
     -6.306  0.2452E-01  0.2452E-01  0.1530E+00  0.1530E+00
     -6.203  0.2226E-01  0.2226E-01  0.1552E+00  0.1552E+00
     -6.100  0.1761E-01  0.1761E-01  0.1571E+00  0.1571E+00
     -5.998  0.1572E-01  0.1572E-01  0.1587E+00  0.1587E+00
     -5.895  0.2277E-01  0.2277E-01  0.1610E+00  0.1610E+00
     -5.792  0.2820E-01  0.2820E-01  0.1639E+00  0.1639E+00
     -5.689  0.2187E-01  0.2187E-01  0.1662E+00  0.1662E+00
     -5.586  0.1867E-01  0.1867E-01  0.1681E+00  0.1681E+00
     -5.483  0.2098E-01  0.2098E-01  0.1702E+00  0.1702E+00
     -5.380  0.2890E-01  0.2890E-01  0.1732E+00  0.1732E+00
     -5.277  0.2689E-01  0.2689E-01  0.1760E+00  0.1760E+00
     -5.175  0.1489E-01  0.1489E-01  0.1775E+00  0.1775E+00
     -5.072  0.1468E-01  0.1468E-01  0.1790E+00  0.1790E+00
     -4.969  0.1860E-01  0.1860E-01  0.1809E+00  0.1809E+00
     -4.866  0.1805E-01  0.1805E-01  0.1828E+00  0.1828E+00
     -4.763  0.1682E-01  0.1682E-01  0.1845E+00  0.1845E+00
     -4.660  0.1698E-01  0.1698E-01  0.1863E+00  0.1863E+00
     -4.557  0.1675E-01  0.1675E-01  0.1880E+00  0.1880E+00
     -4.455  0.1879E-01  0.1879E-01  0.1899E+00  0.1899E+00
     -4.352  0.1929E-01  0.1929E-01  0.1919E+00  0.1919E+00
     -4.249  0.2713E-01  0.2713E-01  0.1947E+00  0.1947E+00
     -4.146  0.4176E-01  0.4176E-01  0.1990E+00  0.1990E+00
     -4.043  0.3667E-01  0.3667E-01  0.2028E+00  0.2028E+00
     -3.940  0.2606E-01  0.2606E-01  0.2054E+00  0.2054E+00
     -3.837  0.1860E-01  0.1860E-01  0.2074E+00  0.2074E+00
     -3.735  0.1200E-01  0.1200E-01  0.2086E+00  0.2086E+00
     -3.632  0.1351E-01  0.1351E-01  0.2100E+00  0.2100E+00
     -3.529  0.1892E-01  0.1892E-01  0.2119E+00  0.2119E+00
     -3.426  0.2237E-01  0.2237E-01  0.2142E+00  0.2142E+00
     -3.323  0.1607E-01  0.1607E-01  0.2159E+00  0.2159E+00
     -3.220  0.1407E-01  0.1407E-01  0.2173E+00  0.2173E+00
     -3.117  0.1742E-01  0.1742E-01  0.2191E+00  0.2191E+00
     -3.015  0.2036E-01  0.2036E-01  0.2212E+00  0.2212E+00
     -2.912  0.2543E-01  0.2543E-01  0.2238E+00  0.2238E+00
     -2.809  0.1797E-01  0.1797E-01  0.2257E+00  0.2257E+00
     -2.706  0.1364E-01  0.1364E-01  0.2271E+00  0.2271E+00
     -2.603  0.2121E-01  0.2121E-01  0.2293E+00  0.2293E+00
     -2.500  0.2042E-01  0.2042E-01  0.2314E+00  0.2314E+00
     -2.397  0.1950E-01  0.1950E-01  0.2334E+00  0.2334E+00
     -2.295  0.2402E-01  0.2402E-01  0.2358E+00  0.2358E+00
     -2.192  0.1658E-01  0.1658E-01  0.2375E+00  0.2375E+00
     -2.089  0.5370E-02  0.5370E-02  0.2381E+00  0.2381E+00
     -1.986  0.5171E-02  0.5171E-02  0.2386E+00  0.2386E+00
     -1.883  0.8344E-02  0.8344E-02  0.2395E+00  0.2395E+00
     -1.780  0.4984E-02  0.4984E-02  0.2400E+00  0.2400E+00
     -1.677  0.4655E-02  0.4655E-02  0.2405E+00  0.2405E+00
     -1.575  0.7710E-02  0.7710E-02  0.2413E+00  0.2413E+00
     -1.472  0.5499E-02  0.5499E-02  0.2418E+00  0.2418E+00
     -1.369  0.1987E-02  0.1987E-02  0.2420E+00  0.2420E+00
     -1.266  0.3298E-03  0.3298E-03  0.2421E+00  0.2421E+00
     -1.163  0.3384E-04  0.3384E-04  0.2421E+00  0.2421E+00
     -1.060  0.4104E-03  0.4104E-03  0.2421E+00  0.2421E+00
     -0.957  0.2206E-02  0.2206E-02  0.2424E+00  0.2424E+00
     -0.855  0.3783E-02  0.3783E-02  0.2427E+00  0.2427E+00
     -0.752  0.4558E-02  0.4558E-02  0.2432E+00  0.2432E+00
     -0.649  0.9491E-02  0.9491E-02  0.2442E+00  0.2442E+00
     -0.546  0.1099E-01  0.1099E-01  0.2453E+00  0.2453E+00
     -0.443  0.1025E-01  0.1025E-01  0.2464E+00  0.2464E+00
     -0.340  0.1284E-01  0.1284E-01  0.2477E+00  0.2477E+00
     -0.237  0.1173E-01  0.1173E-01  0.2489E+00  0.2489E+00
     -0.135  0.6886E-02  0.6886E-02  0.2496E+00  0.2496E+00
     -0.032  0.2760E-02  0.2760E-02  0.2499E+00  0.2499E+00
      0.071  0.9634E-03  0.9634E-03  0.2500E+00  0.2500E+00
      0.174  0.1213E-02  0.1213E-02  0.2501E+00  0.2501E+00
      0.277  0.5889E-02  0.5889E-02  0.2507E+00  0.2507E+00
      0.380  0.1012E-01  0.1012E-01  0.2518E+00  0.2518E+00
      0.483  0.7773E-02  0.7773E-02  0.2526E+00  0.2526E+00
      0.586  0.3496E-02  0.3496E-02  0.2529E+00  0.2529E+00
      0.688  0.6007E-02  0.6007E-02  0.2535E+00  0.2535E+00
      0.791  0.1259E-01  0.1259E-01  0.2548E+00  0.2548E+00
      0.894  0.1374E-01  0.1374E-01  0.2562E+00  0.2562E+00
      0.997  0.1113E-01  0.1113E-01  0.2574E+00  0.2574E+00
      1.100  0.5379E-02  0.5379E-02  0.2579E+00  0.2579E+00
      1.203  0.4821E-02  0.4821E-02  0.2584E+00  0.2584E+00
      1.306  0.5556E-02  0.5556E-02  0.2590E+00  0.2590E+00
      1.408  0.5430E-02  0.5430E-02  0.2596E+00  0.2596E+00
      1.511  0.6927E-02  0.6927E-02  0.2603E+00  0.2603E+00
      1.614  0.1108E-01  0.1108E-01  0.2614E+00  0.2614E+00
      1.717  0.9056E-02  0.9056E-02  0.2624E+00  0.2624E+00
      1.820  0.3503E-02  0.3503E-02  0.2627E+00  0.2627E+00
      1.923  0.2913E-02  0.2913E-02  0.2630E+00  0.2630E+00
      2.026  0.8566E-02  0.8566E-02  0.2639E+00  0.2639E+00
      2.128  0.1634E-01  0.1634E-01  0.2656E+00  0.2656E+00
      2.231  0.1423E-01  0.1423E-01  0.2670E+00  0.2670E+00
      2.334  0.1148E-01  0.1148E-01  0.2682E+00  0.2682E+00
      2.437  0.1217E-01  0.1217E-01  0.2695E+00  0.2695E+00
      2.540  0.1213E-01  0.1213E-01  0.2707E+00  0.2707E+00
      2.643  0.1089E-01  0.1089E-01  0.2718E+00  0.2718E+00
      2.746  0.6700E-02  0.6700E-02  0.2725E+00  0.2725E+00
      2.848  0.6609E-02  0.6610E-02  0.2732E+00  0.2732E+00
      2.951  0.1220E-01  0.1220E-01  0.2745E+00  0.2745E+00
      3.054  0.1411E-01  0.1411E-01  0.2759E+00  0.2759E+00
      3.157  0.1351E-01  0.1351E-01  0.2773E+00  0.2773E+00
      3.260  0.1160E-01  0.1161E-01  0.2785E+00  0.2785E+00
      3.363  0.7845E-02  0.7844E-02  0.2793E+00  0.2793E+00
      3.466  0.9513E-02  0.9515E-02  0.2803E+00  0.2803E+00
      3.568  0.1398E-01  0.1398E-01  0.2817E+00  0.2817E+00
      3.671  0.9497E-02  0.9498E-02  0.2827E+00  0.2827E+00
      3.774  0.9768E-02  0.9771E-02  0.2837E+00  0.2837E+00
      3.877  0.1787E-01  0.1788E-01  0.2855E+00  0.2855E+00
      3.980  0.1840E-01  0.1839E-01  0.2874E+00  0.2874E+00
      4.083  0.1492E-01  0.1492E-01  0.2890E+00  0.2890E+00
      4.186  0.1367E-01  0.1367E-01  0.2904E+00  0.2904E+00
      4.288  0.1448E-01  0.1449E-01  0.2919E+00  0.2919E+00
      4.391  0.1392E-01  0.1392E-01  0.2933E+00  0.2933E+00
      4.494  0.1712E-01  0.1712E-01  0.2951E+00  0.2951E+00
      4.597  0.1379E-01  0.1378E-01  0.2965E+00  0.2965E+00
      4.700  0.1112E-01  0.1113E-01  0.2976E+00  0.2976E+00
      4.803  0.1606E-01  0.1607E-01  0.2993E+00  0.2993E+00
      4.906  0.2201E-01  0.2202E-01  0.3015E+00  0.3015E+00
      5.008  0.1961E-01  0.1960E-01  0.3036E+00  0.3036E+00
      5.111  0.1606E-01  0.1607E-01  0.3052E+00  0.3052E+00
      5.214  0.1567E-01  0.1567E-01  0.3068E+00  0.3068E+00
      5.317  0.1386E-01  0.1387E-01  0.3082E+00  0.3082E+00
      5.420  0.1873E-01  0.1874E-01  0.3102E+00  0.3102E+00
      5.523  0.2083E-01  0.2082E-01  0.3123E+00  0.3123E+00
      5.626  0.1663E-01  0.1663E-01  0.3140E+00  0.3140E+00
      5.728  0.1975E-01  0.1977E-01  0.3161E+00  0.3161E+00
      5.831  0.2857E-01  0.2856E-01  0.3190E+00  0.3190E+00
      5.934  0.2530E-01  0.2529E-01  0.3216E+00  0.3216E+00
      6.037  0.2263E-01  0.2264E-01  0.3239E+00  0.3239E+00
      6.140  0.2544E-01  0.2545E-01  0.3265E+00  0.3265E+00
      6.243  0.2732E-01  0.2731E-01  0.3293E+00  0.3294E+00
      6.346  0.2751E-01  0.2750E-01  0.3322E+00  0.3322E+00
      6.448  0.2084E-01  0.2083E-01  0.3343E+00  0.3343E+00
      6.551  0.2093E-01  0.2095E-01  0.3365E+00  0.3365E+00
      6.654  0.3090E-01  0.3092E-01  0.3397E+00  0.3397E+00
      6.757  0.3075E-01  0.3073E-01  0.3428E+00  0.3428E+00
      6.860  0.3049E-01  0.3049E-01  0.3460E+00  0.3460E+00
      6.963  0.3457E-01  0.3457E-01  0.3495E+00  0.3495E+00
      7.066  0.3037E-01  0.3036E-01  0.3526E+00  0.3526E+00
      7.169  0.3068E-01  0.3069E-01  0.3558E+00  0.3558E+00
      7.271  0.3681E-01  0.3682E-01  0.3596E+00  0.3596E+00
      7.374  0.3061E-01  0.3060E-01  0.3627E+00  0.3627E+00
      7.477  0.2137E-01  0.2137E-01  0.3649E+00  0.3649E+00
      7.580  0.2165E-01  0.2166E-01  0.3671E+00  0.3672E+00
      7.683  0.2545E-01  0.2546E-01  0.3698E+00  0.3698E+00
      7.786  0.2109E-01  0.2106E-01  0.3719E+00  0.3719E+00
      7.889  0.1389E-01  0.1388E-01  0.3734E+00  0.3734E+00
      7.991  0.9014E-02  0.9015E-02  0.3743E+00  0.3743E+00
      8.094  0.3366E-02  0.3360E-02  0.3746E+00  0.3746E+00
      8.197  0.1283E-02  0.1280E-02  0.3748E+00  0.3748E+00
      8.300  0.1669E-02  0.1669E-02  0.3749E+00  0.3749E+00
      8.403  0.5326E-03  0.5325E-03  0.3750E+00  0.3750E+00
      8.506  0.2705E-04  0.2705E-04  0.3750E+00  0.3750E+00
      8.609  0.1972E-06  0.1971E-06  0.3750E+00  0.3750E+00
      8.711  0.1922E-09  0.1921E-09  0.3750E+00  0.3750E+00
      8.814  0.2406E-13  0.2405E-13  0.3750E+00  0.3750E+00
      8.917  0.3514E-18  0.3514E-18  0.3750E+00  0.3750E+00
      9.020  0.0000E+00  0.0000E+00  0.3750E+00  0.3750E+00
      9.123  0.0000E+00  0.0000E+00  0.3750E+00  0.3750E+00
      9.226  0.0000E+00  0.0000E+00  0.3750E+00  0.3750E+00
      9.329  0.0000E+00  0.0000E+00  0.3750E+00  0.3750E+00
      9.431  0.0000E+00  0.0000E+00  0.3750E+00  0.3750E+00
      9.534  0.0000E+00  0.0000E+00  0.3750E+00  0.3750E+00
      9.637  0.0000E+00  0.0000E+00  0.3750E+00  0.3750E+00
