  16  16   0  16
  0.2070545E+02  0.5050000E-09  0.5050000E-09  0.1500000E-08  0.5000000E-15
  1.000000000000000E-004
  CAR 
 Lattice                                 
      9.74114316    -21.29001292  301     -0.98528521      1.00000000
    -21.290  0.0000E+00  0.0000E+00  0.0000E+00  0.0000E+00
    -21.187  0.0000E+00  0.0000E+00  0.0000E+00  0.0000E+00
    -21.083  0.0000E+00  0.0000E+00  0.0000E+00  0.0000E+00
    -20.980  0.0000E+00  0.0000E+00  0.0000E+00  0.0000E+00
    -20.876  0.0000E+00  0.0000E+00  0.0000E+00  0.0000E+00
    -20.773  0.0000E+00  0.0000E+00  0.0000E+00  0.0000E+00
    -20.669  0.0000E+00  0.0000E+00  0.0000E+00  0.0000E+00
    -20.566  0.0000E+00  0.0000E+00  0.0000E+00  0.0000E+00
    -20.463  0.2912E-19  0.2912E-19  0.3012E-20  0.3012E-20
    -20.359  0.3443E-14  0.3443E-14  0.3562E-15  0.3561E-15
    -20.256  0.3392E-10  0.3392E-10  0.3509E-11  0.3509E-11
    -20.152  0.4620E-07  0.4620E-07  0.4782E-08  0.4782E-08
    -20.049  0.9403E-05  0.9402E-05  0.9774E-06  0.9773E-06
    -19.945  0.3154E-03  0.3154E-03  0.3360E-04  0.3360E-04
    -19.842  0.2133E-02  0.2133E-02  0.2542E-03  0.2542E-03
    -19.738  0.4414E-02  0.4414E-02  0.7108E-03  0.7108E-03
    -19.635  0.4918E-02  0.4918E-02  0.1220E-02  0.1220E-02
    -19.532  0.5174E-02  0.5174E-02  0.1755E-02  0.1755E-02
    -19.428  0.4667E-02  0.4667E-02  0.2237E-02  0.2237E-02
    -19.325  0.5680E-02  0.5680E-02  0.2825E-02  0.2825E-02
    -19.221  0.4279E-02  0.4279E-02  0.3268E-02  0.3268E-02
    -19.118  0.5299E-02  0.5299E-02  0.3816E-02  0.3816E-02
    -19.014  0.5887E-02  0.5887E-02  0.4425E-02  0.4425E-02
    -18.911  0.3668E-02  0.3668E-02  0.4804E-02  0.4804E-02
    -18.808  0.5378E-02  0.5378E-02  0.5360E-02  0.5360E-02
    -18.704  0.6353E-02  0.6353E-02  0.6018E-02  0.6018E-02
    -18.601  0.4392E-02  0.4392E-02  0.6472E-02  0.6472E-02
    -18.497  0.3453E-02  0.3453E-02  0.6829E-02  0.6829E-02
    -18.394  0.6813E-02  0.6813E-02  0.7534E-02  0.7534E-02
    -18.290  0.5947E-02  0.5947E-02  0.8149E-02  0.8149E-02
    -18.187  0.4233E-02  0.4233E-02  0.8587E-02  0.8587E-02
    -18.083  0.3481E-02  0.3481E-02  0.8947E-02  0.8947E-02
    -17.980  0.7652E-02  0.7652E-02  0.9738E-02  0.9738E-02
    -17.877  0.1244E-01  0.1244E-01  0.1103E-01  0.1103E-01
    -17.773  0.1137E-01  0.1137E-01  0.1220E-01  0.1220E-01
    -17.670  0.1135E-01  0.1135E-01  0.1338E-01  0.1338E-01
    -17.566  0.1333E-01  0.1333E-01  0.1475E-01  0.1475E-01
    -17.463  0.1737E-01  0.1737E-01  0.1655E-01  0.1655E-01
    -17.359  0.2140E-01  0.2140E-01  0.1876E-01  0.1876E-01
    -17.256  0.1895E-01  0.1895E-01  0.2072E-01  0.2072E-01
    -17.153  0.7897E-02  0.7897E-02  0.2154E-01  0.2154E-01
    -17.049  0.4918E-02  0.4918E-02  0.2205E-01  0.2205E-01
    -16.946  0.7302E-02  0.7302E-02  0.2281E-01  0.2281E-01
    -16.842  0.6730E-02  0.6730E-02  0.2350E-01  0.2350E-01
    -16.739  0.5492E-02  0.5492E-02  0.2407E-01  0.2407E-01
    -16.635  0.4552E-02  0.4552E-02  0.2454E-01  0.2454E-01
    -16.532  0.2632E-02  0.2632E-02  0.2481E-01  0.2481E-01
    -16.428  0.4697E-02  0.4697E-02  0.2530E-01  0.2530E-01
    -16.325  0.9307E-02  0.9307E-02  0.2626E-01  0.2626E-01
    -16.222  0.6134E-02  0.6134E-02  0.2690E-01  0.2690E-01
    -16.118  0.4781E-02  0.4781E-02  0.2739E-01  0.2739E-01
    -16.015  0.4325E-02  0.4325E-02  0.2784E-01  0.2784E-01
    -15.911  0.4129E-02  0.4129E-02  0.2826E-01  0.2826E-01
    -15.808  0.3982E-02  0.3982E-02  0.2868E-01  0.2868E-01
    -15.704  0.9563E-02  0.9563E-02  0.2967E-01  0.2967E-01
    -15.601  0.1303E-01  0.1303E-01  0.3101E-01  0.3101E-01
    -15.498  0.1404E-01  0.1404E-01  0.3247E-01  0.3247E-01
    -15.394  0.1638E-01  0.1638E-01  0.3416E-01  0.3416E-01
    -15.291  0.1429E-01  0.1429E-01  0.3564E-01  0.3564E-01
    -15.187  0.1217E-01  0.1217E-01  0.3690E-01  0.3690E-01
    -15.084  0.1480E-01  0.1480E-01  0.3843E-01  0.3843E-01
    -14.980  0.1854E-01  0.1854E-01  0.4035E-01  0.4035E-01
    -14.877  0.1517E-01  0.1517E-01  0.4192E-01  0.4192E-01
    -14.773  0.1293E-01  0.1293E-01  0.4325E-01  0.4325E-01
    -14.670  0.9638E-02  0.9638E-02  0.4425E-01  0.4425E-01
    -14.567  0.1079E-01  0.1079E-01  0.4537E-01  0.4537E-01
    -14.463  0.1673E-01  0.1673E-01  0.4710E-01  0.4710E-01
    -14.360  0.2016E-01  0.2016E-01  0.4918E-01  0.4918E-01
    -14.256  0.1387E-01  0.1387E-01  0.5062E-01  0.5062E-01
    -14.153  0.9291E-02  0.9291E-02  0.5158E-01  0.5158E-01
    -14.049  0.7730E-02  0.7730E-02  0.5238E-01  0.5238E-01
    -13.946  0.8231E-02  0.8231E-02  0.5323E-01  0.5323E-01
    -13.843  0.7847E-02  0.7848E-02  0.5404E-01  0.5404E-01
    -13.739  0.5131E-02  0.5131E-02  0.5457E-01  0.5457E-01
    -13.636  0.3127E-02  0.3127E-02  0.5489E-01  0.5489E-01
    -13.532  0.4705E-02  0.4705E-02  0.5538E-01  0.5538E-01
    -13.429  0.4516E-02  0.4516E-02  0.5585E-01  0.5585E-01
    -13.325  0.6311E-02  0.6311E-02  0.5650E-01  0.5650E-01
    -13.222  0.5845E-02  0.5845E-02  0.5711E-01  0.5711E-01
    -13.118  0.6565E-02  0.6565E-02  0.5778E-01  0.5778E-01
    -13.015  0.8192E-02  0.8192E-02  0.5863E-01  0.5863E-01
    -12.912  0.7698E-02  0.7698E-02  0.5943E-01  0.5943E-01
    -12.808  0.8203E-02  0.8203E-02  0.6028E-01  0.6028E-01
    -12.705  0.5836E-02  0.5836E-02  0.6088E-01  0.6088E-01
    -12.601  0.7026E-02  0.7026E-02  0.6161E-01  0.6161E-01
    -12.498  0.4853E-02  0.4853E-02  0.6211E-01  0.6211E-01
    -12.394  0.4546E-02  0.4546E-02  0.6258E-01  0.6258E-01
    -12.291  0.8615E-02  0.8615E-02  0.6347E-01  0.6347E-01
    -12.188  0.6400E-02  0.6400E-02  0.6413E-01  0.6413E-01
    -12.084  0.6893E-02  0.6893E-02  0.6485E-01  0.6485E-01
    -11.981  0.1224E-01  0.1224E-01  0.6611E-01  0.6611E-01
    -11.877  0.1645E-01  0.1645E-01  0.6781E-01  0.6781E-01
    -11.774  0.1487E-01  0.1487E-01  0.6935E-01  0.6935E-01
    -11.670  0.1456E-01  0.1456E-01  0.7086E-01  0.7086E-01
    -11.567  0.1647E-01  0.1647E-01  0.7256E-01  0.7256E-01
    -11.463  0.1541E-01  0.1541E-01  0.7415E-01  0.7415E-01
    -11.360  0.8525E-02  0.8525E-02  0.7504E-01  0.7504E-01
    -11.257  0.9548E-02  0.9548E-02  0.7602E-01  0.7602E-01
    -11.153  0.1141E-01  0.1141E-01  0.7720E-01  0.7720E-01
    -11.050  0.1154E-01  0.1154E-01  0.7840E-01  0.7840E-01
    -10.946  0.6195E-02  0.6195E-02  0.7904E-01  0.7904E-01
    -10.843  0.6282E-02  0.6282E-02  0.7969E-01  0.7969E-01
    -10.739  0.1514E-01  0.1514E-01  0.8125E-01  0.8125E-01
    -10.636  0.1761E-01  0.1761E-01  0.8307E-01  0.8307E-01
    -10.533  0.8478E-02  0.8478E-02  0.8395E-01  0.8395E-01
    -10.429  0.6329E-02  0.6329E-02  0.8461E-01  0.8461E-01
    -10.326  0.1230E-01  0.1230E-01  0.8588E-01  0.8588E-01
    -10.222  0.1920E-01  0.1920E-01  0.8786E-01  0.8786E-01
    -10.119  0.1530E-01  0.1530E-01  0.8945E-01  0.8945E-01
    -10.015  0.8743E-02  0.8743E-02  0.9035E-01  0.9035E-01
     -9.912  0.8969E-02  0.8969E-02  0.9128E-01  0.9128E-01
     -9.808  0.1064E-01  0.1064E-01  0.9238E-01  0.9238E-01
     -9.705  0.1112E-01  0.1112E-01  0.9353E-01  0.9353E-01
     -9.602  0.8388E-02  0.8388E-02  0.9440E-01  0.9440E-01
     -9.498  0.1077E-01  0.1077E-01  0.9551E-01  0.9551E-01
     -9.395  0.1030E-01  0.1030E-01  0.9658E-01  0.9658E-01
     -9.291  0.1016E-01  0.1016E-01  0.9763E-01  0.9763E-01
     -9.188  0.8536E-02  0.8536E-02  0.9851E-01  0.9851E-01
     -9.084  0.2680E-02  0.2680E-02  0.9879E-01  0.9879E-01
     -8.981  0.4908E-02  0.4908E-02  0.9930E-01  0.9930E-01
     -8.878  0.1395E-01  0.1395E-01  0.1007E+00  0.1007E+00
     -8.774  0.1924E-01  0.1924E-01  0.1027E+00  0.1027E+00
     -8.671  0.1576E-01  0.1576E-01  0.1044E+00  0.1044E+00
     -8.567  0.8613E-02  0.8613E-02  0.1052E+00  0.1052E+00
     -8.464  0.8349E-02  0.8349E-02  0.1061E+00  0.1061E+00
     -8.360  0.1011E-01  0.1011E-01  0.1072E+00  0.1072E+00
     -8.257  0.1857E-01  0.1857E-01  0.1091E+00  0.1091E+00
     -8.153  0.2348E-01  0.2348E-01  0.1115E+00  0.1115E+00
     -8.050  0.2239E-01  0.2239E-01  0.1138E+00  0.1138E+00
     -7.947  0.1624E-01  0.1624E-01  0.1155E+00  0.1155E+00
     -7.843  0.1357E-01  0.1357E-01  0.1169E+00  0.1169E+00
     -7.740  0.1471E-01  0.1471E-01  0.1184E+00  0.1184E+00
     -7.636  0.2503E-01  0.2503E-01  0.1210E+00  0.1210E+00
     -7.533  0.2770E-01  0.2770E-01  0.1239E+00  0.1239E+00
     -7.429  0.2150E-01  0.2150E-01  0.1261E+00  0.1261E+00
     -7.326  0.2128E-01  0.2128E-01  0.1283E+00  0.1283E+00
     -7.223  0.2438E-01  0.2438E-01  0.1308E+00  0.1308E+00
     -7.119  0.2430E-01  0.2430E-01  0.1333E+00  0.1333E+00
     -7.016  0.2656E-01  0.2656E-01  0.1361E+00  0.1361E+00
     -6.912  0.2167E-01  0.2167E-01  0.1383E+00  0.1383E+00
     -6.809  0.2032E-01  0.2032E-01  0.1404E+00  0.1404E+00
     -6.705  0.2800E-01  0.2800E-01  0.1433E+00  0.1433E+00
     -6.602  0.2269E-01  0.2269E-01  0.1457E+00  0.1457E+00
     -6.498  0.2170E-01  0.2170E-01  0.1479E+00  0.1479E+00
     -6.395  0.2529E-01  0.2529E-01  0.1505E+00  0.1505E+00
     -6.292  0.2428E-01  0.2428E-01  0.1530E+00  0.1530E+00
     -6.188  0.2296E-01  0.2296E-01  0.1554E+00  0.1554E+00
     -6.085  0.1726E-01  0.1726E-01  0.1572E+00  0.1572E+00
     -5.981  0.1696E-01  0.1696E-01  0.1590E+00  0.1590E+00
     -5.878  0.2228E-01  0.2229E-01  0.1613E+00  0.1613E+00
     -5.774  0.2676E-01  0.2676E-01  0.1640E+00  0.1640E+00
     -5.671  0.1997E-01  0.1997E-01  0.1661E+00  0.1661E+00
     -5.568  0.1965E-01  0.1965E-01  0.1681E+00  0.1681E+00
     -5.464  0.2232E-01  0.2232E-01  0.1704E+00  0.1704E+00
     -5.361  0.2851E-01  0.2851E-01  0.1734E+00  0.1734E+00
     -5.257  0.2646E-01  0.2646E-01  0.1761E+00  0.1761E+00
     -5.154  0.1515E-01  0.1515E-01  0.1777E+00  0.1777E+00
     -5.050  0.1265E-01  0.1265E-01  0.1790E+00  0.1790E+00
     -4.947  0.1827E-01  0.1827E-01  0.1809E+00  0.1809E+00
     -4.844  0.1849E-01  0.1849E-01  0.1828E+00  0.1828E+00
     -4.740  0.1697E-01  0.1697E-01  0.1846E+00  0.1846E+00
     -4.637  0.1650E-01  0.1650E-01  0.1863E+00  0.1863E+00
     -4.533  0.1667E-01  0.1667E-01  0.1880E+00  0.1880E+00
     -4.430  0.1836E-01  0.1836E-01  0.1899E+00  0.1899E+00
     -4.326  0.2040E-01  0.2040E-01  0.1920E+00  0.1920E+00
     -4.223  0.2658E-01  0.2658E-01  0.1948E+00  0.1948E+00
     -4.119  0.4044E-01  0.4044E-01  0.1989E+00  0.1989E+00
     -4.016  0.3695E-01  0.3695E-01  0.2028E+00  0.2028E+00
     -3.913  0.2625E-01  0.2625E-01  0.2055E+00  0.2055E+00
     -3.809  0.1791E-01  0.1791E-01  0.2073E+00  0.2073E+00
     -3.706  0.1335E-01  0.1335E-01  0.2087E+00  0.2087E+00
     -3.602  0.1481E-01  0.1481E-01  0.2102E+00  0.2102E+00
     -3.499  0.1823E-01  0.1823E-01  0.2121E+00  0.2121E+00
     -3.395  0.2239E-01  0.2239E-01  0.2144E+00  0.2144E+00
     -3.292  0.1611E-01  0.1611E-01  0.2161E+00  0.2161E+00
     -3.189  0.1379E-01  0.1379E-01  0.2175E+00  0.2175E+00
     -3.085  0.1626E-01  0.1626E-01  0.2192E+00  0.2192E+00
     -2.982  0.2103E-01  0.2103E-01  0.2214E+00  0.2214E+00
     -2.878  0.2578E-01  0.2578E-01  0.2241E+00  0.2241E+00
     -2.775  0.1516E-01  0.1516E-01  0.2256E+00  0.2256E+00
     -2.671  0.1266E-01  0.1266E-01  0.2269E+00  0.2269E+00
     -2.568  0.2058E-01  0.2058E-01  0.2291E+00  0.2291E+00
     -2.464  0.2106E-01  0.2106E-01  0.2312E+00  0.2312E+00
     -2.361  0.1866E-01  0.1866E-01  0.2332E+00  0.2332E+00
     -2.258  0.2285E-01  0.2285E-01  0.2355E+00  0.2355E+00
     -2.154  0.1882E-01  0.1882E-01  0.2375E+00  0.2375E+00
     -2.051  0.5710E-02  0.5711E-02  0.2381E+00  0.2381E+00
     -1.947  0.4136E-02  0.4136E-02  0.2385E+00  0.2385E+00
     -1.844  0.8150E-02  0.8150E-02  0.2393E+00  0.2393E+00
     -1.740  0.5546E-02  0.5546E-02  0.2399E+00  0.2399E+00
     -1.637  0.4861E-02  0.4861E-02  0.2404E+00  0.2404E+00
     -1.534  0.7562E-02  0.7562E-02  0.2412E+00  0.2412E+00
     -1.430  0.5293E-02  0.5293E-02  0.2417E+00  0.2417E+00
     -1.327  0.2556E-02  0.2556E-02  0.2420E+00  0.2420E+00
     -1.223  0.6182E-03  0.6182E-03  0.2421E+00  0.2421E+00
     -1.120  0.7281E-04  0.7280E-04  0.2421E+00  0.2421E+00
     -1.016  0.5383E-03  0.5383E-03  0.2421E+00  0.2421E+00
     -0.913  0.2424E-02  0.2424E-02  0.2424E+00  0.2424E+00
     -0.809  0.3668E-02  0.3668E-02  0.2428E+00  0.2428E+00
     -0.706  0.4434E-02  0.4433E-02  0.2432E+00  0.2432E+00
     -0.603  0.9254E-02  0.9254E-02  0.2442E+00  0.2442E+00
     -0.499  0.1052E-01  0.1052E-01  0.2453E+00  0.2453E+00
     -0.396  0.9642E-02  0.9642E-02  0.2463E+00  0.2463E+00
     -0.292  0.1221E-01  0.1221E-01  0.2475E+00  0.2475E+00
     -0.189  0.1136E-01  0.1136E-01  0.2487E+00  0.2487E+00
     -0.085  0.7627E-02  0.7627E-02  0.2495E+00  0.2495E+00
      0.018  0.3272E-02  0.3273E-02  0.2498E+00  0.2498E+00
      0.121  0.1440E-02  0.1440E-02  0.2500E+00  0.2500E+00
      0.225  0.2418E-02  0.2418E-02  0.2502E+00  0.2502E+00
      0.328  0.7163E-02  0.7163E-02  0.2510E+00  0.2510E+00
      0.432  0.9820E-02  0.9820E-02  0.2520E+00  0.2520E+00
      0.535  0.6916E-02  0.6916E-02  0.2527E+00  0.2527E+00
      0.639  0.4211E-02  0.4211E-02  0.2531E+00  0.2531E+00
      0.742  0.8574E-02  0.8574E-02  0.2540E+00  0.2540E+00
      0.846  0.1184E-01  0.1184E-01  0.2553E+00  0.2553E+00
      0.949  0.1269E-01  0.1269E-01  0.2566E+00  0.2566E+00
      1.052  0.9724E-02  0.9724E-02  0.2576E+00  0.2576E+00
      1.156  0.4632E-02  0.4632E-02  0.2580E+00  0.2580E+00
      1.259  0.5153E-02  0.5153E-02  0.2586E+00  0.2586E+00
      1.363  0.5197E-02  0.5197E-02  0.2591E+00  0.2591E+00
      1.466  0.4829E-02  0.4829E-02  0.2596E+00  0.2596E+00
      1.570  0.6469E-02  0.6469E-02  0.2603E+00  0.2603E+00
      1.673  0.1181E-01  0.1181E-01  0.2615E+00  0.2615E+00
      1.776  0.8260E-02  0.8260E-02  0.2624E+00  0.2624E+00
      1.880  0.3188E-02  0.3188E-02  0.2627E+00  0.2627E+00
      1.983  0.3297E-02  0.3297E-02  0.2630E+00  0.2630E+00
      2.087  0.7304E-02  0.7303E-02  0.2638E+00  0.2638E+00
      2.190  0.1503E-01  0.1503E-01  0.2653E+00  0.2653E+00
      2.294  0.1498E-01  0.1498E-01  0.2669E+00  0.2669E+00
      2.397  0.1154E-01  0.1154E-01  0.2681E+00  0.2681E+00
      2.501  0.1216E-01  0.1216E-01  0.2693E+00  0.2693E+00
      2.604  0.1229E-01  0.1229E-01  0.2706E+00  0.2706E+00
      2.707  0.1031E-01  0.1031E-01  0.2717E+00  0.2717E+00
      2.811  0.7278E-02  0.7275E-02  0.2724E+00  0.2724E+00
      2.914  0.7713E-02  0.7705E-02  0.2732E+00  0.2732E+00
      3.018  0.1252E-01  0.1252E-01  0.2745E+00  0.2745E+00
      3.121  0.1408E-01  0.1408E-01  0.2760E+00  0.2760E+00
      3.225  0.1385E-01  0.1384E-01  0.2774E+00  0.2774E+00
      3.328  0.1177E-01  0.1177E-01  0.2786E+00  0.2786E+00
      3.431  0.7265E-02  0.7266E-02  0.2794E+00  0.2794E+00
      3.535  0.1035E-01  0.1034E-01  0.2805E+00  0.2805E+00
      3.638  0.1373E-01  0.1374E-01  0.2819E+00  0.2819E+00
      3.742  0.9475E-02  0.9472E-02  0.2829E+00  0.2829E+00
      3.845  0.1062E-01  0.1060E-01  0.2840E+00  0.2840E+00
      3.949  0.1824E-01  0.1823E-01  0.2858E+00  0.2858E+00
      4.052  0.1722E-01  0.1724E-01  0.2876E+00  0.2876E+00
      4.156  0.1360E-01  0.1361E-01  0.2890E+00  0.2890E+00
      4.259  0.1461E-01  0.1459E-01  0.2905E+00  0.2905E+00
      4.362  0.1618E-01  0.1617E-01  0.2922E+00  0.2922E+00
      4.466  0.1334E-01  0.1334E-01  0.2936E+00  0.2936E+00
      4.569  0.1487E-01  0.1489E-01  0.2951E+00  0.2951E+00
      4.673  0.1314E-01  0.1315E-01  0.2965E+00  0.2965E+00
      4.776  0.1434E-01  0.1431E-01  0.2980E+00  0.2980E+00
      4.880  0.1746E-01  0.1744E-01  0.2998E+00  0.2998E+00
      4.983  0.2085E-01  0.2086E-01  0.3019E+00  0.3019E+00
      5.086  0.1745E-01  0.1747E-01  0.3037E+00  0.3037E+00
      5.190  0.1634E-01  0.1634E-01  0.3054E+00  0.3054E+00
      5.293  0.1485E-01  0.1486E-01  0.3070E+00  0.3070E+00
      5.397  0.1631E-01  0.1628E-01  0.3087E+00  0.3087E+00
      5.500  0.2041E-01  0.2041E-01  0.3108E+00  0.3108E+00
      5.604  0.1698E-01  0.1702E-01  0.3125E+00  0.3125E+00
      5.707  0.1411E-01  0.1412E-01  0.3140E+00  0.3140E+00
      5.811  0.1955E-01  0.1951E-01  0.3160E+00  0.3160E+00
      5.914  0.2606E-01  0.2608E-01  0.3187E+00  0.3187E+00
      6.017  0.2449E-01  0.2448E-01  0.3212E+00  0.3212E+00
      6.121  0.2609E-01  0.2607E-01  0.3239E+00  0.3239E+00
      6.224  0.2613E-01  0.2613E-01  0.3266E+00  0.3266E+00
      6.328  0.2635E-01  0.2636E-01  0.3294E+00  0.3294E+00
      6.431  0.2300E-01  0.2303E-01  0.3317E+00  0.3317E+00
      6.535  0.1839E-01  0.1840E-01  0.3336E+00  0.3336E+00
      6.638  0.2392E-01  0.2388E-01  0.3361E+00  0.3361E+00
      6.741  0.3278E-01  0.3277E-01  0.3395E+00  0.3395E+00
      6.845  0.3088E-01  0.3090E-01  0.3427E+00  0.3427E+00
      6.948  0.3010E-01  0.3010E-01  0.3458E+00  0.3458E+00
      7.052  0.3447E-01  0.3447E-01  0.3494E+00  0.3494E+00
      7.155  0.2929E-01  0.2931E-01  0.3524E+00  0.3524E+00
      7.259  0.2869E-01  0.2869E-01  0.3554E+00  0.3554E+00
      7.362  0.3907E-01  0.3904E-01  0.3594E+00  0.3594E+00
      7.466  0.3271E-01  0.3272E-01  0.3628E+00  0.3628E+00
      7.569  0.2370E-01  0.2370E-01  0.3653E+00  0.3652E+00
      7.672  0.2430E-01  0.2426E-01  0.3678E+00  0.3678E+00
      7.776  0.2574E-01  0.2576E-01  0.3704E+00  0.3704E+00
      7.879  0.1842E-01  0.1841E-01  0.3723E+00  0.3723E+00
      7.983  0.1318E-01  0.1322E-01  0.3737E+00  0.3737E+00
      8.086  0.6726E-02  0.6763E-02  0.3744E+00  0.3744E+00
      8.190  0.2372E-02  0.2385E-02  0.3746E+00  0.3746E+00
      8.293  0.1255E-02  0.1256E-02  0.3748E+00  0.3748E+00
      8.396  0.1669E-02  0.1669E-02  0.3749E+00  0.3749E+00
      8.500  0.5205E-03  0.5211E-03  0.3750E+00  0.3750E+00
      8.603  0.2540E-04  0.2545E-04  0.3750E+00  0.3750E+00
      8.707  0.1739E-06  0.1745E-06  0.3750E+00  0.3750E+00
      8.810  0.1556E-09  0.1563E-09  0.3750E+00  0.3750E+00
      8.914  0.1747E-13  0.1757E-13  0.3750E+00  0.3750E+00
      9.017  0.0000E+00  0.0000E+00  0.3750E+00  0.3750E+00
      9.121  0.0000E+00  0.0000E+00  0.3750E+00  0.3750E+00
      9.224  0.0000E+00  0.0000E+00  0.3750E+00  0.3750E+00
      9.327  0.0000E+00  0.0000E+00  0.3750E+00  0.3750E+00
      9.431  0.0000E+00  0.0000E+00  0.3750E+00  0.3750E+00
      9.534  0.0000E+00  0.0000E+00  0.3750E+00  0.3750E+00
      9.638  0.0000E+00  0.0000E+00  0.3750E+00  0.3750E+00
      9.741  0.0000E+00  0.0000E+00  0.3750E+00  0.3750E+00
