 ----------------------------------------------------
    OOO  PPPP  EEEEE N   N M   M PPPP
   O   O P   P E     NN  N MM MM P   P
   O   O PPPP  EEEEE N N N M M M PPPP   -- VERSION
   O   O P     E     N  NN M   M P
    OOO  P     EEEEE N   N M   M P
 ----------------------------------------------------
 running   48 mpi-ranks, with    1 threads/rank
 distrk:  each k-point on   48 cores,    1 groups
 distr:  one band on    1 cores,   48 groups
 vasp.6.3.2 27Jun22 (build Dec 22 2022 13:13:19) complex                        
  
 POSCAR found type information on POSCAR B C 
 POSCAR found :  2 types and      16 ions
 Reading from existing POTCAR
 -----------------------------------------------------------------------------
|                                                                             |
|           W    W    AA    RRRRR   N    N  II  N    N   GGGG   !!!           |
|           W    W   A  A   R    R  NN   N  II  NN   N  G    G  !!!           |
|           W    W  A    A  R    R  N N  N  II  N N  N  G       !!!           |
|           W WW W  AAAAAA  RRRRR   N  N N  II  N  N N  G  GGG   !            |
|           WW  WW  A    A  R   R   N   NN  II  N   NN  G    G                |
|           W    W  A    A  R    R  N    N  II  N    N   GGGG   !!!           |
|                                                                             |
|     You use a magnetic or noncollinear calculation, but did not specify     |
|     the initial magnetic moment with the MAGMOM tag. Note that a            |
|     default of 1 will be used for all atoms. This ferromagnetic setup       |
|     may break the symmetry of the crystal, in particular it may rule        |
|     out finding an antiferromagnetic solution. Thence, we recommend         |
|     setting the initial magnetic moment manually or verifying carefully     |
|     that this magnetic setup is desired.                                    |
|                                                                             |
 -----------------------------------------------------------------------------

 scaLAPACK will be used
 Reading from existing POTCAR
 LDA part: xc-table for Pade appr. of Perdew
 POSCAR found type information on POSCAR B C 
 POSCAR found :  2 types and      16 ions
 POSCAR, INCAR and KPOINTS ok, starting setup
 FFT: planning ... GRIDC
 FFT: planning ... GRID_SOFT
 FFT: planning ... GRID
 WAVECAR not read
 entering main loop
       N       E                     dE             d eps       ncg     rms          rms(c)
DAV:   1     0.259332960757E+03    0.25933E+03   -0.28597E+04 14208   0.963E+02
DAV:   2    -0.129907902541E+03   -0.38924E+03   -0.38876E+03 21888   0.180E+02
DAV:   3    -0.145610689146E+03   -0.15703E+02   -0.15681E+02 25728   0.499E+01
DAV:   4    -0.145655365523E+03   -0.44676E-01   -0.44650E-01 21216   0.245E+00
DAV:   5    -0.145655450221E+03   -0.84698E-04   -0.84698E-04 24048   0.113E-01    0.249E+01
DAV:   6    -0.107170911474E+03    0.38485E+02   -0.68164E+01 23760   0.266E+01    0.145E+01
DAV:   7    -0.114399693596E+03   -0.72288E+01   -0.10030E+01 23136   0.110E+01    0.854E+00
DAV:   8    -0.123599413435E+03   -0.91997E+01   -0.82248E+00 24768   0.905E+00    0.457E+00
DAV:   9    -0.131337977793E+03   -0.77386E+01   -0.42005E+00 17376   0.705E+00    0.302E+00
DAV:  10    -0.138576319804E+03   -0.72383E+01   -0.99744E+00 21408   0.788E+00    0.172E+00
DAV:  11    -0.140045638923E+03   -0.14693E+01   -0.17641E+00 21408   0.357E+00    0.116E+00
DAV:  12    -0.140294202040E+03   -0.24856E+00   -0.29370E-01 20448   0.154E+00    0.471E-01
DAV:  13    -0.140346983734E+03   -0.52782E-01   -0.44995E-02 16896   0.826E-01    0.198E-01
DAV:  14    -0.140371944482E+03   -0.24961E-01   -0.79668E-03 18864   0.323E-01    0.949E-02
DAV:  15    -0.140380863953E+03   -0.89195E-02   -0.52683E-03 18336   0.180E-01    0.470E-02
DAV:  16    -0.140382277728E+03   -0.14138E-02   -0.52614E-04 14592   0.923E-02    0.267E-02
DAV:  17    -0.140384009565E+03   -0.17318E-02   -0.23899E-04 16128   0.629E-02    0.174E-02
DAV:  18    -0.140385052606E+03   -0.10430E-02   -0.11619E-04 15360   0.467E-02    0.123E-02
DAV:  19    -0.140385560431E+03   -0.50783E-03   -0.71226E-05 19056   0.380E-02    0.776E-03
DAV:  20    -0.140385715458E+03   -0.15503E-03   -0.23972E-05 15840   0.237E-02    0.447E-03
DAV:  21    -0.140385760231E+03   -0.44774E-04   -0.10309E-05 18432   0.146E-02    0.267E-03
DAV:  22    -0.140385765271E+03   -0.50394E-05   -0.34029E-06 24048   0.835E-03    0.189E-03
DAV:  23    -0.140385771954E+03   -0.66836E-05   -0.14675E-06 20208   0.482E-03    0.882E-04
DAV:  24    -0.140385775652E+03   -0.36982E-05   -0.41915E-07 21744   0.242E-03    0.499E-04
DAV:  25    -0.140385777351E+03   -0.16987E-05   -0.10167E-07 20496   0.112E-03    0.261E-04
DAV:  26    -0.140385778354E+03   -0.10031E-05   -0.72395E-08 18480   0.867E-04    0.128E-04
DAV:  27    -0.140385778674E+03   -0.31951E-06   -0.20819E-08 17568   0.492E-04
   1 F= -.14227071E+03 E0= -.14226965E+03  d E =-.142271E+03  mag=     0.0000
 curvature:   0.00 expect dE= 0.000E+00 dE for cont linesearch  0.000E+00
 trial: gam= 0.00000 g(F)=  0.880E-01 g(S)=  0.000E+00 ort = 0.000E+00 (trialstep = 0.100E+01)
 search vector abs. value=  0.880E-01
 bond charge predicted
       N       E                     dE             d eps       ncg     rms          rms(c)
DAV:   1    -0.140347035370E+03    0.38743E-01   -0.14097E+01 14208   0.127E+01    0.107E+00
DAV:   2    -0.140313460025E+03    0.33575E-01   -0.24512E-01 24720   0.175E+00    0.517E-01
DAV:   3    -0.140310108259E+03    0.33518E-02   -0.33610E-02 23040   0.575E-01    0.222E-01
DAV:   4    -0.140310051528E+03    0.56732E-04   -0.37281E-03 18096   0.187E-01    0.883E-02
DAV:   5    -0.140310052292E+03   -0.76437E-06   -0.25210E-04 20880   0.601E-02    0.240E-02
DAV:   6    -0.140310058334E+03   -0.60417E-05   -0.25574E-05 22272   0.182E-02    0.125E-02
DAV:   7    -0.140310067790E+03   -0.94568E-05   -0.15642E-05 21024   0.128E-02    0.282E-03
DAV:   8    -0.140310076688E+03   -0.88978E-05   -0.15667E-06 21792   0.409E-03    0.156E-03
DAV:   9    -0.140310091021E+03   -0.14333E-04   -0.14832E-06 19200   0.254E-03    0.972E-04
DAV:  10    -0.140310096621E+03   -0.56005E-05   -0.35543E-07 19632   0.118E-03    0.694E-04
DAV:  11    -0.140310102727E+03   -0.61055E-05   -0.63534E-07 18432   0.142E-03    0.351E-04
DAV:  12    -0.140310104724E+03   -0.19973E-05   -0.17516E-07 17184   0.674E-04    0.240E-04
DAV:  13    -0.140310105197E+03   -0.47274E-06   -0.26655E-08 20064   0.312E-04
   2 F= -.14219927E+03 E0= -.14219785E+03  d E =0.714423E-01  mag=    -0.0000
 trial-energy change:    0.071442  1 .order    0.070344   -0.087977    0.228664
 step:   0.2737(harm=  0.2778)  dis= 0.00703  next Energy=  -142.282732 (dE=-0.120E-01)
 bond charge predicted
       N       E                     dE             d eps       ncg     rms          rms(c)
DAV:   1    -0.140415333499E+03   -0.10523E+00   -0.73962E+00 14208   0.918E+00    0.775E-01
DAV:   2    -0.140398389078E+03    0.16944E-01   -0.12631E-01 23808   0.128E+00    0.375E-01
DAV:   3    -0.140396438836E+03    0.19502E-02   -0.20576E-02 23616   0.437E-01    0.152E-01
DAV:   4    -0.140396357477E+03    0.81359E-04   -0.22591E-03 17952   0.147E-01    0.676E-02
DAV:   5    -0.140396350052E+03    0.74251E-05   -0.18610E-04 17952   0.518E-02    0.119E-02
DAV:   6    -0.140396347770E+03    0.22818E-05   -0.36594E-05 21984   0.211E-02    0.611E-03
DAV:   7    -0.140396351675E+03   -0.39051E-05   -0.34412E-06 22560   0.655E-03    0.137E-03
DAV:   8    -0.140396356471E+03   -0.47963E-05   -0.38054E-07 21120   0.196E-03    0.990E-04
DAV:   9    -0.140396362285E+03   -0.58134E-05   -0.31124E-07 19680   0.123E-03    0.693E-04
DAV:  10    -0.140396366934E+03   -0.46494E-05   -0.23466E-07 17040   0.948E-04    0.534E-04
DAV:  11    -0.140396371009E+03   -0.40748E-05   -0.28597E-07 14784   0.880E-04    0.218E-04
DAV:  12    -0.140396371701E+03   -0.69176E-06   -0.21601E-08 22944   0.256E-04
   3 F= -.14228272E+03 E0= -.14228154E+03  d E =-.120059E-01  mag=    -0.0000
 curvature:  -0.14 expect dE=-0.362E-04 dE for cont linesearch -0.217E-08
 trial: gam= 0.00338 g(F)=  0.261E-03 g(S)=  0.000E+00 ort =-0.371E-04 (trialstep = 0.855E+00)
 search vector abs. value=  0.261E-03
 bond charge predicted
       N       E                     dE             d eps       ncg     rms          rms(c)
DAV:   1    -0.140396540065E+03   -0.16906E-03   -0.16192E-02 14592   0.552E-01    0.243E-02
DAV:   2    -0.140396542730E+03   -0.26652E-05   -0.11927E-04 25440   0.481E-02    0.160E-02
DAV:   3    -0.140396545945E+03   -0.32146E-05   -0.15936E-05 14400   0.159E-02    0.334E-03
DAV:   4    -0.140396545876E+03    0.68741E-07   -0.27707E-06 24048   0.670E-03
   4 F= -.14228286E+03 E0= -.14228169E+03  d E =-.140673E-03  mag=    -0.0000
 trial-energy change:   -0.000141  1 .order   -0.000140   -0.000223   -0.000057
 step:   1.1491(harm=  1.1491)  dis= 0.00190  next Energy=  -142.282870 (dE=-0.150E-03)
 bond charge predicted
       N       E                     dE             d eps       ncg     rms          rms(c)
DAV:   1    -0.140396566830E+03   -0.20885E-04   -0.19260E-03 14400   0.190E-01    0.859E-03
DAV:   2    -0.140396566934E+03   -0.10475E-06   -0.14693E-05 23088   0.170E-02    0.571E-03
DAV:   3    -0.140396567751E+03   -0.81627E-06   -0.19684E-06 14784   0.567E-03
   5 F= -.14228287E+03 E0= -.14228170E+03  d E =-.151044E-03  mag=    -0.0000
 curvature:  -0.58 expect dE=-0.852E-04 dE for cont linesearch -0.180E-08
 trial: gam= 0.56990 g(F)=  0.148E-03 g(S)=  0.000E+00 ort =-0.904E-06 (trialstep = 0.914E+00)
 search vector abs. value=  0.232E-03
 bond charge predicted
       N       E                     dE             d eps       ncg     rms          rms(c)
DAV:   1    -0.140396561158E+03    0.57760E-05   -0.19223E-02 14592   0.620E-01    0.310E-02
DAV:   2    -0.140396562430E+03   -0.12715E-05   -0.25582E-04 15168   0.727E-02    0.196E-02
DAV:   3    -0.140396561763E+03    0.66704E-06   -0.39579E-05 17280   0.265E-02    0.717E-03
DAV:   4    -0.140396561778E+03   -0.15430E-07   -0.82352E-06 22896   0.109E-02
   6 F= -.14228282E+03 E0= -.14228165E+03  d E =0.514669E-04  mag=    -0.0000
 trial-energy change:    0.000051  1 .order    0.000051   -0.000135    0.000236
 step:   0.3321(harm=  0.3321)  dis= 0.00045  next Energy=  -142.282896 (dE=-0.245E-04)
 bond charge predicted
       N       E                     dE             d eps       ncg     rms          rms(c)
DAV:   1    -0.140396609721E+03   -0.47958E-04   -0.78588E-03 17520   0.396E-01    0.203E-02
DAV:   2    -0.140396608385E+03    0.13352E-05   -0.10270E-04 14784   0.460E-02    0.125E-02
DAV:   3    -0.140396608008E+03    0.37746E-06   -0.15630E-05 15456   0.167E-02    0.447E-03
DAV:   4    -0.140396608189E+03   -0.18104E-06   -0.32072E-06 21168   0.676E-03
   7 F= -.14228290E+03 E0= -.14228173E+03  d E =-.239481E-04  mag=    -0.0000
 curvature:  -0.26 expect dE=-0.856E-05 dE for cont linesearch -0.956E-09
 trial: gam= 0.23282 g(F)=  0.327E-04 g(S)=  0.000E+00 ort =-0.921E-06 (trialstep = 0.797E+00)
 search vector abs. value=  0.449E-04
 bond charge predicted
       N       E                     dE             d eps       ncg     rms          rms(c)
DAV:   1    -0.140396645254E+03   -0.37246E-04   -0.27744E-03 15840   0.234E-01    0.117E-02
DAV:   2    -0.140396645175E+03    0.79574E-07   -0.37536E-05 15648   0.271E-02    0.741E-03
DAV:   3    -0.140396645400E+03   -0.22570E-06   -0.43389E-06 18720   0.866E-03
   8 F= -.14228290E+03 E0= -.14228173E+03  d E =-.380400E-05  mag=    -0.0000
 trial-energy change:   -0.000004  1 .order   -0.000003   -0.000026    0.000020
 step:   0.4522(harm=  0.4522)  dis= 0.00021  next Energy=  -142.282903 (dE=-0.736E-05)
 bond charge predicted
       N       E                     dE             d eps       ncg     rms          rms(c)
DAV:   1    -0.140396634859E+03    0.10316E-04   -0.51186E-04 15552   0.101E-01    0.430E-03
DAV:   2    -0.140396634972E+03   -0.11361E-06   -0.69474E-06 14208   0.115E-02
   9 F= -.14228290E+03 E0= -.14228173E+03  d E =-.786557E-05  mag=    -0.0000
 curvature:  -0.31 expect dE=-0.822E-05 dE for cont linesearch -0.659E-09
 trial: gam= 0.79317 g(F)=  0.264E-04 g(S)=  0.000E+00 ort = 0.308E-06 (trialstep = 0.593E+00)
 search vector abs. value=  0.551E-04
 bond charge predicted
       N       E                     dE             d eps       ncg     rms          rms(c)
DAV:   1    -0.140396683109E+03   -0.48250E-04   -0.18785E-03 14208   0.194E-01    0.816E-03
DAV:   2    -0.140396683375E+03   -0.26689E-06   -0.17010E-05 14880   0.184E-02    0.536E-03
DAV:   3    -0.140396683667E+03   -0.29153E-06   -0.15463E-06 18528   0.500E-03
  10 F= -.14228291E+03 E0= -.14228174E+03  d E =-.101708E-04  mag=     0.0000
 trial-energy change:   -0.000010  1 .order   -0.000010   -0.000016   -0.000004
 step:   0.8155(harm=  0.8155)  dis= 0.00040  next Energy=  -142.282914 (dE=-0.108E-04)
 bond charge predicted
       N       E                     dE             d eps       ncg     rms          rms(c)
DAV:   1    -0.140396699063E+03   -0.15687E-04   -0.26450E-04 15648   0.728E-02    0.348E-03
DAV:   2    -0.140396699014E+03    0.48488E-07   -0.23243E-06 16128   0.681E-03
  11 F= -.14228291E+03 E0= -.14228174E+03  d E =-.110963E-04  mag=    -0.0000
 curvature:  -0.84 expect dE=-0.210E-04 dE for cont linesearch -0.136E-07
 trial: gam= 0.92431 g(F)=  0.248E-04 g(S)=  0.000E+00 ort = 0.941E-06 (trialstep = 0.477E+00)
 search vector abs. value=  0.736E-04
 bond charge predicted
       N       E                     dE             d eps       ncg     rms          rms(c)
DAV:   1    -0.140396753386E+03   -0.54324E-04   -0.18743E-03 14208   0.193E-01    0.885E-03
DAV:   2    -0.140396753535E+03   -0.14891E-06   -0.18130E-05 14208   0.192E-02    0.576E-03
DAV:   3    -0.140396753667E+03   -0.13155E-06   -0.17009E-06 15744   0.544E-03
  12 F= -.14228292E+03 E0= -.14228175E+03  d E =-.814967E-05  mag=    -0.0000
 trial-energy change:   -0.000008  1 .order   -0.000008   -0.000012   -0.000003
 step:   0.6399(harm=  0.6399)  dis= 0.00030  next Energy=  -142.282923 (dE=-0.822E-05)
 bond charge predicted
       N       E                     dE             d eps       ncg     rms          rms(c)
DAV:   1    -0.140396770247E+03   -0.16712E-04   -0.22017E-04 16128   0.661E-02    0.327E-03
DAV:   2    -0.140396770234E+03    0.13031E-07   -0.19722E-06 16656   0.636E-03
  13 F= -.14228292E+03 E0= -.14228175E+03  d E =-.885172E-05  mag=     0.0000
 curvature:  -0.92 expect dE=-0.232E-04 dE for cont linesearch -0.121E-07
 trial: gam= 1.06390 g(F)=  0.253E-04 g(S)=  0.000E+00 ort = 0.986E-06 (trialstep = 0.339E+00)
 search vector abs. value=  0.111E-03
 bond charge predicted
       N       E                     dE             d eps       ncg     rms          rms(c)
DAV:   1    -0.140396824270E+03   -0.54023E-04   -0.12676E-03 14208   0.160E-01    0.728E-03
DAV:   2    -0.140396824437E+03   -0.16753E-06   -0.11679E-05 14208   0.149E-02    0.491E-03
DAV:   3    -0.140396824623E+03   -0.18557E-06   -0.88436E-07 17376   0.381E-03
  14 F= -.14228293E+03 E0= -.14228176E+03  d E =-.862715E-05  mag=     0.0000
 ZBRENT: can't locate minimum, use default step
 trial-energy change:   -0.000009  1 .order   -0.000008   -0.000009   -0.000008
 step:   1.3558(harm=  2.7283)  dis= 0.00074  next Energy=  -142.282959 (dE=-0.359E-04)
 bond charge predicted
       N       E                     dE             d eps       ncg     rms          rms(c)
DAV:   1    -0.140396978309E+03   -0.15387E-03   -0.11479E-02 14208   0.481E-01    0.211E-02
DAV:   2    -0.140396981032E+03   -0.27230E-05   -0.10295E-04 14208   0.444E-02    0.141E-02
DAV:   3    -0.140396981393E+03   -0.36110E-06   -0.75866E-06 16128   0.111E-02
  15 F= -.14228295E+03 E0= -.14228178E+03  d E =-.281412E-04  mag=     0.0000
 curvature:  -3.84 expect dE=-0.108E-03 dE for cont linesearch -0.558E-05
 ZBRENT: increasing intervall
 opt :   3.3895  next Energy=  -142.282956 (dE=-0.328E-04)
 bond charge predicted
       N       E                     dE             d eps       ncg     rms          rms(c)
DAV:   1    -0.140397255182E+03   -0.27415E-03   -0.45930E-02 14208   0.961E-01    0.424E-02
DAV:   2    -0.140397269319E+03   -0.14137E-04   -0.41009E-04 15168   0.885E-02    0.284E-02
DAV:   3    -0.140397267736E+03    0.15829E-05   -0.30082E-05 15072   0.219E-02    0.676E-03
DAV:   4    -0.140397268434E+03   -0.69817E-06   -0.34330E-06 20448   0.697E-03
  16 F= -.14228296E+03 E0= -.14228179E+03  d E =-.408251E-04  mag=     0.0000
 curvature:  -3.23 expect dE=-0.417E-03 dE for cont linesearch -0.436E-06
 trial: gam= 5.25880 g(F)=  0.129E-03 g(S)=  0.000E+00 ort =-0.387E-05 (trialstep = 0.334E-01)
 search vector abs. value=  0.315E-02
 bond charge predicted
       N       E                     dE             d eps       ncg     rms          rms(c)
DAV:   1    -0.140397296148E+03   -0.28412E-04   -0.35294E-04 15360   0.838E-02    0.397E-03
DAV:   2    -0.140397296224E+03   -0.75624E-07   -0.33632E-06 16608   0.799E-03
  17 F= -.14228297E+03 E0= -.14228179E+03  d E =-.381738E-05  mag=     0.0000
 ZBRENT: can't locate minimum, use default step
 trial-energy change:   -0.000004  1 .order   -0.000004   -0.000004   -0.000004
 step:   0.1334(harm=  4.6859)  dis= 0.00038  next Energy=  -142.283219 (dE=-0.255E-03)
 bond charge predicted
       N       E                     dE             d eps       ncg     rms          rms(c)
DAV:   1    -0.140397378380E+03   -0.82232E-04   -0.31105E-03 14208   0.250E-01    0.117E-02
DAV:   2    -0.140397378929E+03   -0.54913E-06   -0.28421E-05 14400   0.233E-02    0.786E-03
DAV:   3    -0.140397379177E+03   -0.24763E-06   -0.20972E-06 15648   0.589E-03
  18 F= -.14228298E+03 E0= -.14228180E+03  d E =-.148153E-04  mag=     0.0000
 curvature:  -2.88 expect dE=-0.363E-03 dE for cont linesearch -0.938E-05
 ZBRENT: increasing intervall
 opt :   0.3335  next Energy=  -142.282998 (dE=-0.337E-04)
 bond charge predicted
       N       E                     dE             d eps       ncg     rms          rms(c)
DAV:   1    -0.140397539924E+03   -0.16100E-03   -0.12491E-02 14208   0.499E-01    0.222E-02
DAV:   2    -0.140397543309E+03   -0.33842E-05   -0.11219E-04 14592   0.463E-02    0.150E-02
DAV:   3    -0.140397543462E+03   -0.15317E-06   -0.78336E-06 14208   0.113E-02
  19 F= -.14228300E+03 E0= -.14228182E+03  d E =-.352952E-04  mag=     0.0000
 curvature:  -5.80 expect dE=-0.744E-03 dE for cont linesearch -0.131E-04
 ZBRENT: increasing intervall
 opt :   0.7338  next Energy=  -142.283026 (dE=-0.624E-04)
 bond charge predicted
       N       E                     dE             d eps       ncg     rms          rms(c)
DAV:   1    -0.140397851097E+03   -0.30779E-03   -0.49976E-02 14208   0.999E-01    0.444E-02
DAV:   2    -0.140397866639E+03   -0.15542E-04   -0.44566E-04 14208   0.923E-02    0.299E-02
DAV:   3    -0.140397864810E+03    0.18284E-05   -0.31755E-05 15264   0.227E-02    0.728E-03
DAV:   4    -0.140397865556E+03   -0.74539E-06   -0.33749E-06 16320   0.708E-03
  20 F= -.14228303E+03 E0= -.14228185E+03  d E =-.697590E-04  mag=     0.0000
 curvature: -11.96 expect dE=-0.188E-02 dE for cont linesearch -0.174E-04
 ZBRENT: increasing intervall
 opt :   1.5342  next Energy=  -142.283075 (dE=-0.111E-03)
 bond charge predicted
       N       E                     dE             d eps       ncg     rms          rms(c)
DAV:   1    -0.140398430693E+03   -0.56588E-03   -0.19995E-01 14208   0.200E+00    0.885E-02
DAV:   2    -0.140398491563E+03   -0.60870E-04   -0.17732E-03 14640   0.184E-01    0.593E-02
DAV:   3    -0.140398480757E+03    0.10805E-04   -0.12843E-04 16032   0.453E-02    0.144E-02
DAV:   4    -0.140398482836E+03   -0.20788E-05   -0.13422E-05 16800   0.139E-02    0.516E-03
DAV:   5    -0.140398482985E+03   -0.14845E-06   -0.12944E-06 15984   0.435E-03
  21 F= -.14228308E+03 E0= -.14228189E+03  d E =-.112622E-03  mag=     0.0000
 curvature: -28.06 expect dE=-0.886E-02 dE for cont linesearch -0.915E-05
 trial: gam= 1.66539 g(F)=  0.316E-03 g(S)=  0.000E+00 ort = 0.320E-04 (trialstep = 0.115E+00)
 search vector abs. value=  0.916E-02
 bond charge predicted
       N       E                     dE             d eps       ncg     rms          rms(c)
DAV:   1    -0.140398659442E+03   -0.17661E-03   -0.12120E-02 14208   0.494E-01    0.213E-02
DAV:   2    -0.140398663116E+03   -0.36735E-05   -0.11109E-04 14208   0.462E-02    0.144E-02
DAV:   3    -0.140398663015E+03    0.10098E-06   -0.77187E-06 17472   0.113E-02
  22 F= -.14228312E+03 E0= -.14228192E+03  d E =-.387653E-04  mag=     0.0000
 ZBRENT: can't locate minimum, use default step
 trial-energy change:   -0.000039  1 .order   -0.000038   -0.000042   -0.000034
 step:   0.4588(harm=  0.5812)  dis= 0.00226  next Energy=  -142.283184 (dE=-0.107E-03)
 bond charge predicted
       N       E                     dE             d eps       ncg     rms          rms(c)
DAV:   1    -0.140399131596E+03   -0.46848E-03   -0.10905E-01 14208   0.148E+00    0.648E-02
DAV:   2    -0.140399167909E+03   -0.36314E-04   -0.96626E-04 14784   0.136E-01    0.437E-02
DAV:   3    -0.140399162426E+03    0.54829E-05   -0.67263E-05 14400   0.332E-02    0.106E-02
DAV:   4    -0.140399163706E+03   -0.12799E-05   -0.75778E-06 19296   0.104E-02    0.370E-03
DAV:   5    -0.140399163800E+03   -0.94326E-07   -0.81885E-07 16416   0.331E-03
  23 F= -.14228319E+03 E0= -.14228200E+03  d E =-.116075E-03  mag=     0.0000
 curvature:  -6.71 expect dE=-0.102E-02 dE for cont linesearch -0.156E-04
 ZBRENT: increasing intervall
 opt :   1.1471  next Energy=  -142.283189 (dE=-0.113E-03)
 bond charge predicted
       N       E                     dE             d eps       ncg     rms          rms(c)
DAV:   1    -0.140399875498E+03   -0.71179E-03   -0.43608E-01 14208   0.296E+00    0.129E-01
DAV:   2    -0.140400021473E+03   -0.14598E-03   -0.38339E-03 14976   0.271E-01    0.865E-02
DAV:   3    -0.140399989351E+03    0.32123E-04   -0.27017E-04 15744   0.661E-02    0.211E-02
DAV:   4    -0.140399992766E+03   -0.34151E-05   -0.29720E-05 17184   0.206E-02    0.728E-03
DAV:   5    -0.140399992963E+03   -0.19734E-06   -0.34023E-06 19968   0.655E-03
  24 F= -.14228318E+03 E0= -.14228197E+03  d E =-.996151E-04  mag=     0.0000
 curvature:   1.49 expect dE= 0.189E-02 dE for cont linesearch  0.601E-05
 ZBRENT: bracketing found
 ZBRENT: interpolating
 opt :   0.7558  next Energy=  -142.283214 (dE=-0.138E-03)
 bond charge predicted
       N       E                     dE             d eps       ncg     rms          rms(c)
DAV:   1    -0.140399512293E+03    0.48047E-03   -0.14094E-01 14208   0.168E+00    0.732E-02
DAV:   2    -0.140399560765E+03   -0.48472E-04   -0.12640E-03 20640   0.154E-01    0.499E-02
DAV:   3    -0.140399549404E+03    0.11361E-04   -0.80914E-05 15360   0.341E-02    0.109E-02
DAV:   4    -0.140399550459E+03   -0.10553E-05   -0.10537E-05 14544   0.123E-02    0.405E-03
DAV:   5    -0.140399550683E+03   -0.22429E-06   -0.89517E-07 16416   0.387E-03
  25 F= -.14228321E+03 E0= -.14228202E+03  d E =-.137851E-03  mag=    -0.0000
 curvature:  -5.38 expect dE=-0.232E-02 dE for cont linesearch -0.480E-09
 trial: gam= 1.73954 g(F)=  0.431E-03 g(S)=  0.000E+00 ort =-0.904E-06 (trialstep = 0.791E-01)
 search vector abs. value=  0.281E-01
 bond charge predicted
       N       E                     dE             d eps       ncg     rms          rms(c)
DAV:   1    -0.140399742946E+03   -0.19249E-03   -0.17597E-02 14208   0.595E-01    0.256E-02
DAV:   2    -0.140399748025E+03   -0.50784E-05   -0.15621E-04 15888   0.548E-02    0.174E-02
DAV:   3    -0.140399747607E+03    0.41752E-06   -0.10427E-05 14208   0.130E-02    0.438E-03
DAV:   4    -0.140399747946E+03   -0.33866E-06   -0.12100E-06 16848   0.434E-03
  26 F= -.14228325E+03 E0= -.14228204E+03  d E =-.306364E-04  mag=     0.0000
 ZBRENT: can't locate minimum, use default step
 trial-energy change:   -0.000031  1 .order   -0.000030   -0.000034   -0.000026
 step:   0.3162(harm=  0.3386)  dis= 0.00264  next Energy=  -142.283287 (dE=-0.727E-04)
 bond charge predicted
       N       E                     dE             d eps       ncg     rms          rms(c)
DAV:   1    -0.140400251248E+03   -0.50364E-03   -0.15853E-01 14208   0.179E+00    0.774E-02
DAV:   2    -0.140400304606E+03   -0.53359E-04   -0.13872E-03 14208   0.163E-01    0.523E-02
DAV:   3    -0.140400295225E+03    0.93814E-05   -0.94453E-05 14688   0.394E-02    0.130E-02
DAV:   4    -0.140400296916E+03   -0.16907E-05   -0.10470E-05 15072   0.124E-02    0.442E-03
DAV:   5    -0.140400296979E+03   -0.63236E-07   -0.12339E-06 14208   0.431E-03
  27 F= -.14228329E+03 E0= -.14228209E+03  d E =-.801906E-04  mag=    -0.0000
 curvature: -11.01 expect dE=-0.170E-02 dE for cont linesearch -0.236E-05
 ZBRENT: extrapolating
 opt :   0.3894  next Energy=  -142.283298 (dE=-0.830E-04)
 bond charge predicted
       N       E                     dE             d eps       ncg     rms          rms(c)
DAV:   1    -0.140400448757E+03   -0.15184E-03   -0.15101E-02 14208   0.551E-01    0.237E-02
DAV:   2    -0.140400453550E+03   -0.47931E-05   -0.13663E-04 14496   0.513E-02    0.161E-02
DAV:   3    -0.140400453323E+03    0.22679E-06   -0.91816E-06 16608   0.124E-02
  28 F= -.14228330E+03 E0= -.14228209E+03  d E =-.824778E-04  mag=     0.0000
 curvature: -13.27 expect dE=-0.234E-02 dE for cont linesearch -0.735E-06
 ZBRENT: bracketing found
 ZBRENT: interpolating
 opt :   0.3648  next Energy=  -142.283298 (dE=-0.830E-04)
 bond charge predicted
       N       E                     dE             d eps       ncg     rms          rms(c)
DAV:   1    -0.140400401134E+03    0.52416E-04   -0.17117E-03 14208   0.186E-01    0.756E-03
DAV:   2    -0.140400401545E+03   -0.41073E-06   -0.16556E-05 15696   0.179E-02    0.509E-03
DAV:   3    -0.140400401515E+03    0.29399E-07   -0.11303E-06 14784   0.442E-03
  29 F= -.14228330E+03 E0= -.14228209E+03  d E =-.825825E-04  mag=    -0.0000
 curvature:  -8.80 expect dE=-0.144E-02 dE for cont linesearch -0.298E-06
 trial: gam= 0.14147 g(F)=  0.164E-03 g(S)=  0.000E+00 ort = 0.309E-04 (trialstep = 0.136E+00)
 search vector abs. value=  0.736E-03
 bond charge predicted
       N       E                     dE             d eps       ncg     rms          rms(c)
DAV:   1    -0.140400454642E+03   -0.53097E-04   -0.12980E-03 14208   0.162E-01    0.684E-03
DAV:   2    -0.140400454974E+03   -0.33266E-06   -0.12322E-05 14208   0.158E-02    0.455E-03
DAV:   3    -0.140400454987E+03   -0.13155E-07   -0.84650E-07 14592   0.416E-03
  30 F= -.14228332E+03 E0= -.14228211E+03  d E =-.199766E-04  mag=    -0.0000
 trial-energy change:   -0.000020  1 .order   -0.000020   -0.000023   -0.000017
 step:   0.5177(harm=  0.5177)  dis= 0.00087  next Energy=  -142.283341 (dE=-0.436E-04)
 bond charge predicted
       N       E                     dE             d eps       ncg     rms          rms(c)
DAV:   1    -0.140400571064E+03   -0.11609E-03   -0.10170E-02 14208   0.455E-01    0.200E-02
DAV:   2    -0.140400574008E+03   -0.29442E-05   -0.92812E-05 18336   0.429E-02    0.134E-02
DAV:   3    -0.140400573902E+03    0.10611E-06   -0.60421E-06 14304   0.104E-02
  31 F= -.14228334E+03 E0= -.14228213E+03  d E =-.450816E-04  mag=    -0.0000
 curvature:  -1.13 expect dE=-0.162E-03 dE for cont linesearch -0.158E-07
 trial: gam= 0.86122 g(F)=  0.144E-03 g(S)=  0.000E+00 ort = 0.321E-05 (trialstep = 0.213E+00)
 search vector abs. value=  0.695E-03
 bond charge predicted
       N       E                     dE             d eps       ncg     rms          rms(c)
DAV:   1    -0.140400641087E+03   -0.67080E-04   -0.30188E-03 14208   0.250E-01    0.110E-02
DAV:   2    -0.140400642035E+03   -0.94791E-06   -0.27042E-05 15072   0.232E-02    0.754E-03
DAV:   3    -0.140400642204E+03   -0.16887E-06   -0.17136E-06 15936   0.602E-03
  32 F= -.14228337E+03 E0= -.14228215E+03  d E =-.239599E-04  mag=     0.0000
 trial-energy change:   -0.000024  1 .order   -0.000023   -0.000031   -0.000016
 step:   0.4302(harm=  0.4302)  dis= 0.00057  next Energy=  -142.283374 (dE=-0.315E-04)
 bond charge predicted
       N       E                     dE             d eps       ncg     rms          rms(c)
DAV:   1    -0.140400694780E+03   -0.52744E-04   -0.31652E-03 14208   0.256E-01    0.108E-02
DAV:   2    -0.140400695833E+03   -0.10535E-05   -0.28279E-05 14304   0.237E-02    0.740E-03
DAV:   3    -0.140400695959E+03   -0.12610E-06   -0.17226E-06 14688   0.608E-03
  33 F= -.14228337E+03 E0= -.14228216E+03  d E =-.322940E-04  mag=    -0.0000
 curvature:  -1.02 expect dE=-0.716E-04 dE for cont linesearch -0.905E-09
 trial: gam= 0.53834 g(F)=  0.701E-04 g(S)=  0.000E+00 ort =-0.785E-06 (trialstep = 0.256E+00)
 search vector abs. value=  0.271E-03
 bond charge predicted
       N       E                     dE             d eps       ncg     rms          rms(c)
DAV:   1    -0.140400737780E+03   -0.41946E-04   -0.18376E-03 14208   0.194E-01    0.841E-03
DAV:   2    -0.140400738322E+03   -0.54180E-06   -0.17454E-05 14208   0.190E-02    0.569E-03
DAV:   3    -0.140400738312E+03    0.99635E-08   -0.13888E-06 15168   0.549E-03
  34 F= -.14228339E+03 E0= -.14228218E+03  d E =-.143310E-04  mag=     0.0000
 trial-energy change:   -0.000014  1 .order   -0.000014   -0.000018   -0.000010
 step:   0.6095(harm=  0.6095)  dis= 0.00068  next Energy=  -142.283396 (dE=-0.212E-04)
 bond charge predicted
       N       E                     dE             d eps       ncg     rms          rms(c)
DAV:   1    -0.140400783570E+03   -0.45248E-04   -0.35067E-03 14304   0.268E-01    0.117E-02
DAV:   2    -0.140400784669E+03   -0.10990E-05   -0.32853E-05 14400   0.259E-02    0.784E-03
DAV:   3    -0.140400784642E+03    0.27128E-07   -0.26024E-06 14976   0.718E-03
  35 F= -.14228340E+03 E0= -.14228219E+03  d E =-.219756E-04  mag=    -0.0000
 curvature:  -1.18 expect dE=-0.829E-04 dE for cont linesearch -0.121E-09
 trial: gam= 0.97527 g(F)=  0.700E-04 g(S)=  0.000E+00 ort = 0.166E-06 (trialstep = 0.270E+00)
 search vector abs. value=  0.328E-03
 bond charge predicted
       N       E                     dE             d eps       ncg     rms          rms(c)
DAV:   1    -0.140400813433E+03   -0.28764E-04   -0.23540E-03 14208   0.219E-01    0.965E-03
DAV:   2    -0.140400814083E+03   -0.64990E-06   -0.19513E-05 14208   0.198E-02    0.661E-03
DAV:   3    -0.140400814166E+03   -0.82989E-07   -0.15676E-06 15072   0.577E-03
  36 F= -.14228341E+03 E0= -.14228220E+03  d E =-.170735E-04  mag=     0.0000
 ZBRENT: can't locate minimum, use default step
 trial-energy change:   -0.000017  1 .order   -0.000017   -0.000019   -0.000015
 step:   1.0792(harm=  1.1686)  dis= 0.00114  next Energy=  -142.283438 (dE=-0.410E-04)
 bond charge predicted
       N       E                     dE             d eps       ncg     rms          rms(c)
DAV:   1    -0.140400870119E+03   -0.56036E-04   -0.21210E-02 14208   0.657E-01    0.281E-02
DAV:   2    -0.140400877158E+03   -0.70391E-05   -0.17268E-04 14208   0.585E-02    0.191E-02
DAV:   3    -0.140400877058E+03    0.10047E-06   -0.13096E-05 14208   0.151E-02    0.421E-03
DAV:   4    -0.140400877409E+03   -0.35072E-06   -0.15653E-06 14208   0.596E-03
  37 F= -.14228344E+03 E0= -.14228222E+03  d E =-.429731E-04  mag=     0.0000
 curvature:  -2.70 expect dE=-0.310E-03 dE for cont linesearch -0.325E-06
 trial: gam= 1.58972 g(F)=  0.115E-03 g(S)=  0.000E+00 ort = 0.628E-05 (trialstep = 0.147E+00)
 search vector abs. value=  0.963E-03
 bond charge predicted
       N       E                     dE             d eps       ncg     rms          rms(c)
DAV:   1    -0.140400900127E+03   -0.23070E-04   -0.19700E-03 14208   0.199E-01    0.915E-03
DAV:   2    -0.140400900600E+03   -0.47233E-06   -0.17679E-05 14592   0.188E-02    0.619E-03
DAV:   3    -0.140400900615E+03   -0.15035E-07   -0.16033E-06 15744   0.592E-03
  38 F= -.14228346E+03 E0= -.14228224E+03  d E =-.160670E-04  mag=    -0.0000
 trial-energy change:   -0.000016  1 .order   -0.000016   -0.000018   -0.000014
 step:   0.5585(harm=  0.5585)  dis= 0.00098  next Energy=  -142.283474 (dE=-0.349E-04)
 bond charge predicted
       N       E                     dE             d eps       ncg     rms          rms(c)
DAV:   1    -0.140400936440E+03   -0.35840E-04   -0.15395E-02 14208   0.557E-01    0.253E-02
DAV:   2    -0.140400940452E+03   -0.40126E-05   -0.13453E-04 15168   0.510E-02    0.170E-02
DAV:   3    -0.140400940420E+03    0.32089E-07   -0.11212E-05 15168   0.138E-02    0.424E-03
DAV:   4    -0.140400940681E+03   -0.26069E-06   -0.16488E-06 14592   0.635E-03
  39 F= -.14228348E+03 E0= -.14228226E+03  d E =-.361515E-04  mag=    -0.0000
 curvature:  -2.15 expect dE=-0.261E-03 dE for cont linesearch -0.725E-09
 trial: gam= 1.22382 g(F)=  0.121E-03 g(S)=  0.000E+00 ort = 0.569E-06 (trialstep = 0.141E+00)
 search vector abs. value=  0.157E-02
 bond charge predicted
       N       E                     dE             d eps       ncg     rms          rms(c)
DAV:   1    -0.140400964096E+03   -0.23676E-04   -0.29762E-03 14208   0.244E-01    0.112E-02
DAV:   2    -0.140400964799E+03   -0.70266E-06   -0.25511E-05 14400   0.223E-02    0.758E-03
DAV:   3    -0.140400964814E+03   -0.15179E-07   -0.24177E-06 14592   0.705E-03
  40 F= -.14228349E+03 E0= -.14228227E+03  d E =-.158743E-04  mag=     0.0000
 ZBRENT: can't locate minimum, use default step
 trial-energy change:   -0.000016  1 .order   -0.000015   -0.000017   -0.000014
 step:   0.5643(harm=  0.6924)  dis= 0.00129  next Energy=  -142.283518 (dE=-0.422E-04)
 bond charge predicted
       N       E                     dE             d eps       ncg     rms          rms(c)
DAV:   1    -0.140401011340E+03   -0.46541E-04   -0.26744E-02 14208   0.731E-01    0.331E-02
DAV:   2    -0.140401018336E+03   -0.69964E-05   -0.22248E-04 15264   0.650E-02    0.223E-02
DAV:   3    -0.140401017858E+03    0.47768E-06   -0.19372E-05 15360   0.176E-02    0.453E-03
DAV:   4    -0.140401018192E+03   -0.33375E-06   -0.24450E-06 14208   0.766E-03
  41 F= -.14228352E+03 E0= -.14228230E+03  d E =-.444881E-04  mag=     0.0000
 curvature:  -4.21 expect dE=-0.663E-03 dE for cont linesearch -0.230E-05
 trial: gam= 0.93719 g(F)=  0.157E-03 g(S)=  0.000E+00 ort = 0.293E-04 (trialstep = 0.223E+00)
 search vector abs. value=  0.159E-02
 bond charge predicted
       N       E                     dE             d eps       ncg     rms          rms(c)
DAV:   1    -0.140401061284E+03   -0.43425E-04   -0.80535E-03 14208   0.402E-01    0.181E-02
DAV:   2    -0.140401063102E+03   -0.18186E-05   -0.66732E-05 14976   0.363E-02    0.122E-02
DAV:   3    -0.140401063124E+03   -0.21920E-07   -0.64314E-06 14784   0.109E-02
  42 F= -.14228356E+03 E0= -.14228234E+03  d E =-.380375E-04  mag=    -0.0000
 ZBRENT: can't locate minimum, use default step
 trial-energy change:   -0.000038  1 .order   -0.000037   -0.000041   -0.000033
 step:   0.8904(harm=  1.1025)  dis= 0.00213  next Energy=  -142.283622 (dE=-0.102E-03)
 bond charge predicted
       N       E                     dE             d eps       ncg     rms          rms(c)
DAV:   1    -0.140401140159E+03   -0.77057E-04   -0.72379E-02 14208   0.121E+00    0.538E-02
DAV:   2    -0.140401159176E+03   -0.19016E-04   -0.58408E-04 15360   0.107E-01    0.360E-02
DAV:   3    -0.140401155838E+03    0.33378E-05   -0.54177E-05 15360   0.289E-02    0.724E-03
DAV:   4    -0.140401156451E+03   -0.61339E-06   -0.65536E-06 14400   0.118E-02
  43 F= -.14228363E+03 E0= -.14228241E+03  d E =-.110846E-03  mag=    -0.0000
 curvature:  -4.46 expect dE=-0.785E-03 dE for cont linesearch -0.738E-05
 ZBRENT: increasing intervall
 opt :   2.2259  next Energy=  -142.283571 (dE=-0.507E-04)
 bond charge predicted
       N       E                     dE             d eps       ncg     rms          rms(c)
DAV:   1    -0.140401084284E+03    0.71554E-04   -0.28961E-01 14208   0.241E+00    0.108E-01
DAV:   2    -0.140401162478E+03   -0.78195E-04   -0.23209E-03 16416   0.213E-01    0.719E-02
DAV:   3    -0.140401140886E+03    0.21592E-04   -0.21642E-04 16032   0.563E-02    0.140E-02
DAV:   4    -0.140401142470E+03   -0.15840E-05   -0.24176E-05 15744   0.211E-02    0.675E-03
DAV:   5    -0.140401142603E+03   -0.13344E-06   -0.45906E-06 14352   0.113E-02
  44 F= -.14228358E+03 E0= -.14228235E+03  d E =-.566207E-04  mag=     0.0000
 curvature:  36.29 expect dE= 0.566E-01 dE for cont linesearch  0.429E-03
 ZBRENT: bracketing found
 ZBRENT: interpolating
 opt :   1.2541  next Energy=  -142.283640 (dE=-0.120E-03)
 bond charge predicted
       N       E                     dE             d eps       ncg     rms          rms(c)
DAV:   1    -0.140401148813E+03   -0.63432E-05   -0.15326E-01 14208   0.175E+00    0.780E-02
DAV:   2    -0.140401188747E+03   -0.39934E-04   -0.12400E-03 15744   0.155E-01    0.520E-02
DAV:   3    -0.140401177581E+03    0.11166E-04   -0.11506E-04 15744   0.418E-02    0.106E-02
DAV:   4    -0.140401178577E+03   -0.99572E-06   -0.13904E-05 14208   0.173E-02    0.504E-03
DAV:   5    -0.140401178574E+03    0.29358E-08   -0.38395E-06 14208   0.109E-02
  45 F= -.14228364E+03 E0= -.14228242E+03  d E =-.121953E-03  mag=    -0.0000
 curvature:  -0.79 expect dE=-0.310E-03 dE for cont linesearch -0.613E-08
 trial: gam= 3.04027 g(F)=  0.393E-03 g(S)=  0.000E+00 ort = 0.351E-05 (trialstep = 0.451E-01)
 search vector abs. value=  0.151E-01
 bond charge predicted
       N       E                     dE             d eps       ncg     rms          rms(c)
DAV:   1    -0.140401196193E+03   -0.17616E-04   -0.30944E-03 14592   0.249E-01    0.111E-02
DAV:   2    -0.140401196693E+03   -0.50027E-06   -0.25102E-05 14208   0.226E-02    0.740E-03
DAV:   3    -0.140401196479E+03    0.21450E-06   -0.31661E-06 15504   0.869E-03
  46 F= -.14228366E+03 E0= -.14228244E+03  d E =-.175358E-04  mag=     0.0000
 ZBRENT: can't locate minimum, use default step
 trial-energy change:   -0.000018  1 .order   -0.000017   -0.000018   -0.000016
 step:   0.1805(harm=  0.3572)  dis= 0.00126  next Energy=  -142.283714 (dE=-0.721E-04)
 bond charge predicted
       N       E                     dE             d eps       ncg     rms          rms(c)
DAV:   1    -0.140401232527E+03   -0.35834E-04   -0.27857E-02 14208   0.747E-01    0.333E-02
DAV:   2    -0.140401239727E+03   -0.71996E-05   -0.22547E-04 15456   0.659E-02    0.225E-02
DAV:   3    -0.140401239033E+03    0.69355E-06   -0.20967E-05 15456   0.187E-02    0.433E-03
DAV:   4    -0.140401239350E+03   -0.31697E-06   -0.36715E-06 14208   0.102E-02
  47 F= -.14228370E+03 E0= -.14228248E+03  d E =-.593021E-04  mag=     0.0000
 curvature:  -4.54 expect dE=-0.113E-02 dE for cont linesearch -0.172E-04
 ZBRENT: increasing intervall
 opt :   0.4513  next Energy=  -142.283735 (dE=-0.933E-04)
 bond charge predicted
       N       E                     dE             d eps       ncg     rms          rms(c)
DAV:   1    -0.140401253235E+03   -0.14202E-04   -0.11147E-01 14208   0.149E+00    0.669E-02
DAV:   2    -0.140401283360E+03   -0.30125E-04   -0.89264E-04 15936   0.131E-01    0.449E-02
DAV:   3    -0.140401277322E+03    0.60378E-05   -0.81587E-05 15936   0.348E-02    0.837E-03
DAV:   4    -0.140401278128E+03   -0.80590E-06   -0.97674E-06 14400   0.147E-02
  48 F= -.14228374E+03 E0= -.14228251E+03  d E =-.963358E-04  mag=     0.0000
 curvature:  -8.98 expect dE=-0.348E-02 dE for cont linesearch -0.224E-08
 trial: gam= 0.74068 g(F)=  0.388E-03 g(S)=  0.000E+00 ort =-0.194E-05 (trialstep = 0.126E+00)
 search vector abs. value=  0.866E-02
 bond charge predicted
       N       E                     dE             d eps       ncg     rms          rms(c)
DAV:   1    -0.140401311334E+03   -0.34012E-04   -0.13452E-02 14208   0.519E-01    0.237E-02
DAV:   2    -0.140401315104E+03   -0.37705E-05   -0.11807E-04 14208   0.491E-02    0.160E-02
DAV:   3    -0.140401315808E+03   -0.70394E-06   -0.13569E-05 15504   0.183E-02    0.361E-03
DAV:   4    -0.140401315519E+03    0.28897E-06   -0.65694E-06 14256   0.150E-02
  49 F= -.14228378E+03 E0= -.14228256E+03  d E =-.447980E-04  mag=     0.0000
 ZBRENT: can't locate minimum, use default step
 trial-energy change:   -0.000045  1 .order   -0.000043   -0.000049   -0.000038
 step:   0.5054(harm=  0.5449)  dis= 0.00288  next Energy=  -142.283844 (dE=-0.105E-03)
 bond charge predicted
       N       E                     dE             d eps       ncg     rms          rms(c)
DAV:   1    -0.140401324767E+03   -0.89589E-05   -0.12061E-01 14208   0.155E+00    0.701E-02
DAV:   2    -0.140401358985E+03   -0.34218E-04   -0.10111E-03 17376   0.140E-01    0.472E-02
DAV:   3    -0.140401352300E+03    0.66854E-05   -0.87314E-05 15744   0.363E-02    0.901E-03
DAV:   4    -0.140401353073E+03   -0.77347E-06   -0.91109E-06 16128   0.129E-02
  50 F= -.14228384E+03 E0= -.14228262E+03  d E =-.104835E-03  mag=     0.0000
 curvature:  -6.05 expect dE=-0.132E-02 dE for cont linesearch -0.720E-08
 trial: gam= 0.58602 g(F)=  0.218E-03 g(S)=  0.000E+00 ort =-0.321E-05 (trialstep = 0.202E+00)
 search vector abs. value=  0.319E-02
 bond charge predicted
       N       E                     dE             d eps       ncg     rms          rms(c)
DAV:   1    -0.140401380283E+03   -0.27984E-04   -0.12621E-02 14352   0.505E-01    0.226E-02
DAV:   2    -0.140401383583E+03   -0.32996E-05   -0.10448E-04 14208   0.456E-02    0.153E-02
DAV:   3    -0.140401383671E+03   -0.88395E-07   -0.10341E-05 15552   0.148E-02    0.322E-03
DAV:   4    -0.140401383872E+03   -0.20125E-06   -0.34046E-06 14208   0.105E-02
  51 F= -.14228388E+03 E0= -.14228265E+03  d E =-.360913E-04  mag=     0.0000
 trial-energy change:   -0.000036  1 .order   -0.000035   -0.000044   -0.000026
 step:   0.4955(harm=  0.4955)  dis= 0.00159  next Energy=  -142.283897 (dE=-0.536E-04)
 bond charge predicted
       N       E                     dE             d eps       ncg     rms          rms(c)
DAV:   1    -0.140401389407E+03   -0.57359E-05   -0.26515E-02 15120   0.731E-01    0.327E-02
DAV:   2    -0.140401395189E+03   -0.57824E-05   -0.20655E-04 14592   0.628E-02    0.219E-02
DAV:   3    -0.140401394915E+03    0.27416E-06   -0.19189E-05 14736   0.178E-02    0.411E-03
DAV:   4    -0.140401395194E+03   -0.27884E-06   -0.26795E-06 14400   0.816E-03
  52 F= -.14228390E+03 E0= -.14228267E+03  d E =-.551244E-04  mag=     0.0000
 curvature:  -3.65 expect dE=-0.629E-03 dE for cont linesearch -0.471E-07
 trial: gam= 0.82408 g(F)=  0.172E-03 g(S)=  0.000E+00 ort =-0.641E-05 (trialstep = 0.261E+00)
 search vector abs. value=  0.233E-02
 bond charge predicted
       N       E                     dE             d eps       ncg     rms          rms(c)
DAV:   1    -0.140401406031E+03   -0.11116E-04   -0.15884E-02 14208   0.569E-01    0.247E-02
DAV:   2    -0.140401410924E+03   -0.48920E-05   -0.12900E-04 14208   0.511E-02    0.168E-02
DAV:   3    -0.140401410535E+03    0.38814E-06   -0.10844E-05 15552   0.149E-02    0.374E-03
DAV:   4    -0.140401410847E+03   -0.31149E-06   -0.25601E-06 14208   0.906E-03
  53 F= -.14228393E+03 E0= -.14228270E+03  d E =-.297352E-04  mag=     0.0000
 trial-energy change:   -0.000030  1 .order   -0.000029   -0.000043   -0.000014
 step:   0.3870(harm=  0.3870)  dis= 0.00120  next Energy=  -142.283931 (dE=-0.323E-04)
 bond charge predicted
       N       E                     dE             d eps       ncg     rms          rms(c)
DAV:   1    -0.140401406806E+03    0.37293E-05   -0.37227E-03 14880   0.275E-01    0.121E-02
DAV:   2    -0.140401407882E+03   -0.10759E-05   -0.30197E-05 15072   0.250E-02    0.819E-03
DAV:   3    -0.140401407776E+03    0.10562E-06   -0.31303E-06 15360   0.891E-03
  54 F= -.14228393E+03 E0= -.14228270E+03  d E =-.334977E-04  mag=    -0.0000
 curvature:  -2.70 expect dE=-0.258E-03 dE for cont linesearch -0.146E-08
 trial: gam= 0.50695 g(F)=  0.955E-04 g(S)=  0.000E+00 ort =-0.112E-05 (trialstep = 0.286E+00)
 search vector abs. value=  0.692E-03
 bond charge predicted
       N       E                     dE             d eps       ncg     rms          rms(c)
DAV:   1    -0.140401401317E+03    0.65649E-05   -0.58129E-03 14352   0.345E-01    0.145E-02
DAV:   2    -0.140401403523E+03   -0.22063E-05   -0.48058E-05 14304   0.320E-02    0.100E-02
DAV:   3    -0.140401403128E+03    0.39505E-06   -0.42941E-06 14544   0.105E-02
  55 F= -.14228395E+03 E0= -.14228272E+03  d E =-.210421E-04  mag=     0.0000
 trial-energy change:   -0.000021  1 .order   -0.000020   -0.000027   -0.000013
 step:   0.5681(harm=  0.5681)  dis= 0.00100  next Energy=  -142.283959 (dE=-0.270E-04)
 bond charge predicted
       N       E                     dE             d eps       ncg     rms          rms(c)
DAV:   1    -0.140401383470E+03    0.20054E-04   -0.56464E-03 14208   0.340E-01    0.144E-02
DAV:   2    -0.140401385777E+03   -0.23070E-05   -0.47165E-05 14208   0.318E-02    0.990E-03
DAV:   3    -0.140401385365E+03    0.41144E-06   -0.42046E-06 14928   0.105E-02
  56 F= -.14228396E+03 E0= -.14228273E+03  d E =-.286016E-04  mag=    -0.0000
 curvature:  -2.07 expect dE=-0.175E-03 dE for cont linesearch -0.305E-08
 trial: gam= 0.89404 g(F)=  0.845E-04 g(S)=  0.000E+00 ort = 0.101E-05 (trialstep = 0.342E+00)
 search vector abs. value=  0.640E-03
 bond charge predicted
       N       E                     dE             d eps       ncg     rms          rms(c)
DAV:   1    -0.140401368545E+03    0.17232E-04   -0.71736E-03 14208   0.384E-01    0.161E-02
DAV:   2    -0.140401371873E+03   -0.33284E-05   -0.58287E-05 14208   0.347E-02    0.112E-02
DAV:   3    -0.140401371347E+03    0.52685E-06   -0.38572E-06 15168   0.104E-02
  57 F= -.14228398E+03 E0= -.14228275E+03  d E =-.227227E-04  mag=     0.0000
 trial-energy change:   -0.000023  1 .order   -0.000022   -0.000029   -0.000015
 step:   0.7173(harm=  0.7173)  dis= 0.00100  next Energy=  -142.283991 (dE=-0.306E-04)
 bond charge predicted
       N       E                     dE             d eps       ncg     rms          rms(c)
DAV:   1    -0.140401336337E+03    0.35536E-04   -0.85825E-03 14208   0.420E-01    0.174E-02
DAV:   2    -0.140401340465E+03   -0.41277E-05   -0.69588E-05 14208   0.379E-02    0.122E-02
DAV:   3    -0.140401339834E+03    0.63036E-06   -0.46312E-06 15456   0.115E-02
  58 F= -.14228399E+03 E0= -.14228276E+03  d E =-.314676E-04  mag=    -0.0000
 curvature:  -2.69 expect dE=-0.386E-03 dE for cont linesearch -0.585E-09
 trial: gam= 1.75228 g(F)=  0.144E-03 g(S)=  0.000E+00 ort =-0.373E-06 (trialstep = 0.127E+00)
 search vector abs. value=  0.211E-02
 bond charge predicted
       N       E                     dE             d eps       ncg     rms          rms(c)
DAV:   1    -0.140401329850E+03    0.10615E-04   -0.31182E-03 14208   0.252E-01    0.106E-02
DAV:   2    -0.140401331488E+03   -0.16381E-05   -0.26345E-05 14400   0.242E-02    0.747E-03
DAV:   3    -0.140401331085E+03    0.40317E-06   -0.26441E-06 15504   0.946E-03
  59 F= -.14228401E+03 E0= -.14228278E+03  d E =-.158957E-04  mag=     0.0000
 trial-energy change:   -0.000016  1 .order   -0.000016   -0.000018   -0.000013
 step:   0.4630(harm=  0.4630)  dis= 0.00129  next Energy=  -142.284025 (dE=-0.331E-04)
 bond charge predicted
       N       E                     dE             d eps       ncg     rms          rms(c)
DAV:   1    -0.140401273820E+03    0.57668E-04   -0.21980E-02 14208   0.669E-01    0.277E-02
DAV:   2    -0.140401284453E+03   -0.10633E-04   -0.17822E-04 15792   0.594E-02    0.195E-02
DAV:   3    -0.140401282900E+03    0.15526E-05   -0.10049E-05 15552   0.158E-02    0.544E-03
DAV:   4    -0.140401283154E+03   -0.25424E-06   -0.33994E-06 14880   0.109E-02
  60 F= -.14228403E+03 E0= -.14228279E+03  d E =-.333335E-04  mag=     0.0000
 curvature:  -3.41 expect dE=-0.285E-03 dE for cont linesearch -0.639E-07
 trial: gam= 0.59780 g(F)=  0.835E-04 g(S)=  0.000E+00 ort =-0.628E-05 (trialstep = 0.194E+00)
 search vector abs. value=  0.829E-03
 bond charge predicted
       N       E                     dE             d eps       ncg     rms          rms(c)
DAV:   1    -0.140401268664E+03    0.14236E-04   -0.29675E-03 15024   0.246E-01    0.103E-02
DAV:   2    -0.140401270201E+03   -0.15362E-05   -0.23363E-05 14880   0.220E-02    0.724E-03
DAV:   3    -0.140401269755E+03    0.44578E-06   -0.18902E-06 15120   0.781E-03
  61 F= -.14228404E+03 E0= -.14228281E+03  d E =-.145680E-04  mag=    -0.0000
 ZBRENT: can't locate minimum, use default step
 trial-energy change:   -0.000015  1 .order   -0.000014   -0.000015   -0.000013
 step:   0.7760(harm=  1.1539)  dis= 0.00140  next Energy=  -142.284071 (dE=-0.460E-04)
 bond charge predicted
       N       E                     dE             d eps       ncg     rms          rms(c)
DAV:   1    -0.140401200642E+03    0.69558E-04   -0.26601E-02 14208   0.736E-01    0.300E-02
DAV:   2    -0.140401214282E+03   -0.13640E-04   -0.21522E-04 15840   0.647E-02    0.214E-02
DAV:   3    -0.140401212305E+03    0.19767E-05   -0.10490E-05 15648   0.156E-02    0.630E-03
DAV:   4    -0.140401212514E+03   -0.20908E-06   -0.25158E-06 14208   0.909E-03
  62 F= -.14228407E+03 E0= -.14228284E+03  d E =-.411200E-04  mag=    -0.0000
 curvature:  -5.07 expect dE=-0.682E-03 dE for cont linesearch -0.252E-05
 trial: gam= 1.29884 g(F)=  0.135E-03 g(S)=  0.000E+00 ort = 0.203E-04 (trialstep = 0.162E+00)
 search vector abs. value=  0.159E-02
 bond charge predicted
       N       E                     dE             d eps       ncg     rms          rms(c)
DAV:   1    -0.140401194149E+03    0.18157E-04   -0.41222E-03 14208   0.291E-01    0.120E-02
DAV:   2    -0.140401196391E+03   -0.22424E-05   -0.34685E-05 15552   0.269E-02    0.845E-03
DAV:   3    -0.140401195925E+03    0.46602E-06   -0.22391E-06 15552   0.817E-03
  63 F= -.14228409E+03 E0= -.14228286E+03  d E =-.228040E-04  mag=     0.0000
 trial-energy change:   -0.000023  1 .order   -0.000022   -0.000026   -0.000019
 step:   0.5751(harm=  0.5751)  dis= 0.00127  next Energy=  -142.284113 (dE=-0.463E-04)
 bond charge predicted
       N       E                     dE             d eps       ncg     rms          rms(c)
DAV:   1    -0.140401106831E+03    0.89560E-04   -0.26570E-02 14208   0.739E-01    0.302E-02
DAV:   2    -0.140401120258E+03   -0.13427E-04   -0.21716E-04 15552   0.657E-02    0.212E-02
DAV:   3    -0.140401118159E+03    0.20993E-05   -0.10554E-05 15552   0.157E-02    0.680E-03
DAV:   4    -0.140401118383E+03   -0.22406E-06   -0.28059E-06 14208   0.940E-03
  64 F= -.14228411E+03 E0= -.14228288E+03  d E =-.454500E-04  mag=     0.0000
 curvature:  -2.83 expect dE=-0.533E-03 dE for cont linesearch -0.264E-06
 trial: gam= 1.91781 g(F)=  0.188E-03 g(S)=  0.000E+00 ort =-0.122E-04 (trialstep = 0.650E-01)
 search vector abs. value=  0.597E-02
 bond charge predicted
       N       E                     dE             d eps       ncg     rms          rms(c)
DAV:   1    -0.140401096175E+03    0.21984E-04   -0.24699E-03 14208   0.225E-01    0.916E-03
DAV:   2    -0.140401097589E+03   -0.14139E-05   -0.20475E-05 15552   0.210E-02    0.657E-03
DAV:   3    -0.140401097244E+03    0.34493E-06   -0.17178E-06 15552   0.756E-03
  65 F= -.14228412E+03 E0= -.14228289E+03  d E =-.107110E-04  mag=    -0.0000
 ZBRENT: can't locate minimum, use default step
 trial-energy change:   -0.000011  1 .order   -0.000010   -0.000011   -0.000010
 step:   0.2600(harm=  1.1183)  dis= 0.00114  next Energy=  -142.284204 (dE=-0.922E-04)
 bond charge predicted
       N       E                     dE             d eps       ncg     rms          rms(c)
DAV:   1    -0.140401017558E+03    0.80031E-04   -0.22104E-02 14208   0.673E-01    0.269E-02
DAV:   2    -0.140401028661E+03   -0.11103E-04   -0.17506E-04 15792   0.586E-02    0.193E-02
DAV:   3    -0.140401027132E+03    0.15294E-05   -0.84934E-06 15696   0.143E-02    0.570E-03
DAV:   4    -0.140401027404E+03   -0.27237E-06   -0.23970E-06 14208   0.889E-03
  66 F= -.14228415E+03 E0= -.14228292E+03  d E =-.363547E-04  mag=    -0.0000
 curvature:  -6.81 expect dE=-0.146E-02 dE for cont linesearch -0.110E-04
 ZBRENT: increasing intervall
 opt :   0.6499  next Energy=  -142.284164 (dE=-0.523E-04)
 bond charge predicted
       N       E                     dE             d eps       ncg     rms          rms(c)
DAV:   1    -0.140400820131E+03    0.20700E-03   -0.88571E-02 14208   0.135E+00    0.540E-02
DAV:   2    -0.140400863987E+03   -0.43856E-04   -0.69603E-04 16512   0.116E-01    0.387E-02
DAV:   3    -0.140400858120E+03    0.58666E-05   -0.31002E-05 16272   0.249E-02    0.108E-02
DAV:   4    -0.140400858574E+03   -0.45433E-06   -0.47765E-06 14352   0.113E-02
  67 F= -.14228417E+03 E0= -.14228294E+03  d E =-.584047E-04  mag=    -0.0000
 curvature:  -9.90 expect dE=-0.397E-02 dE for cont linesearch -0.145E-06
 trial: gam= 1.19777 g(F)=  0.402E-03 g(S)=  0.000E+00 ort =-0.935E-05 (trialstep = 0.121E+00)
 search vector abs. value=  0.895E-02
 bond charge predicted
       N       E                     dE             d eps       ncg     rms          rms(c)
DAV:   1    -0.140400828461E+03    0.29658E-04   -0.12604E-02 14208   0.507E-01    0.210E-02
DAV:   2    -0.140400835209E+03   -0.67479E-05   -0.10562E-04 14208   0.461E-02    0.149E-02
DAV:   3    -0.140400834208E+03    0.10012E-05   -0.60032E-06 15552   0.130E-02    0.468E-03
DAV:   4    -0.140400834415E+03   -0.20724E-06   -0.27561E-06 14208   0.972E-03
  68 F= -.14228421E+03 E0= -.14228298E+03  d E =-.425765E-04  mag=    -0.0000
 trial-energy change:   -0.000043  1 .order   -0.000041   -0.000047   -0.000035
 step:   0.4541(harm=  0.4541)  dis= 0.00238  next Energy=  -142.284259 (dE=-0.886E-04)
 bond charge predicted
       N       E                     dE             d eps       ncg     rms          rms(c)
DAV:   1    -0.140400657290E+03    0.17692E-03   -0.94219E-02 14208   0.139E+00    0.570E-02
DAV:   2    -0.140400704353E+03   -0.47062E-04   -0.77059E-04 16848   0.122E-01    0.405E-02
DAV:   3    -0.140400697302E+03    0.70509E-05   -0.32951E-05 16128   0.252E-02    0.116E-02
DAV:   4    -0.140400697759E+03   -0.45701E-06   -0.45197E-06 14448   0.104E-02
  69 F= -.14228426E+03 E0= -.14228303E+03  d E =-.887307E-04  mag=    -0.0000
 curvature:  -5.21 expect dE=-0.277E-02 dE for cont linesearch -0.926E-06
 trial: gam= 1.45179 g(F)=  0.532E-03 g(S)=  0.000E+00 ort =-0.399E-04 (trialstep = 0.873E-01)
 search vector abs. value=  0.193E-01
 bond charge predicted
       N       E                     dE             d eps       ncg     rms          rms(c)
DAV:   1    -0.140400661699E+03    0.35603E-04   -0.13787E-02 14208   0.530E-01    0.217E-02
DAV:   2    -0.140400668943E+03   -0.72434E-05   -0.11179E-04 14208   0.468E-02    0.156E-02
DAV:   3    -0.140400667932E+03    0.10110E-05   -0.60535E-06 15552   0.128E-02    0.445E-03
DAV:   4    -0.140400668179E+03   -0.24762E-06   -0.23229E-06 14208   0.893E-03
  70 F= -.14228430E+03 E0= -.14228307E+03  d E =-.415249E-04  mag=    -0.0000
 ZBRENT: can't locate minimum, use default step
 trial-energy change:   -0.000042  1 .order   -0.000040   -0.000041   -0.000038
 step:   0.3491(harm=  1.1934)  dis= 0.00267  next Energy=  -142.284542 (dE=-0.283E-03)
 bond charge predicted
       N       E                     dE             d eps       ncg     rms          rms(c)
DAV:   1    -0.140400499929E+03    0.16800E-03   -0.12369E-01 14208   0.159E+00    0.644E-02
DAV:   2    -0.140400561163E+03   -0.61235E-04   -0.98013E-04 16848   0.136E-01    0.463E-02
DAV:   3    -0.140400552936E+03    0.82278E-05   -0.42274E-05 16272   0.283E-02    0.120E-02
DAV:   4    -0.140400553513E+03   -0.57697E-06   -0.50557E-06 14544   0.109E-02
  71 F= -.14228440E+03 E0= -.14228317E+03  d E =-.140171E-03  mag=     0.0000
 curvature: -10.12 expect dE=-0.382E-02 dE for cont linesearch -0.376E-04
 ZBRENT: increasing intervall
 opt :   0.8727  next Energy=  -142.284449 (dE=-0.190E-03)
 bond charge predicted
       N       E                     dE             d eps       ncg     rms          rms(c)
DAV:   1    -0.140399993110E+03    0.55983E-03   -0.49491E-01 14208   0.317E+00    0.129E-01
DAV:   2    -0.140400240569E+03   -0.24746E-03   -0.39103E-03 18096   0.272E-01    0.928E-02
DAV:   3    -0.140400203197E+03    0.37372E-04   -0.16493E-04 16512   0.548E-02    0.229E-02
DAV:   4    -0.140400204442E+03   -0.12457E-05   -0.19248E-05 18144   0.206E-02    0.531E-03
DAV:   5    -0.140400204173E+03    0.26902E-06   -0.42261E-06 14304   0.114E-02
  72 F= -.14228448E+03 E0= -.14228325E+03  d E =-.217537E-03  mag=     0.0000
 curvature: -13.50 expect dE=-0.106E-01 dE for cont linesearch -0.304E-07
 trial: gam= 1.22933 g(F)=  0.788E-03 g(S)=  0.000E+00 ort =-0.659E-05 (trialstep = 0.158E+00)
 search vector abs. value=  0.299E-01
 bond charge predicted
       N       E                     dE             d eps       ncg     rms          rms(c)
DAV:   1    -0.140400087175E+03    0.11727E-03   -0.72800E-02 14208   0.122E+00    0.493E-02
DAV:   2    -0.140400123941E+03   -0.36766E-04   -0.58847E-04 17712   0.107E-01    0.352E-02
DAV:   3    -0.140400118014E+03    0.59265E-05   -0.25616E-05 16224   0.224E-02    0.975E-03
DAV:   4    -0.140400118351E+03   -0.33660E-06   -0.42508E-06 15264   0.106E-02
  73 F= -.14228458E+03 E0= -.14228334E+03  d E =-.101342E-03  mag=    -0.0000
 trial-energy change:   -0.000101  1 .order   -0.000098   -0.000123   -0.000073
 step:   0.3857(harm=  0.3857)  dis= 0.00364  next Energy=  -142.284627 (dE=-0.150E-03)
 bond charge predicted
       N       E                     dE             d eps       ncg     rms          rms(c)
DAV:   1    -0.140399846563E+03    0.27145E-03   -0.15284E-01 14208   0.177E+00    0.718E-02
DAV:   2    -0.140399923067E+03   -0.76504E-04   -0.12231E-03 17136   0.154E-01    0.511E-02
DAV:   3    -0.140399911302E+03    0.11765E-04   -0.54097E-05 16128   0.324E-02    0.140E-02
DAV:   4    -0.140399911765E+03   -0.46330E-06   -0.81300E-06 16752   0.143E-02
  74 F= -.14228464E+03 E0= -.14228341E+03  d E =-.165749E-03  mag=    -0.0000
 curvature:  -7.40 expect dE=-0.448E-02 dE for cont linesearch -0.149E-06
 trial: gam= 0.70231 g(F)=  0.605E-03 g(S)=  0.000E+00 ort = 0.245E-04 (trialstep = 0.203E+00)
 search vector abs. value=  0.154E-01
 bond charge predicted
       N       E                     dE             d eps       ncg     rms          rms(c)
DAV:   1    -0.140399811730E+03    0.99572E-04   -0.63770E-02 14208   0.114E+00    0.468E-02
DAV:   2    -0.140399843397E+03   -0.31667E-04   -0.53246E-04 16272   0.102E-01    0.330E-02
DAV:   3    -0.140399838497E+03    0.48999E-05   -0.27706E-05 16032   0.243E-02    0.104E-02
DAV:   4    -0.140399838648E+03   -0.15058E-06   -0.65380E-06 16320   0.139E-02
  75 F= -.14228475E+03 E0= -.14228351E+03  d E =-.104495E-03  mag=    -0.0000
 trial-energy change:   -0.000104  1 .order   -0.000099   -0.000126   -0.000073
 step:   0.3437(harm=  0.4762)  dis= 0.00240  next Energy=  -142.284774 (dE=-0.131E-03)
 bond charge predicted
       N       E                     dE             d eps       ncg     rms          rms(c)
DAV:   1    -0.140399742078E+03    0.96418E-04   -0.30491E-02 14208   0.790E-01    0.323E-02
DAV:   2    -0.140399757658E+03   -0.15580E-04   -0.25634E-04 16416   0.712E-02    0.228E-02
DAV:   3    -0.140399755199E+03    0.24594E-05   -0.13851E-05 16128   0.180E-02    0.736E-03
DAV:   4    -0.140399755354E+03   -0.15536E-06   -0.44774E-06 14832   0.119E-02
  76 F= -.14228479E+03 E0= -.14228355E+03  d E =-.144035E-03  mag=     0.0000
 curvature:  -4.50 expect dE=-0.904E-03 dE for cont linesearch -0.846E-05
 ZBRENT: increasing intervall
 opt :   0.6247  next Energy=  -142.284782 (dE=-0.139E-03)
 bond charge predicted
       N       E                     dE             d eps       ncg     rms          rms(c)
DAV:   1    -0.140399458216E+03    0.29698E-03   -0.12182E-01 14208   0.158E+00    0.644E-02
DAV:   2    -0.140399517044E+03   -0.58829E-04   -0.10088E-03 17664   0.140E-01    0.454E-02
DAV:   3    -0.140399507415E+03    0.96289E-05   -0.47895E-05 16128   0.300E-02    0.139E-02
DAV:   4    -0.140399507507E+03   -0.91742E-07   -0.83857E-06 16512   0.142E-02
  77 F= -.14228478E+03 E0= -.14228354E+03  d E =-.141769E-03  mag=     0.0000
 curvature:   2.51 expect dE= 0.195E-02 dE for cont linesearch  0.839E-05
 ZBRENT: bracketing found
 ZBRENT: interpolating
 opt :   0.4641  next Energy=  -142.284797 (dE=-0.154E-03)
 bond charge predicted
       N       E                     dE             d eps       ncg     rms          rms(c)
DAV:   1    -0.140399647484E+03   -0.14007E-03   -0.39688E-02 14208   0.902E-01    0.364E-02
DAV:   2    -0.140399665823E+03   -0.18339E-04   -0.33059E-04 16176   0.806E-02    0.257E-02
DAV:   3    -0.140399662485E+03    0.33384E-05   -0.17882E-05 15504   0.198E-02    0.827E-03
DAV:   4    -0.140399662632E+03   -0.14727E-06   -0.47996E-06 15264   0.121E-02
  78 F= -.14228480E+03 E0= -.14228356E+03  d E =-.156564E-03  mag=    -0.0000
 curvature:  -3.06 expect dE=-0.104E-02 dE for cont linesearch -0.278E-06
 trial: gam= 0.68263 g(F)=  0.341E-03 g(S)=  0.000E+00 ort = 0.374E-04 (trialstep = 0.255E+00)
 search vector abs. value=  0.756E-02
 bond charge predicted
       N       E                     dE             d eps       ncg     rms          rms(c)
DAV:   1    -0.140399595267E+03    0.67218E-04   -0.46564E-02 14208   0.975E-01    0.395E-02
DAV:   2    -0.140399617445E+03   -0.22178E-04   -0.37129E-04 16464   0.845E-02    0.282E-02
DAV:   3    -0.140399613841E+03    0.36039E-05   -0.18348E-05 16128   0.199E-02    0.766E-03
DAV:   4    -0.140399614156E+03   -0.31497E-06   -0.41358E-06 14208   0.115E-02
  79 F= -.14228488E+03 E0= -.14228364E+03  d E =-.780928E-04  mag=    -0.0000
 trial-energy change:   -0.000078  1 .order   -0.000078   -0.000093   -0.000062
 step:   0.7610(harm=  0.7610)  dis= 0.00363  next Energy=  -142.284938 (dE=-0.139E-03)
 bond charge predicted
       N       E                     dE             d eps       ncg     rms          rms(c)
DAV:   1    -0.140399365294E+03    0.24855E-03   -0.18297E-01 14208   0.193E+00    0.791E-02
DAV:   2    -0.140399454290E+03   -0.88996E-04   -0.14441E-03 17904   0.166E-01    0.564E-02
DAV:   3    -0.140399441617E+03    0.12672E-04   -0.65342E-05 16368   0.349E-02    0.141E-02
DAV:   4    -0.140399442179E+03   -0.56132E-06   -0.90432E-06 16944   0.151E-02
  80 F= -.14228496E+03 E0= -.14228372E+03  d E =-.156798E-03  mag=    -0.0000
 curvature:  -7.86 expect dE=-0.312E-02 dE for cont linesearch -0.145E-05
 trial: gam= 0.97823 g(F)=  0.397E-03 g(S)=  0.000E+00 ort = 0.374E-04 (trialstep = 0.350E+00)
 search vector abs. value=  0.771E-02
 bond charge predicted
       N       E                     dE             d eps       ncg     rms          rms(c)
DAV:   1    -0.140399297700E+03    0.14392E-03   -0.87061E-02 14208   0.133E+00    0.565E-02
DAV:   2    -0.140399340306E+03   -0.42606E-04   -0.74436E-04 16704   0.120E-01    0.395E-02
DAV:   3    -0.140399333962E+03    0.63443E-05   -0.37474E-05 16176   0.279E-02    0.123E-02
DAV:   4    -0.140399334077E+03   -0.11498E-06   -0.78991E-06 17568   0.152E-02
  81 F= -.14228504E+03 E0= -.14228380E+03  d E =-.835879E-04  mag=    -0.0000
 trial-energy change:   -0.000084  1 .order   -0.000078   -0.000152   -0.000005
 step:   0.3588(harm=  0.3608)  dis= 0.00172  next Energy=  -142.285039 (dE=-0.836E-04)
 bond charge predicted
       N       E                     dE             d eps       ncg     rms          rms(c)
DAV:   1    -0.140399329410E+03    0.45517E-05   -0.63049E-05 14208   0.378E-02    0.235E-03
DAV:   2    -0.140399329750E+03   -0.33987E-06   -0.24126E-06 16032   0.920E-03
  82 F= -.14228504E+03 E0= -.14228381E+03  d E =-.841861E-04  mag=    -0.0000
 curvature:  -3.10 expect dE=-0.615E-03 dE for cont linesearch -0.738E-07
 trial: gam= 0.64181 g(F)=  0.198E-03 g(S)=  0.000E+00 ort = 0.136E-04 (trialstep = 0.352E+00)
 search vector abs. value=  0.339E-02
 bond charge predicted
       N       E                     dE             d eps       ncg     rms          rms(c)
DAV:   1    -0.140399220847E+03    0.10856E-03   -0.39003E-02 14208   0.890E-01    0.375E-02
DAV:   2    -0.140399239211E+03   -0.18365E-04   -0.32036E-04 18480   0.784E-02    0.265E-02
DAV:   3    -0.140399236214E+03    0.29978E-05   -0.15522E-05 16896   0.172E-02    0.716E-03
DAV:   4    -0.140399236406E+03   -0.19287E-06   -0.23219E-06 14880   0.787E-03
  83 F= -.14228510E+03 E0= -.14228386E+03  d E =-.559998E-04  mag=    -0.0000
 trial-energy change:   -0.000056  1 .order   -0.000054   -0.000073   -0.000035
 step:   0.6843(harm=  0.6843)  dis= 0.00224  next Energy=  -142.285111 (dE=-0.709E-04)
 bond charge predicted
       N       E                     dE             d eps       ncg     rms          rms(c)
DAV:   1    -0.140399099603E+03    0.13661E-03   -0.34960E-02 14208   0.842E-01    0.350E-02
DAV:   2    -0.140399116608E+03   -0.17004E-04   -0.28695E-04 16320   0.746E-02    0.247E-02
DAV:   3    -0.140399113977E+03    0.26311E-05   -0.14469E-05 16176   0.174E-02    0.721E-03
DAV:   4    -0.140399114161E+03   -0.18424E-06   -0.27843E-06 15504   0.916E-03
  84 F= -.14228511E+03 E0= -.14228388E+03  d E =-.750933E-04  mag=     0.0000
 curvature:  -5.60 expect dE=-0.157E-02 dE for cont linesearch -0.122E-07
 trial: gam= 1.28632 g(F)=  0.280E-03 g(S)=  0.000E+00 ort = 0.272E-05 (trialstep = 0.240E+00)
 search vector abs. value=  0.590E-02
 bond charge predicted
       N       E                     dE             d eps       ncg     rms          rms(c)
DAV:   1    -0.140399043053E+03    0.70924E-04   -0.33180E-02 14208   0.826E-01    0.336E-02
DAV:   2    -0.140399059815E+03   -0.16762E-04   -0.26689E-04 16464   0.724E-02    0.238E-02
DAV:   3    -0.140399057058E+03    0.27569E-05   -0.13545E-05 16176   0.172E-02    0.677E-03
DAV:   4    -0.140399057263E+03   -0.20448E-06   -0.31557E-06 14208   0.980E-03
  85 F= -.14228517E+03 E0= -.14228394E+03  d E =-.561778E-04  mag=    -0.0000
 trial-energy change:   -0.000056  1 .order   -0.000054   -0.000068   -0.000040
 step:   0.5839(harm=  0.5839)  dis= 0.00246  next Energy=  -142.285198 (dE=-0.827E-04)
 bond charge predicted
       N       E                     dE             d eps       ncg     rms          rms(c)
DAV:   1    -0.140398898903E+03    0.15816E-03   -0.67707E-02 14208   0.118E+00    0.480E-02
DAV:   2    -0.140398932543E+03   -0.33641E-04   -0.54299E-04 17088   0.103E-01    0.340E-02
DAV:   3    -0.140398927249E+03    0.52938E-05   -0.26152E-05 16224   0.228E-02    0.947E-03
DAV:   4    -0.140398927470E+03   -0.22066E-06   -0.46032E-06 15120   0.111E-02
  86 F= -.14228520E+03 E0= -.14228397E+03  d E =-.879169E-04  mag=    -0.0000
 curvature:  -6.08 expect dE=-0.155E-02 dE for cont linesearch -0.687E-08
 trial: gam= 0.92095 g(F)=  0.256E-03 g(S)=  0.000E+00 ort =-0.258E-05 (trialstep = 0.309E+00)
 search vector abs. value=  0.525E-02
 bond charge predicted
       N       E                     dE             d eps       ncg     rms          rms(c)
DAV:   1    -0.140398840989E+03    0.86261E-04   -0.50230E-02 14208   0.101E+00    0.417E-02
DAV:   2    -0.140398866002E+03   -0.25013E-04   -0.42083E-04 16464   0.910E-02    0.293E-02
DAV:   3    -0.140398861713E+03    0.42884E-05   -0.22115E-05 16128   0.212E-02    0.906E-03
DAV:   4    -0.140398861872E+03   -0.15898E-06   -0.45789E-06 14976   0.113E-02
  87 F= -.14228525E+03 E0= -.14228402E+03  d E =-.490345E-04  mag=    -0.0000
 trial-energy change:   -0.000049  1 .order   -0.000046   -0.000078   -0.000013
 step:   0.3720(harm=  0.3720)  dis= 0.00151  next Energy=  -142.285250 (dE=-0.471E-04)
 bond charge predicted
       N       E                     dE             d eps       ncg     rms          rms(c)
DAV:   1    -0.140398839584E+03    0.22130E-04   -0.20900E-03 14208   0.207E-01    0.868E-03
DAV:   2    -0.140398841027E+03   -0.14430E-05   -0.18913E-05 14880   0.206E-02    0.608E-03
DAV:   3    -0.140398840621E+03    0.40536E-06   -0.18938E-06 14976   0.785E-03
  88 F= -.14228525E+03 E0= -.14228402E+03  d E =-.510514E-04  mag=     0.0000
 curvature:  -3.86 expect dE=-0.674E-03 dE for cont linesearch -0.604E-07
 trial: gam= 0.66975 g(F)=  0.175E-03 g(S)=  0.000E+00 ort = 0.907E-05 (trialstep = 0.322E+00)
 search vector abs. value=  0.254E-02
 bond charge predicted
       N       E                     dE             d eps       ncg     rms          rms(c)
DAV:   1    -0.140398787325E+03    0.53702E-04   -0.25595E-02 14208   0.724E-01    0.294E-02
DAV:   2    -0.140398799845E+03   -0.12520E-04   -0.20645E-04 16416   0.637E-02    0.209E-02
DAV:   3    -0.140398797818E+03    0.20266E-05   -0.10322E-05 16128   0.153E-02    0.601E-03
DAV:   4    -0.140398798090E+03   -0.27154E-06   -0.27416E-06 14208   0.934E-03
  89 F= -.14228530E+03 E0= -.14228407E+03  d E =-.487904E-04  mag=     0.0000
 trial-energy change:   -0.000049  1 .order   -0.000048   -0.000058   -0.000037
 step:   0.8883(harm=  0.8883)  dis= 0.00251  next Energy=  -142.285334 (dE=-0.803E-04)
 bond charge predicted
       N       E                     dE             d eps       ncg     rms          rms(c)
DAV:   1    -0.140398643806E+03    0.15401E-03   -0.79551E-02 14208   0.128E+00    0.519E-02
DAV:   2    -0.140398681719E+03   -0.37913E-04   -0.63488E-04 17424   0.111E-01    0.368E-02
DAV:   3    -0.140398676036E+03    0.56832E-05   -0.29489E-05 16128   0.240E-02    0.999E-03
DAV:   4    -0.140398676537E+03   -0.50130E-06   -0.47014E-06 14496   0.111E-02
  90 F= -.14228534E+03 E0= -.14228411E+03  d E =-.880407E-04  mag=     0.0000
 curvature:  -6.25 expect dE=-0.187E-02 dE for cont linesearch -0.894E-07
 trial: gam= 1.68727 g(F)=  0.300E-03 g(S)=  0.000E+00 ort = 0.603E-05 (trialstep = 0.146E+00)
 search vector abs. value=  0.756E-02
 bond charge predicted
       N       E                     dE             d eps       ncg     rms          rms(c)
DAV:   1    -0.140398628491E+03    0.47544E-04   -0.15170E-02 14208   0.556E-01    0.230E-02
DAV:   2    -0.140398636328E+03   -0.78363E-05   -0.12517E-04 15648   0.498E-02    0.164E-02
DAV:   3    -0.140398635264E+03    0.10642E-05   -0.71166E-06 15456   0.138E-02    0.466E-03
DAV:   4    -0.140398635523E+03   -0.25962E-06   -0.30504E-06 14208   0.102E-02
  91 F= -.14228538E+03 E0= -.14228415E+03  d E =-.409134E-04  mag=    -0.0000
 trial-energy change:   -0.000041  1 .order   -0.000039   -0.000045   -0.000033
 step:   0.5506(harm=  0.5506)  dis= 0.00266  next Energy=  -142.285427 (dE=-0.853E-04)
 bond charge predicted
       N       E                     dE             d eps       ncg     rms          rms(c)
DAV:   1    -0.140398405438E+03    0.22983E-03   -0.11547E-01 14208   0.153E+00    0.629E-02
DAV:   2    -0.140398461662E+03   -0.56224E-04   -0.93361E-04 17328   0.133E-01    0.450E-02
DAV:   3    -0.140398454098E+03    0.75635E-05   -0.41914E-05 16176   0.281E-02    0.119E-02
DAV:   4    -0.140398454735E+03   -0.63620E-06   -0.51770E-06 14496   0.109E-02
  92 F= -.14228543E+03 E0= -.14228419E+03  d E =-.863186E-04  mag=     0.0000
 curvature:  -6.72 expect dE=-0.191E-02 dE for cont linesearch -0.861E-06
 trial: gam= 1.13674 g(F)=  0.284E-03 g(S)=  0.000E+00 ort =-0.311E-04 (trialstep = 0.172E+00)
 search vector abs. value=  0.998E-02
 bond charge predicted
       N       E                     dE             d eps       ncg     rms          rms(c)
DAV:   1    -0.140398376687E+03    0.77411E-04   -0.27955E-02 14208   0.755E-01    0.309E-02
DAV:   2    -0.140398391332E+03   -0.14645E-04   -0.22608E-04 14688   0.663E-02    0.222E-02
DAV:   3    -0.140398389334E+03    0.19976E-05   -0.11228E-05 15408   0.165E-02    0.613E-03
DAV:   4    -0.140398389657E+03   -0.32243E-06   -0.28994E-06 14400   0.976E-03
  93 F= -.14228547E+03 E0= -.14228423E+03  d E =-.382917E-04  mag=     0.0000
 trial-energy change:   -0.000038  1 .order   -0.000036   -0.000043   -0.000029
 step:   0.5186(harm=  0.5186)  dis= 0.00290  next Energy=  -142.285493 (dE=-0.644E-04)
 bond charge predicted
       N       E                     dE             d eps       ncg     rms          rms(c)
DAV:   1    -0.140398162449E+03    0.22688E-03   -0.11320E-01 14208   0.152E+00    0.619E-02
DAV:   2    -0.140398219720E+03   -0.57270E-04   -0.90307E-04 17088   0.131E-01    0.444E-02
DAV:   3    -0.140398211569E+03    0.81507E-05   -0.39782E-05 16272   0.281E-02    0.114E-02
DAV:   4    -0.140398212164E+03   -0.59557E-06   -0.57133E-06 14352   0.123E-02
  94 F= -.14228550E+03 E0= -.14228425E+03  d E =-.690340E-04  mag=     0.0000
 curvature: -10.41 expect dE=-0.435E-02 dE for cont linesearch -0.640E-06
 trial: gam= 1.26674 g(F)=  0.418E-03 g(S)=  0.000E+00 ort =-0.248E-04 (trialstep = 0.147E+00)
 search vector abs. value=  0.164E-01
 bond charge predicted
       N       E                     dE             d eps       ncg     rms          rms(c)
DAV:   1    -0.140398154518E+03    0.57051E-04   -0.34633E-02 14208   0.842E-01    0.340E-02
DAV:   2    -0.140398172487E+03   -0.17970E-04   -0.27369E-04 15696   0.733E-02    0.244E-02
DAV:   3    -0.140398169863E+03    0.26240E-05   -0.13473E-05 15456   0.183E-02    0.697E-03
DAV:   4    -0.140398170193E+03   -0.32969E-06   -0.41655E-06 14208   0.117E-02
  95 F= -.14228555E+03 E0= -.14228431E+03  d E =-.557895E-04  mag=     0.0000
 ZBRENT: can't locate minimum, use default step
 trial-energy change:   -0.000056  1 .order   -0.000052   -0.000057   -0.000048
 step:   0.5886(harm=  0.9518)  dis= 0.00413  next Energy=  -142.285681 (dE=-0.184E-03)
 bond charge predicted
       N       E                     dE             d eps       ncg     rms          rms(c)
DAV:   1    -0.140397855630E+03    0.31423E-03   -0.31113E-01 14208   0.252E+00    0.101E-01
DAV:   2    -0.140398009439E+03   -0.15381E-03   -0.24102E-03 17952   0.215E-01    0.726E-02
DAV:   3    -0.140397985427E+03    0.24012E-04   -0.10076E-04 16128   0.432E-02    0.189E-02
DAV:   4    -0.140397986359E+03   -0.93216E-06   -0.13323E-05 16608   0.172E-02    0.423E-03
DAV:   5    -0.140397986065E+03    0.29469E-06   -0.34315E-06 14208   0.102E-02
  96 F= -.14228566E+03 E0= -.14228442E+03  d E =-.164963E-03  mag=     0.0000
 curvature: -16.05 expect dE=-0.484E-02 dE for cont linesearch -0.209E-04
 ZBRENT: increasing intervall
 opt :   1.4716  next Energy=  -142.285632 (dE=-0.134E-03)
 bond charge predicted
       N       E                     dE             d eps       ncg     rms          rms(c)
DAV:   1    -0.140396846598E+03    0.11398E-02   -0.12441E+00 14208   0.504E+00    0.203E-01
DAV:   2    -0.140397462165E+03   -0.61557E-03   -0.95608E-03 18624   0.429E-01    0.145E-01
DAV:   3    -0.140397351158E+03    0.11101E-03   -0.40526E-04 16848   0.849E-02    0.365E-02
DAV:   4    -0.140397354228E+03   -0.30701E-05   -0.47164E-05 18384   0.292E-02    0.835E-03
DAV:   5    -0.140397353182E+03    0.10460E-05   -0.73098E-06 15168   0.130E-02    0.336E-03
DAV:   6    -0.140397353397E+03   -0.21475E-06   -0.25177E-06 16608   0.898E-03
  97 F= -.14228562E+03 E0= -.14228437E+03  d E =-.119333E-03  mag=    -0.0000
 curvature:  23.55 expect dE= 0.438E-01 dE for cont linesearch  0.911E-04
 ZBRENT: bracketing found
 ZBRENT: interpolating
 opt :   0.9127  next Energy=  -142.285686 (dE=-0.189E-03)
 bond charge predicted
       N       E                     dE             d eps       ncg     rms          rms(c)
DAV:   1    -0.140397591220E+03   -0.23804E-03   -0.49832E-01 14208   0.319E+00    0.128E-01
DAV:   2    -0.140397835780E+03   -0.24456E-03   -0.38542E-03 18048   0.272E-01    0.918E-02
DAV:   3    -0.140397793477E+03    0.42303E-04   -0.16413E-04 15264   0.544E-02    0.240E-02
DAV:   4    -0.140397795834E+03   -0.23568E-05   -0.19451E-05 17616   0.180E-02    0.532E-03
DAV:   5    -0.140397795310E+03    0.52390E-06   -0.27389E-06 16368   0.689E-03
  98 F= -.14228569E+03 E0= -.14228444E+03  d E =-.189654E-03  mag=     0.0000
 curvature:  -6.11 expect dE=-0.386E-02 dE for cont linesearch -0.435E-09
 trial: gam= 1.58741 g(F)=  0.632E-03 g(S)=  0.000E+00 ort = 0.108E-05 (trialstep = 0.117E+00)
 search vector abs. value=  0.419E-01
 bond charge predicted
       N       E                     dE             d eps       ncg     rms          rms(c)
DAV:   1    -0.140397701935E+03    0.93899E-04   -0.55570E-02 14208   0.107E+00    0.430E-02
DAV:   2    -0.140397728975E+03   -0.27040E-04   -0.42988E-04 14208   0.909E-02    0.308E-02
DAV:   3    -0.140397724749E+03    0.42257E-05   -0.19168E-05 14304   0.195E-02    0.877E-03
DAV:   4    -0.140397725156E+03   -0.40657E-06   -0.24706E-06 14304   0.753E-03
  99 F= -.14228575E+03 E0= -.14228451E+03  d E =-.622426E-04  mag=     0.0000
 trial-energy change:   -0.000062  1 .order   -0.000060   -0.000074   -0.000045
 step:   0.2986(harm=  0.2986)  dis= 0.00338  next Energy=  -142.285782 (dE=-0.946E-04)
 bond charge predicted
       N       E                     dE             d eps       ncg     rms          rms(c)
DAV:   1    -0.140397511456E+03    0.21329E-03   -0.13273E-01 14208   0.165E+00    0.667E-02
DAV:   2    -0.140397577898E+03   -0.66442E-04   -0.10255E-03 14208   0.140E-01    0.475E-02
DAV:   3    -0.140397568116E+03    0.97815E-05   -0.45633E-05 15360   0.302E-02    0.135E-02
DAV:   4    -0.140397568727E+03   -0.61018E-06   -0.57555E-06 15408   0.116E-02
 100 F= -.14228580E+03 E0= -.14228455E+03  d E =-.110400E-03  mag=     0.0000
 curvature:  -9.87 expect dE=-0.312E-02 dE for cont linesearch -0.478E-06
 trial: gam= 0.34399 g(F)=  0.316E-03 g(S)=  0.000E+00 ort = 0.450E-04 (trialstep = 0.154E+00)
 search vector abs. value=  0.530E-02
 bond charge predicted
       N       E                     dE             d eps       ncg     rms          rms(c)
DAV:   1    -0.140397540396E+03    0.27721E-04   -0.11526E-02 14208   0.484E-01    0.206E-02
DAV:   2    -0.140397546570E+03   -0.61746E-05   -0.96829E-05 14400   0.437E-02    0.146E-02
DAV:   3    -0.140397545437E+03    0.11329E-05   -0.55384E-06 16032   0.123E-02    0.447E-03
DAV:   4    -0.140397545666E+03   -0.22807E-06   -0.22575E-06 14304   0.875E-03
 101 F= -.14228584E+03 E0= -.14228460E+03  d E =-.475165E-04  mag=     0.0000
 ZBRENT: can't locate minimum, use default step
 trial-energy change:   -0.000048  1 .order   -0.000046   -0.000051   -0.000040
 step:   0.6144(harm=  0.7303)  dis= 0.00250  next Energy=  -142.285918 (dE=-0.121E-03)
 bond charge predicted
       N       E                     dE             d eps       ncg     rms          rms(c)
DAV:   1    -0.140397356236E+03    0.18920E-03   -0.10318E-01 14208   0.145E+00    0.605E-02
DAV:   2    -0.140397407110E+03   -0.50874E-04   -0.84576E-04 16992   0.126E-01    0.429E-02
DAV:   3    -0.140397399187E+03    0.79238E-05   -0.37560E-05 16416   0.265E-02    0.121E-02
DAV:   4    -0.140397399477E+03   -0.29031E-06   -0.47304E-06 17712   0.101E-02
 102 F= -.14228591E+03 E0= -.14228466E+03  d E =-.112899E-03  mag=     0.0000
 curvature:  -5.60 expect dE=-0.194E-02 dE for cont linesearch -0.213E-08
 trial: gam= 1.24873 g(F)=  0.347E-03 g(S)=  0.000E+00 ort = 0.142E-05 (trialstep = 0.151E+00)
 search vector abs. value=  0.862E-02
 bond charge predicted
       N       E                     dE             d eps       ncg     rms          rms(c)
DAV:   1    -0.140397370009E+03    0.29177E-04   -0.18425E-02 14208   0.613E-01    0.251E-02
DAV:   2    -0.140397379736E+03   -0.97273E-05   -0.14189E-04 16224   0.523E-02    0.180E-02
DAV:   3    -0.140397378277E+03    0.14598E-05   -0.63160E-06 15888   0.122E-02    0.488E-03
DAV:   4    -0.140397378477E+03   -0.20058E-06   -0.15995E-06 15264   0.729E-03
 103 F= -.14228596E+03 E0= -.14228471E+03  d E =-.487626E-04  mag=    -0.0000
 ZBRENT: can't locate minimum, use default step
 trial-energy change:   -0.000049  1 .order   -0.000047   -0.000053   -0.000042
 step:   0.6048(harm=  0.7342)  dis= 0.00303  next Energy=  -142.286038 (dE=-0.128E-03)
 bond charge predicted
       N       E                     dE             d eps       ncg     rms          rms(c)
DAV:   1    -0.140397174162E+03    0.20412E-03   -0.16553E-01 14208   0.184E+00    0.749E-02
DAV:   2    -0.140397256896E+03   -0.82734E-04   -0.12582E-03 18000   0.154E-01    0.535E-02
DAV:   3    -0.140397245083E+03    0.11813E-04   -0.49728E-05 16800   0.305E-02    0.138E-02
DAV:   4    -0.140397245577E+03   -0.49398E-06   -0.57781E-06 17472   0.115E-02
 104 F= -.14228604E+03 E0= -.14228479E+03  d E =-.125486E-03  mag=     0.0000
 curvature:  -8.63 expect dE=-0.272E-02 dE for cont linesearch -0.769E-06
 trial: gam= 0.72473 g(F)=  0.315E-03 g(S)=  0.000E+00 ort = 0.277E-04 (trialstep = 0.242E+00)
 search vector abs. value=  0.488E-02
 bond charge predicted
       N       E                     dE             d eps       ncg     rms          rms(c)
DAV:   1    -0.140397238167E+03    0.69165E-05   -0.28645E-02 14208   0.765E-01    0.326E-02
DAV:   2    -0.140397252250E+03   -0.14083E-04   -0.24578E-04 16224   0.699E-02    0.223E-02
DAV:   3    -0.140397249455E+03    0.27953E-05   -0.12374E-05 15840   0.165E-02    0.785E-03
DAV:   4    -0.140397249447E+03    0.77707E-08   -0.34626E-06 16800   0.102E-02
 105 F= -.14228609E+03 E0= -.14228485E+03  d E =-.575550E-04  mag=     0.0000
 trial-energy change:   -0.000058  1 .order   -0.000054   -0.000081   -0.000027
 step:   0.3637(harm=  0.3637)  dis= 0.00144  next Energy=  -142.286097 (dE=-0.610E-04)
 bond charge predicted
       N       E                     dE             d eps       ncg     rms          rms(c)
DAV:   1    -0.140397227072E+03    0.22383E-04   -0.72519E-03 14256   0.385E-01    0.164E-02
DAV:   2    -0.140397230969E+03   -0.38964E-05   -0.62778E-05 16368   0.358E-02    0.112E-02
DAV:   3    -0.140397230092E+03    0.87680E-06   -0.35708E-06 15888   0.969E-03
 106 F= -.14228610E+03 E0= -.14228486E+03  d E =-.651908E-04  mag=    -0.0000
 curvature:  -2.65 expect dE=-0.366E-03 dE for cont linesearch -0.706E-08
 trial: gam= 0.59318 g(F)=  0.138E-03 g(S)=  0.000E+00 ort = 0.361E-05 (trialstep = 0.266E+00)
 search vector abs. value=  0.186E-02
 bond charge predicted
       N       E                     dE             d eps       ncg     rms          rms(c)
DAV:   1    -0.140397214931E+03    0.16038E-04   -0.12933E-02 14208   0.517E-01    0.209E-02
DAV:   2    -0.140397221902E+03   -0.69715E-05   -0.10224E-04 16176   0.455E-02    0.149E-02
DAV:   3    -0.140397220645E+03    0.12574E-05   -0.64094E-06 15888   0.130E-02    0.446E-03
DAV:   4    -0.140397220870E+03   -0.22561E-06   -0.27362E-06 14208   0.951E-03
 107 F= -.14228613E+03 E0= -.14228489E+03  d E =-.311051E-04  mag=    -0.0000
 trial-energy change:   -0.000031  1 .order   -0.000030   -0.000037   -0.000023
 step:   0.7022(harm=  0.7022)  dis= 0.00164  next Energy=  -142.286150 (dE=-0.493E-04)
 bond charge predicted
       N       E                     dE             d eps       ncg     rms          rms(c)
DAV:   1    -0.140397161681E+03    0.58964E-04   -0.34777E-02 14208   0.847E-01    0.339E-02
DAV:   2    -0.140397179372E+03   -0.17691E-04   -0.27272E-04 17520   0.730E-02    0.242E-02
DAV:   3    -0.140397176678E+03    0.26941E-05   -0.14102E-05 16176   0.168E-02    0.686E-03
DAV:   4    -0.140397176846E+03   -0.16865E-06   -0.27197E-06 14400   0.853E-03
 108 F= -.14228615E+03 E0= -.14228492E+03  d E =-.530263E-04  mag=    -0.0000
 curvature:  -4.65 expect dE=-0.741E-03 dE for cont linesearch -0.344E-07
 trial: gam= 0.93864 g(F)=  0.159E-03 g(S)=  0.000E+00 ort = 0.371E-05 (trialstep = 0.353E+00)
 search vector abs. value=  0.181E-02
 bond charge predicted
       N       E                     dE             d eps       ncg     rms          rms(c)
DAV:   1    -0.140397130293E+03    0.46385E-04   -0.20849E-02 14208   0.652E-01    0.274E-02
DAV:   2    -0.140397140025E+03   -0.97321E-05   -0.17560E-04 15840   0.582E-02    0.191E-02
DAV:   3    -0.140397138398E+03    0.16265E-05   -0.87121E-06 15552   0.138E-02    0.635E-03
DAV:   4    -0.140397138480E+03   -0.81301E-07   -0.22081E-06 15120   0.835E-03
 109 F= -.14228619E+03 E0= -.14228495E+03  d E =-.399165E-04  mag=    -0.0000
 trial-energy change:   -0.000040  1 .order   -0.000038   -0.000058   -0.000019
 step:   0.5262(harm=  0.5262)  dis= 0.00126  next Energy=  -142.286197 (dE=-0.428E-04)
 bond charge predicted
       N       E                     dE             d eps       ncg     rms          rms(c)
DAV:   1    -0.140397103624E+03    0.34774E-04   -0.49835E-03 14208   0.319E-01    0.135E-02
DAV:   2    -0.140397106116E+03   -0.24913E-05   -0.42890E-05 15936   0.294E-02    0.944E-03
DAV:   3    -0.140397105567E+03    0.54883E-06   -0.26621E-06 15600   0.859E-03
 110 F= -.14228620E+03 E0= -.14228496E+03  d E =-.452191E-04  mag=     0.0000
 curvature:  -2.92 expect dE=-0.431E-03 dE for cont linesearch -0.163E-07
 trial: gam= 0.97643 g(F)=  0.148E-03 g(S)=  0.000E+00 ort = 0.318E-05 (trialstep = 0.374E+00)
 search vector abs. value=  0.188E-02
 bond charge predicted
       N       E                     dE             d eps       ncg     rms          rms(c)
DAV:   1    -0.140397073557E+03    0.32558E-04   -0.23609E-02 14208   0.692E-01    0.291E-02
DAV:   2    -0.140397085264E+03   -0.11707E-04   -0.19424E-04 15792   0.614E-02    0.206E-02
DAV:   3    -0.140397083443E+03    0.18210E-05   -0.11139E-05 15696   0.161E-02    0.618E-03
DAV:   4    -0.140397083672E+03   -0.22913E-06   -0.33974E-06 14208   0.105E-02
 111 F= -.14228623E+03 E0= -.14228499E+03  d E =-.353145E-04  mag=     0.0000
 trial-energy change:   -0.000035  1 .order   -0.000034   -0.000056   -0.000012
 step:   0.4796(harm=  0.4796)  dis= 0.00116  next Energy=  -142.286235 (dE=-0.361E-04)
 bond charge predicted
       N       E                     dE             d eps       ncg     rms          rms(c)
DAV:   1    -0.140397068921E+03    0.14522E-04   -0.19110E-03 14496   0.197E-01    0.840E-03
DAV:   2    -0.140397070057E+03   -0.11359E-05   -0.16535E-05 16464   0.193E-02    0.592E-03
DAV:   3    -0.140397069698E+03    0.35923E-06   -0.20178E-06 15552   0.814E-03
 112 F= -.14228624E+03 E0= -.14228499E+03  d E =-.375570E-04  mag=    -0.0000
 curvature:  -2.99 expect dE=-0.416E-03 dE for cont linesearch -0.256E-07
 trial: gam= 0.92725 g(F)=  0.139E-03 g(S)=  0.000E+00 ort = 0.401E-05 (trialstep = 0.395E+00)
 search vector abs. value=  0.176E-02
 bond charge predicted
       N       E                     dE             d eps       ncg     rms          rms(c)
DAV:   1    -0.140397091576E+03   -0.21519E-04   -0.26382E-02 14208   0.735E-01    0.301E-02
DAV:   2    -0.140397103563E+03   -0.11987E-04   -0.20996E-04 17136   0.642E-02    0.213E-02
DAV:   3    -0.140397101734E+03    0.18291E-05   -0.11003E-05 16128   0.159E-02    0.608E-03
DAV:   4    -0.140397102011E+03   -0.27748E-06   -0.34225E-06 14208   0.106E-02
 113 F= -.14228628E+03 E0= -.14228504E+03  d E =-.468820E-04  mag=    -0.0000
 trial-energy change:   -0.000047  1 .order   -0.000046   -0.000057   -0.000035
 step:   1.0237(harm=  1.0237)  dis= 0.00244  next Energy=  -142.286310 (dE=-0.732E-04)
 bond charge predicted
       N       E                     dE             d eps       ncg     rms          rms(c)
DAV:   1    -0.140397085306E+03    0.16428E-04   -0.67028E-02 14208   0.117E+00    0.481E-02
DAV:   2    -0.140397115730E+03   -0.30425E-04   -0.53004E-04 17328   0.101E-01    0.340E-02
DAV:   3    -0.140397111339E+03    0.43913E-05   -0.25574E-05 16128   0.226E-02    0.951E-03
DAV:   4    -0.140397111750E+03   -0.41127E-06   -0.46752E-06 14208   0.117E-02
 114 F= -.14228632E+03 E0= -.14228507E+03  d E =-.795520E-04  mag=    -0.0000
 curvature:  -6.29 expect dE=-0.145E-02 dE for cont linesearch -0.541E-07
 trial: gam= 1.64522 g(F)=  0.231E-03 g(S)=  0.000E+00 ort = 0.389E-05 (trialstep = 0.183E+00)
 search vector abs. value=  0.501E-02
 bond charge predicted
       N       E                     dE             d eps       ncg     rms          rms(c)
DAV:   1    -0.140397104418E+03    0.69210E-05   -0.16441E-02 14208   0.581E-01    0.239E-02
DAV:   2    -0.140397112539E+03   -0.81205E-05   -0.13194E-04 15360   0.517E-02    0.169E-02
DAV:   3    -0.140397111482E+03    0.10569E-05   -0.82318E-06 15360   0.147E-02    0.510E-03
DAV:   4    -0.140397111703E+03   -0.22142E-06   -0.35858E-06 14688   0.109E-02
 115 F= -.14228635E+03 E0= -.14228511E+03  d E =-.372054E-04  mag=    -0.0000
 trial-energy change:   -0.000037  1 .order   -0.000036   -0.000043   -0.000028
 step:   0.5016(harm=  0.5016)  dis= 0.00195  next Energy=  -142.286376 (dE=-0.596E-04)
 bond charge predicted
       N       E                     dE             d eps       ncg     rms          rms(c)
DAV:   1    -0.140397051556E+03    0.59926E-04   -0.49792E-02 14208   0.101E+00    0.414E-02
DAV:   2    -0.140397075009E+03   -0.23453E-04   -0.39220E-04 15552   0.876E-02    0.292E-02
DAV:   3    -0.140397071777E+03    0.32320E-05   -0.20156E-05 15552   0.203E-02    0.862E-03
DAV:   4    -0.140397072170E+03   -0.39296E-06   -0.37107E-06 14208   0.100E-02
 116 F= -.14228638E+03 E0= -.14228513E+03  d E =-.623760E-04  mag=    -0.0000
 curvature:  -5.28 expect dE=-0.111E-02 dE for cont linesearch -0.145E-06
 trial: gam= 1.04488 g(F)=  0.211E-03 g(S)=  0.000E+00 ort =-0.117E-04 (trialstep = 0.218E+00)
 search vector abs. value=  0.565E-02
 bond charge predicted
       N       E                     dE             d eps       ncg     rms          rms(c)
DAV:   1    -0.140397042236E+03    0.29540E-04   -0.26218E-02 14208   0.732E-01    0.300E-02
DAV:   2    -0.140397054256E+03   -0.12020E-04   -0.20664E-04 14304   0.636E-02    0.212E-02
DAV:   3    -0.140397052576E+03    0.16797E-05   -0.11162E-05 14880   0.163E-02    0.623E-03
DAV:   4    -0.140397052881E+03   -0.30538E-06   -0.32324E-06 14208   0.102E-02
 117 F= -.14228642E+03 E0= -.14228516E+03  d E =-.368727E-04  mag=    -0.0000
 trial-energy change:   -0.000037  1 .order   -0.000035   -0.000043   -0.000027
 step:   0.5674(harm=  0.5674)  dis= 0.00236  next Energy=  -142.286435 (dE=-0.563E-04)
 bond charge predicted
       N       E                     dE             d eps       ncg     rms          rms(c)
DAV:   1    -0.140396961180E+03    0.91396E-04   -0.66783E-02 14208   0.117E+00    0.479E-02
DAV:   2    -0.140396991059E+03   -0.29879E-04   -0.52033E-04 14976   0.100E-01    0.338E-02
DAV:   3    -0.140396986673E+03    0.43860E-05   -0.26183E-05 14976   0.235E-02    0.968E-03
DAV:   4    -0.140396987115E+03   -0.44234E-06   -0.49279E-06 14208   0.121E-02
 118 F= -.14228644E+03 E0= -.14228518E+03  d E =-.605801E-04  mag=    -0.0000
 curvature:  -8.07 expect dE=-0.232E-02 dE for cont linesearch -0.591E-07
 trial: gam= 1.21200 g(F)=  0.287E-03 g(S)=  0.000E+00 ort =-0.643E-05 (trialstep = 0.190E+00)
 search vector abs. value=  0.857E-02
 bond charge predicted
       N       E                     dE             d eps       ncg     rms          rms(c)
DAV:   1    -0.140397001617E+03   -0.14944E-04   -0.29159E-02 14208   0.771E-01    0.316E-02
DAV:   2    -0.140397015826E+03   -0.14209E-04   -0.22288E-04 14880   0.660E-02    0.225E-02
DAV:   3    -0.140397014102E+03    0.17238E-05   -0.11983E-05 15456   0.176E-02    0.616E-03
DAV:   4    -0.140397014337E+03   -0.23490E-06   -0.42943E-06 14208   0.121E-02
 119 F= -.14228649E+03 E0= -.14228523E+03  d E =-.503973E-04  mag=    -0.0000
 ZBRENT: can't locate minimum, use default step
 trial-energy change:   -0.000050  1 .order   -0.000048   -0.000053   -0.000042
 step:   0.7601(harm=  0.9496)  dis= 0.00388  next Energy=  -142.286572 (dE=-0.132E-03)
 bond charge predicted
       N       E                     dE             d eps       ncg     rms          rms(c)
DAV:   1    -0.140396924043E+03    0.90059E-04   -0.26209E-01 14208   0.231E+00    0.944E-02
DAV:   2    -0.140397047671E+03   -0.12363E-03   -0.19641E-03 16560   0.193E-01    0.672E-02
DAV:   3    -0.140397029312E+03    0.18358E-04   -0.88726E-05 16128   0.407E-02    0.170E-02
DAV:   4    -0.140397030512E+03   -0.11999E-05   -0.98107E-06 14208   0.152E-02    0.401E-03
DAV:   5    -0.140397030146E+03    0.36655E-06   -0.29488E-06 14400   0.966E-03
 120 F= -.14228657E+03 E0= -.14228532E+03  d E =-.135757E-03  mag=     0.0000
 curvature: -13.69 expect dE=-0.427E-02 dE for cont linesearch -0.610E-05
 trial: gam= 0.96668 g(F)=  0.312E-03 g(S)=  0.000E+00 ort = 0.618E-04 (trialstep = 0.304E+00)
 search vector abs. value=  0.844E-02
 bond charge predicted
       N       E                     dE             d eps       ncg     rms          rms(c)
DAV:   1    -0.140397058358E+03   -0.27846E-04   -0.74048E-02 14208   0.123E+00    0.507E-02
DAV:   2    -0.140397092372E+03   -0.34014E-04   -0.57886E-04 15552   0.105E-01    0.359E-02
DAV:   3    -0.140397086868E+03    0.55040E-05   -0.28050E-05 15456   0.236E-02    0.980E-03
DAV:   4    -0.140397087335E+03   -0.46705E-06   -0.40924E-06 14208   0.105E-02
 121 F= -.14228664E+03 E0= -.14228539E+03  d E =-.699831E-04  mag=     0.0000
 trial-energy change:   -0.000070  1 .order   -0.000067   -0.000113   -0.000020
 step:   0.3705(harm=  0.3705)  dis= 0.00192  next Energy=  -142.286644 (dE=-0.689E-04)
 bond charge predicted
       N       E                     dE             d eps       ncg     rms          rms(c)
DAV:   1    -0.140397086078E+03    0.79007E-06   -0.35657E-03 14208   0.270E-01    0.114E-02
DAV:   2    -0.140397088027E+03   -0.19486E-05   -0.29669E-05 14400   0.253E-02    0.808E-03
DAV:   3    -0.140397087615E+03    0.41214E-06   -0.27713E-06 15552   0.951E-03
 122 F= -.14228665E+03 E0= -.14228539E+03  d E =-.730697E-04  mag=    -0.0000
 curvature:  -4.20 expect dE=-0.745E-03 dE for cont linesearch -0.195E-06
 trial: gam= 0.77468 g(F)=  0.177E-03 g(S)=  0.000E+00 ort = 0.198E-04 (trialstep = 0.317E+00)
 search vector abs. value=  0.527E-02
 bond charge predicted
       N       E                     dE             d eps       ncg     rms          rms(c)
DAV:   1    -0.140397086836E+03    0.11909E-05   -0.50944E-02 14208   0.102E+00    0.415E-02
DAV:   2    -0.140397111572E+03   -0.24736E-04   -0.38839E-04 15360   0.869E-02    0.296E-02
DAV:   3    -0.140397108182E+03    0.33895E-05   -0.20082E-05 15360   0.213E-02    0.809E-03
DAV:   4    -0.140397108506E+03   -0.32378E-06   -0.48542E-06 14208   0.123E-02
 123 F= -.14228670E+03 E0= -.14228545E+03  d E =-.519328E-04  mag=    -0.0000
 trial-energy change:   -0.000052  1 .order   -0.000050   -0.000061   -0.000038
 step:   0.8387(harm=  0.8387)  dis= 0.00347  next Energy=  -142.286729 (dE=-0.808E-04)
 bond charge predicted
       N       E                     dE             d eps       ncg     rms          rms(c)
DAV:   1    -0.140397040257E+03    0.67925E-04   -0.13771E-01 14208   0.168E+00    0.684E-02
DAV:   2    -0.140397108067E+03   -0.67810E-04   -0.10461E-03 15360   0.142E-01    0.487E-02
DAV:   3    -0.140397098103E+03    0.99648E-05   -0.52124E-05 15456   0.327E-02    0.130E-02
DAV:   4    -0.140397098666E+03   -0.56319E-06   -0.87709E-06 14784   0.156E-02
 124 F= -.14228674E+03 E0= -.14228549E+03  d E =-.930288E-04  mag=    -0.0000
 curvature: -11.48 expect dE=-0.468E-02 dE for cont linesearch -0.180E-06
 trial: gam= 1.95668 g(F)=  0.408E-03 g(S)=  0.000E+00 ort = 0.909E-05 (trialstep = 0.108E+00)
 search vector abs. value=  0.206E-01
 bond charge predicted
       N       E                     dE             d eps       ncg     rms          rms(c)
DAV:   1    -0.140397103457E+03   -0.53545E-05   -0.23123E-02 14208   0.687E-01    0.282E-02
DAV:   2    -0.140397114980E+03   -0.11523E-04   -0.17696E-04 14208   0.599E-02    0.200E-02
DAV:   3    -0.140397113761E+03    0.12193E-05   -0.11036E-05 15936   0.179E-02    0.570E-03
DAV:   4    -0.140397113852E+03   -0.91124E-07   -0.56629E-06 15168   0.138E-02
 125 F= -.14228679E+03 E0= -.14228553E+03  d E =-.444914E-04  mag=    -0.0000
 ZBRENT: can't locate minimum, use default step
 trial-energy change:   -0.000044  1 .order   -0.000042   -0.000046   -0.000038
 step:   0.4310(harm=  0.6410)  dis= 0.00341  next Energy=  -142.286877 (dE=-0.136E-03)
 bond charge predicted
       N       E                     dE             d eps       ncg     rms          rms(c)
DAV:   1    -0.140397020636E+03    0.93124E-04   -0.20752E-01 14208   0.206E+00    0.838E-02
DAV:   2    -0.140397120098E+03   -0.99461E-04   -0.15558E-03 17904   0.172E-01    0.597E-02
DAV:   3    -0.140397104026E+03    0.16072E-04   -0.68566E-05 16560   0.355E-02    0.148E-02
DAV:   4    -0.140397104975E+03   -0.94864E-06   -0.83718E-06 17376   0.138E-02
 126 F= -.14228686E+03 E0= -.14228561E+03  d E =-.123526E-03  mag=    -0.0000
 curvature: -13.13 expect dE=-0.290E-02 dE for cont linesearch -0.341E-05
 ZBRENT: extrapolating
 opt :   0.5153  next Energy=  -142.286868 (dE=-0.127E-03)
 bond charge predicted
       N       E                     dE             d eps       ncg     rms          rms(c)
DAV:   1    -0.140397082297E+03    0.21729E-04   -0.14166E-02 14208   0.538E-01    0.223E-02
DAV:   2    -0.140397089628E+03   -0.73301E-05   -0.10949E-04 15456   0.472E-02    0.159E-02
DAV:   3    -0.140397088672E+03    0.95547E-06   -0.71123E-06 15504   0.144E-02
 127 F= -.14228687E+03 E0= -.14228562E+03  d E =-.130134E-03  mag=     0.0000
 curvature: -11.88 expect dE=-0.364E-02 dE for cont linesearch -0.102E-05
 trial: gam= 0.80619 g(F)=  0.307E-03 g(S)=  0.000E+00 ort = 0.422E-04 (trialstep = 0.189E+00)
 search vector abs. value=  0.138E-01
 bond charge predicted
       N       E                     dE             d eps       ncg     rms          rms(c)
DAV:   1    -0.140397091998E+03   -0.23702E-05   -0.46363E-02 14208   0.972E-01    0.399E-02
DAV:   2    -0.140397114929E+03   -0.22931E-04   -0.36023E-04 15840   0.837E-02    0.284E-02
DAV:   3    -0.140397111884E+03    0.30445E-05   -0.18005E-05 15552   0.211E-02    0.838E-03
DAV:   4    -0.140397112107E+03   -0.22324E-06   -0.60773E-06 16224   0.142E-02
 128 F= -.14228692E+03 E0= -.14228567E+03  d E =-.509711E-04  mag=     0.0000
 trial-energy change:   -0.000051  1 .order   -0.000049   -0.000065   -0.000033
 step:   0.3832(harm=  0.3832)  dis= 0.00254  next Energy=  -142.286937 (dE=-0.653E-04)
