Lattice                                 
           1
     4.373428    2.525000    0.000000
    -4.373428    2.525000    0.000000
     0.000000    0.000000   15.000000
   B    C 
     2    14
Direct configuration=     1
   0.33833034  0.66916432  0.10000000
   0.67165522  0.33584146  0.10000000
   0.16373946  0.31999962  0.10000000
   0.32250218  0.16126397  0.10000000
   0.16376430  0.84376384  0.10000000
   0.84623863  0.16123684  0.10000000
   0.68749850  0.84373000  0.10000000
   0.84626736  0.68499594  0.10000000
   0.24999933  0.24999967  0.32633333
   0.41666633  0.08333267  0.32633333
   0.24999933  0.74999967  0.32633333
   0.41666633  0.58333267  0.32633333
   0.74999933  0.24999967  0.32633333
   0.91666633  0.08333267  0.32633333
   0.74999933  0.74999967  0.32633333
   0.91666633  0.58333267  0.32633333
Direct configuration=     2
   0.33844121  0.66905586  0.10014381
   0.67179370  0.33570162  0.10008406
   0.16686875  0.32620688  0.09994205
   0.32839882  0.16424412  0.09997312
   0.16669811  0.84082447  0.09995401
   0.84311057  0.16434827  0.09995867
   0.68130757  0.84062658  0.09994241
   0.84326213  0.67911054  0.09997336
   0.24986319  0.24959552  0.32640653
   0.41630147  0.08328224  0.32639725
   0.24982233  0.75018847  0.32627028
   0.41677135  0.58322400  0.32622988
   0.75003412  0.24995619  0.32620859
   0.91686880  0.08312259  0.32638261
   0.75040408  0.75014267  0.32640802
   0.91671249  0.58369532  0.32639201
Direct configuration=     3
   0.33836069  0.66913463  0.10003936
   0.67169312  0.33580319  0.10002301
   0.16459597  0.32169858  0.09998414
   0.32411612  0.16207965  0.09999264
   0.16456730  0.84295932  0.09998741
   0.84538247  0.16208846  0.09998869
   0.68580401  0.84288058  0.09998424
   0.84544481  0.68338508  0.09999271
   0.24996207  0.24988905  0.32635337
   0.41656647  0.08331887  0.32635083
   0.24995089  0.75005134  0.32631607
   0.41669508  0.58330292  0.32630502
   0.75000885  0.24998777  0.32629919
   0.91672175  0.08327517  0.32634682
   0.75011011  0.75003881  0.32635378
   0.91667897  0.58343193  0.32634939
Direct configuration=     4
   0.33836107  0.66913946  0.10013340
   0.67169249  0.33580392  0.10007799
   0.16454484  0.32170224  0.09994713
   0.32412117  0.16211758  0.09997137
   0.16454672  0.84296573  0.09996088
   0.84540881  0.16208049  0.09995736
   0.68579259  0.84293688  0.09994742
   0.84540215  0.68338449  0.09997176
   0.24995660  0.24983588  0.32640391
   0.41653861  0.08329336  0.32638955
   0.24993582  0.75006580  0.32627644
   0.41671700  0.58328104  0.32623784
   0.75001513  0.24997937  0.32622228
   0.91675991  0.08323613  0.32637949
   0.75016167  0.75004322  0.32640516
   0.91670408  0.58345976  0.32638468
Direct configuration=     5
   0.33836120  0.66914112  0.10016579
   0.67169227  0.33580417  0.10009692
   0.16452723  0.32170350  0.09993438
   0.32412291  0.16213064  0.09996405
   0.16453963  0.84296793  0.09995174
   0.84541789  0.16207775  0.09994657
   0.68578866  0.84295627  0.09993475
   0.84538746  0.68338428  0.09996455
   0.24995471  0.24981756  0.32642132
   0.41652901  0.08328458  0.32640288
   0.24993063  0.75007077  0.32626279
   0.41672455  0.58327350  0.32621471
   0.75001730  0.24997648  0.32619580
   0.91677305  0.08322269  0.32639074
   0.75017942  0.75004474  0.32642286
   0.91671273  0.58346934  0.32639684
Direct configuration=     6
   0.33829070  0.66918974  0.10024874
   0.67169503  0.33581548  0.10015071
   0.16469107  0.32175186  0.09990518
   0.32402185  0.16207835  0.09993540
   0.16450276  0.84302287  0.09993953
   0.84530273  0.16216680  0.09990156
   0.68577450  0.84283557  0.09990591
   0.84540257  0.68347182  0.09993635
   0.25001704  0.24988651  0.32646478
   0.41663747  0.08329689  0.32641517
   0.25001289  0.74998740  0.32623524
   0.41671696  0.58327706  0.32617335
   0.75005282  0.24994335  0.32616219
   0.91673157  0.08326228  0.32641972
   0.75011123  0.74998200  0.32646620
   0.91669749  0.58335734  0.32640661
Direct configuration=     7
   0.33833557  0.66915880  0.10019595
   0.67169328  0.33580828  0.10011648
   0.16458679  0.32172108  0.09992377
   0.32408617  0.16211163  0.09995363
   0.16452623  0.84298791  0.09994730
   0.84537602  0.16211013  0.09993021
   0.68578351  0.84291239  0.09992426
   0.84539295  0.68341611  0.09995429
   0.24997737  0.24984263  0.32643712
   0.41656844  0.08328906  0.32640735
   0.24996054  0.75004046  0.32625277
   0.41672179  0.58327479  0.32619967
   0.75003021  0.24996444  0.32618358
   0.91675797  0.08323708  0.32640127
   0.75015463  0.75002193  0.32643862
   0.91670719  0.58342862  0.32640039
Direct configuration=     8
   0.33831285  0.66918744  0.10022104
   0.67165173  0.33584488  0.10013402
   0.16454895  0.32174170  0.09991489
   0.32410032  0.16209923  0.09993944
   0.16449000  0.84300402  0.09995100
   0.84539023  0.16211957  0.09990324
   0.68575298  0.84294255  0.09991571
   0.84541530  0.68341318  0.09994040
   0.25000429  0.24986058  0.32644865
   0.41661708  0.08328300  0.32639707
   0.24999451  0.75000493  0.32624835
   0.41673017  0.58326494  0.32620282
   0.75004812  0.24994628  0.32619781
   0.91675394  0.08324044  0.32641308
   0.75013587  0.74999386  0.32644943
   0.91671234  0.58337874  0.32638971
Direct configuration=     9
   0.33832268  0.66917504  0.10021018
   0.67166972  0.33582904  0.10012643
   0.16456533  0.32173277  0.09991873
   0.32409419  0.16210460  0.09994559
   0.16450569  0.84299704  0.09994940
   0.84538408  0.16211548  0.09991491
   0.68576620  0.84292949  0.09991941
   0.84540562  0.68341445  0.09994642
   0.24999264  0.24985281  0.32644366
   0.41659602  0.08328562  0.32640152
   0.24997980  0.75002031  0.32625027
   0.41672654  0.58326921  0.32620146
   0.75004037  0.24995414  0.32619165
   0.91675568  0.08323899  0.32640797
   0.75014399  0.75000601  0.32644475
   0.91671011  0.58340034  0.32639433
Direct configuration=    10
   0.33829908  0.66919869  0.10022685
   0.67165315  0.33584894  0.10013608
   0.16454958  0.32174184  0.09991025
   0.32407953  0.16213980  0.09993570
   0.16450132  0.84300435  0.09995457
   0.84537135  0.16212963  0.09989091
   0.68575972  0.84295447  0.09991133
   0.84536315  0.68342616  0.09993690
   0.25000648  0.24983002  0.32644951
   0.41660860  0.08326495  0.32639029
   0.24999231  0.75000650  0.32624802
   0.41674628  0.58324859  0.32621287
   0.75005597  0.24993695  0.32621127
   0.91677695  0.08321674  0.32641929
   0.75016531  0.74999077  0.32644984
   0.91672988  0.58338694  0.32638300
Direct configuration=    11
   0.33829024  0.66920754  0.10023310
   0.67164695  0.33585640  0.10013969
   0.16454368  0.32174523  0.09990707
   0.32407404  0.16215298  0.09993199
   0.16449968  0.84300708  0.09995651
   0.84536658  0.16213493  0.09988192
   0.68575729  0.84296383  0.09990830
   0.84534725  0.68343055  0.09993334
   0.25001166  0.24982148  0.32645171
   0.41661332  0.08325721  0.32638609
   0.24999699  0.75000132  0.32624718
   0.41675367  0.58324087  0.32621714
   0.75006182  0.24993052  0.32621861
   0.91678492  0.08320841  0.32642352
   0.75017329  0.74998506  0.32645174
   0.91673728  0.58338192  0.32637875
Direct configuration=    12
   0.33828526  0.66921449  0.10024134
   0.67163767  0.33586528  0.10013878
   0.16453220  0.32177907  0.09989594
   0.32404567  0.16215584  0.09992986
   0.16446206  0.84303871  0.09996054
   0.84534150  0.16216509  0.09986414
   0.68572473  0.84297701  0.09989762
   0.84534568  0.68346415  0.09993160
   0.25002759  0.24978781  0.32645366
   0.41661844  0.08323478  0.32638294
   0.25001051  0.74998703  0.32624489
   0.41677326  0.58321988  0.32623024
   0.75008080  0.24991035  0.32623130
   0.91680925  0.08318235  0.32643508
   0.75020593  0.74996824  0.32645317
   0.91675809  0.58337526  0.32637558
Direct configuration=    13
   0.33828357  0.66921686  0.10024416
   0.67163450  0.33586831  0.10013847
   0.16452828  0.32179061  0.09989214
   0.32403600  0.16215681  0.09992913
   0.16444922  0.84304950  0.09996192
   0.84533294  0.16217538  0.09985807
   0.68571362  0.84298151  0.09989397
   0.84534515  0.68347562  0.09993100
   0.25003303  0.24977632  0.32645432
   0.41662019  0.08322713  0.32638187
   0.25001513  0.74998215  0.32624411
   0.41677994  0.58321272  0.32623471
   0.75008728  0.24990347  0.32623562
   0.91681756  0.08317345  0.32643902
   0.75021707  0.74996251  0.32645366
   0.91676519  0.58337299  0.32637449
Direct configuration=    14
   0.33826490  0.66923648  0.10024429
   0.67161711  0.33588761  0.10013108
   0.16450735  0.32180826  0.09988108
   0.32401711  0.16217859  0.09993180
   0.16443180  0.84306762  0.09996578
   0.84531491  0.16219546  0.09984569
   0.68569754  0.84300520  0.09988336
   0.84532305  0.68349492  0.09993406
   0.25005286  0.24975895  0.32645563
   0.41664156  0.08320800  0.32638538
   0.25003558  0.74996040  0.32624348
   0.41679792  0.58319346  0.32624394
   0.75010607  0.24988350  0.32624061
   0.91683460  0.08315517  0.32644772
   0.75023324  0.74994142  0.32645479
   0.91678304  0.58335029  0.32637798
Direct configuration=    15
   0.33820892  0.66929533  0.10024470
   0.67156492  0.33594551  0.10010891
   0.16444457  0.32186120  0.09984792
   0.32396047  0.16224394  0.09993983
   0.16437952  0.84312197  0.09997736
   0.84526081  0.16225571  0.09980854
   0.68564931  0.84307629  0.09985153
   0.84525677  0.68355283  0.09994322
   0.25011238  0.24970684  0.32645955
   0.41670567  0.08315061  0.32639592
   0.25009696  0.74989515  0.32624157
   0.41685187  0.58313567  0.32627164
   0.75016245  0.24982361  0.32625555
   0.91688574  0.08310032  0.32647383
   0.75028175  0.74987816  0.32645817
   0.91683658  0.58328220  0.32638844
Direct configuration=    16
   0.33809694  0.66941303  0.10024552
   0.67146055  0.33606130  0.10006457
   0.16431900  0.32196708  0.09978159
   0.32384717  0.16237463  0.09995587
   0.16427496  0.84323067  0.10000052
   0.84515261  0.16237621  0.09973424
   0.68555283  0.84321845  0.09978786
   0.84512421  0.68366866  0.09996154
   0.25023140  0.24960262  0.32646739
   0.41683389  0.08303581  0.32641700
   0.25021971  0.74976466  0.32623776
   0.41695976  0.58302011  0.32632704
   0.75027520  0.24970383  0.32628544
   0.91698800  0.08299063  0.32652603
   0.75037876  0.74975163  0.32646492
   0.91694366  0.58314601  0.32640936
Direct configuration=    17
   0.33808660  0.66942434  0.10024376
   0.67144884  0.33607324  0.10006119
   0.16430962  0.32197849  0.09977690
   0.32383774  0.16238426  0.09995649
   0.16426434  0.84324127  0.10000362
   0.84514305  0.16238716  0.09972712
   0.68554175  0.84322840  0.09978340
   0.84511539  0.68367923  0.09996236
   0.25024125  0.24959182  0.32646948
   0.41684399  0.08302487  0.32641883
   0.25022948  0.74975417  0.32623910
   0.41697026  0.58300897  0.32632963
   0.75028518  0.24969311  0.32628781
   0.91699835  0.08297965  0.32652880
   0.75038885  0.74974107  0.32646699
   0.91695397  0.58313528  0.32641118
Direct configuration=    18
   0.33805557  0.66945830  0.10023849
   0.67141372  0.33610905  0.10005106
   0.16428147  0.32201272  0.09976285
   0.32380945  0.16241317  0.09995835
   0.16423246  0.84327307  0.10001290
   0.84511435  0.16242002  0.09970573
   0.68550854  0.84325822  0.09977003
   0.84508893  0.68371094  0.09996482
   0.25027081  0.24955944  0.32647577
   0.41687430  0.08299205  0.32642434
   0.25025881  0.74972269  0.32624311
   0.41700176  0.58297556  0.32633739
   0.75031512  0.24966094  0.32629492
   0.91702938  0.08294671  0.32653710
   0.75041910  0.74970938  0.32647318
   0.91698490  0.58310307  0.32641664
Direct configuration=    19
   0.33799352  0.66952621  0.10022795
   0.67134349  0.33618067  0.10003079
   0.16422516  0.32208118  0.09973475
   0.32375287  0.16247099  0.09996206
   0.16416872  0.84333668  0.10003146
   0.84505695  0.16248575  0.09966297
   0.68544210  0.84331787  0.09974328
   0.84503601  0.68377438  0.09996974
   0.25032992  0.24949466  0.32648833
   0.41693491  0.08292640  0.32643537
   0.25031745  0.74965975  0.32625112
   0.41706476  0.58290874  0.32635291
   0.75037499  0.24959659  0.32630913
   0.91709144  0.08288081  0.32655370
   0.75047962  0.74964601  0.32648555
   0.91704675  0.58303866  0.32642755
Direct configuration=    20
   0.33786941  0.66966202  0.10020688
   0.67120302  0.33632390  0.09999025
   0.16411256  0.32221811  0.09967853
   0.32363971  0.16258661  0.09996949
   0.16404122  0.84346389  0.10006860
   0.84494216  0.16261720  0.09957745
   0.68530923  0.84343717  0.09968978
   0.84493017  0.68390124  0.09997957
   0.25044815  0.24936512  0.32651346
   0.41705613  0.08279510  0.32645741
   0.25043475  0.74953386  0.32626716
   0.41719076  0.58277510  0.32638395
   0.75049474  0.24946789  0.32633755
   0.91721556  0.08274902  0.32658691
   0.75060064  0.74951925  0.32651031
   0.91717044  0.58290983  0.32644937
Direct configuration=    21
   0.33762118  0.66993365  0.10016473
   0.67092209  0.33661038  0.09990918
   0.16388736  0.32249196  0.09956611
   0.32341340  0.16281787  0.09998434
   0.16378623  0.84371832  0.10014286
   0.84471258  0.16288010  0.09940639
   0.68504349  0.84367577  0.09958278
   0.84471848  0.68415496  0.09999924
   0.25068461  0.24910603  0.32656371
   0.41729857  0.08253250  0.32650150
   0.25066934  0.74928209  0.32629922
   0.41744276  0.58250783  0.32644603
   0.75073425  0.24921051  0.32639439
   0.91746381  0.08248545  0.32665333
   0.75084268  0.74926575  0.32655982
   0.91741784  0.58265217  0.32649302
Direct configuration=    22
   0.33755937  0.66999516  0.10014704
   0.67087318  0.33666829  0.09989555
   0.16383566  0.32255017  0.09954439
   0.32334173  0.16288748  0.09998294
   0.16373526  0.84378215  0.10016444
   0.84464288  0.16294474  0.09936275
   0.68499561  0.84373933  0.09956227
   0.84464512  0.68422350  0.09999899
   0.25074573  0.24903804  0.32658150
   0.41735323  0.08246981  0.32651225
   0.25072995  0.74921805  0.32631544
   0.41749980  0.58244641  0.32645068
   0.75079519  0.24914610  0.32640674
   0.91752280  0.08242196  0.32666026
   0.75090715  0.74920112  0.32657775
   0.91747602  0.58259304  0.32650369
Direct configuration=    23
   0.33737392  0.67017966  0.10009396
   0.67072646  0.33684201  0.09985467
   0.16368055  0.32272481  0.09947925
   0.32312673  0.16309630  0.09997871
   0.16358234  0.84397367  0.10022919
   0.84443376  0.16313866  0.09923182
   0.68485199  0.84393000  0.09950073
   0.84442503  0.68442910  0.09999825
   0.25092908  0.24883407  0.32663485
   0.41751720  0.08228172  0.32654450
   0.25091176  0.74902594  0.32636407
   0.41767095  0.58226216  0.32646462
   0.75097802  0.24895286  0.32644376
   0.91769978  0.08223147  0.32668105
   0.75110055  0.74900722  0.32663155
   0.91765055  0.58241567  0.32653568
Direct configuration=    24
   0.33700304  0.67054868  0.09998781
   0.67043300  0.33718945  0.09977291
   0.16337035  0.32307409  0.09934897
   0.32269674  0.16351395  0.09997026
   0.16327649  0.84435671  0.10035870
   0.84401552  0.16352651  0.09896995
   0.68456473  0.84431136  0.09937764
   0.84398485  0.68484030  0.09999677
   0.25129579  0.24842612  0.32674156
   0.41784514  0.08190554  0.32660900
   0.25127539  0.74864172  0.32646133
   0.41801324  0.58189366  0.32649251
   0.75134369  0.24856640  0.32651782
   0.91805373  0.08185051  0.32672263
   0.75148734  0.74861943  0.32673913
   0.91799962  0.58206092  0.32659967
Direct configuration=    25
   0.33721391  0.67033887  0.10004817
   0.67059985  0.33699190  0.09981940
   0.16354672  0.32287550  0.09942304
   0.32294122  0.16327649  0.09997506
   0.16345038  0.84413893  0.10028507
   0.84425332  0.16330599  0.09911884
   0.68472806  0.84409453  0.09944762
   0.84423512  0.68460651  0.09999761
   0.25108729  0.24865807  0.32668089
   0.41765868  0.08211942  0.32657233
   0.25106864  0.74886017  0.32640603
   0.41781862  0.58210317  0.32647666
   0.75113579  0.24878613  0.32647572
   0.91785249  0.08206711  0.32669899
   0.75126742  0.74883991  0.32667796
   0.91780116  0.58226262  0.32656329
Direct configuration=    26
   0.33714951  0.67041099  0.10002485
   0.67052924  0.33706512  0.09980613
   0.16345570  0.32295272  0.09939741
   0.32287487  0.16335290  0.09997270
   0.16336932  0.84421760  0.10030944
   0.84418898  0.16338206  0.09906829
   0.68465057  0.84418256  0.09942333
   0.84417125  0.68468253  0.09999661
   0.25116031  0.24858131  0.32670183
   0.41773168  0.08204235  0.32658742
   0.25114165  0.74878232  0.32642803
   0.41789013  0.58202679  0.32648027
   0.75120796  0.24870929  0.32648816
   0.91792477  0.08198995  0.32670461
   0.75133934  0.74876208  0.32669924
   0.91787338  0.58218473  0.32657834
Direct configuration=    27
   0.33695633  0.67062737  0.09995491
   0.67031743  0.33728477  0.09976632
   0.16318262  0.32318438  0.09932050
   0.32267580  0.16358212  0.09996561
   0.16312612  0.84445362  0.10038256
   0.84399598  0.16361027  0.09891665
   0.68441813  0.84444666  0.09935045
   0.84397962  0.68491060  0.09999361
   0.25137937  0.24835104  0.32676465
   0.41795068  0.08181112  0.32663269
   0.25136069  0.74854877  0.32649404
   0.41810465  0.58179765  0.32649113
   0.75142448  0.24847878  0.32652549
   0.91814161  0.08175846  0.32672150
   0.75155509  0.74852860  0.32676306
   0.91809005  0.58195109  0.32662351
Direct configuration=    28
   0.33689669  0.67069417  0.09993331
   0.67025204  0.33735258  0.09975404
   0.16309832  0.32325590  0.09929676
   0.32261435  0.16365289  0.09996342
   0.16305104  0.84452649  0.10040513
   0.84393640  0.16368073  0.09886983
   0.68434637  0.84452819  0.09932794
   0.84392046  0.68498101  0.09999269
   0.25144699  0.24827995  0.32678404
   0.41801829  0.08173974  0.32664667
   0.25142831  0.74847667  0.32651442
   0.41817088  0.58172691  0.32649448
   0.75149133  0.24840762  0.32653701
   0.91820856  0.08168700  0.32672671
   0.75162170  0.74845652  0.32678276
   0.91815694  0.58187896  0.32663746
Direct configuration=    29
   0.33691679  0.67067166  0.09994059
   0.67027407  0.33732973  0.09975818
   0.16312673  0.32323180  0.09930476
   0.32263506  0.16362904  0.09996416
   0.16307634  0.84450193  0.10039752
   0.84395648  0.16365698  0.09888561
   0.68437056  0.84450072  0.09933553
   0.84394040  0.68495728  0.09999300
   0.25142420  0.24830391  0.32677751
   0.41799551  0.08176380  0.32664196
   0.25140552  0.74850097  0.32650755
   0.41814856  0.58175075  0.32649335
   0.75146880  0.24843160  0.32653313
   0.91818600  0.08171108  0.32672496
   0.75159925  0.74848082  0.32677612
   0.91813440  0.58190327  0.32663276
Direct configuration=    30
   0.33689590  0.67069764  0.09993659
   0.67024051  0.33735930  0.09975772
   0.16310822  0.32326134  0.09929449
   0.32262965  0.16364567  0.09996649
   0.16305314  0.84452232  0.10039485
   0.84394354  0.16367561  0.09888161
   0.68433726  0.84451246  0.09932538
   0.84393270  0.68497062  0.09999559
   0.25144083  0.24829360  0.32677558
   0.41802584  0.08174186  0.32665146
   0.25142276  0.74848133  0.32651179
   0.41817315  0.58172568  0.32649939
   0.75148533  0.24841272  0.32653129
   0.91820637  0.08169054  0.32672762
   0.75160728  0.74846189  0.32677441
   0.91815619  0.58187277  0.32664242
Direct configuration=    31
   0.33683740  0.67077041  0.09992537
   0.67014648  0.33744212  0.09975645
   0.16305637  0.32334409  0.09926573
   0.32261448  0.16369227  0.09997302
   0.16298816  0.84457943  0.10038737
   0.84390731  0.16372777  0.09887042
   0.68424399  0.84454536  0.09929695
   0.84391114  0.68500799  0.10000285
   0.25148740  0.24826471  0.32677019
   0.41811080  0.08168039  0.32667807
   0.25147104  0.74842634  0.32652365
   0.41824205  0.58165545  0.32651630
   0.75153162  0.24835984  0.32652613
   0.91826342  0.08163299  0.32673507
   0.75162976  0.74840886  0.32676961
   0.91821725  0.58178732  0.32666949
Direct configuration=    32
   0.33679419  0.67080960  0.09992102
   0.67012041  0.33747573  0.09976073
   0.16305364  0.32337198  0.09925068
   0.32257339  0.16373110  0.09997676
   0.16297723  0.84461231  0.10037465
   0.84386251  0.16375512  0.09887450
   0.68422707  0.84455837  0.09928175
   0.84386623  0.68504113  0.10000681
   0.25151917  0.24823421  0.32676163
   0.41813921  0.08165221  0.32669370
   0.25150245  0.74839355  0.32653003
   0.41826874  0.58162630  0.32652838
   0.75156337  0.24832665  0.32652162
   0.91828922  0.08160484  0.32673742
   0.75165877  0.74837559  0.32676145
   0.91824307  0.58175665  0.32668554
Direct configuration=    33
   0.33674993  0.67084974  0.09991657
   0.67009370  0.33751017  0.09976511
   0.16305083  0.32340056  0.09923526
   0.32253129  0.16377088  0.09998060
   0.16296602  0.84464600  0.10036161
   0.84381663  0.16378314  0.09887868
   0.68420973  0.84457170  0.09926618
   0.84382021  0.68507509  0.10001087
   0.25155172  0.24820296  0.32675286
   0.41816833  0.08162333  0.32670971
   0.25153463  0.74835996  0.32653657
   0.41829609  0.58159644  0.32654075
   0.75159589  0.24829265  0.32651701
   0.91831565  0.08157600  0.32673982
   0.75168849  0.74834150  0.32675309
   0.91826952  0.58172523  0.32670198
Direct configuration=    34
   0.33673495  0.67086582  0.09991199
   0.67008556  0.33752215  0.09977420
   0.16300480  0.32341549  0.09923042
   0.32250346  0.16379528  0.09997827
   0.16293515  0.84467545  0.10034865
   0.84379965  0.16380398  0.09888656
   0.68419360  0.84461171  0.09926090
   0.84380521  0.68510481  0.10000845
   0.25157823  0.24816454  0.32674781
   0.41817482  0.08160212  0.32671599
   0.25155967  0.74833511  0.32654513
   0.41831012  0.58157967  0.32654708
   0.75162240  0.24826637  0.32651834
   0.91833652  0.08155202  0.32673588
   0.75172686  0.74831509  0.32674833
   0.91828767  0.58171572  0.32670867
Direct configuration=    35
   0.33671426  0.67088802  0.09990567
   0.67007432  0.33753869  0.09978673
   0.16294126  0.32343610  0.09922374
   0.32246505  0.16382896  0.09997506
   0.16289254  0.84471610  0.10033076
   0.84377621  0.16383275  0.09889744
   0.68417133  0.84466693  0.09925361
   0.84378451  0.68514583  0.10000511
   0.25161482  0.24811151  0.32674085
   0.41818379  0.08157286  0.32672466
   0.25159424  0.74830080  0.32655695
   0.41832948  0.58155653  0.32655580
   0.75165900  0.24823011  0.32652018
   0.91836531  0.08151891  0.32673044
   0.75177983  0.74827863  0.32674176
   0.91831272  0.58170260  0.32671790
Direct configuration=    36
   0.33669520  0.67091018  0.09989847
   0.67005243  0.33756060  0.09980019
   0.16290705  0.32346913  0.09922746
   0.32244538  0.16386313  0.09996555
   0.16286468  0.84474594  0.10031612
   0.84374965  0.16385934  0.09890789
   0.68413865  0.84469635  0.09925658
   0.84375805  0.68517057  0.09999521
   0.25163470  0.24808734  0.32674010
   0.41821489  0.08154054  0.32672451
   0.25161431  0.74827780  0.32656935
   0.41836113  0.58152440  0.32655749
   0.75167928  0.24820696  0.32652715
   0.91839760  0.08148616  0.32672116
   0.75180105  0.74825584  0.32674126
   0.91834462  0.58167104  0.32671818
Direct configuration=    37
   0.33663799  0.67097669  0.09987688
   0.66998675  0.33762634  0.09984056
   0.16280440  0.32356824  0.09923860
   0.32238639  0.16396565  0.09993702
   0.16278110  0.84483548  0.10027223
   0.84366999  0.16393911  0.09893922
   0.68404061  0.84478461  0.09926550
   0.84367867  0.68524479  0.09996550
   0.25169434  0.24801484  0.32673787
   0.41830820  0.08144356  0.32672409
   0.25167450  0.74820878  0.32660654
   0.41845609  0.58142802  0.32656256
   0.75174012  0.24813751  0.32654805
   0.91849446  0.08138788  0.32669332
   0.75186473  0.74818748  0.32673976
   0.91844032  0.58157634  0.32671899
Direct configuration=    38
   0.33660340  0.67101059  0.09987151
   0.66995781  0.33765883  0.09984898
   0.16279970  0.32359459  0.09924549
   0.32235752  0.16399487  0.09992723
   0.16276917  0.84486098  0.10025825
   0.84363700  0.16396344  0.09895085
   0.68401997  0.84479568  0.09927166
   0.84364606  0.68526979  0.09995519
   0.25172241  0.24799312  0.32673854
   0.41833550  0.08142099  0.32672324
   0.25170327  0.74817886  0.32661370
   0.41847911  0.58140289  0.32656277
   0.75176798  0.24810840  0.32655276
   0.91851349  0.08136696  0.32668760
   0.75188537  0.74815824  0.32674055
   0.91846091  0.58154711  0.32671835
Direct configuration=    39
   0.33650649  0.67110557  0.09985644
   0.66987672  0.33774986  0.09987256
   0.16278654  0.32366840  0.09926479
   0.32227665  0.16407672  0.09989982
   0.16273576  0.84493243  0.10021910
   0.84354457  0.16403158  0.09898342
   0.68396212  0.84482668  0.09928893
   0.84355473  0.68533982  0.09992632
   0.25180105  0.24793226  0.32674041
   0.41841197  0.08135778  0.32672086
   0.25178386  0.74809505  0.32663378
   0.41854358  0.58133246  0.32656338
   0.75184604  0.24802685  0.32656595
   0.91856678  0.08130835  0.32667160
   0.75194320  0.74807634  0.32674278
   0.91851860  0.58146519  0.32671655
Direct configuration=    40
   0.33647042  0.67114555  0.09985281
   0.66983429  0.33779191  0.09987583
   0.16275463  0.32369907  0.09927477
   0.32224906  0.16409920  0.09988914
   0.16270120  0.84496550  0.10020007
   0.84352147  0.16406124  0.09900121
   0.68392949  0.84485604  0.09929802
   0.84353928  0.68537198  0.09991482
   0.25183713  0.24789962  0.32674113
   0.41844061  0.08132979  0.32672125
   0.25182031  0.74805760  0.32663549
   0.41856981  0.58130325  0.32656380
   0.75188163  0.24799022  0.32656738
   0.91859077  0.08128147  0.32667044
   0.75197492  0.74803929  0.32674354
   0.91854366  0.58143361  0.32671696
Direct configuration=    41
   0.33636222  0.67126550  0.09984192
   0.66970698  0.33791804  0.09988562
   0.16265890  0.32379109  0.09930471
   0.32216627  0.16416662  0.09985711
   0.16259750  0.84506470  0.10014299
   0.84345216  0.16415022  0.09905458
   0.68383159  0.84494409  0.09932529
   0.84349294  0.68546849  0.09988032
   0.25194536  0.24780169  0.32674331
   0.41852654  0.08124583  0.32672240
   0.25192967  0.74794525  0.32664064
   0.41864850  0.58121564  0.32656509
   0.75198839  0.24788031  0.32657167
   0.91866272  0.08120085  0.32666696
   0.75207007  0.74792814  0.32674584
   0.91861884  0.58133886  0.32671822
Direct configuration=    42
   0.33632385  0.67130675  0.09984285
   0.66966859  0.33795927  0.09987720
   0.16259034  0.32383876  0.09932057
   0.32211835  0.16421519  0.09984475
   0.16253915  0.84511532  0.10011015
   0.84340834  0.16420432  0.09908821
   0.68378656  0.84501298  0.09933980
   0.84345054  0.68552360  0.09986647
   0.25198362  0.24774607  0.32674364
   0.41857284  0.08118657  0.32672572
   0.25196732  0.74790311  0.32663144
   0.41870207  0.58116070  0.32656663
   0.75202693  0.24783741  0.32656643
   0.91872266  0.08113912  0.32667552
   0.75212114  0.74788543  0.32674603
   0.91867637  0.58129076  0.32672125
Direct configuration=    43
   0.33620874  0.67143049  0.09984565
   0.66955340  0.33808298  0.09985194
   0.16238465  0.32398175  0.09936813
   0.32197461  0.16436091  0.09980770
   0.16236411  0.84526716  0.10001164
   0.84327688  0.16436661  0.09918911
   0.68365146  0.84521964  0.09938334
   0.84332334  0.68568891  0.09982492
   0.25209840  0.24757922  0.32674464
   0.41871172  0.08100877  0.32673567
   0.25208027  0.74777668  0.32660386
   0.41886279  0.58099588  0.32657124
   0.75214253  0.24770868  0.32655069
   0.91890249  0.08095390  0.32670120
   0.75227435  0.74775729  0.32674661
   0.91884894  0.58114646  0.32673032
Direct configuration=    44
   0.33597852  0.67167798  0.09985123
   0.66932303  0.33833039  0.09980142
   0.16197326  0.32426774  0.09946325
   0.32168713  0.16465236  0.09973359
   0.16201402  0.84557083  0.09981461
   0.84301396  0.16469118  0.09939092
   0.68338127  0.84563296  0.09947042
   0.84306894  0.68601955  0.09974182
   0.25232795  0.24724551  0.32674664
   0.41898947  0.08065319  0.32675559
   0.25230616  0.74752383  0.32654868
   0.41918424  0.58066624  0.32658047
   0.75237374  0.24745124  0.32651922
   0.91926214  0.08058348  0.32675257
   0.75258076  0.74750101  0.32674778
   0.91919408  0.58085784  0.32674847
Direct configuration=    45
   0.33614605  0.67149788  0.09984717
   0.66949067  0.33815035  0.09983819
   0.16227262  0.32405963  0.09939403
   0.32189633  0.16444028  0.09978752
   0.16226878  0.84534985  0.09995799
   0.84320529  0.16445499  0.09924407
   0.68357789  0.84533219  0.09940705
   0.84325406  0.68577895  0.09980229
   0.25216091  0.24748835  0.32674518
   0.41878735  0.08091195  0.32674110
   0.25214178  0.74770783  0.32658883
   0.41895032  0.58090612  0.32657375
   0.75220549  0.24763858  0.32654212
   0.91900042  0.08085303  0.32671519
   0.75235779  0.74768750  0.32674693
   0.91894292  0.58106786  0.32673526
Direct configuration=    46
   0.33611718  0.67152716  0.09984855
   0.66946609  0.33817905  0.09983180
   0.16224772  0.32409102  0.09940452
   0.32186189  0.16447719  0.09977972
   0.16224398  0.84538024  0.09993784
   0.84316964  0.16448939  0.09926502
   0.68355137  0.84536440  0.09941673
   0.84321327  0.68581164  0.09979353
   0.25219080  0.24745522  0.32674614
   0.41881647  0.08087994  0.32674208
   0.25217168  0.74767605  0.32658303
   0.41898033  0.58087418  0.32657396
   0.75223547  0.24760669  0.32653945
   0.91903080  0.08082069  0.32672050
   0.75238903  0.74765572  0.32674777
   0.91897294  0.58103675  0.32673603
Direct configuration=    47
   0.33603058  0.67161500  0.09985268
   0.66939233  0.33826517  0.09981262
   0.16217302  0.32418519  0.09943600
   0.32175858  0.16458793  0.09975631
   0.16216958  0.84547142  0.09987741
   0.84306272  0.16459258  0.09932790
   0.68347181  0.84546103  0.09944576
   0.84309090  0.68590972  0.09976725
   0.25228048  0.24735583  0.32674903
   0.41890384  0.08078392  0.32674501
   0.25226137  0.74758072  0.32656561
   0.41907035  0.58077837  0.32657457
   0.75232540  0.24751101  0.32653144