Lattice                                 
           1
     4.190697    2.419500    0.000000
    -4.190697    2.419500    0.000000
     0.000000    0.000000   15.000000
   B    C 
     4    11
Direct configuration=     1
   0.00415361  0.00267210  0.12034134
   0.35695335  0.00285503  0.09748893
   0.00423858  0.35550699  0.09749256
   0.65142295  0.65006557  0.09747688
   0.32808646  0.32671938  0.10030508
   0.68027775  0.00278085  0.10027562
   0.00416530  0.67883808  0.10026559
   0.11111044  0.38888856  0.33726667
   0.27777744  0.22222156  0.33726667
   0.11111044  0.88888856  0.33726667
   0.27777744  0.72222156  0.33726667
   0.61111044  0.38888856  0.33726667
   0.77777744  0.22222156  0.33726667
   0.61111044  0.88888856  0.33726667
   0.77777744  0.72222156  0.33726667
Direct configuration=     2
   0.00416846  0.00269785  0.11910333
   0.35577450  0.00279118  0.09780983
   0.00418850  0.35455681  0.09786606
   0.65249139  0.65102483  0.09783659
   0.32489894  0.32337009  0.10031179
   0.68373125  0.00279487  0.10032541
   0.00422537  0.68204645  0.10028032
   0.11103975  0.38899184  0.33727928
   0.27791691  0.22234784  0.33735259
   0.11129731  0.88901728  0.33728986
   0.27796818  0.72221837  0.33720488
   0.61107090  0.38883629  0.33720000
   0.77773583  0.22226654  0.33728871
   0.61092680  0.88884051  0.33734186
   0.77741547  0.72207771  0.33728883
Direct configuration=     3
   0.00416103  0.00268496  0.11972286
   0.35636442  0.00282313  0.09764924
   0.00421356  0.35503230  0.09767915
   0.65195672  0.65054480  0.09765658
   0.32649404  0.32504614  0.10030843
   0.68200304  0.00278786  0.10030050
   0.00419531  0.68044091  0.10027295
   0.11107513  0.38894015  0.33727297
   0.27784712  0.22228464  0.33730959
   0.11120380  0.88895286  0.33727825
   0.27787273  0.72221996  0.33723580
   0.61109069  0.38886244  0.33723336
   0.77775666  0.22224403  0.33727768
   0.61101870  0.88886455  0.33730423
   0.77759661  0.72214969  0.33727774
Direct configuration=     4
   0.00417127  0.00272215  0.11859712
   0.35686239  0.00275571  0.09795923
   0.00420879  0.35552903  0.09804318
   0.65152516  0.64997966  0.09800596
   0.32664731  0.32507352  0.10028245
   0.68194087  0.00278308  0.10031660
   0.00424013  0.68033637  0.10025495
   0.11109291  0.38887770  0.33728835
   0.27767612  0.22224813  0.33738365
   0.11097599  0.88885797  0.33730513
   0.27765767  0.72226461  0.33718897
   0.61109062  0.38892432  0.33718516
   0.77773719  0.22222551  0.33729809
   0.61115237  0.88897391  0.33737053
   0.77787077  0.72232677  0.33729996
Direct configuration=     5
   0.00420201  0.00283370  0.11521991
   0.35835631  0.00255346  0.09888921
   0.00419449  0.35701922  0.09913528
   0.65023048  0.64828423  0.09905409
   0.32710712  0.32515567  0.10020450
   0.68175434  0.00276877  0.10036492
   0.00437457  0.68002273  0.10020098
   0.11114624  0.38869036  0.33733449
   0.27716315  0.22213858  0.33760583
   0.11029254  0.88857328  0.33738577
   0.27701249  0.72239856  0.33704849
   0.61109043  0.38910996  0.33704054
   0.77767878  0.22216996  0.33735932
   0.61155336  0.88930197  0.33756941
   0.77869324  0.72285800  0.33736662
Direct configuration=     6
   0.00420811  0.00283805  0.11481758
   0.35848083  0.00253602  0.09897908
   0.00420453  0.35712464  0.09923926
   0.65013665  0.64815350  0.09915416
   0.32720125  0.32522143  0.10022012
   0.68167796  0.00275686  0.10039248
   0.00438559  0.67994149  0.10021911
   0.11109921  0.38877626  0.33733976
   0.27726983  0.22216694  0.33762071
   0.11046026  0.88870409  0.33739447
   0.27715770  0.72239219  0.33704462
   0.61105387  0.38909639  0.33703714
   0.77767579  0.22221723  0.33736485
   0.61140555  0.88922355  0.33758295
   0.77843245  0.72272980  0.33737306
Direct configuration=     7
   0.00422641  0.00285109  0.11361061
   0.35885438  0.00248372  0.09924869
   0.00423463  0.35744089  0.09955121
   0.64985516  0.64776133  0.09945438
   0.32748363  0.32541873  0.10026698
   0.68144883  0.00272112  0.10047515
   0.00441866  0.67969778  0.10027352
   0.11095809  0.38903394  0.33735557
   0.27758987  0.22225203  0.33766535
   0.11096340  0.88909650  0.33742056
   0.27759334  0.72237307  0.33703300
   0.61094418  0.38905567  0.33702696
   0.77766682  0.22235904  0.33738143
   0.61096211  0.88898832  0.33762357
   0.77765006  0.72234522  0.33739236
Direct configuration=     8
   0.00426300  0.00287717  0.11119665
   0.35960147  0.00237912  0.09978791
   0.00429484  0.35807339  0.10017510
   0.64929220  0.64697699  0.10005482
   0.32804840  0.32581333  0.10036071
   0.68099058  0.00264965  0.10064050
   0.00448479  0.67921035  0.10038233
   0.11067586  0.38954930  0.33738718
   0.27822995  0.22242220  0.33775463
   0.11196968  0.88988133  0.33747276
   0.27846462  0.72233483  0.33700976
   0.61072479  0.38897422  0.33700658
   0.77764888  0.22264266  0.33741461
   0.61007522  0.88851784  0.33770481
   0.77608527  0.72157605  0.33743097
Direct configuration=     9
   0.00423897  0.00286004  0.11278186
   0.35911087  0.00244781  0.09943381
   0.00425530  0.35765803  0.09976540
   0.64966189  0.64749206  0.09966052
   0.32767752  0.32555420  0.10029916
   0.68129151  0.00269659  0.10053192
   0.00444136  0.67953044  0.10031088
   0.11086120  0.38921087  0.33736642
   0.27780962  0.22231045  0.33769600
   0.11130887  0.88936594  0.33743848
   0.27789246  0.72235994  0.33702502
   0.61086886  0.38902771  0.33701996
   0.77766066  0.22245641  0.33739282
   0.61065763  0.88882680  0.33765146
   0.77711284  0.72208115  0.33740562
Direct configuration=    10
   0.00425506  0.00284162  0.11225545
   0.35910073  0.00244047  0.09950832
   0.00428945  0.35760569  0.09984501
   0.64971035  0.64752015  0.09973847
   0.32776211  0.32563405  0.10037356
   0.68121361  0.00266271  0.10061369
   0.00444821  0.67944482  0.10038712
   0.11086237  0.38920014  0.33737270
   0.27781531  0.22241602  0.33768966
   0.11127622  0.88930822  0.33744648
   0.27789362  0.72237833  0.33704908
   0.61086558  0.38898948  0.33704606
   0.77760835  0.22245287  0.33739640
   0.61065549  0.88886776  0.33764630
   0.77709309  0.72211613  0.33741106
Direct configuration=    11
   0.00430333  0.00278634  0.11067620
   0.35907034  0.00241843  0.09973187
   0.00439189  0.35744865  0.10008382
   0.64985575  0.64760442  0.09997230
   0.32801586  0.32587360  0.10059675
   0.68097991  0.00256106  0.10085900
   0.00446875  0.67918797  0.10061585
   0.11086588  0.38916794  0.33739153
   0.27783241  0.22273271  0.33767062
   0.11117826  0.88913505  0.33747045
   0.27789711  0.72243349  0.33712126
   0.61085575  0.38887480  0.33712435
   0.77745142  0.22244226  0.33740712
   0.61064907  0.88899066  0.33763084
   0.77703383  0.72222105  0.33742738
Direct configuration=    12
   0.00439988  0.00267580  0.10751772
   0.35900955  0.00237436  0.10017897
   0.00459677  0.35713458  0.10056145
   0.65014654  0.64777297  0.10043996
   0.32852336  0.32635270  0.10104313
   0.68051250  0.00235778  0.10134962
   0.00450982  0.67867428  0.10107331
   0.11087291  0.38910355  0.33742920
   0.27786661  0.22336611  0.33763255
   0.11098234  0.88878871  0.33751841
   0.27790408  0.72254380  0.33726561
   0.61083608  0.38864545  0.33728092
   0.77713756  0.22242103  0.33742856
   0.61063623  0.88923645  0.33759990
   0.77691532  0.72243089  0.33746003
Direct configuration=    13
   0.00444302  0.00262587  0.10658237
   0.35902444  0.00237153  0.10032016
   0.00464784  0.35711447  0.10069484
   0.65016039  0.64777752  0.10057545
   0.32856639  0.32638012  0.10117885
   0.68051671  0.00231535  0.10148659
   0.00453346  0.67858672  0.10121078
   0.11078600  0.38915873  0.33743921
   0.27760322  0.22286614  0.33761260
   0.11082719  0.88902580  0.33752902
   0.27763191  0.72249208  0.33732316
   0.61081136  0.38897560  0.33733832
   0.77731351  0.22242321  0.33743690
   0.61074713  0.88928931  0.33758038
   0.77723698  0.72247601  0.33747070
Direct configuration=    14
   0.00447421  0.00258978  0.10590623
   0.35903521  0.00236948  0.10042223
   0.00468475  0.35709992  0.10079126
   0.65017040  0.64778080  0.10067338
   0.32859749  0.32639995  0.10127695
   0.68051976  0.00228468  0.10158561
   0.00455055  0.67852342  0.10131015
   0.11072318  0.38919863  0.33744645
   0.27741283  0.22250473  0.33759818
   0.11071504  0.88919718  0.33753669
   0.27743516  0.72245468  0.33736476
   0.61079349  0.38921426  0.33737981
   0.77744070  0.22242478  0.33744293
   0.61082730  0.88932753  0.33756628
   0.77746950  0.72250862  0.33747842
Direct configuration=    15
   0.00449021  0.00256775  0.10576043
   0.35913468  0.00237424  0.10047210
   0.00467460  0.35720651  0.10082201
   0.65005174  0.64767998  0.10070994
   0.32850689  0.32628884  0.10128302
   0.68065334  0.00230579  0.10157817
   0.00456758  0.67858385  0.10131527
   0.11073841  0.38918795  0.33744779
   0.27739818  0.22245124  0.33759316
   0.11077050  0.88924633  0.33753510
   0.27742848  0.72252668  0.33738108
   0.61075950  0.38921591  0.33739178
   0.77745717  0.22252047  0.33744786
   0.61077489  0.88919470  0.33755930
   0.77744338  0.72252819  0.33748231
Direct configuration=    16
   0.00451806  0.00252940  0.10550654
   0.35930788  0.00238253  0.10055895
   0.00465692  0.35739212  0.10087556
   0.64984511  0.64750442  0.10077361
   0.32834911  0.32609538  0.10129360
   0.68088597  0.00234256  0.10156521
   0.00459723  0.67868908  0.10132417
   0.11076493  0.38916935  0.33745012
   0.27737267  0.22235810  0.33758443
   0.11086708  0.88933192  0.33753234
   0.27741686  0.72265206  0.33740951
   0.61070031  0.38921879  0.33741261
   0.77748587  0.22268711  0.33745645
   0.61068364  0.88896339  0.33754716
   0.77739791  0.72256225  0.33748909
Direct configuration=    17
   0.00453430  0.00248921  0.10533217
   0.35950737  0.00238670  0.10064374
   0.00463486  0.35754585  0.10092152
   0.64964583  0.64732888  0.10083133
   0.32825715  0.32596804  0.10128719
   0.68103402  0.00238216  0.10152875
   0.00462162  0.67876861  0.10131561
   0.11077574  0.38920695  0.33745337
   0.27741525  0.22247975  0.33757892
   0.11082725  0.88928359  0.33752966
   0.27744185  0.72261302  0.33743019
   0.61069535  0.38919840  0.33742718
   0.77741490  0.22260960  0.33746482
   0.61067907  0.88907769  0.33754033
   0.77736499  0.72253998  0.33749456
Direct configuration=    18
   0.00454899  0.00245287  0.10517445
   0.35968781  0.00239047  0.10072044
   0.00461492  0.35768490  0.10096309
   0.64946559  0.64717011  0.10088354
   0.32817397  0.32585287  0.10128140
   0.68116793  0.00241798  0.10149577
   0.00464369  0.67884056  0.10130786
   0.11078551  0.38924095  0.33745630
   0.27745376  0.22258979  0.33757393
   0.11079123  0.88923989  0.33752724
   0.27746446  0.72257771  0.33744891
   0.61069085  0.38917995  0.33744036
   0.77735071  0.22253949  0.33747240
   0.61067493  0.88918107  0.33753415
   0.77733521  0.72251984  0.33749951
Direct configuration=    19
   0.00454708  0.00243085  0.10510314
   0.35973916  0.00238675  0.10076332
   0.00461288  0.35764814  0.10098211
   0.64946283  0.64715955  0.10090971
   0.32825100  0.32591738  0.10127635
   0.68109339  0.00242175  0.10146871
   0.00464567  0.67880125  0.10130142
   0.11071094  0.38922538  0.33746115
   0.27740451  0.22256159  0.33757495
   0.11074909  0.88924955  0.33752895
   0.27743363  0.72254872  0.33745056
   0.61072753  0.38920699  0.33744333
   0.77738940  0.22252917  0.33747594
   0.61072516  0.88924985  0.33753925
   0.77735730  0.72254152  0.33750046
Direct configuration=    20
   0.00454563  0.00241407  0.10504881
   0.35977827  0.00238391  0.10079598
   0.00461132  0.35762014  0.10099660
   0.64946072  0.64715151  0.10092963
   0.32830968  0.32596652  0.10127251
   0.68103661  0.00242461  0.10144810
   0.00464719  0.67877131  0.10129651
   0.11065414  0.38921351  0.33746485
   0.27736699  0.22254011  0.33757572
   0.11071699  0.88925691  0.33753025
   0.27741014  0.72252663  0.33745182
   0.61075547  0.38922760  0.33744560
   0.77741887  0.22252131  0.33747864
   0.61076342  0.88930225  0.33754313
   0.77737412  0.72255805  0.33750119
Direct configuration=    21
   0.00455145  0.00239631  0.10496757
   0.35975335  0.00238072  0.10083977
   0.00461757  0.35753274  0.10101301
   0.64952891  0.64720222  0.10095427
   0.32838484  0.32602887  0.10127171
   0.68097204  0.00241758  0.10141936
   0.00464849  0.67871386  0.10129400
   0.11067039  0.38921405  0.33747155
   0.27736558  0.22254542  0.33757992
   0.11073442  0.88926776  0.33753379
   0.27740693  0.72257217  0.33744976
   0.61072920  0.38922116  0.33744640
   0.77740529  0.22256809  0.33748296
   0.61072696  0.88924332  0.33755310
   0.77735412  0.72257417  0.33750217
Direct configuration=    22
   0.00455764  0.00237744  0.10488127
   0.35972688  0.00237733  0.10088629
   0.00462421  0.35743990  0.10103044
   0.64960136  0.64725609  0.10098043
   0.32846469  0.32609512  0.10127087
   0.68090344  0.00241012  0.10138883
   0.00464987  0.67865284  0.10129134
   0.11068764  0.38921461  0.33747868
   0.27736409  0.22255106  0.33758439
   0.11075294  0.88927929  0.33753756
   0.27740353  0.72262054  0.33744757
   0.61070129  0.38921432  0.33744724
   0.77739087  0.22261778  0.33748754
   0.61068823  0.88918072  0.33756369
   0.77733288  0.72259129  0.33750321
Direct configuration=    23
   0.00458303  0.00237005  0.10477565
   0.35963649  0.00237551  0.10092550
   0.00464043  0.35736953  0.10104199
   0.64969765  0.64732784  0.10100024
   0.32845864  0.32606981  0.10128119
   0.68094844  0.00239192  0.10136649
   0.00465889  0.67861969  0.10129963
   0.11072238  0.38926986  0.33748571
   0.27738594  0.22257936  0.33759266
   0.11074191  0.88929569  0.33754198
   0.27740438  0.72261056  0.33744557
   0.61066232  0.38923649  0.33744649
   0.77734024  0.22258295  0.33749421
   0.61065259  0.88921609  0.33757572
   0.77731623  0.72256309  0.33750631
Direct configuration=    24
   0.00459768  0.00236578  0.10471467
   0.35958430  0.00237446  0.10094815
   0.00464979  0.35732890  0.10104865
   0.64975324  0.64736926  0.10101167
   0.32845514  0.32605521  0.10128715
   0.68097442  0.00238142  0.10135359
   0.00466409  0.67860056  0.10130442
   0.11074244  0.38930175  0.33748976
   0.27739856  0.22259570  0.33759744
   0.11073555  0.88930517  0.33754452
   0.27740487  0.72260479  0.33744442
   0.61063982  0.38924929  0.33744605
   0.77731101  0.22256284  0.33749806
   0.61063201  0.88923651  0.33758267
   0.77730662  0.72254681  0.33750810
Direct configuration=    25
   0.00462846  0.00236337  0.10458800
   0.35955678  0.00236397  0.10097504
   0.00467333  0.35732828  0.10105481
   0.64978772  0.64736791  0.10102392
   0.32842680  0.32599831  0.10130917
   0.68104593  0.00235479  0.10134412
   0.00468170  0.67859059  0.10132460
   0.11066579  0.38927544  0.33749583
   0.27734990  0.22260794  0.33760849
   0.11069799  0.88930232  0.33754908
   0.27737502  0.72260990  0.33744615
   0.61066315  0.38925445  0.33744590
   0.77733294  0.22258768  0.33750696
   0.61066172  0.88928114  0.33759307
   0.77730232  0.72259235  0.33751420
Direct configuration=    26
   0.00465720  0.00236113  0.10446971
   0.35953107  0.00235417  0.10100014
   0.00469531  0.35732771  0.10106055
   0.64981992  0.64736665  0.10103536
   0.32840033  0.32594518  0.10132974
   0.68111271  0.00232991  0.10133527
   0.00469814  0.67858128  0.10134344
   0.11059422  0.38925088  0.33750150
   0.27730447  0.22261937  0.33761881
   0.11066292  0.88929966  0.33755333
   0.27734714  0.72261468  0.33744777
   0.61068494  0.38925927  0.33744576
   0.77735342  0.22261088  0.33751527
   0.61068945  0.88932281  0.33760277
   0.77729831  0.72263488  0.33751989
