 vasp.6.4.2 20Jul23 (build Aug 23 2023 19:13:21) complex                        
  
 executed on             LinuxIFC date 2024.02.03  16:18:50
 running   96 mpi-ranks, with    1 threads/rank, on    2 nodes
 distrk:  each k-point on   96 cores,    1 groups
 distr:  one band on NCORE=   1 cores,   96 groups


--------------------------------------------------------------------------------------------------------


 INCAR:
   SYSTEM = PDoS_HSE06
   ISTART = 1
   ICHARG = 2
   PREC = Accurate
   LORBIT = 11
   NEDOS = 4000
   ENCUT = 450
   ALGO = Damped
   TIME = 0.4
   NELM = 200
   EDIFF = 1E-6
   EDIFFG = -1E-3
   SIGMA = 0.1
   ISMEAR = 0
   IBRION = -1
   GGA = PE
   LHFCALC = .TRUE.
   AEXX = 0.25
   HFSCREEN = 0.2
   NKRED = 1

 POTCAR:    PAW_PBE B 06Sep2000                   
 POTCAR:    PAW_PBE C 08Apr2002                   
 POTCAR:    PAW_PBE B 06Sep2000                   
   SHA256 =  a32ced30f5ae56fd4d10b4325ff17eb3e4e38ee0f4288bc219fb012fddfa6e97 B/POTCAR              
   COPYR  = (c) Copyright 06Sep2000 Georg Kresse                                                    
   COPYR  = This file is part of the software VASP. Any use, copying, and all other rights are regul
   COPYR  = If you do not have a valid VASP license, you may not use, copy or distribute this file. 
   VRHFIN =B: s2p1                                                                                  
   LEXCH  = PE                                                                                      
   EATOM  =    71.1703 eV,    5.2309 Ry                                                             
                                                                                                    
   TITEL  = PAW_PBE B 06Sep2000                                                                     
   LULTRA =        F    use ultrasoft PP ?                                                          
   IUNSCR =        1    unscreen: 0-lin 1-nonlin 2-no                                               
   RPACOR =    1.200    partial core radius                                                         
   POMASS =   10.811; ZVAL   =    3.000    mass and valenz                                          
   RCORE  =    1.700    outmost cutoff radius                                                       
   RWIGS  =    1.710; RWIGS  =    0.905    wigner-seitz radius (au A)                               
   ENMAX  =  318.614; ENMIN  =  238.960 eV                                                          
   ICORE  =        2    local potential                                                             
   LCOR   =        T    correct aug charges                                                         
   LPAW   =        T    paw PP                                                                      
   EAUG   =  535.514                                                                                
   DEXC   =    0.000                                                                                
   RMAX   =    1.732    core radius for proj-oper                                                   
   RAUG   =    1.300    factor for augmentation sphere                                              
   RDEP   =    1.757    radius for radial grids                                                     
   RDEPT  =    1.436    core radius for aug-charge                                                  
                                                                                                    
   Atomic configuration                                                                             
    4 entries                                                                                       
     n  l   j            E        occ.                                                              
     1  0  0.50      -180.5896   2.0000                                                             
     2  0  0.50        -9.4431   2.0000                                                             
     2  1  0.50        -3.6068   1.0000                                                             
     3  2  1.50        -4.0817   0.0000                                                             
   Description                                                                                      
     l       E           TYP  RCUT    TYP  RCUT                                                     
     0     -9.4430752     23  1.500                                                                 
     0      0.8675899     23  1.500                                                                 
     1     -3.6067955     23  1.700                                                                 
     1      6.1086146     23  1.700                                                                 
     2     -4.0817478      7  1.700                                                                 
  local pseudopotential read in
  partial core-charges read in
  partial kinetic energy density read in
  atomic valenz-charges read in
  non local Contribution for L=           0  read in
    real space projection operators read in
  non local Contribution for L=           0  read in
    real space projection operators read in
  non local Contribution for L=           1  read in
    real space projection operators read in
  non local Contribution for L=           1  read in
    real space projection operators read in
    PAW grid and wavefunctions read in
 
   number of l-projection  operators is LMAX  =           4
   number of lm-projection operators is LMMAX =           8
 
 POTCAR:    PAW_PBE C 08Apr2002                   
   SHA256 =  253f7b50bb8d59471dbedb8285d89021f4a42ed1a2c5d38a03a736e69125dd95 C/POTCAR              
   COPYR  = (c) Copyright 08Apr2002 Georg Kresse                                                    
   COPYR  = This file is part of the software VASP. Any use, copying, and all other rights are regul
   COPYR  = If you do not have a valid VASP license, you may not use, copy or distribute this file. 
   VRHFIN =C: s2p2                                                                                  
   LEXCH  = PE                                                                                      
   EATOM  =   147.1560 eV,   10.8157 Ry                                                             
                                                                                                    
   TITEL  = PAW_PBE C 08Apr2002                                                                     
   LULTRA =        F    use ultrasoft PP ?                                                          
   IUNSCR =        1    unscreen: 0-lin 1-nonlin 2-no                                               
   RPACOR =    1.200    partial core radius                                                         
   POMASS =   12.011; ZVAL   =    4.000    mass and valenz                                          
   RCORE  =    1.500    outmost cutoff radius                                                       
   RWIGS  =    1.630; RWIGS  =    0.863    wigner-seitz radius (au A)                               
   ENMAX  =  400.000; ENMIN  =  300.000 eV                                                          
   ICORE  =        2    local potential                                                             
   LCOR   =        T    correct aug charges                                                         
   LPAW   =        T    paw PP                                                                      
   EAUG   =  644.873                                                                                
   DEXC   =    0.000                                                                                
   RMAX   =    1.529    core radius for proj-oper                                                   
   RAUG   =    1.300    factor for augmentation sphere                                              
   RDEP   =    1.501    radius for radial grids                                                     
   RDEPT  =    1.300    core radius for aug-charge                                                  
                                                                                                    
   Atomic configuration                                                                             
    4 entries                                                                                       
     n  l   j            E        occ.                                                              
     1  0  0.50      -273.3789   2.0000                                                             
     2  0  0.50       -13.7508   2.0000                                                             
     2  1  0.50        -5.2854   2.0000                                                             
     3  2  1.50        -5.4423   0.0000                                                             
   Description                                                                                      
     l       E           TYP  RCUT    TYP  RCUT                                                     
     0    -13.7508458     23  1.200                                                                 
     0     -8.2022199     23  1.200                                                                 
     1     -5.2854383     23  1.500                                                                 
     1     34.0145650     23  1.500                                                                 
     2     -5.4423304      7  1.500                                                                 
  local pseudopotential read in
  partial core-charges read in
  partial kinetic energy density read in
  atomic valenz-charges read in
  non local Contribution for L=           0  read in
    real space projection operators read in
  non local Contribution for L=           0  read in
    real space projection operators read in
  non local Contribution for L=           1  read in
    real space projection operators read in
  non local Contribution for L=           1  read in
    real space projection operators read in
    PAW grid and wavefunctions read in
 
   number of l-projection  operators is LMAX  =           4
   number of lm-projection operators is LMMAX =           8
 
  PAW_PBE B 06Sep2000                   :
 energy of atom  1       EATOM=  -71.1703
 kinetic energy error for atom=    0.0015 (will be added to EATOM!!)
  PAW_PBE C 08Apr2002                   :
 energy of atom  2       EATOM= -147.1560
 kinetic energy error for atom=    0.0116 (will be added to EATOM!!)
 
 
 POSCAR: B4C3 with lattice parameter 4.690
  positions in direct lattice
  velocities in cartesian coordinates
 exchange correlation table for  LEXCH =        8
   RHO(1)=    0.500       N(1)  =     2000
   RHO(2)=  100.500       N(2)  =     4000

 VTST: version 4.1, (05/19/21)

 CHAIN: initializing optimizer
 
 OPT: Using VASP Dynamics algorithm
 CHAIN: Read ICHAIN            0
 
 POSCAR: B4C3 with lattice parameter 4.690
  positions in direct lattice
  velocities in cartesian coordinates
 


--------------------------------------------------------------------------------------------------------


 ion  position               nearest neighbor table
   1  0.004  0.003  0.120-   7 1.55   6 1.55   5 1.55   4 1.69   2 1.69   3 1.69
   2  0.357  0.003  0.098-   6 1.52   5 1.59   7 1.59   1 1.69
   3  0.004  0.356  0.098-   7 1.52   5 1.59   6 1.59   1 1.69
   4  0.651  0.650  0.098-   5 1.52   6 1.59   7 1.59   1 1.69
   5  0.328  0.327  0.100-   4 1.52   1 1.55   3 1.59   2 1.59
   6  0.680  0.003  0.100-   2 1.52   1 1.55   3 1.59   4 1.59
   7  0.004  0.679  0.100-   3 1.52   1 1.55   2 1.59   4 1.59
 
  LATTYP: Found a hexagonal cell.
 ALAT       =     4.6899998755
 C/A-ratio  =     3.1982943280
  
  Lattice vectors:
  
 A1 = (   4.0616590000,   2.3450000000,   0.0000000000)
 A2 = (  -4.0616590000,   2.3450000000,   0.0000000000)
 A3 = (   0.0000000000,   0.0000000000,  15.0000000000)


Analysis of symmetry for initial positions (statically):
=====================================================================
 Subroutine PRICEL returns:
 Original cell was already a primitive cell.
 

 Routine SETGRP: Setting up the symmetry group for a 
 hexagonal supercell.


 Subroutine GETGRP returns: Found  3 space group operations
 (whereof  1 operations were pure point group operations)
 out of a pool of 24 trial point group operations.


The static configuration has the point symmetry C_1 .
 The point group associated with its full space group is C_3 .


Analysis of symmetry for dynamics (positions and initial velocities):
=====================================================================
 Subroutine PRICEL returns:
 Original cell was already a primitive cell.
 

 Routine SETGRP: Setting up the symmetry group for a 
 hexagonal supercell.


 Subroutine GETGRP returns: Found  3 space group operations
 (whereof  1 operations were pure point group operations)
 out of a pool of 24 trial point group operations.


The dynamic configuration has the point symmetry C_1 .
 The point group associated with its full space group is C_3 .


 Subroutine INISYM returns: Found  3 space group operations
 (whereof  1 operations are pure point group operations),
 and found     1 'primitive' translations


----------------------------------------------------------------------------------------

                                     Primitive cell                                     

  volume of cell :     285.7377

  direct lattice vectors                    reciprocal lattice vectors
     4.061659000  2.345000000  0.000000000     0.123102407  0.213219616  0.000000000
    -4.061659000  2.345000000  0.000000000    -0.123102407  0.213219616  0.000000000
     0.000000000  0.000000000 15.000000000     0.000000000  0.000000000  0.066666667

  length of vectors
     4.689999876  4.689999876 15.000000000     0.246204808  0.246204808  0.066666667

  position of ions in fractional coordinates (direct lattice)
     0.004183931  0.002770402  0.120265168
     0.356955219  0.002781990  0.097503442
     0.004186971  0.355542049  0.097502993
     0.651416230  0.650011713  0.097505455
     0.328100716  0.326694043  0.100282726
     0.680268274  0.002781113  0.100292166
     0.004186659  0.678856689  0.100294050

  ion indices of the primitive-cell ions
   primitive index   ion index
                 1           1
                 2           2
                 3           3
                 4           4
                 5           5
                 6           6
                 7           7

----------------------------------------------------------------------------------------

 
 
 KPOINTS: k-points                                

Automatic generation of k-mesh.
 Grid dimensions read from file:
 generate k-points for:   17   17    1

 Generating k-lattice:

  Cartesian coordinates                     Fractional coordinates (reciprocal lattice)
     0.007241318  0.012542330  0.000000000     0.058823529 -0.000000000  0.000000000
    -0.007241318  0.012542330  0.000000000    -0.000000000  0.058823529  0.000000000
     0.000000000  0.000000000  0.066666667     0.000000000  0.000000000  1.000000000

  Length of vectors
     0.014482636  0.014482636  0.066666667

  Shift w.r.t. Gamma in fractional coordinates (k-lattice)
     0.000000000  0.000000000  0.000000000

 
 Subroutine IBZKPT returns following result:
 ===========================================
 
 Found     81 irreducible k-points:
 
 Following reciprocal coordinates:
            Coordinates               Weight
  0.000000  0.000000  0.000000      1.000000
  0.058824  0.000000  0.000000      4.000000
 -0.058824  0.058824  0.000000      2.000000
  0.117647 -0.000000  0.000000      4.000000
 -0.117647  0.117647  0.000000      2.000000
  0.176471 -0.000000  0.000000      4.000000
 -0.176471  0.176471  0.000000      2.000000
  0.235294 -0.000000  0.000000      4.000000
 -0.235294  0.235294  0.000000      2.000000
  0.294118  0.000000  0.000000      4.000000
 -0.294118  0.294118  0.000000      2.000000
  0.352941  0.000000  0.000000      4.000000
 -0.352941  0.352941  0.000000      2.000000
  0.411765 -0.000000  0.000000      4.000000
 -0.411765  0.411765  0.000000      2.000000
  0.470588 -0.000000  0.000000      4.000000
 -0.470588  0.470588  0.000000      2.000000
  0.058824  0.058824  0.000000      3.000000
 -0.058824  0.117647  0.000000      3.000000
  0.117647  0.058824  0.000000      5.000000
 -0.058824  0.176471  0.000000      4.000000
 -0.176471  0.117647  0.000000      3.000000
  0.176471  0.058824  0.000000      5.000000
 -0.058824  0.235294  0.000000      4.000000
 -0.235294  0.176471  0.000000      3.000000
  0.235294  0.058824  0.000000      5.000000
 -0.058824  0.294118  0.000000      4.000000
 -0.294118  0.235294  0.000000      3.000000
  0.294118  0.058824  0.000000      5.000000
 -0.058824  0.352941  0.000000      4.000000
 -0.352941  0.294118  0.000000      3.000000
  0.352941  0.058824  0.000000      5.000000
 -0.058824  0.411765  0.000000      4.000000
 -0.411765  0.352941  0.000000      3.000000
  0.411765  0.058824  0.000000      5.000000
 -0.058824  0.470588  0.000000      4.000000
 -0.470588  0.411765  0.000000      3.000000
  0.470588  0.058824  0.000000      4.000000
  0.470588  0.470588  0.000000      2.000000
  0.117647  0.117647  0.000000      3.000000
 -0.117647  0.235294  0.000000      3.000000
  0.176471  0.117647  0.000000      5.000000
 -0.117647  0.294118  0.000000      4.000000
 -0.294118  0.176471  0.000000      3.000000
  0.235294  0.117647  0.000000      5.000000
 -0.117647  0.352941  0.000000      4.000000
 -0.352941  0.235294  0.000000      3.000000
  0.294118  0.117647  0.000000      5.000000
 -0.117647  0.411765  0.000000      4.000000
 -0.411765  0.294118  0.000000      3.000000
  0.352941  0.117647  0.000000      5.000000
 -0.117647  0.470588  0.000000      4.000000
 -0.470588  0.352941  0.000000      3.000000
  0.411765  0.117647  0.000000      5.000000
 -0.117647 -0.470588  0.000000      4.000000
  0.470588  0.411765  0.000000      3.000000
  0.176471  0.176471  0.000000      3.000000
 -0.176471  0.352941  0.000000      3.000000
  0.235294  0.176471  0.000000      5.000000
 -0.176471  0.411765  0.000000      4.000000
 -0.411765  0.235294  0.000000      3.000000
  0.294118  0.176471  0.000000      5.000000
 -0.176471  0.470588  0.000000      4.000000
 -0.470588  0.294118  0.000000      3.000000
  0.352941  0.176471  0.000000      5.000000
 -0.176471 -0.470588  0.000000      4.000000
  0.470588  0.352941  0.000000      3.000000
  0.411765  0.176471  0.000000      4.000000
  0.411765  0.411765  0.000000      2.000000
  0.235294  0.235294  0.000000      3.000000
 -0.235294  0.470588  0.000000      3.000000
  0.294118  0.235294  0.000000      5.000000
 -0.235294 -0.470588  0.000000      4.000000
  0.470588  0.294118  0.000000      3.000000
  0.352941  0.235294  0.000000      5.000000
 -0.235294 -0.411765  0.000000      4.000000
  0.411765  0.352941  0.000000      3.000000
  0.294118  0.294118  0.000000      3.000000
 -0.294118 -0.411765  0.000000      3.000000
  0.352941  0.294118  0.000000      4.000000
  0.352941  0.352941  0.000000      2.000000
 
 Following cartesian coordinates:
            Coordinates               Weight
  0.000000  0.000000  0.000000      1.000000
  0.007241  0.012542  0.000000      4.000000
 -0.014483  0.000000  0.000000      2.000000
  0.014483  0.025085  0.000000      4.000000
 -0.028965 -0.000000  0.000000      2.000000
  0.021724  0.037627  0.000000      4.000000
 -0.043448  0.000000  0.000000      2.000000
  0.028965  0.050169  0.000000      4.000000
 -0.057931 -0.000000  0.000000      2.000000
  0.036207  0.062712  0.000000      4.000000
 -0.072413  0.000000  0.000000      2.000000
  0.043448  0.075254  0.000000      4.000000
 -0.086896  0.000000  0.000000      2.000000
  0.050689  0.087796  0.000000      4.000000
 -0.101378  0.000000  0.000000      2.000000
  0.057931  0.100339  0.000000      4.000000
 -0.115861 -0.000000  0.000000      2.000000
  0.000000  0.025085  0.000000      3.000000
 -0.021724  0.012542  0.000000      3.000000
  0.007241  0.037627  0.000000      5.000000
 -0.028965  0.025085  0.000000      4.000000
 -0.036207 -0.012542  0.000000      3.000000
  0.014483  0.050169  0.000000      5.000000
 -0.036207  0.037627  0.000000      4.000000
 -0.050689 -0.012542  0.000000      3.000000
  0.021724  0.062712  0.000000      5.000000
 -0.043448  0.050169  0.000000      4.000000
 -0.065172 -0.012542  0.000000      3.000000
  0.028965  0.075254  0.000000      5.000000
 -0.050689  0.062712  0.000000      4.000000
 -0.079654 -0.012542  0.000000      3.000000
  0.036207  0.087796  0.000000      5.000000
 -0.057931  0.075254  0.000000      4.000000
 -0.094137 -0.012542  0.000000      3.000000
  0.043448  0.100339  0.000000      5.000000
 -0.065172  0.087796  0.000000      4.000000
 -0.108620 -0.012542  0.000000      3.000000
  0.050689  0.112881  0.000000      4.000000
  0.000000  0.200677  0.000000      2.000000
  0.000000  0.050169  0.000000      3.000000
 -0.043448  0.025085  0.000000      3.000000
  0.007241  0.062712  0.000000      5.000000
 -0.050689  0.037627  0.000000      4.000000
 -0.057931 -0.025085  0.000000      3.000000
  0.014483  0.075254  0.000000      5.000000
 -0.057931  0.050169  0.000000      4.000000
 -0.072413 -0.025085  0.000000      3.000000
  0.021724  0.087796  0.000000      5.000000
 -0.065172  0.062712  0.000000      4.000000
 -0.086896 -0.025085  0.000000      3.000000
  0.028965  0.100339  0.000000      5.000000
 -0.072413  0.075254  0.000000      4.000000
 -0.101378 -0.025085  0.000000      3.000000
  0.036207  0.112881  0.000000      5.000000
  0.043448 -0.125423  0.000000      4.000000
  0.007241  0.188135  0.000000      3.000000
 -0.000000  0.075254  0.000000      3.000000
 -0.065172  0.037627  0.000000      3.000000
  0.007241  0.087796  0.000000      5.000000
 -0.072413  0.050169  0.000000      4.000000
 -0.079654 -0.037627  0.000000      3.000000
  0.014483  0.100339  0.000000      5.000000
 -0.079654  0.062712  0.000000      4.000000
 -0.094137 -0.037627  0.000000      3.000000
  0.021724  0.112881  0.000000      5.000000
  0.036207 -0.137966  0.000000      4.000000
  0.014483  0.175593  0.000000      3.000000
  0.028965  0.125423  0.000000      4.000000
 -0.000000  0.175593  0.000000      2.000000
  0.000000  0.100339  0.000000      3.000000
 -0.086896  0.050169  0.000000      3.000000
  0.007241  0.112881  0.000000      5.000000
  0.028965 -0.150508  0.000000      4.000000
  0.021724  0.163050  0.000000      3.000000
  0.014483  0.125423  0.000000      5.000000
  0.021724 -0.137966  0.000000      4.000000
  0.007241  0.163050  0.000000      3.000000
  0.000000  0.125423  0.000000      3.000000
  0.014483 -0.150508  0.000000      3.000000
  0.007241  0.137966  0.000000      4.000000
 -0.000000  0.150508  0.000000      2.000000
 
 
 Subroutine IBZKPT_HF returns following result:
 ==============================================
 
 Found    289 k-points in 1st BZ
 the following    289 k-points will be used (e.g. in the exchange kernel)
 Following reciprocal coordinates:   # in IRBZ
  0.000000  0.000000  0.000000    0.00346021   1 t-inv F
  0.058824  0.000000  0.000000    0.00346021   2 t-inv F
 -0.058824  0.058824  0.000000    0.00346021   3 t-inv F
  0.117647 -0.000000  0.000000    0.00346021   4 t-inv F
 -0.117647  0.117647  0.000000    0.00346021   5 t-inv F
  0.176471 -0.000000  0.000000    0.00346021   6 t-inv F
 -0.176471  0.176471  0.000000    0.00346021   7 t-inv F
  0.235294 -0.000000  0.000000    0.00346021   8 t-inv F
 -0.235294  0.235294  0.000000    0.00346021   9 t-inv F
  0.294118  0.000000  0.000000    0.00346021  10 t-inv F
 -0.294118  0.294118  0.000000    0.00346021  11 t-inv F
  0.352941  0.000000  0.000000    0.00346021  12 t-inv F
 -0.352941  0.352941  0.000000    0.00346021  13 t-inv F
  0.411765 -0.000000  0.000000    0.00346021  14 t-inv F
 -0.411765  0.411765  0.000000    0.00346021  15 t-inv F
  0.470588 -0.000000  0.000000    0.00346021  16 t-inv F
 -0.470588  0.470588  0.000000    0.00346021  17 t-inv F
  0.058824  0.058824  0.000000    0.00346021  18 t-inv F
 -0.058824  0.117647  0.000000    0.00346021  19 t-inv F
  0.117647  0.058824  0.000000    0.00346021  20 t-inv F
 -0.058824  0.176471  0.000000    0.00346021  21 t-inv F
 -0.176471  0.117647  0.000000    0.00346021  22 t-inv F
  0.176471  0.058824  0.000000    0.00346021  23 t-inv F
 -0.058824  0.235294  0.000000    0.00346021  24 t-inv F
 -0.235294  0.176471  0.000000    0.00346021  25 t-inv F
  0.235294  0.058824  0.000000    0.00346021  26 t-inv F
 -0.058824  0.294118  0.000000    0.00346021  27 t-inv F
 -0.294118  0.235294  0.000000    0.00346021  28 t-inv F
  0.294118  0.058824  0.000000    0.00346021  29 t-inv F
 -0.058824  0.352941  0.000000    0.00346021  30 t-inv F
 -0.352941  0.294118  0.000000    0.00346021  31 t-inv F
  0.352941  0.058824  0.000000    0.00346021  32 t-inv F
 -0.058824  0.411765  0.000000    0.00346021  33 t-inv F
 -0.411765  0.352941  0.000000    0.00346021  34 t-inv F
  0.411765  0.058824  0.000000    0.00346021  35 t-inv F
 -0.058824  0.470588  0.000000    0.00346021  36 t-inv F
 -0.470588  0.411765  0.000000    0.00346021  37 t-inv F
  0.470588  0.058824  0.000000    0.00346021  38 t-inv F
  0.470588  0.470588  0.000000    0.00346021  39 t-inv F
  0.117647  0.117647  0.000000    0.00346021  40 t-inv F
 -0.117647  0.235294  0.000000    0.00346021  41 t-inv F
  0.176471  0.117647  0.000000    0.00346021  42 t-inv F
 -0.117647  0.294118  0.000000    0.00346021  43 t-inv F
 -0.294118  0.176471  0.000000    0.00346021  44 t-inv F
  0.235294  0.117647  0.000000    0.00346021  45 t-inv F
 -0.117647  0.352941  0.000000    0.00346021  46 t-inv F
 -0.352941  0.235294  0.000000    0.00346021  47 t-inv F
  0.294118  0.117647  0.000000    0.00346021  48 t-inv F
 -0.117647  0.411765  0.000000    0.00346021  49 t-inv F
 -0.411765  0.294118  0.000000    0.00346021  50 t-inv F
  0.352941  0.117647  0.000000    0.00346021  51 t-inv F
 -0.117647  0.470588  0.000000    0.00346021  52 t-inv F
 -0.470588  0.352941  0.000000    0.00346021  53 t-inv F
  0.411765  0.117647  0.000000    0.00346021  54 t-inv F
 -0.117647 -0.470588  0.000000    0.00346021  55 t-inv F
  0.470588  0.411765  0.000000    0.00346021  56 t-inv F
  0.176471  0.176471  0.000000    0.00346021  57 t-inv F
 -0.176471  0.352941  0.000000    0.00346021  58 t-inv F
  0.235294  0.176471  0.000000    0.00346021  59 t-inv F
 -0.176471  0.411765  0.000000    0.00346021  60 t-inv F
 -0.411765  0.235294  0.000000    0.00346021  61 t-inv F
  0.294118  0.176471  0.000000    0.00346021  62 t-inv F
 -0.176471  0.470588  0.000000    0.00346021  63 t-inv F
 -0.470588  0.294118  0.000000    0.00346021  64 t-inv F
  0.352941  0.176471  0.000000    0.00346021  65 t-inv F
 -0.176471 -0.470588  0.000000    0.00346021  66 t-inv F
  0.470588  0.352941  0.000000    0.00346021  67 t-inv F
  0.411765  0.176471  0.000000    0.00346021  68 t-inv F
  0.411765  0.411765  0.000000    0.00346021  69 t-inv F
  0.235294  0.235294  0.000000    0.00346021  70 t-inv F
 -0.235294  0.470588  0.000000    0.00346021  71 t-inv F
  0.294118  0.235294  0.000000    0.00346021  72 t-inv F
 -0.235294 -0.470588  0.000000    0.00346021  73 t-inv F
  0.470588  0.294118  0.000000    0.00346021  74 t-inv F
  0.352941  0.235294  0.000000    0.00346021  75 t-inv F
 -0.235294 -0.411765  0.000000    0.00346021  76 t-inv F
  0.411765  0.352941  0.000000    0.00346021  77 t-inv F
  0.294118  0.294118  0.000000    0.00346021  78 t-inv F
 -0.294118 -0.411765  0.000000    0.00346021  79 t-inv F
  0.352941  0.294118  0.000000    0.00346021  80 t-inv F
  0.352941  0.352941  0.000000    0.00346021  81 t-inv F
  0.000000  0.058824  0.000000    0.00346021   2 t-inv F
 -0.058824  0.000000  0.000000    0.00346021   2 t-inv F
  0.058824 -0.058824  0.000000    0.00346021   3 t-inv F
 -0.000000  0.117647  0.000000    0.00346021   4 t-inv F
 -0.117647 -0.000000  0.000000    0.00346021   4 t-inv F
  0.117647 -0.117647  0.000000    0.00346021   5 t-inv F
 -0.000000  0.176471  0.000000    0.00346021   6 t-inv F
 -0.176471 -0.000000  0.000000    0.00346021   6 t-inv F
  0.176471 -0.176471  0.000000    0.00346021   7 t-inv F
 -0.000000  0.235294  0.000000    0.00346021   8 t-inv F
 -0.235294 -0.000000  0.000000    0.00346021   8 t-inv F
  0.235294 -0.235294  0.000000    0.00346021   9 t-inv F
  0.000000  0.294118  0.000000    0.00346021  10 t-inv F
 -0.294118  0.000000  0.000000    0.00346021  10 t-inv F
  0.294118 -0.294118  0.000000    0.00346021  11 t-inv F
  0.000000  0.352941  0.000000    0.00346021  12 t-inv F
 -0.352941  0.000000  0.000000    0.00346021  12 t-inv F
  0.352941 -0.352941  0.000000    0.00346021  13 t-inv F
 -0.000000  0.411765  0.000000    0.00346021  14 t-inv F
 -0.411765 -0.000000  0.000000    0.00346021  14 t-inv F
  0.411765 -0.411765  0.000000    0.00346021  15 t-inv F
 -0.000000  0.470588  0.000000    0.00346021  16 t-inv F
 -0.470588 -0.000000  0.000000    0.00346021  16 t-inv F
  0.470588 -0.470588  0.000000    0.00346021  17 t-inv F
 -0.117647  0.058824  0.000000    0.00346021  18 t-inv F
  0.117647 -0.058824  0.000000    0.00346021  19 t-inv F
  0.058824  0.117647  0.000000    0.00346021  20 t-inv F
 -0.176471  0.058824  0.000000    0.00346021  20 t-inv F
  0.176471 -0.058824  0.000000    0.00346021  21 t-inv F
 -0.117647  0.176471  0.000000    0.00346021  21 t-inv F
  0.117647 -0.176471  0.000000    0.00346021  22 t-inv F
  0.058824  0.176471  0.000000    0.00346021  23 t-inv F
 -0.235294  0.058824  0.000000    0.00346021  23 t-inv F
  0.235294 -0.058824  0.000000    0.00346021  24 t-inv F
 -0.176471  0.235294  0.000000    0.00346021  24 t-inv F
  0.176471 -0.235294  0.000000    0.00346021  25 t-inv F
  0.058824  0.235294  0.000000    0.00346021  26 t-inv F
 -0.294118  0.058824  0.000000    0.00346021  26 t-inv F
  0.294118 -0.058824  0.000000    0.00346021  27 t-inv F
 -0.235294  0.294118  0.000000    0.00346021  27 t-inv F
  0.235294 -0.294118  0.000000    0.00346021  28 t-inv F
  0.058824  0.294118  0.000000    0.00346021  29 t-inv F
 -0.352941  0.058824  0.000000    0.00346021  29 t-inv F
  0.352941 -0.058824  0.000000    0.00346021  30 t-inv F
 -0.294118  0.352941  0.000000    0.00346021  30 t-inv F
  0.294118 -0.352941  0.000000    0.00346021  31 t-inv F
  0.058824  0.352941  0.000000    0.00346021  32 t-inv F
 -0.411765  0.058824  0.000000    0.00346021  32 t-inv F
  0.411765 -0.058824  0.000000    0.00346021  33 t-inv F
 -0.352941  0.411765  0.000000    0.00346021  33 t-inv F
  0.352941 -0.411765  0.000000    0.00346021  34 t-inv F
  0.058824  0.411765  0.000000    0.00346021  35 t-inv F
 -0.470588  0.058824  0.000000    0.00346021  35 t-inv F
  0.470588 -0.058824  0.000000    0.00346021  36 t-inv F
 -0.411765  0.470588  0.000000    0.00346021  36 t-inv F
  0.411765 -0.470588  0.000000    0.00346021  37 t-inv F
  0.058824  0.470588  0.000000    0.00346021  38 t-inv F
 -0.235294  0.117647  0.000000    0.00346021  40 t-inv F
  0.235294 -0.117647  0.000000    0.00346021  41 t-inv F
  0.117647  0.176471  0.000000    0.00346021  42 t-inv F
 -0.294118  0.117647  0.000000    0.00346021  42 t-inv F
  0.294118 -0.117647  0.000000    0.00346021  43 t-inv F
 -0.176471  0.294118  0.000000    0.00346021  43 t-inv F
  0.176471 -0.294118  0.000000    0.00346021  44 t-inv F
  0.117647  0.235294  0.000000    0.00346021  45 t-inv F
 -0.352941  0.117647  0.000000    0.00346021  45 t-inv F
  0.352941 -0.117647  0.000000    0.00346021  46 t-inv F
 -0.235294  0.352941  0.000000    0.00346021  46 t-inv F
  0.235294 -0.352941  0.000000    0.00346021  47 t-inv F
  0.117647  0.294118  0.000000    0.00346021  48 t-inv F
 -0.411765  0.117647  0.000000    0.00346021  48 t-inv F
  0.411765 -0.117647  0.000000    0.00346021  49 t-inv F
 -0.294118  0.411765  0.000000    0.00346021  49 t-inv F
  0.294118 -0.411765  0.000000    0.00346021  50 t-inv F
  0.117647  0.352941  0.000000    0.00346021  51 t-inv F
 -0.470588  0.117647  0.000000    0.00346021  51 t-inv F
  0.470588 -0.117647  0.000000    0.00346021  52 t-inv F
 -0.352941  0.470588  0.000000    0.00346021  52 t-inv F
  0.352941 -0.470588  0.000000    0.00346021  53 t-inv F
  0.117647  0.411765  0.000000    0.00346021  54 t-inv F
 -0.529412  0.117647  0.000000    0.00346021  54 t-inv F
 -0.470588 -0.117647  0.000000    0.00346021  55 t-inv F
  0.588235 -0.470588  0.000000    0.00346021  55 t-inv F
  0.411765  0.470588  0.000000    0.00346021  56 t-inv F
 -0.352941  0.176471  0.000000    0.00346021  57 t-inv F
  0.352941 -0.176471  0.000000    0.00346021  58 t-inv F
  0.176471  0.235294  0.000000    0.00346021  59 t-inv F
 -0.411765  0.176471  0.000000    0.00346021  59 t-inv F
  0.411765 -0.176471  0.000000    0.00346021  60 t-inv F
 -0.235294  0.411765  0.000000    0.00346021  60 t-inv F
  0.235294 -0.411765  0.000000    0.00346021  61 t-inv F
  0.176471  0.294118  0.000000    0.00346021  62 t-inv F
 -0.470588  0.176471  0.000000    0.00346021  62 t-inv F
  0.470588 -0.176471  0.000000    0.00346021  63 t-inv F
 -0.294118  0.470588  0.000000    0.00346021  63 t-inv F
  0.294118 -0.470588  0.000000    0.00346021  64 t-inv F
  0.176471  0.352941  0.000000    0.00346021  65 t-inv F
 -0.529412  0.176471  0.000000    0.00346021  65 t-inv F
 -0.470588 -0.176471  0.000000    0.00346021  66 t-inv F
  0.647059 -0.470588  0.000000    0.00346021  66 t-inv F
  0.352941  0.470588  0.000000    0.00346021  67 t-inv F
  0.176471  0.411765  0.000000    0.00346021  68 t-inv F
 -0.470588  0.235294  0.000000    0.00346021  70 t-inv F
  0.470588 -0.235294  0.000000    0.00346021  71 t-inv F
  0.235294  0.294118  0.000000    0.00346021  72 t-inv F
 -0.529412  0.235294  0.000000    0.00346021  72 t-inv F
 -0.470588 -0.235294  0.000000    0.00346021  73 t-inv F
  0.705882 -0.470588  0.000000    0.00346021  73 t-inv F
  0.294118  0.470588  0.000000    0.00346021  74 t-inv F
  0.235294  0.352941  0.000000    0.00346021  75 t-inv F
 -0.588235  0.235294  0.000000    0.00346021  75 t-inv F
 -0.411765 -0.235294  0.000000    0.00346021  76 t-inv F
  0.647059 -0.411765  0.000000    0.00346021  76 t-inv F
  0.352941  0.411765  0.000000    0.00346021  77 t-inv F
 -0.588235  0.294118  0.000000    0.00346021  78 t-inv F
 -0.411765 -0.294118  0.000000    0.00346021  79 t-inv F
  0.294118  0.352941  0.000000    0.00346021  80 t-inv F
 -0.000000 -0.058824  0.000000    0.00346021   2 t-inv T
  0.000000 -0.117647  0.000000    0.00346021   4 t-inv T
  0.000000 -0.176471  0.000000    0.00346021   6 t-inv T
  0.000000 -0.235294  0.000000    0.00346021   8 t-inv T
 -0.000000 -0.294118  0.000000    0.00346021  10 t-inv T
 -0.000000 -0.352941  0.000000    0.00346021  12 t-inv T
  0.000000 -0.411765  0.000000    0.00346021  14 t-inv T
  0.000000 -0.470588  0.000000    0.00346021  16 t-inv T
 -0.058824 -0.058824  0.000000    0.00346021  18 t-inv T
  0.058824 -0.117647  0.000000    0.00346021  19 t-inv T
 -0.117647 -0.058824  0.000000    0.00346021  20 t-inv T
 -0.058824 -0.117647  0.000000    0.00346021  20 t-inv T
  0.058824 -0.176471  0.000000    0.00346021  21 t-inv T
  0.176471 -0.117647  0.000000    0.00346021  22 t-inv T
 -0.176471 -0.058824  0.000000    0.00346021  23 t-inv T
 -0.058824 -0.176471  0.000000    0.00346021  23 t-inv T
  0.058824 -0.235294  0.000000    0.00346021  24 t-inv T
  0.235294 -0.176471  0.000000    0.00346021  25 t-inv T
 -0.235294 -0.058824  0.000000    0.00346021  26 t-inv T
 -0.058824 -0.235294  0.000000    0.00346021  26 t-inv T
  0.058824 -0.294118  0.000000    0.00346021  27 t-inv T
  0.294118 -0.235294  0.000000    0.00346021  28 t-inv T
 -0.294118 -0.058824  0.000000    0.00346021  29 t-inv T
 -0.058824 -0.294118  0.000000    0.00346021  29 t-inv T
  0.058824 -0.352941  0.000000    0.00346021  30 t-inv T
  0.352941 -0.294118  0.000000    0.00346021  31 t-inv T
 -0.352941 -0.058824  0.000000    0.00346021  32 t-inv T
 -0.058824 -0.352941  0.000000    0.00346021  32 t-inv T
  0.058824 -0.411765  0.000000    0.00346021  33 t-inv T
  0.411765 -0.352941  0.000000    0.00346021  34 t-inv T
 -0.411765 -0.058824  0.000000    0.00346021  35 t-inv T
 -0.058824 -0.411765  0.000000    0.00346021  35 t-inv T
  0.058824 -0.470588  0.000000    0.00346021  36 t-inv T
  0.470588 -0.411765  0.000000    0.00346021  37 t-inv T
 -0.470588 -0.058824  0.000000    0.00346021  38 t-inv T
 -0.058824 -0.470588  0.000000    0.00346021  38 t-inv T
 -0.470588 -0.470588  0.000000    0.00346021  39 t-inv T
 -0.117647 -0.117647  0.000000    0.00346021  40 t-inv T
  0.117647 -0.235294  0.000000    0.00346021  41 t-inv T
 -0.176471 -0.117647  0.000000    0.00346021  42 t-inv T
 -0.117647 -0.176471  0.000000    0.00346021  42 t-inv T
  0.117647 -0.294118  0.000000    0.00346021  43 t-inv T
  0.294118 -0.176471  0.000000    0.00346021  44 t-inv T
 -0.235294 -0.117647  0.000000    0.00346021  45 t-inv T
 -0.117647 -0.235294  0.000000    0.00346021  45 t-inv T
  0.117647 -0.352941  0.000000    0.00346021  46 t-inv T
  0.352941 -0.235294  0.000000    0.00346021  47 t-inv T
 -0.294118 -0.117647  0.000000    0.00346021  48 t-inv T
 -0.117647 -0.294118  0.000000    0.00346021  48 t-inv T
  0.117647 -0.411765  0.000000    0.00346021  49 t-inv T
  0.411765 -0.294118  0.000000    0.00346021  50 t-inv T
 -0.352941 -0.117647  0.000000    0.00346021  51 t-inv T
 -0.117647 -0.352941  0.000000    0.00346021  51 t-inv T
  0.117647 -0.470588  0.000000    0.00346021  52 t-inv T
  0.470588 -0.352941  0.000000    0.00346021  53 t-inv T
 -0.411765 -0.117647  0.000000    0.00346021  54 t-inv T
 -0.117647 -0.411765  0.000000    0.00346021  54 t-inv T
  0.117647  0.470588  0.000000    0.00346021  55 t-inv T
 -0.470588 -0.411765  0.000000    0.00346021  56 t-inv T
 -0.176471 -0.176471  0.000000    0.00346021  57 t-inv T
  0.176471 -0.352941  0.000000    0.00346021  58 t-inv T
 -0.235294 -0.176471  0.000000    0.00346021  59 t-inv T
 -0.176471 -0.235294  0.000000    0.00346021  59 t-inv T
  0.176471 -0.411765  0.000000    0.00346021  60 t-inv T
  0.411765 -0.235294  0.000000    0.00346021  61 t-inv T
 -0.294118 -0.176471  0.000000    0.00346021  62 t-inv T
 -0.176471 -0.294118  0.000000    0.00346021  62 t-inv T
  0.176471 -0.470588  0.000000    0.00346021  63 t-inv T
  0.470588 -0.294118  0.000000    0.00346021  64 t-inv T
 -0.352941 -0.176471  0.000000    0.00346021  65 t-inv T
 -0.176471 -0.352941  0.000000    0.00346021  65 t-inv T
  0.176471  0.470588  0.000000    0.00346021  66 t-inv T
 -0.470588 -0.352941  0.000000    0.00346021  67 t-inv T
 -0.411765 -0.176471  0.000000    0.00346021  68 t-inv T
 -0.176471 -0.411765  0.000000    0.00346021  68 t-inv T
 -0.411765 -0.411765  0.000000    0.00346021  69 t-inv T
 -0.235294 -0.235294  0.000000    0.00346021  70 t-inv T
  0.235294 -0.470588  0.000000    0.00346021  71 t-inv T
 -0.294118 -0.235294  0.000000    0.00346021  72 t-inv T
 -0.235294 -0.294118  0.000000    0.00346021  72 t-inv T
  0.235294  0.470588  0.000000    0.00346021  73 t-inv T
 -0.470588 -0.294118  0.000000    0.00346021  74 t-inv T
 -0.352941 -0.235294  0.000000    0.00346021  75 t-inv T
 -0.235294 -0.352941  0.000000    0.00346021  75 t-inv T
  0.235294  0.411765  0.000000    0.00346021  76 t-inv T
 -0.411765 -0.352941  0.000000    0.00346021  77 t-inv T
 -0.294118 -0.294118  0.000000    0.00346021  78 t-inv T
  0.294118  0.411765  0.000000    0.00346021  79 t-inv T
 -0.352941 -0.294118  0.000000    0.00346021  80 t-inv T
 -0.294118 -0.352941  0.000000    0.00346021  80 t-inv T
 -0.352941 -0.352941  0.000000    0.00346021  81 t-inv T


--------------------------------------------------------------------------------------------------------




 Dimension of arrays:
   k-points           NKPTS =     81   k-points in BZ     NKDIM =    289   number of bands    NBANDS=     96
   number of dos      NEDOS =   4000   number of ions     NIONS =      7
   non local maximal  LDIM  =      4   non local SUM 2l+1 LMDIM =      8
   total plane-waves  NPLWV = 110592
   max r-space proj   IRMAX =      1   max aug-charges    IRDMAX=   6234
   dimension x,y,z NGX =    32 NGY =   32 NGZ =  108
   dimension x,y,z NGXF=    64 NGYF=   64 NGZF=  216
   support grid    NGXF=    64 NGYF=   64 NGZF=  216
   ions per type =               4   3
   NGX,Y,Z   is equivalent  to a cutoff of  11.34, 11.34, 11.97 a.u.
   NGXF,Y,Z  is equivalent  to a cutoff of  22.69, 22.69, 23.94 a.u.

 SYSTEM =  PDoS_HSE06                              
 POSCAR =  B4C3 with lattice parameter 4.690       

 Startparameter for this run:
   NWRITE =      2    write-flag & timer
   PREC   = accura    normal or accurate (medium, high low for compatibility)
   ISTART =      1    job   : 0-new  1-cont  2-samecut
   ICHARG =      2    charge: 1-file 2-atom 10-const
   ISPIN  =      1    spin polarized calculation?
   LNONCOLLINEAR =      F non collinear calculations
   LSORBIT =      F    spin-orbit coupling
   INIWAV =      1    electr: 0-lowe 1-rand  2-diag
   LASPH  =      F    aspherical Exc in radial PAW
 Electronic Relaxation 1
   ENCUT  =  450.0 eV  33.07 Ry    5.75 a.u.   8.11  8.11 25.95*2*pi/ulx,y,z
   ENINI  =  450.0     initial cutoff
   ENAUG  =  644.9 eV  augmentation charge cutoff
   NELM   =    200;   NELMIN=  2; NELMDL=  0     # of ELM steps 
   EDIFF  = 0.1E-05   stopping-criterion for ELM
   LREAL  =      F    real-space projection
   NLSPLINE    = F    spline interpolate recip. space projectors
   LCOMPAT=      F    compatible to vasp.4.4
   GGA_COMPAT  = T    GGA compatible to vasp.4.4-vasp.4.6
   LMAXPAW     = -100 max onsite density
   LMAXMIX     =    2 max onsite mixed and CHGCAR
   VOSKOWN=      0    Vosko Wilk Nusair interpolation
   ROPT   =    0.00000   0.00000
 Ionic relaxation
   EDIFFG = -.1E-02   stopping-criterion for IOM
   NSW    =      0    number of steps for IOM
   NBLOCK =      1;   KBLOCK =      1    inner block; outer block 
   IBRION =     -1    ionic relax: 0-MD 1-quasi-New 2-CG
   NFREE  =      0    steps in history (QN), initial steepest desc. (CG)
   ISIF   =      0    stress and relaxation
   IWAVPR =     10    prediction:  0-non 1-charg 2-wave 3-comb
   ISYM   =      3    0-nonsym 1-usesym 2-fastsym
   LCORR  =      T    Harris-Foulkes like correction to forces

   POTIM  = 0.5000    time-step for ionic-motion
   TEIN   =    0.0    initial temperature
   TEBEG  =    0.0;   TEEND  =   0.0 temperature during run
   SMASS  =  -3.00    Nose mass-parameter (am)
   estimated Nose-frequenzy (Omega)   =  0.10E-29 period in steps = 0.13E+47 mass=  -0.503E-27a.u.
   SCALEE = 1.0000    scale energy and forces
   NPACO  =    256;   APACO  = 10.0  distance and # of slots for P.C.
   PSTRESS=    0.0 pullay stress

  Mass of Ions in am
   POMASS =  10.81 12.01
  Ionic Valenz
   ZVAL   =   3.00  4.00
  Atomic Wigner-Seitz radii
   RWIGS  =  -1.00 -1.00
  virtual crystal weights 
   VCA    =   1.00  1.00
   NELECT =      24.0000    total number of electrons
   NUPDOWN=      -1.0000    fix difference up-down

 DOS related values:
   EMIN   =  10.00;   EMAX   =-10.00  energy-range for DOS
   EFERMI =   0.00;   METHOD = LEGACY      
   ISMEAR =     0;   SIGMA  =   0.10  broadening in eV -4-tet -1-fermi 0-gaus

 Electronic relaxation 2 (details)
   IALGO  =     53    algorithm
   LDIAG  =      T    sub-space diagonalisation (order eigenvalues)
   LSUBROT=      F    optimize rotation matrix (better conditioning)
   TURBO    =      0    0=normal 1=particle mesh
   IRESTART =      0    0=no restart 2=restart with 2 vectors
   NREBOOT  =      0    no. of reboots
   NMIN     =      0    reboot dimension
   EREF     =   0.00    reference energy to select bands
   IMIX   =      4    mixing-type and parameters
     AMIX     =   0.40;   BMIX     =  1.00
     AMIX_MAG =   1.60;   BMIX_MAG =  1.00
     AMIN     =   0.10
     WC   =   100.;   INIMIX=   1;  MIXPRE=   1;  MAXMIX= -45

 Intra band minimization:
   WEIMIN = 0.0000     energy-eigenvalue tresh-hold
   EBREAK =  0.26E-08  absolut break condition
   DEPER  =   0.30     relativ break condition  

   TIME   =   0.40     timestep for ELM

  volume/ion in A,a.u.               =      40.82       275.46
  Fermi-wavevector in a.u.,A,eV,Ry     =   0.716951  1.354841  6.993647  0.514019
  Thomas-Fermi vector in A             =   1.805505
 
 Write flags
   LWAVE        =      T    write WAVECAR
   LDOWNSAMPLE  =      F    k-point downsampling of WAVECAR
   LCHARG       =      T    write CHGCAR
   LVTOT        =      F    write LOCPOT, total local potential
   LVHAR        =      F    write LOCPOT, Hartree potential only
   LELF         =      F    write electronic localiz. function (ELF)
   LORBIT       =     11    0 simple, 1 ext, 2 COOP (PROOUT), +10 PAW based schemes


 Dipole corrections
   LMONO  =      F    monopole corrections only (constant potential shift)
   LDIPOL =      F    correct potential (dipole corrections)
   IDIPOL =      0    1-x, 2-y, 3-z, 4-all directions 
   EPSILON=  1.0000000 bulk dielectric constant

 Exchange correlation treatment:
   GGA     =    PE    GGA type
   LEXCH   =     8    internal setting for exchange type
   LIBXC   =     F    Libxc                    
   VOSKOWN =     0    Vosko Wilk Nusair interpolation
   EXXOEP  =     0    0=HF, 1=EXX-LHF (local Hartree Fock) 2=EXX OEP
   LHFCALC =     T    Hartree Fock is set to
   LSYMGRAD=     F    symmetrize gradient (conserves proper symmetry)
   PRECFOCK=normal    Normal, Fast or Accurate (Low or Medium for compatibility)
   LRHFCALC=     F    long range Hartree Fock
   LRSCOR  =     F    long range correlation only (use DFT for short range part)
   LTHOMAS =     F    Thomas Fermi screening in HF
   LMODELHF=     F    short range full HF, long range fraction AEXX
   FOCKCORR=     1    mode to apply convergence corrections
   LFOCKACE=     T    use Adeptively-Compressed-Exchange operator
   ENCUT4O =  -1.0   cutoff for four orbital integrals eV
   LMAXFOCK=     4    L truncation for augmentation on plane wave grid
   LMAXFOCKAE=  -1    L truncation for all-electron charge restoration on plane wave grid
   NMAXFOCKAE=   1    number of basis functions for all-electron charge restoration
   LFOCKAEDFT=     F  apply the AE augmentation even for DFT
   NKREDX  =     1    reduce k-point grid by
   NKREDY  =     1    reduce k-point grid by
   NKREDZ  =     1    reduce k-point grid by
   SHIFTRED=     F    shift reduced grid of Gamma
   HFKIDENT=     F    idential grid for each k-point
   ODDONLY =     F    use only odd q-grid points
   EVENONLY=     F    use only even q-grid points
   HFALPHA =   -1.0000 decay constant for conv. correction
   MCALPHA =    0.0000 extent of test-charge in conv. correction in multipole expansion
   AEXX    =    0.2500 exact exchange contribution
   HFSCREEN=    0.2000 screening length (either q_TF or 0.3 A-1)
   HFSCREENC=   0.2000 screening length for correlation (either q_TF or 0.3 A-1)
   HFRCUT  =    0.0000 spherical cutoff for potential kernel
   ALDAX   =    0.7500 LDA exchange part
   AGGAX   =    0.7500 GGA exchange part
   ALDAC   =    1.0000 LDA correlation
   AGGAC   =    1.0000 GGA correlation
   ENCUTFOCK=  -1.0 apply spherical cutoff to Coloumb kernel
   NBANDSGWLOW=     1    first orbital included in HF term
   NBLOCK_FOCK=    64    blocking factor in FOCK_ACC

 Linear response parameters
   LEPSILON=     F    determine dielectric tensor
   LRPA    =     F    only Hartree local field effects (RPA)
   LNABLA  =     F    use nabla operator in PAW spheres
   LVEL    =     F    velocity operator in full k-point grid
   CSHIFT  =0.1000    complex shift for real part using Kramers Kronig
   OMEGAMAX=  -1.0    maximum frequency
   DEG_THRESHOLD= 0.2000000E-02 threshold for treating states as degnerate
   RTIME   =   -0.100 relaxation time in fs
  (WPLASMAI=    0.000 imaginary part of plasma frequency in eV, 0.658/RTIME)
   DFIELD  = 0.0000000 0.0000000 0.0000000 field for delta impulse in time
 
  Optional k-point grid parameters
   LKPOINTS_OPT  =     F    use optional k-point grid
   KPOINTS_OPT_MODE=     1    mode for optional k-point grid
 
 Orbital magnetization related:
   ORBITALMAG=     F  switch on orbital magnetization
   LCHIMAG   =     F  perturbation theory with respect to B field
   DQ        =  0.001000  dq finite difference perturbation B field
   LLRAUG    =     F  two centre corrections for induced B field
   LBONE     =     F  B-component reconstruction in AE one-centre
   LVGVCALC  =     T  calculate vGv susceptibility
   LVGVAPPL  =     F  apply vGv susceptibility instead of pGv for G=0

 Random number generation:
   RANDOM_GENERATOR = DEFAULT
   PCG_SEED         = not used


--------------------------------------------------------------------------------------------------------


 Static calculation
 charge density and potential will be updated during run
 non-spin polarized calculation
 Conjugate gradient for all bands (Freysoldt, et al. PRB 79, 241103 (2009))
 perform sub-space diagonalisation
    before iterative eigenvector-optimisation
 modified Broyden-mixing scheme, WC =      100.0
 initial mixing is a Kerker type mixing with AMIX =  0.4000 and BMIX =      1.0000
 Hartree-type preconditioning will be used
 using additional bands           84
 reciprocal scheme for non local part
 use partial core corrections
 no Harris-corrections to forces 
 use gradient corrections 
 use of overlap-Matrix (Vanderbilt PP)
 Gauss-broadening in eV      SIGMA  =   0.10


--------------------------------------------------------------------------------------------------------


  energy-cutoff  :      450.00
  volume of cell :      285.74
      direct lattice vectors                 reciprocal lattice vectors
     4.061659000  2.345000000  0.000000000     0.123102407  0.213219616  0.000000000
    -4.061659000  2.345000000  0.000000000    -0.123102407  0.213219616  0.000000000
     0.000000000  0.000000000 15.000000000     0.000000000  0.000000000  0.066666667

  length of vectors
     4.689999876  4.689999876 15.000000000     0.246204808  0.246204808  0.066666667


 
 old parameters found on file WAVECAR:
  energy-cutoff  :      450.00
  volume of cell :      285.74
      direct lattice vectors                 reciprocal lattice vectors
     4.061659000  2.345000000  0.000000000     0.123102407  0.213219616  0.000000000
    -4.061659000  2.345000000  0.000000000    -0.123102407  0.213219616  0.000000000
     0.000000000  0.000000000 15.000000000     0.000000000  0.000000000  0.066666667

  length of vectors

 
 k-points in units of 2pi/SCALE and weight: k-points                                
   0.00000000  0.00000000  0.00000000       0.003
   0.00724132  0.01254233  0.00000000       0.014
  -0.01448264  0.00000000  0.00000000       0.007
   0.01448264  0.02508466  0.00000000       0.014
  -0.02896527 -0.00000000  0.00000000       0.007
   0.02172395  0.03762699  0.00000000       0.014
  -0.04344791  0.00000000  0.00000000       0.007
   0.02896527  0.05016932  0.00000000       0.014
  -0.05793054 -0.00000000  0.00000000       0.007
   0.03620659  0.06271165  0.00000000       0.014
  -0.07241318  0.00000000  0.00000000       0.007
   0.04344791  0.07525398  0.00000000       0.014
  -0.08689582  0.00000000  0.00000000       0.007
   0.05068923  0.08779631  0.00000000       0.014
  -0.10137845  0.00000000  0.00000000       0.007
   0.05793054  0.10033864  0.00000000       0.014
  -0.11586109 -0.00000000  0.00000000       0.007
   0.00000000  0.02508466  0.00000000       0.010
  -0.02172395  0.01254233  0.00000000       0.010
   0.00724132  0.03762699  0.00000000       0.017
  -0.02896527  0.02508466  0.00000000       0.014
  -0.03620659 -0.01254233  0.00000000       0.010
   0.01448264  0.05016932  0.00000000       0.017
  -0.03620659  0.03762699  0.00000000       0.014
  -0.05068923 -0.01254233  0.00000000       0.010
   0.02172395  0.06271165  0.00000000       0.017
  -0.04344791  0.05016932  0.00000000       0.014
  -0.06517186 -0.01254233  0.00000000       0.010
   0.02896527  0.07525398  0.00000000       0.017
  -0.05068923  0.06271165  0.00000000       0.014
  -0.07965450 -0.01254233  0.00000000       0.010
   0.03620659  0.08779631  0.00000000       0.017
  -0.05793054  0.07525398  0.00000000       0.014
  -0.09413713 -0.01254233  0.00000000       0.010
   0.04344791  0.10033864  0.00000000       0.017
  -0.06517186  0.08779631  0.00000000       0.014
  -0.10861977 -0.01254233  0.00000000       0.010
   0.05068923  0.11288097  0.00000000       0.014
   0.00000000  0.20067729  0.00000000       0.007
   0.00000000  0.05016932  0.00000000       0.010
  -0.04344791  0.02508466  0.00000000       0.010
   0.00724132  0.06271165  0.00000000       0.017
  -0.05068923  0.03762699  0.00000000       0.014
  -0.05793054 -0.02508466  0.00000000       0.010
   0.01448264  0.07525398  0.00000000       0.017
  -0.05793054  0.05016932  0.00000000       0.014
  -0.07241318 -0.02508466  0.00000000       0.010
   0.02172395  0.08779631  0.00000000       0.017
  -0.06517186  0.06271165  0.00000000       0.014
  -0.08689582 -0.02508466  0.00000000       0.010
   0.02896527  0.10033864  0.00000000       0.017
  -0.07241318  0.07525398  0.00000000       0.014
  -0.10137845 -0.02508466  0.00000000       0.010
   0.03620659  0.11288097  0.00000000       0.017
   0.04344791 -0.12542330  0.00000000       0.014
   0.00724132  0.18813496  0.00000000       0.010
  -0.00000000  0.07525398  0.00000000       0.010
  -0.06517186  0.03762699  0.00000000       0.010
   0.00724132  0.08779631  0.00000000       0.017
  -0.07241318  0.05016932  0.00000000       0.014
  -0.07965450 -0.03762699  0.00000000       0.010
   0.01448264  0.10033864  0.00000000       0.017
  -0.07965450  0.06271165  0.00000000       0.014
  -0.09413713 -0.03762699  0.00000000       0.010
   0.02172395  0.11288097  0.00000000       0.017
   0.03620659 -0.13796563  0.00000000       0.014
   0.01448264  0.17559263  0.00000000       0.010
   0.02896527  0.12542330  0.00000000       0.014
  -0.00000000  0.17559263  0.00000000       0.007
   0.00000000  0.10033864  0.00000000       0.010
  -0.08689582  0.05016932  0.00000000       0.010
   0.00724132  0.11288097  0.00000000       0.017
   0.02896527 -0.15050796  0.00000000       0.014
   0.02172395  0.16305029  0.00000000       0.010
   0.01448264  0.12542330  0.00000000       0.017
   0.02172395 -0.13796563  0.00000000       0.014
   0.00724132  0.16305029  0.00000000       0.010
   0.00000000  0.12542330  0.00000000       0.010
   0.01448264 -0.15050796  0.00000000       0.010
   0.00724132  0.13796563  0.00000000       0.014
  -0.00000000  0.15050796  0.00000000       0.007
 
 k-points in reciprocal lattice and weights: k-points                                
   0.00000000  0.00000000  0.00000000       0.003
   0.05882353  0.00000000  0.00000000       0.014
  -0.05882353  0.05882353  0.00000000       0.007
   0.11764706 -0.00000000  0.00000000       0.014
  -0.11764706  0.11764706  0.00000000       0.007
   0.17647059 -0.00000000  0.00000000       0.014
  -0.17647059  0.17647059  0.00000000       0.007
   0.23529412 -0.00000000  0.00000000       0.014
  -0.23529412  0.23529412  0.00000000       0.007
   0.29411765  0.00000000  0.00000000       0.014
  -0.29411765  0.29411765  0.00000000       0.007
   0.35294118  0.00000000  0.00000000       0.014
  -0.35294118  0.35294118  0.00000000       0.007
   0.41176471 -0.00000000  0.00000000       0.014
  -0.41176471  0.41176471  0.00000000       0.007
   0.47058824 -0.00000000  0.00000000       0.014
  -0.47058824  0.47058824  0.00000000       0.007
   0.05882353  0.05882353  0.00000000       0.010
  -0.05882353  0.11764706  0.00000000       0.010
   0.11764706  0.05882353  0.00000000       0.017
  -0.05882353  0.17647059  0.00000000       0.014
  -0.17647059  0.11764706  0.00000000       0.010
   0.17647059  0.05882353  0.00000000       0.017
  -0.05882353  0.23529412  0.00000000       0.014
  -0.23529412  0.17647059  0.00000000       0.010
   0.23529412  0.05882353  0.00000000       0.017
  -0.05882353  0.29411765  0.00000000       0.014
  -0.29411765  0.23529412  0.00000000       0.010
   0.29411765  0.05882353  0.00000000       0.017
  -0.05882353  0.35294118  0.00000000       0.014
  -0.35294118  0.29411765  0.00000000       0.010
   0.35294118  0.05882353  0.00000000       0.017
  -0.05882353  0.41176471  0.00000000       0.014
  -0.41176471  0.35294118  0.00000000       0.010
   0.41176471  0.05882353  0.00000000       0.017
  -0.05882353  0.47058824  0.00000000       0.014
  -0.47058824  0.41176471  0.00000000       0.010
   0.47058824  0.05882353  0.00000000       0.014
   0.47058824  0.47058824  0.00000000       0.007
   0.11764706  0.11764706  0.00000000       0.010
  -0.11764706  0.23529412  0.00000000       0.010
   0.17647059  0.11764706  0.00000000       0.017
  -0.11764706  0.29411765  0.00000000       0.014
  -0.29411765  0.17647059  0.00000000       0.010
   0.23529412  0.11764706  0.00000000       0.017
  -0.11764706  0.35294118  0.00000000       0.014
  -0.35294118  0.23529412  0.00000000       0.010
   0.29411765  0.11764706  0.00000000       0.017
  -0.11764706  0.41176471  0.00000000       0.014
  -0.41176471  0.29411765  0.00000000       0.010
   0.35294118  0.11764706  0.00000000       0.017
  -0.11764706  0.47058824  0.00000000       0.014
  -0.47058824  0.35294118  0.00000000       0.010
   0.41176471  0.11764706  0.00000000       0.017
  -0.11764706 -0.47058824  0.00000000       0.014
   0.47058824  0.41176471  0.00000000       0.010
   0.17647059  0.17647059  0.00000000       0.010
  -0.17647059  0.35294118  0.00000000       0.010
   0.23529412  0.17647059  0.00000000       0.017
  -0.17647059  0.41176471  0.00000000       0.014
  -0.41176471  0.23529412  0.00000000       0.010
   0.29411765  0.17647059  0.00000000       0.017
  -0.17647059  0.47058824  0.00000000       0.014
  -0.47058824  0.29411765  0.00000000       0.010
   0.35294118  0.17647059  0.00000000       0.017
  -0.17647059 -0.47058824  0.00000000       0.014
   0.47058824  0.35294118  0.00000000       0.010
   0.41176471  0.17647059  0.00000000       0.014
   0.41176471  0.41176471  0.00000000       0.007
   0.23529412  0.23529412  0.00000000       0.010
  -0.23529412  0.47058824  0.00000000       0.010
   0.29411765  0.23529412  0.00000000       0.017
  -0.23529412 -0.47058824  0.00000000       0.014
   0.47058824  0.29411765  0.00000000       0.010
   0.35294118  0.23529412  0.00000000       0.017
  -0.23529412 -0.41176471  0.00000000       0.014
   0.41176471  0.35294118  0.00000000       0.010
   0.29411765  0.29411765  0.00000000       0.010
  -0.29411765 -0.41176471  0.00000000       0.010
   0.35294118  0.29411765  0.00000000       0.014
   0.35294118  0.35294118  0.00000000       0.007
 
 position of ions in fractional coordinates (direct lattice) 
   0.00418393  0.00277040  0.12026517
   0.35695522  0.00278199  0.09750344
   0.00418697  0.35554205  0.09750299
   0.65141623  0.65001171  0.09750545
   0.32810072  0.32669404  0.10028273
   0.68026827  0.00278111  0.10029217
   0.00418666  0.67885669  0.10029405
 
 position of ions in cartesian coordinates  (Angst):
   0.00574127  0.01630791  1.80397753
   1.43853088  0.84358376  1.46255163
  -1.42708452  0.84356455  1.46254490
   0.00570467  3.05184853  1.46258182
   0.00571343  1.53549371  1.50424089
   2.75172183  1.60175081  1.50438248
  -2.74027960  1.60173665  1.50441075
 


--------------------------------------------------------------------------------------------------------


 k-point   1 :   0.0000 0.0000 0.0000  plane waves:    6189
 k-point   2 :   0.0588 0.0000 0.0000  plane waves:    6162
 k-point   3 :  -0.0588 0.0588 0.0000  plane waves:    6162
 k-point   4 :   0.1176-0.0000 0.0000  plane waves:    6172
 k-point   5 :  -0.1176 0.1176 0.0000  plane waves:    6172
 k-point   6 :   0.1765-0.0000 0.0000  plane waves:    6152
 k-point   7 :  -0.1765 0.1765 0.0000  plane waves:    6152
 k-point   8 :   0.2353-0.0000 0.0000  plane waves:    6184
 k-point   9 :  -0.2353 0.2353 0.0000  plane waves:    6184
 k-point  10 :   0.2941 0.0000 0.0000  plane waves:    6208
 k-point  11 :  -0.2941 0.2941 0.0000  plane waves:    6208
 k-point  12 :   0.3529 0.0000 0.0000  plane waves:    6214
 k-point  13 :  -0.3529 0.3529 0.0000  plane waves:    6214
 k-point  14 :   0.4118-0.0000 0.0000  plane waves:    6226
 k-point  15 :  -0.4118 0.4118 0.0000  plane waves:    6226
 k-point  16 :   0.4706-0.0000 0.0000  plane waves:    6200
 k-point  17 :  -0.4706 0.4706 0.0000  plane waves:    6200
 k-point  18 :   0.0588 0.0588 0.0000  plane waves:    6172
 k-point  19 :  -0.0588 0.1176 0.0000  plane waves:    6172
 k-point  20 :   0.1176 0.0588 0.0000  plane waves:    6154
 k-point  21 :  -0.0588 0.1765 0.0000  plane waves:    6154
 k-point  22 :  -0.1765 0.1176 0.0000  plane waves:    6154
 k-point  23 :   0.1765 0.0588 0.0000  plane waves:    6169
 k-point  24 :  -0.0588 0.2353 0.0000  plane waves:    6169
 k-point  25 :  -0.2353 0.1765 0.0000  plane waves:    6169
 k-point  26 :   0.2353 0.0588 0.0000  plane waves:    6194
 k-point  27 :  -0.0588 0.2941 0.0000  plane waves:    6194
 k-point  28 :  -0.2941 0.2353 0.0000  plane waves:    6194
 k-point  29 :   0.2941 0.0588 0.0000  plane waves:    6198
 k-point  30 :  -0.0588 0.3529 0.0000  plane waves:    6198
 k-point  31 :  -0.3529 0.2941 0.0000  plane waves:    6198
 k-point  32 :   0.3529 0.0588 0.0000  plane waves:    6209
 k-point  33 :  -0.0588 0.4118 0.0000  plane waves:    6209
 k-point  34 :  -0.4118 0.3529 0.0000  plane waves:    6209
 k-point  35 :   0.4118 0.0588 0.0000  plane waves:    6204
 k-point  36 :  -0.0588 0.4706 0.0000  plane waves:    6204
 k-point  37 :  -0.4706 0.4118 0.0000  plane waves:    6204
 k-point  38 :   0.4706 0.0588 0.0000  plane waves:    6196
 k-point  39 :   0.4706 0.4706 0.0000  plane waves:    6196
 k-point  40 :   0.1176 0.1176 0.0000  plane waves:    6172
 k-point  41 :  -0.1176 0.2353 0.0000  plane waves:    6172
 k-point  42 :   0.1765 0.1176 0.0000  plane waves:    6178
 k-point  43 :  -0.1176 0.2941 0.0000  plane waves:    6178
 k-point  44 :  -0.2941 0.1765 0.0000  plane waves:    6178
 k-point  45 :   0.2353 0.1176 0.0000  plane waves:    6182
 k-point  46 :  -0.1176 0.3529 0.0000  plane waves:    6182
 k-point  47 :  -0.3529 0.2353 0.0000  plane waves:    6182
 k-point  48 :   0.2941 0.1176 0.0000  plane waves:    6193
 k-point  49 :  -0.1176 0.4118 0.0000  plane waves:    6193
 k-point  50 :  -0.4118 0.2941 0.0000  plane waves:    6193
 k-point  51 :   0.3529 0.1176 0.0000  plane waves:    6198
 k-point  52 :  -0.1176 0.4706 0.0000  plane waves:    6198
 k-point  53 :  -0.4706 0.3529 0.0000  plane waves:    6198
 k-point  54 :   0.4118 0.1176 0.0000  plane waves:    6197
 k-point  55 :  -0.1176-0.4706 0.0000  plane waves:    6197
 k-point  56 :   0.4706 0.4118 0.0000  plane waves:    6197
 k-point  57 :   0.1765 0.1765 0.0000  plane waves:    6184
 k-point  58 :  -0.1765 0.3529 0.0000  plane waves:    6184
 k-point  59 :   0.2353 0.1765 0.0000  plane waves:    6205
 k-point  60 :  -0.1765 0.4118 0.0000  plane waves:    6205
 k-point  61 :  -0.4118 0.2353 0.0000  plane waves:    6205
 k-point  62 :   0.2941 0.1765 0.0000  plane waves:    6209
 k-point  63 :  -0.1765 0.4706 0.0000  plane waves:    6209
 k-point  64 :  -0.4706 0.2941 0.0000  plane waves:    6209
 k-point  65 :   0.3529 0.1765 0.0000  plane waves:    6207
 k-point  66 :  -0.1765-0.4706 0.0000  plane waves:    6207
 k-point  67 :   0.4706 0.3529 0.0000  plane waves:    6207
 k-point  68 :   0.4118 0.1765 0.0000  plane waves:    6190
 k-point  69 :   0.4118 0.4118 0.0000  plane waves:    6190
 k-point  70 :   0.2353 0.2353 0.0000  plane waves:    6208
 k-point  71 :  -0.2353 0.4706 0.0000  plane waves:    6208
 k-point  72 :   0.2941 0.2353 0.0000  plane waves:    6199
 k-point  73 :  -0.2353-0.4706 0.0000  plane waves:    6199
 k-point  74 :   0.4706 0.2941 0.0000  plane waves:    6199
 k-point  75 :   0.3529 0.2353 0.0000  plane waves:    6198
 k-point  76 :  -0.2353-0.4118 0.0000  plane waves:    6198
 k-point  77 :   0.4118 0.3529 0.0000  plane waves:    6198
 k-point  78 :   0.2941 0.2941 0.0000  plane waves:    6190
 k-point  79 :  -0.2941-0.4118 0.0000  plane waves:    6190
 k-point  80 :   0.3529 0.2941 0.0000  plane waves:    6188
 k-point  81 :   0.3529 0.3529 0.0000  plane waves:    6188

 maximum and minimum number of plane-waves per node :      6226     6152

 maximum number of plane-waves:      6226
 maximum index in each direction: 
   IXMAX=    8   IYMAX=    8   IZMAX=   25
   IXMIN=   -8   IYMIN=   -8   IZMIN=  -25


 serial   3D FFT for wavefunctions
 parallel 3D FFT for charge:
    minimum data exchange during FFTs selected (reduces bandwidth)


 FFT grid for exact exchange (Hartree Fock) 
  NGX = 28; NGY = 28; NGZ = 80

 
 Radii for the augmentation spheres in the non-local exchange
 for species   1 augmentation radius   0.959 (default was   0.767)
       energy cutoff for augmentation   1800.0
 for species   2 augmentation radius   0.874 (default was   0.699)
       energy cutoff for augmentation   1800.0
 Maximum index for augmentation-charges in exchange          823
  SETUP_FOCK is finished

 total amount of memory used by VASP MPI-rank0   126700. kBytes
=======================================================================

   base      :      30000. kBytes
   nonl-proj :      65395. kBytes
   fftplans  :        917. kBytes
   grid      :       5219. kBytes
   one-center:         21. kBytes
   HF        :          9. kBytes
   nonlr-proj:        506. kBytes
   wavefun   :      24633. kBytes
 
     INWAV:  cpu time      2.3497: real time      2.7115
 Broyden mixing: mesh for mixing (old mesh)
   NGX = 17   NGY = 17   NGZ = 51
  (NGX  = 64   NGY  = 64   NGZ  =216)
  gives a total of  14739 points

 initial charge density was supplied:
 charge density of overlapping atoms calculated
 number of electron      24.0000000 magnetization 
 charge density for first step will be calculated from the start-wavefunctions


--------------------------------------------------------------------------------------------------------


 Maximum index for augmentation-charges          368 (set IRDMAX)


--------------------------------------------------------------------------------------------------------


 initial charge from wavefunction
 First call to EWALD:  gamma=   0.269
 Maximum number of real-space cells 4x 4x 1
 Maximum number of reciprocal cells 2x 2x 6

    FEWALD:  cpu time      0.0023: real time      0.0024


--------------------------------------- Ionic step        1  -------------------------------------------




--------------------------------------- Iteration      1(   1)  ---------------------------------------


    POTLOK:  cpu time      0.0259: real time      0.0277
    SETDIJ:  cpu time      0.0279: real time      0.0296
    TRIAL :  cpu time   5070.7183: real time   5097.5641
    CORREC:  cpu time      0.0013: real time      0.0013
    CHARGE:  cpu time      0.2817: real time      0.2970
    --------------------------------------------
      LOOP:  cpu time   5071.0705: real time   5097.9371

 eigenvalue-minimisations  :     0
 total energy-change (2. order) :-0.5917213E+02  (-0.4094803E-06)
 number of electron      24.0000000 magnetization 
 augmentation part        0.2419657 magnetization 

 Free energy of the ion-electron system (eV)
  ---------------------------------------------------
  alpha Z        PSCENC =        12.87923804
  Ewald energy   TEWEN  =      2035.29425873
  -Hartree energ DENC   =     -2650.03268823
  -exchange      EXHF   =        48.40286708
  -V(xc)+E(xc)   XCENC  =        54.08656777
  PAW double counting   =      2654.46771190    -2653.09953662
  entropy T*S    EENTRO =        -0.00000000
  eigenvalues    EBANDS =      -278.42756202
  atomic energy  EATOM  =       717.25701665
  ---------------------------------------------------
  free energy    TOTEN  =       -59.17212671 eV

  energy without entropy =      -59.17212671  energy(sigma->0) =      -59.17212671
  exchange ACFDT corr.  =        -0.00000000  see jH, gK, PRB 81, 115126


--------------------------------------------------------------------------------------------------------




--------------------------------------- Iteration      1(   2)  ---------------------------------------


    POTLOK:  cpu time      0.0661: real time      0.0664
    SETDIJ:  cpu time      0.0279: real time      0.0282
    TRIAL :  cpu time   5071.0520: real time   5097.0050
    CORREC:  cpu time      0.0010: real time      0.0011
    EDDIAG:  cpu time   5058.8015: real time   5084.3563
    CHARGE:  cpu time      0.2805: real time      0.2835
    --------------------------------------------
      LOOP:  cpu time  10130.2307: real time  10181.8433

 eigenvalue-minimisations  :     0
 total energy-change (2. order) :-0.3724099E-06  (-0.3496720E-06)
 number of electron      24.0000000 magnetization 
 augmentation part        0.2419663 magnetization 

 Free energy of the ion-electron system (eV)
  ---------------------------------------------------
  alpha Z        PSCENC =        12.87923804
  Ewald energy   TEWEN  =      2035.29425873
  -Hartree energ DENC   =     -2650.03324707
  -exchange      EXHF   =        48.40288902
  -V(xc)+E(xc)   XCENC  =        54.08658824
  PAW double counting   =      2654.48419178    -2653.11601894
  entropy T*S    EENTRO =        -0.00000000
  eigenvalues    EBANDS =      -278.42703395
  atomic energy  EATOM  =       717.25701665
  ---------------------------------------------------
  free energy    TOTEN  =       -59.17212708 eV

  energy without entropy =      -59.17212708  energy(sigma->0) =      -59.17212708
  exchange ACFDT corr.  =        -0.00000000  see jH, gK, PRB 81, 115126


--------------------------------------------------------------------------------------------------------


  average scaling for gradient   0.9379


 average (electrostatic) potential at core
  the test charge radii are     0.7672  0.6991
  (the norm of the test charge is              1.0000)
       1 -34.5535       2 -32.6379       3 -32.6379       4 -32.6380       5 -53.0934
       6 -53.0935       7 -53.0934
 
 
 
 E-fermi :  -2.8456     XC(G=0):  -2.4389     alpha+bet : -2.6060

 Fermi energy:        -2.8456460626

 k-point     1 :       0.0000    0.0000    0.0000
  band No.  band energies     occupation 
      1     -22.0740      2.00000
      2     -17.3955      2.00000
      3     -17.3954      2.00000
      4     -14.1911      2.00000
      5     -12.8639      2.00000
      6     -12.8639      2.00000
      7     -11.1482      2.00000
      8     -10.2504      2.00000
      9      -5.3360      2.00000
     10      -5.3356      2.00000
     11      -3.2670      2.00000
     12      -3.2668      2.00000
     13      -0.3504      0.00000
     14      -0.3503      0.00000
     15      -0.2108      0.00000
     16       1.4364      0.00000
     17       1.9556      0.00000
     18       2.5378      0.00000
     19       3.2883      0.00000
     20       3.2884      0.00000
     21       4.3641      0.00000
     22       5.1228      0.00000
     23       7.5359      0.00000
     24       7.8950      0.00000
     25       8.3323      0.00000
     26       8.8458      0.00000
     27       8.9439      0.00000
     28       8.9440      0.00000
     29       9.6979      0.00000
     30       9.6979      0.00000
     31       9.8349      0.00000
     32       9.8451      0.00000
     33      10.1737      0.00000
     34      10.7634      0.00000
     35      10.8197      0.00000
     36      10.8197      0.00000
     37      10.9805      0.00000
     38      10.9806      0.00000
     39      11.0695      0.00000
     40      11.1368      0.00000
     41      11.1371      0.00000
     42      11.3167      0.00000
     43      11.3194      0.00000
     44      11.3395      0.00000
     45      11.7164      0.00000
     46      11.8331      0.00000
     47      12.1568      0.00000
     48      12.6498      0.00000
     49      17.7061      0.00000
     50      19.1878      0.00000
     51      19.5794      0.00000
     52      19.8421      0.00000
     53      20.8308      0.00000
     54      21.0289      0.00000
     55      21.6571      0.00000
     56      21.6757      0.00000
     57      21.6930      0.00000
     58      21.7471      0.00000
     59      22.1022      0.00000
     60      22.2283      0.00000
     61      22.3460      0.00000
     62      22.8890      0.00000
     63      22.8988      0.00000
     64      23.0466      0.00000
     65      23.1285      0.00000
     66      23.1689      0.00000
     67      23.1782      0.00000
     68      23.4508      0.00000
     69      23.5442      0.00000
     70      23.7520      0.00000
     71      23.8788      0.00000
     72      24.1859      0.00000
     73      24.3355      0.00000
     74      24.4325      0.00000
     75      25.0822      0.00000
     76      25.1702      0.00000
     77      26.0692      0.00000
     78      26.1894      0.00000
     79      26.9273      0.00000
     80      27.3299      0.00000
     81      27.5131      0.00000
     82      27.5686      0.00000
     83      29.2915      0.00000
     84      29.3458      0.00000
     85      29.8659      0.00000
     86      30.1838      0.00000
     87      30.4946      0.00000
     88      30.7194      0.00000
     89      31.0361      0.00000
     90      31.3554      0.00000
     91      31.7508      0.00000
     92      32.1921      0.00000
     93      33.1740      0.00000
     94      33.2147      0.00000
     95      33.5322      0.00000
     96      34.4097      0.00000

 k-point     2 :       0.0588    0.0000    0.0000
  band No.  band energies     occupation 
      1     -22.0567      2.00000
      2     -17.4690      2.00000
      3     -17.4126      2.00000
      4     -14.1215      2.00000
      5     -12.9621      2.00000
      6     -12.8137      2.00000
      7     -10.9816      2.00000
      8     -10.2215      2.00000
      9      -5.4582      2.00000
     10      -5.4095      2.00000
     11      -3.4138      2.00000
     12      -3.3435      2.00000
     13      -0.4642      0.00000
     14      -0.2705      0.00000
     15       0.0518      0.00000
     16       1.4952      0.00000
     17       1.9885      0.00000
     18       2.5746      0.00000
     19       3.3529      0.00000
     20       3.4039      0.00000
     21       4.3946      0.00000
     22       5.1577      0.00000
     23       7.5916      0.00000
     24       7.8364      0.00000
     25       8.3048      0.00000
     26       8.6137      0.00000
     27       8.7700      0.00000
     28       8.9074      0.00000
     29       9.4283      0.00000
     30       9.6280      0.00000
     31       9.8044      0.00000
     32       9.8915      0.00000
     33       9.9230      0.00000
     34      10.2969      0.00000
     35      10.3662      0.00000
     36      10.4211      0.00000
     37      10.7326      0.00000
     38      10.7795      0.00000
     39      10.8638      0.00000
     40      11.2531      0.00000
     41      11.4176      0.00000
     42      11.5915      0.00000
     43      11.6961      0.00000
     44      11.7430      0.00000
     45      12.0964      0.00000
     46      12.3778      0.00000
     47      12.4420      0.00000
     48      12.5493      0.00000
     49      17.6531      0.00000
     50      18.4631      0.00000
     51      19.2446      0.00000
     52      19.7747      0.00000
     53      21.3041      0.00000
     54      21.3391      0.00000
     55      21.3933      0.00000
     56      21.4434      0.00000
     57      21.7047      0.00000
     58      21.7189      0.00000
     59      21.9146      0.00000
     60      22.1961      0.00000
     61      22.4634      0.00000
     62      22.6082      0.00000
     63      22.7093      0.00000
     64      22.8981      0.00000
     65      22.9479      0.00000
     66      22.9504      0.00000
     67      23.1636      0.00000
     68      23.4628      0.00000
     69      23.4735      0.00000
     70      23.7189      0.00000
     71      24.1682      0.00000
     72      24.4389      0.00000
     73      24.7357      0.00000
     74      24.8386      0.00000
     75      24.9820      0.00000
     76      25.0812      0.00000
     77      25.3787      0.00000
     78      26.0594      0.00000
     79      26.1704      0.00000
     80      26.4792      0.00000
     81      27.1831      0.00000
     82      28.3827      0.00000
     83      28.7041      0.00000
     84      28.9955      0.00000
     85      29.2740      0.00000
     86      29.4702      0.00000
     87      29.6649      0.00000
     88      30.6871      0.00000
     89      31.0794      0.00000
     90      31.4436      0.00000
     91      32.2976      0.00000
     92      32.8540      0.00000
     93      33.2482      0.00000
     94      33.3863      0.00000
     95      33.3993      0.00000
     96      34.4328      0.00000

 k-point     3 :      -0.0588    0.0588    0.0000
  band No.  band energies     occupation 
      1     -22.0567      2.00000
      2     -17.4690      2.00000
      3     -17.4125      2.00000
      4     -14.1215      2.00000
      5     -12.9621      2.00000
      6     -12.8137      2.00000
      7     -10.9816      2.00000
      8     -10.2215      2.00000
      9      -5.4586      2.00000
     10      -5.4092      2.00000
     11      -3.4136      2.00000
     12      -3.3436      2.00000
     13      -0.4643      0.00000
     14      -0.2706      0.00000
     15       0.0519      0.00000
     16       1.4952      0.00000
     17       1.9885      0.00000
     18       2.5746      0.00000
     19       3.3530      0.00000
     20       3.4038      0.00000
     21       4.3946      0.00000
     22       5.1577      0.00000
     23       7.5915      0.00000
     24       7.8364      0.00000
     25       8.3049      0.00000
     26       8.6137      0.00000
     27       8.7700      0.00000
     28       8.9074      0.00000
     29       9.4283      0.00000
     30       9.6280      0.00000
     31       9.8041      0.00000
     32       9.8916      0.00000
     33       9.9229      0.00000
     34      10.2969      0.00000
     35      10.3663      0.00000
     36      10.4211      0.00000
     37      10.7325      0.00000
     38      10.7795      0.00000
     39      10.8638      0.00000
     40      11.2528      0.00000
     41      11.4127      0.00000
     42      11.5899      0.00000
     43      11.6951      0.00000
     44      11.7505      0.00000
     45      12.1190      0.00000
     46      12.2201      0.00000
     47      12.4037      0.00000
     48      12.5985      0.00000
     49      17.8196      0.00000
     50      19.0864      0.00000
     51      19.8614      0.00000
     52      20.2530      0.00000
     53      20.4234      0.00000
     54      20.7625      0.00000
     55      21.2010      0.00000
     56      21.2581      0.00000
     57      21.9661      0.00000
     58      22.0871      0.00000
     59      22.2127      0.00000
     60      22.3507      0.00000
     61      22.6008      0.00000
     62      22.6394      0.00000
     63      22.6408      0.00000
     64      23.3754      0.00000
     65      23.3788      0.00000
     66      23.4397      0.00000
     67      23.4769      0.00000
     68      23.6582      0.00000
     69      23.8870      0.00000
     70      23.9675      0.00000
     71      24.1518      0.00000
     72      24.2810      0.00000
     73      24.7409      0.00000
     74      25.0220      0.00000
     75      25.2313      0.00000
     76      25.8420      0.00000
[...]
     31       7.8077      0.00000
     32       7.8973      0.00000
     33       8.4653      0.00000
     34       8.7562      0.00000
     35       9.1680      0.00000
     36      10.2628      0.00000
     37      10.7720      0.00000
     38      11.2682      0.00000
     39      11.4457      0.00000
     40      11.5725      0.00000
     41      11.6535      0.00000
     42      11.8342      0.00000
     43      12.4762      0.00000
     44      12.7336      0.00000
     45      12.8379      0.00000
     46      13.0203      0.00000
     47      13.5665      0.00000
     48      13.8396      0.00000
     49      20.9160      0.00000
     50      21.3950      0.00000
     51      21.4584      0.00000
     52      21.7477      0.00000
     53      21.8088      0.00000
     54      22.1332      0.00000
     55      22.1413      0.00000
     56      22.1904      0.00000
     57      22.2213      0.00000
     58      23.3324      0.00000
     59      23.4144      0.00000
     60      23.4947      0.00000
     61      23.5565      0.00000
     62      23.7698      0.00000
     63      23.9995      0.00000
     64      24.2189      0.00000
     65      24.3516      0.00000
     66      24.5653      0.00000
     67      24.8096      0.00000
     68      24.8615      0.00000
     69      24.9562      0.00000
     70      24.9671      0.00000
     71      25.0002      0.00000
     72      25.0184      0.00000
     73      25.6058      0.00000
     74      25.8370      0.00000
     75      25.8855      0.00000
     76      25.9568      0.00000
     77      26.0886      0.00000
     78      26.3329      0.00000
     79      26.4591      0.00000
     80      26.6816      0.00000
     81      26.7850      0.00000
     82      26.8096      0.00000
     83      27.2608      0.00000
     84      27.4433      0.00000
     85      27.5921      0.00000
     86      28.0915      0.00000
     87      28.4482      0.00000
     88      28.5321      0.00000
     89      28.5370      0.00000
     90      28.7694      0.00000
     91      29.2607      0.00000
     92      29.2741      0.00000
     93      29.2938      0.00000
     94      29.4268      0.00000
     95      30.6270      0.00000
     96      31.0232      0.00000

 k-point    79 :      -0.2941   -0.4118    0.0000
  band No.  band energies     occupation 
      1     -21.2577      2.00000
      2     -18.9521      2.00000
      3     -18.6103      2.00000
      4     -12.9296      2.00000
      5     -12.4618      2.00000
      6     -11.2404      2.00000
      7      -8.8795      2.00000
      8      -8.5994      2.00000
      9      -8.4276      2.00000
     10      -6.7531      2.00000
     11      -6.4369      2.00000
     12      -5.9716      2.00000
     13       0.9659      0.00000
     14       2.4848      0.00000
     15       2.9963      0.00000
     16       3.5694      0.00000
     17       3.6493      0.00000
     18       4.0813      0.00000
     19       4.1278      0.00000
     20       4.5026      0.00000
     21       4.6146      0.00000
     22       4.7163      0.00000
     23       4.8820      0.00000
     24       5.3443      0.00000
     25       5.4229      0.00000
     26       5.6641      0.00000
     27       5.8736      0.00000
     28       6.5641      0.00000
     29       6.8535      0.00000
     30       7.6215      0.00000
     31       7.8077      0.00000
     32       7.8973      0.00000
     33       8.4652      0.00000
     34       8.7562      0.00000
     35       9.1681      0.00000
     36      10.2628      0.00000
     37      10.7720      0.00000
     38      11.2684      0.00000
     39      11.4455      0.00000
     40      11.5718      0.00000
     41      11.6539      0.00000
     42      11.8341      0.00000
     43      12.4585      0.00000
     44      12.6873      0.00000
     45      12.7345      0.00000
     46      12.9475      0.00000
     47      13.2429      0.00000
     48      13.7953      0.00000
     49      20.6553      0.00000
     50      21.3952      0.00000
     51      21.4339      0.00000
     52      22.1059      0.00000
     53      22.1741      0.00000
     54      22.4033      0.00000
     55      22.4981      0.00000
     56      22.5480      0.00000
     57      22.5509      0.00000
     58      22.8690      0.00000
     59      23.0088      0.00000
     60      24.0881      0.00000
     61      24.1809      0.00000
     62      24.2359      0.00000
     63      24.2646      0.00000
     64      24.3090      0.00000
     65      24.3542      0.00000
     66      24.5255      0.00000
     67      24.6352      0.00000
     68      24.9033      0.00000
     69      25.0003      0.00000
     70      25.0053      0.00000
     71      25.1136      0.00000
     72      25.1205      0.00000
     73      25.1309      0.00000
     74      25.3435      0.00000
     75      25.7575      0.00000
     76      25.9760      0.00000
     77      26.2053      0.00000
     78      26.4437      0.00000
     79      26.4961      0.00000
     80      26.6288      0.00000
     81      26.8213      0.00000
     82      26.9194      0.00000
     83      27.2125      0.00000
     84      27.3316      0.00000
     85      27.4387      0.00000
     86      27.7865      0.00000
     87      27.8192      0.00000
     88      27.8319      0.00000
     89      27.9804      0.00000
     90      28.6388      0.00000
     91      28.9358      0.00000
     92      29.3976      0.00000
     93      30.1169      0.00000
     94      30.4485      0.00000
     95      30.6525      0.00000
     96      31.6627      0.00000

 k-point    80 :       0.3529    0.2941    0.0000
  band No.  band energies     occupation 
      1     -21.2344      2.00000
      2     -18.9158      2.00000
      3     -18.7102      2.00000
      4     -12.8125      2.00000
      5     -12.4015      2.00000
      6     -11.3840      2.00000
      7      -8.7773      2.00000
      8      -8.5712      2.00000
      9      -8.5176      2.00000
     10      -6.6972      2.00000
     11      -6.4266      2.00000
     12      -6.1185      2.00000
     13       1.0684      0.00000
     14       2.7578      0.00000
     15       3.2208      0.00000
     16       3.2907      0.00000
     17       3.7922      0.00000
     18       3.7928      0.00000
     19       4.0545      0.00000
     20       4.5700      0.00000
     21       4.5839      0.00000
     22       4.7905      0.00000
     23       4.9353      0.00000
     24       5.1536      0.00000
     25       5.3352      0.00000
     26       5.3630      0.00000
     27       5.7573      0.00000
     28       6.6411      0.00000
     29       7.2832      0.00000
     30       7.2889      0.00000
     31       7.7660      0.00000
     32       7.9641      0.00000
     33       8.2320      0.00000
     34       8.7088      0.00000
     35       9.5853      0.00000
     36      10.1319      0.00000
     37      11.1248      0.00000
     38      11.1718      0.00000
     39      11.3285      0.00000
     40      11.6237      0.00000
     41      11.7957      0.00000
     42      11.8737      0.00000
     43      12.3622      0.00000
     44      12.6691      0.00000
     45      12.6974      0.00000
     46      12.9589      0.00000
     47      13.6475      0.00000
     48      14.0445      0.00000
     49      20.3718      0.00000
     50      21.2875      0.00000
     51      21.3492      0.00000
     52      21.9605      0.00000
     53      21.9842      0.00000
     54      22.3962      0.00000
     55      22.6510      0.00000
     56      22.8407      0.00000
     57      23.0187      0.00000
     58      23.0982      0.00000
     59      23.1562      0.00000
     60      23.3362      0.00000
     61      23.6590      0.00000
     62      23.8291      0.00000
     63      24.0589      0.00000
     64      24.1009      0.00000
     65      24.3476      0.00000
     66      24.7492      0.00000
     67      24.7755      0.00000
     68      24.8369      0.00000
     69      24.8443      0.00000
     70      24.9510      0.00000
     71      25.0143      0.00000
     72      25.1021      0.00000
     73      25.1889      0.00000
     74      25.2974      0.00000
     75      25.5614      0.00000
     76      25.8584      0.00000
     77      26.2435      0.00000
     78      26.3244      0.00000
     79      26.4680      0.00000
     80      26.4927      0.00000
     81      26.8968      0.00000
     82      26.9343      0.00000
     83      26.9640      0.00000
     84      27.2713      0.00000
     85      27.5960      0.00000
     86      27.7736      0.00000
     87      27.9477      0.00000
     88      28.1356      0.00000
     89      28.1814      0.00000
     90      28.4155      0.00000
     91      28.5829      0.00000
     92      29.5492      0.00000
     93      30.2849      0.00000
     94      30.8100      0.00000
     95      31.9290      0.00000
     96      32.0566      0.00000

 k-point    81 :       0.3529    0.3529    0.0000
  band No.  band energies     occupation 
      1     -21.2344      2.00000
      2     -18.9159      2.00000
      3     -18.7101      2.00000
      4     -12.8125      2.00000
      5     -12.4015      2.00000
      6     -11.3840      2.00000
      7      -8.7775      2.00000
      8      -8.5710      2.00000
      9      -8.5177      2.00000
     10      -6.6972      2.00000
     11      -6.4266      2.00000
     12      -6.1185      2.00000
     13       1.0684      0.00000
     14       2.7580      0.00000
     15       3.2207      0.00000
     16       3.2906      0.00000
     17       3.7922      0.00000
     18       3.7928      0.00000
     19       4.0545      0.00000
     20       4.5700      0.00000
     21       4.5838      0.00000
     22       4.7905      0.00000
     23       4.9353      0.00000
     24       5.1536      0.00000
     25       5.3352      0.00000
     26       5.3630      0.00000
     27       5.7572      0.00000
     28       6.6411      0.00000
     29       7.2833      0.00000
     30       7.2889      0.00000
     31       7.7659      0.00000
     32       7.9641      0.00000
     33       8.2319      0.00000
     34       8.7089      0.00000
     35       9.5852      0.00000
     36      10.1320      0.00000
     37      11.1248      0.00000
     38      11.1718      0.00000
     39      11.3285      0.00000
     40      11.6236      0.00000
     41      11.7953      0.00000
     42      11.8737      0.00000
     43      12.3625      0.00000
     44      12.6670      0.00000
     45      12.7412      0.00000
     46      13.0291      0.00000
     47      13.2990      0.00000
     48      13.7607      0.00000
     49      19.2923      0.00000
     50      21.1168      0.00000
     51      21.1840      0.00000
     52      21.8278      0.00000
     53      22.1233      0.00000
     54      22.4183      0.00000
     55      22.4519      0.00000
     56      23.2045      0.00000
     57      23.2586      0.00000
     58      23.2710      0.00000
     59      23.3061      0.00000
     60      23.3425      0.00000
     61      23.5128      0.00000
     62      23.5570      0.00000
     63      23.5612      0.00000
     64      23.8284      0.00000
     65      24.3321      0.00000
     66      24.6296      0.00000
     67      25.0983      0.00000
     68      25.2623      0.00000
     69      25.2774      0.00000
     70      25.3188      0.00000
     71      25.4126      0.00000
     72      25.4664      0.00000
     73      25.6349      0.00000
     74      25.8087      0.00000
     75      26.0263      0.00000
     76      26.1868      0.00000
     77      26.2917      0.00000
     78      26.3060      0.00000
     79      26.3483      0.00000
     80      26.4077      0.00000
     81      26.4902      0.00000
     82      26.7099      0.00000
     83      26.9972      0.00000
     84      27.2263      0.00000
     85      27.5052      0.00000
     86      27.5166      0.00000
     87      27.7321      0.00000
     88      28.2909      0.00000
     89      28.7432      0.00000
     90      28.7931      0.00000
     91      28.8856      0.00000
     92      29.8163      0.00000
     93      29.9766      0.00000
     94      30.2979      0.00000
     95      30.3947      0.00000
     96      32.3253      0.00000


--------------------------------------------------------------------------------------------------------


 soft charge-density along one line, spin component           1
         0         1         2         3         4         5         6         7         8         9
 total charge-density along one line
 
 pseudopotential strength for first ion, spin component:           1
  6.681  10.198  -0.000  -0.005   0.000  -0.000  -0.008   0.000
 10.198  15.562  -0.000  -0.008   0.000  -0.000  -0.012   0.000
 -0.000  -0.000  -2.352   0.000   0.000  -4.034   0.000   0.000
 -0.005  -0.008   0.000  -2.351   0.000   0.000  -4.028   0.000
  0.000   0.000   0.000   0.000  -2.352   0.000   0.000  -4.034
 -0.000  -0.000  -4.034   0.000   0.000  -6.717   0.000   0.000
 -0.008  -0.012   0.000  -4.028   0.000   0.000  -6.704   0.000
  0.000   0.000   0.000   0.000  -4.034   0.000   0.000  -6.717
 total augmentation occupancy for first ion, spin component:           1
  4.310  -1.334  -0.000  -0.673   0.000   0.000   0.278  -0.000
 -1.334   0.435   0.000   0.307  -0.000  -0.000  -0.112   0.000
 -0.000   0.000   4.816  -0.000  -0.000  -1.481   0.000   0.000
 -0.673   0.307  -0.000   2.073   0.000   0.000  -0.526  -0.000
  0.000  -0.000  -0.000   0.000   4.816   0.000  -0.000  -1.481
  0.000  -0.000  -1.481   0.000   0.000   0.466  -0.000  -0.000
  0.278  -0.112   0.000  -0.526  -0.000  -0.000   0.138   0.000
 -0.000   0.000   0.000  -0.000  -1.481  -0.000   0.000   0.466


------------------------ aborting loop because EDIFF is reached ----------------------------------------





 total charge

# of ion       s       p       d       tot
------------------------------------------
    1        0.694   1.408   0.000   2.102
    2        0.714   1.338   0.000   2.051
    3        0.712   1.335   0.000   2.047
    4        0.716   1.340   0.000   2.056
    5        0.852   1.780   0.000   2.632
    6        0.850   1.781   0.000   2.632
    7        0.848   1.783   0.000   2.631
--------------------------------------------------
tot          5.386  10.765   0.000  16.150
 
    FORLOC:  cpu time      0.0007: real time      0.0007
    FORHF :  cpu time    519.0935: real time    521.4570
    FORNL :  cpu time      0.1533: real time      0.1535
    FORCOR:  cpu time      0.0506: real time      0.0509
    OFIELD:  cpu time      0.0001: real time      0.0001

 VOLUME and BASIS-vectors are now :
 -----------------------------------------------------------------------------
  energy-cutoff  :      450.00
  volume of cell :      285.74
      direct lattice vectors                 reciprocal lattice vectors
     4.061659000  2.345000000  0.000000000     0.123102407  0.213219616  0.000000000
    -4.061659000  2.345000000  0.000000000    -0.123102407  0.213219616  0.000000000
     0.000000000  0.000000000 15.000000000     0.000000000  0.000000000  0.066666667

  length of vectors
     4.689999876  4.689999876 15.000000000     0.246204808  0.246204808  0.066666667


 FORCES acting on ions:
    Electron-Ion                     Ewald-Force                    Non-Local-Force
 -----------------------------------------------------------------------------------------------
   0.708E-03 -.316E-02 -.915E+02   -.146E-02 0.384E-02 0.932E+02   0.199E-02 -.344E-02 -.172E+01
   -.207E+02 -.120E+02 0.200E+02   0.236E+02 0.136E+02 -.204E+02   -.270E+01 -.163E+01 0.394E+00
   0.207E+02 -.120E+02 0.200E+02   -.236E+02 0.136E+02 -.204E+02   0.275E+01 -.162E+01 0.401E+00
   0.214E-03 0.240E+02 0.199E+02   0.516E-03 -.272E+02 -.204E+02   0.303E-01 0.313E+01 0.388E+00
   0.881E-03 -.375E+02 0.865E+01   0.107E-03 0.439E+02 -.107E+02   -.151E-01 -.625E+01 0.196E+01
   0.325E+02 0.187E+02 0.859E+01   -.380E+02 -.220E+02 -.107E+02   0.545E+01 0.318E+01 0.202E+01
   -.325E+02 0.187E+02 0.858E+01   0.380E+02 -.220E+02 -.107E+02   -.551E+01 0.320E+01 0.208E+01
 -----------------------------------------------------------------------------------------------
   0.331E-02 -.226E-02 -.583E+01   -.142E-13 0.249E-13 -.178E-14   -.239E-02 0.414E-02 0.554E+01
 
 
 POSITION                                       TOTAL-FORCE (eV/Angst)
 -----------------------------------------------------------------------------------
      0.00574      0.01631      1.80398         0.001323     -0.002292     -0.037672
      1.43853      0.84358      1.46255        -0.013322     -0.056878     -0.031420
     -1.42708      0.84356      1.46254         0.042775     -0.049561     -0.026846
      0.00570      3.05185      1.46258         0.021533      0.018127     -0.035994
      0.00571      1.53549      1.50424        -0.009766     -0.201020      0.005425
      2.75172      1.60175      1.50438         0.201572      0.139406      0.043977
     -2.74028      1.60174      1.50441        -0.244116      0.152217      0.082530
 -----------------------------------------------------------------------------------
    total drift:                               -0.000710      0.004706      0.015172


--------------------------------------------------------------------------------------------------------



  FREE ENERGIE OF THE ION-ELECTRON SYSTEM (eV)
  ---------------------------------------------------
  free  energy   TOTEN  =       -59.17212708 eV

  energy  without entropy=      -59.17212708  energy(sigma->0) =      -59.17212708
 


--------------------------------------------------------------------------------------------------------


    POTLOK:  cpu time      0.0522: real time      0.0524


--------------------------------------------------------------------------------------------------------


 stress matrix after NEB project (eV)
      0.00000      0.00000      0.00000
      0.00000      0.00000      0.00000
      0.00000      0.00000      0.00000
  FORCES: max atom, RMS     0.299289    0.171142
  FORCE total and by dimension    0.452800    0.244116
  Stress total and by dimension    0.000000    0.000000
 writing wavefunctions
     LOOP+:  cpu time  15723.2021: real time  15805.0041
    4ORBIT:  cpu time      0.0000: real time      0.0000



 total charge

# of ion       s       p       d       tot
------------------------------------------
    1        0.694   1.408   0.000   2.102
    2        0.714   1.338   0.000   2.051
    3        0.712   1.335   0.000   2.047
    4        0.716   1.340   0.000   2.056
    5        0.852   1.780   0.000   2.632
    6        0.850   1.781   0.000   2.632
    7        0.848   1.783   0.000   2.631
--------------------------------------------------
tot          5.386  10.765   0.000  16.150
 

 total amount of memory used by VASP MPI-rank0   268430. kBytes
=======================================================================

   base      :      30000. kBytes
   nonl-proj :      65395. kBytes
   fftplans  :        917. kBytes
   grid      :       5219. kBytes
   one-center:         21. kBytes
   HF        :          9. kBytes
   nonlr-proj:        809. kBytes
   wavefun   :      24633. kBytes
   fock_wrk  :     141427. kBytes
 
  
  
 General timing and accounting informations for this job:
 ========================================================
  
                  Total CPU time used (sec):    15738.363
                            User time (sec):    15705.387
                          System time (sec):       32.976
                         Elapsed time (sec):    15824.181
  
                   Maximum memory used (kb):      908468.
                   Average memory used (kb):          N/A
  
                          Minor page faults:     21134419
                          Major page faults:         1768
                 Voluntary context switches:        11189
