    7    7  256    1
  0.4081967E+02  0.4690000E-09  0.4690000E-09  0.1500000E-08  0.5000000E-15
  1.000000000000000E-004
  CAR 
 Lattice                                 
     24    145     48
 
  0.0000000E+00  0.0000000E+00  0.0000000E+00  0.3460208E-02
      1        -19.736797   1.000000
      2        -15.493928   1.000000
      3        -15.493868   1.000000
      4        -12.605866   1.000000
      5        -11.307009   1.000000
      6        -11.306966   1.000000
      7         -9.859410   1.000000
      8         -9.092697   1.000000
      9         -4.576304   1.000000
     10         -4.575991   1.000000
     11         -2.856009   1.000000
     12         -2.855873   1.000000
     13         -0.739457   0.000000
     14         -0.739422   0.000000
     15         -0.590953   0.000000
     16          1.240658   0.000000
     17          1.812423   0.000000
     18          2.448014   0.000000
     19          2.679196   0.000000
     20          2.679246   0.000000
     21          4.223084   0.000000
     22          4.973472   0.000000
     23          7.140666   0.000000
     24          7.223247   0.000000
     25          7.703494   0.000000
     26          8.261878   0.000000
     27          8.262006   0.000000
     28          8.294829   0.000000
     29          8.940924   0.000000
     30          9.245568   0.000000
     31          9.245611   0.000000
     32          9.422613   0.000000
     33          9.471199   0.000000
     34         10.409774   0.000000
     35         10.594711   0.000000
     36         10.594741   0.000000
     37         10.708977   0.000000
     38         10.709001   0.000000
     39         10.885101   0.000000
     40         10.899050   0.000000
     41         10.899070   0.000000
     42         11.055535   0.000000
     43         11.055569   0.000000
     44         11.232981   0.000000
     45         11.562792   0.000000
     46         11.572452   0.000000
     47         11.572513   0.000000
     48         11.602927   0.000000
 
  0.5882353E-01  0.3618065E-17  0.0000000E+00  0.6920415E-02
      1        -19.721453   1.000000
      2        -15.559195   1.000000
      3        -15.508198   1.000000
      4        -12.541800   1.000000
      5        -11.406119   1.000000
      6        -11.264114   1.000000
      7         -9.700138   1.000000
      8         -9.067073   1.000000
      9         -4.688935   1.000000
     10         -4.645112   1.000000
     11         -2.998093   1.000000
     12         -2.929103   1.000000
     13         -0.834962   0.000000
     14         -0.659023   0.000000
     15         -0.343097   0.000000
     16          1.292090   0.000000
     17          1.843976   0.000000
     18          2.478647   0.000000
     19          2.742976   0.000000
     20          2.787014   0.000000
     21          4.252961   0.000000
     22          5.007371   0.000000
     23          7.158898   0.000000
     24          7.193450   0.000000
     25          7.664192   0.000000
     26          8.044582   0.000000
     27          8.130479   0.000000
     28          8.336078   0.000000
     29          8.902542   0.000000
     30          9.044424   0.000000
     31          9.055556   0.000000
     32          9.267255   0.000000
     33          9.426537   0.000000
     34          9.929081   0.000000
     35         10.227450   0.000000
     36         10.246366   0.000000
     37         10.542902   0.000000
     38         10.591738   0.000000
     39         10.665266   0.000000
     40         10.926749   0.000000
     41         11.055639   0.000000
     42         11.237418   0.000000
     43         11.310227   0.000000
     44         11.506012   0.000000
     45         11.615089   0.000000
     46         11.863715   0.000000
     47         11.952571   0.000000
     48         12.035194   0.000000
 
  0.3618065E-17  0.5882353E-01  0.0000000E+00  0.6920415E-02
      1        -19.721453   1.000000
      2        -15.559200   1.000000
      3        -15.508192   1.000000
      4        -12.541801   1.000000
      5        -11.406153   1.000000
      6        -11.264076   1.000000
      7         -9.700141   1.000000
      8         -9.067073   1.000000
      9         -4.689043   1.000000
     10         -4.645003   1.000000
     11         -2.998063   1.000000
     12         -2.929132   1.000000
     13         -0.834962   0.000000
     14         -0.659055   0.000000
     15         -0.343066   0.000000
     16          1.292092   0.000000
     17          1.843976   0.000000
     18          2.478648   0.000000
     19          2.742997   0.000000
     20          2.786989   0.000000
     21          4.252961   0.000000
     22          5.007371   0.000000
     23          7.158903   0.000000
     24          7.193449   0.000000
     25          7.664199   0.000000
     26          8.044614   0.000000
     27          8.130431   0.000000
     28          8.336087   0.000000
     29          8.902544   0.000000
     30          9.044456   0.000000
     31          9.055516   0.000000
     32          9.267264   0.000000
     33          9.426533   0.000000
     34          9.929080   0.000000
     35         10.227459   0.000000
     36         10.246370   0.000000
     37         10.542885   0.000000
     38         10.591741   0.000000
     39         10.665247   0.000000
     40         10.926702   0.000000
     41         11.055664   0.000000
     42         11.237475   0.000000
     43         11.310220   0.000000
     44         11.506012   0.000000
     45         11.615070   0.000000
     46         11.863734   0.000000
     47         11.952571   0.000000
     48         12.035193   0.000000
 
 -0.5882353E-01  0.5882353E-01  0.0000000E+00  0.6920415E-02
      1        -19.721453   1.000000
      2        -15.559241   1.000000
      3        -15.508151   1.000000
      4        -12.541800   1.000000
      5        -11.406137   1.000000
      6        -11.264097   1.000000
      7         -9.700138   1.000000
      8         -9.067073   1.000000
      9         -4.689200   1.000000
     10         -4.644847   1.000000
     11         -2.997966   1.000000
     12         -2.929230   1.000000
     13         -0.835018   0.000000
     14         -0.659056   0.000000
     15         -0.343001   0.000000
     16          1.292093   0.000000
     17          1.843975   0.000000
     18          2.478647   0.000000
     19          2.743009   0.000000
     20          2.786972   0.000000
     21          4.252960   0.000000
     22          5.007372   0.000000
     23          7.158886   0.000000
     24          7.193447   0.000000
     25          7.664192   0.000000
     26          8.044683   0.000000
     27          8.130394   0.000000
     28          8.336094   0.000000
     29          8.902562   0.000000
     30          9.044556   0.000000
     31          9.055381   0.000000
     32          9.267256   0.000000
     33          9.426535   0.000000
     34          9.929079   0.000000
     35         10.227469   0.000000
     36         10.246372   0.000000
     37         10.542845   0.000000
     38         10.591769   0.000000
     39         10.665258   0.000000
     40         10.926643   0.000000
     41         11.055696   0.000000
     42         11.237518   0.000000
     43         11.310208   0.000000
     44         11.506016   0.000000
     45         11.615066   0.000000
     46         11.863696   0.000000
     47         11.952582   0.000000
     48         12.035223   0.000000
 
  0.1176471E+00 -0.1412375E-17  0.0000000E+00  0.6920415E-02
      1        -19.676096   1.000000
      2        -15.736596   1.000000
      3        -15.548063   1.000000
      4        -12.384009   1.000000
      5        -11.593718   1.000000
      6        -11.139415   1.000000
      7         -9.319519   1.000000
      8         -8.990574   1.000000
      9         -4.999516   1.000000
     10         -4.839580   1.000000
     11         -3.368254   1.000000
     12         -3.106860   1.000000
     13         -0.902567   0.000000
     14         -0.395009   0.000000
     15          0.049863   0.000000
     16          1.450321   0.000000
     17          1.939056   0.000000
     18          2.574198   0.000000
     19          2.918373   0.000000
     20          3.085251   0.000000
     21          4.342222   0.000000
     22          5.109471   0.000000
     23          6.915797   0.000000
     24          7.319364   0.000000
     25          7.405669   0.000000
     26          7.587198   0.000000
     27          7.866014   0.000000
     28          8.436526   0.000000
     29          8.618865   0.000000
     30          8.702275   0.000000
     31          8.825390   0.000000
     32          8.923855   0.000000
     33          8.962004   0.000000
     34          9.406375   0.000000
     35          9.677477   0.000000
     36          9.819958   0.000000
     37         10.263888   0.000000
     38         10.294633   0.000000
     39         10.392910   0.000000
     40         11.092916   0.000000
     41         11.261240   0.000000
     42         11.375191   0.000000
     43         11.510973   0.000000
     44         11.698698   0.000000
     45         11.936481   0.000000
     46         12.026453   0.000000
     47         12.120315   0.000000
     48         12.250703   0.000000
 
 -0.1412375E-17  0.1176471E+00  0.0000000E+00  0.6920415E-02
      1        -19.676096   1.000000
      2        -15.736601   1.000000
      3        -15.548056   1.000000
      4        -12.384016   1.000000
      5        -11.593744   1.000000
      6        -11.139375   1.000000
      7         -9.319526   1.000000
      8         -8.990574   1.000000
      9         -4.999617   1.000000
     10         -4.839477   1.000000
     11         -3.368219   1.000000
     12         -3.106895   1.000000
     13         -0.902573   0.000000
     14         -0.395056   0.000000
     15          0.049914   0.000000
     16          1.450328   0.000000
     17          1.939056   0.000000
     18          2.574199   0.000000
     19          2.918392   0.000000
     20          3.085219   0.000000
     21          4.342222   0.000000
     22          5.109473   0.000000
     23          6.915818   0.000000
     24          7.319352   0.000000
     25          7.405686   0.000000
     26          7.587276   0.000000
     27          7.865920   0.000000
     28          8.436504   0.000000
     29          8.618907   0.000000
     30          8.702280   0.000000
     31          8.825361   0.000000
     32          8.923866   0.000000
     33          8.961972   0.000000
     34          9.406379   0.000000
     35          9.677487   0.000000
     36          9.819961   0.000000
     37         10.263885   0.000000
     38         10.294633   0.000000
     39         10.392905   0.000000
     40         11.092887   0.000000
     41         11.261231   0.000000
     42         11.375189   0.000000
     43         11.510969   0.000000
     44         11.698744   0.000000
     45         11.936482   0.000000
     46         12.026472   0.000000
     47         12.120279   0.000000
     48         12.250693   0.000000
 
 -0.1176471E+00  0.1176471E+00  0.0000000E+00  0.6920415E-02
      1        -19.676096   1.000000
      2        -15.736640   1.000000
      3        -15.548016   1.000000
      4        -12.384006   1.000000
      5        -11.593744   1.000000
      6        -11.139392   1.000000
      7         -9.319515   1.000000
      8         -8.990577   1.000000
      9         -4.999770   1.000000
     10         -4.839326   1.000000
     11         -3.368119   1.000000
     12         -3.107006   1.000000
     13         -0.902621   0.000000
     14         -0.395105   0.000000
     15          0.050043   0.000000
     16          1.450337   0.000000
     17          1.939055   0.000000
     18          2.574199   0.000000
     19          2.918386   0.000000
     20          3.085205   0.000000
     21          4.342220   0.000000
     22          5.109478   0.000000
     23          6.915757   0.000000
     24          7.319285   0.000000
     25          7.405624   0.000000
     26          7.587564   0.000000
     27          7.865854   0.000000
     28          8.436495   0.000000
     29          8.618935   0.000000
     30          8.702276   0.000000
     31          8.825186   0.000000
     32          8.923930   0.000000
     33          8.961993   0.000000
     34          9.406387   0.000000
     35          9.677522   0.000000
     36          9.819975   0.000000
     37         10.263900   0.000000
     38         10.294584   0.000000
     39         10.392923   0.000000
     40         11.092846   0.000000
     41         11.261267   0.000000
     42         11.375170   0.000000
     43         11.510945   0.000000
     44         11.698753   0.000000
     45         11.936493   0.000000
     46         12.026454   0.000000
     47         12.120294   0.000000
     48         12.250682   0.000000
 
  0.1764706E+00 -0.4893646E-17  0.0000000E+00  0.6920415E-02
      1        -19.602844   1.000000
      2        -15.986222   1.000000
      3        -15.605717   1.000000
      4        -12.268772   1.000000
      5        -11.660160   1.000000
      6        -10.943593   1.000000
      7         -8.869113   1.000000
      8         -8.836294   1.000000
      9         -5.448307   1.000000
     10         -5.128349   1.000000
     11         -3.858309   1.000000
     12         -3.323581   1.000000
     13         -0.961215   0.000000
     14          0.025643   0.000000
     15          0.448226   0.000000
     16          1.716267   0.000000
     17          2.099307   0.000000
     18          2.739380   0.000000
     19          3.169958   0.000000
     20          3.511546   0.000000
     21          4.489389   0.000000
     22          5.279875   0.000000
     23          6.426275   0.000000
     24          6.685663   0.000000
     25          7.299533   0.000000
     26          7.367758   0.000000
     27          7.580999   0.000000
     28          8.164151   0.000000
     29          8.259245   0.000000
     30          8.345500   0.000000
     31          8.470482   0.000000
     32          8.643138   0.000000
     33          8.758503   0.000000
     34          8.891236   0.000000
     35          9.458109   0.000000
     36          9.635025   0.000000
     37          9.953523   0.000000
     38         10.056727   0.000000
     39         10.101197   0.000000
     40         10.605849   0.000000
     41         10.832564   0.000000
     42         11.559672   0.000000
     43         11.680493   0.000000
     44         11.802514   0.000000
     45         11.897117   0.000000
     46         12.128841   0.000000
     47         12.379182   0.000000
     48         12.596727   0.000000
 
 -0.4893646E-17  0.1764706E+00  0.0000000E+00  0.6920415E-02
      1        -19.602844   1.000000
      2        -15.986226   1.000000
      3        -15.605710   1.000000
      4        -12.268793   1.000000
      5        -11.660171   1.000000
      6        -10.943551   1.000000
      7         -8.869104   1.000000
      8         -8.836314   1.000000
      9         -5.448398   1.000000
     10         -5.128258   1.000000
     11         -3.858274   1.000000
     12         -3.323620   1.000000
     13         -0.961220   0.000000
     14          0.025581   0.000000
     15          0.448291   0.000000
     16          1.716283   0.000000
     17          2.099308   0.000000
     18          2.739383   0.000000
     19          3.169973   0.000000
     20          3.511507   0.000000
     21          4.489388   0.000000
     22          5.279880   0.000000
     23          6.426314   0.000000
     24          6.685690   0.000000
     25          7.299561   0.000000
     26          7.367795   0.000000
     27          7.580881   0.000000
     28          8.164154   0.000000
     29          8.259221   0.000000
     30          8.345524   0.000000
     31          8.470453   0.000000
     32          8.643159   0.000000
     33          8.758458   0.000000
     34          8.891262   0.000000
     35          9.458103   0.000000
     36          9.635033   0.000000
     37          9.953517   0.000000
     38         10.056736   0.000000
     39         10.101191   0.000000
     40         10.605854   0.000000
     41         10.832584   0.000000
     42         11.559630   0.000000
     43         11.680489   0.000000
     44         11.802514   0.000000
     45         11.897114   0.000000
     46         12.128840   0.000000
     47         12.379175   0.000000
     48         12.596728   0.000000
 
 -0.1764706E+00  0.1764706E+00  0.0000000E+00  0.6920415E-02
      1        -19.602843   1.000000
      2        -15.986263   1.000000
      3        -15.605671   1.000000
      4        -12.268757   1.000000
      5        -11.660205   1.000000
      6        -10.943562   1.000000
      7         -8.869053   1.000000
      8         -8.836351   1.000000
      9         -5.448544   1.000000
     10         -5.128118   1.000000
     11         -3.858187   1.000000
     12         -3.323733   1.000000
     13         -0.961252   0.000000
     14          0.025490   0.000000
     15          0.448470   0.000000
     16          1.716312   0.000000
     17          2.099306   0.000000
     18          2.739387   0.000000
     19          3.169954   0.000000
     20          3.511486   0.000000
     21          4.489383   0.000000
     22          5.279895   0.000000
     23          6.426233   0.000000
     24          6.685653   0.000000
     25          7.299683   0.000000
     26          7.367906   0.000000
     27          7.580800   0.000000
     28          8.164106   0.000000
     29          8.259152   0.000000
     30          8.345620   0.000000
     31          8.470382   0.000000
     32          8.643171   0.000000
     33          8.758354   0.000000
     34          8.891386   0.000000
     35          9.458103   0.000000
     36          9.635067   0.000000
     37          9.953494   0.000000
     38         10.056756   0.000000
     39         10.101150   0.000000
     40         10.605871   0.000000
     41         10.832611   0.000000
     42         11.559551   0.000000
     43         11.680511   0.000000
     44         11.802515   0.000000
     45         11.897106   0.000000
     46         12.128854   0.000000
     47         12.379148   0.000000
     48         12.596717   0.000000
 
  0.2352941E+00 -0.2824750E-17  0.0000000E+00  0.6920415E-02
      1        -19.505855   1.000000
      2        -16.269125   1.000000
      3        -15.671300   1.000000
      4        -12.346686   1.000000
      5        -11.444361   1.000000
      6        -10.691472   1.000000
      7         -8.694068   1.000000
      8         -8.332008   1.000000
      9         -5.978579   1.000000
     10         -5.469828   1.000000
     11         -4.390571   1.000000
     12         -3.536943   1.000000
     13         -1.023628   0.000000
     14          0.540197   0.000000
     15          0.825784   0.000000
     16          2.061226   0.000000
     17          2.328329   0.000000
     18          2.974401   0.000000
     19          3.452538   0.000000
     20          3.991701   0.000000
     21          4.689632   0.000000
     22          5.499469   0.000000
     23          5.785475   0.000000
     24          5.943344   0.000000
     25          6.873671   0.000000
     26          6.969524   0.000000
     27          7.274993   0.000000
     28          7.570932   0.000000
     29          7.862720   0.000000
     30          8.125048   0.000000
     31          8.203815   0.000000
     32          8.428132   0.000000
     33          8.889531   0.000000
     34          8.975003   0.000000
     35          9.160311   0.000000
     36          9.319723   0.000000
     37          9.671059   0.000000
     38          9.753778   0.000000
     39         10.081303   0.000000
     40         10.166762   0.000000
     41         10.250348   0.000000
     42         11.571112   0.000000
     43         11.631184   0.000000
     44         11.827738   0.000000
     45         11.942263   0.000000
     46         12.310990   0.000000
     47         12.469386   0.000000
     48         13.020976   0.000000
 
 -0.2824750E-17  0.2352941E+00  0.0000000E+00  0.6920415E-02
      1        -19.505855   1.000000
      2        -16.269128   1.000000
      3        -15.671291   1.000000
      4        -12.346716   1.000000
      5        -11.444364   1.000000
      6        -10.691427   1.000000
      7         -8.694067   1.000000
      8         -8.332022   1.000000
      9         -5.978659   1.000000
     10         -5.469751   1.000000
     11         -4.390538   1.000000
     12         -3.536982   1.000000
     13         -1.023631   0.000000
     14          0.540112   0.000000
     15          0.825868   0.000000
     16          2.061250   0.000000
     17          2.328332   0.000000
     18          2.974405   0.000000
     19          3.452549   0.000000
     20          3.991656   0.000000
     21          4.689631   0.000000
     22          5.499495   0.000000
     23          5.785527   0.000000
     24          5.943350   0.000000
     25          6.873658   0.000000
     26          6.969560   0.000000
     27          7.274906   0.000000
     28          7.570933   0.000000
     29          7.862735   0.000000
     30          8.125030   0.000000
     31          8.203811   0.000000
     32          8.428104   0.000000
     33          8.889541   0.000000
     34          8.975007   0.000000
     35          9.160307   0.000000
     36          9.319712   0.000000
     37          9.671049   0.000000
     38          9.753793   0.000000
     39         10.081318   0.000000
     40         10.166750   0.000000
     41         10.250368   0.000000
     42         11.571119   0.000000
     43         11.631180   0.000000
     44         11.827705   0.000000
     45         11.942230   0.000000
     46         12.310937   0.000000
     47         12.469471   0.000000
     48         13.020955   0.000000
 
 -0.2352941E+00  0.2352941E+00  0.0000000E+00  0.6920415E-02
      1        -19.505854   1.000000
      2        -16.269164   1.000000
      3        -15.671255   1.000000
      4        -12.346673   1.000000
      5        -11.444414   1.000000
      6        -10.691431   1.000000
      7         -8.694059   1.000000
      8         -8.332008   1.000000
      9         -5.978794   1.000000
     10         -5.469630   1.000000
     11         -4.390470   1.000000
     12         -3.537091   1.000000
     13         -1.023650   0.000000
     14          0.539956   0.000000
     15          0.826111   0.000000
     16          2.061305   0.000000
     17          2.328333   0.000000
     18          2.974418   0.000000
     19          3.452529   0.000000
     20          3.991620   0.000000
     21          4.689619   0.000000
     22          5.499539   0.000000
     23          5.785452   0.000000
     24          5.943325   0.000000
     25          6.873660   0.000000
     26          6.969669   0.000000
     27          7.274875   0.000000
     28          7.570934   0.000000
     29          7.862757   0.000000
     30          8.124955   0.000000
     31          8.203791   0.000000
     32          8.428136   0.000000
     33          8.889551   0.000000
     34          8.975005   0.000000
     35          9.160318   0.000000
     36          9.319700   0.000000
     37          9.671024   0.000000
     38          9.753817   0.000000
     39         10.081322   0.000000
     40         10.166680   0.000000
     41         10.250473   0.000000
     42         11.571151   0.000000
     43         11.631130   0.000000
     44         11.827663   0.000000
     45         11.942210   0.000000
     46         12.310834   0.000000
     47         12.469613   0.000000
     48         13.020941   0.000000
 
  0.2941176E+00  0.2838845E-16  0.0000000E+00  0.6920415E-02
      1        -19.392339   1.000000
      2        -16.553382   1.000000
      3        -15.735267   1.000000
      4        -12.491692   1.000000
      5        -11.086786   1.000000
      6        -10.399309   1.000000
      7         -8.483087   1.000000
      8         -7.850318   1.000000
      9         -6.545408   1.000000
     10         -5.815310   1.000000
     11         -4.920180   1.000000
     12         -3.723203   1.000000
     13         -1.086129   0.000000
     14          1.047909   0.000000
     15          1.260437   0.000000
     16          2.429851   0.000000
     17          2.625637   0.000000
     18          3.268428   0.000000
     19          3.702777   0.000000
     20          4.447905   0.000000
     21          4.922881   0.000000
     22          5.065529   0.000000
     23          5.305359   0.000000
     24          5.832544   0.000000
     25          6.242893   0.000000
     26          6.454440   0.000000
     27          6.839109   0.000000
     28          6.936730   0.000000
     29          7.648985   0.000000
     30          7.887142   0.000000
     31          8.117990   0.000000
     32          8.240989   0.000000
     33          8.761509   0.000000
     34          8.937901   0.000000
     35          9.098955   0.000000
     36          9.307528   0.000000
     37          9.391254   0.000000
     38          9.481554   0.000000
     39          9.560673   0.000000
     40         10.141225   0.000000
     41         10.393341   0.000000
     42         11.356418   0.000000
     43         11.525471   0.000000
     44         11.717762   0.000000
     45         11.878610   0.000000
     46         12.348739   0.000000
     47         12.859118   0.000000
     48         12.900813   0.000000
 
  0.5657187E-16  0.2941176E+00  0.0000000E+00  0.6920415E-02
      1        -19.392340   1.000000
      2        -16.553385   1.000000
      3        -15.735257   1.000000
      4        -12.491723   1.000000
      5        -11.086788   1.000000
      6        -10.399261   1.000000
      7         -8.483087   1.000000
      8         -7.850332   1.000000
      9         -6.545476   1.000000
     10         -5.815251   1.000000
     11         -4.920150   1.000000
     12         -3.723242   1.000000
     13         -1.086130   0.000000
     14          1.047821   0.000000
     15          1.260521   0.000000
     16          2.429876   0.000000
     17          2.625645   0.000000
     18          3.268432   0.000000
     19          3.702785   0.000000
     20          4.447869   0.000000
     21          4.922876   0.000000
     22          5.065609   0.000000
     23          5.305364   0.000000
     24          5.832541   0.000000
     25          6.242882   0.000000
     26          6.454436   0.000000
     27          6.839110   0.000000
     28          6.936694   0.000000
     29          7.648995   0.000000
     30          7.887133   0.000000
     31          8.117958   0.000000
     32          8.240992   0.000000
     33          8.761493   0.000000
     34          8.937899   0.000000
     35          9.098954   0.000000
     36          9.307542   0.000000
     37          9.391236   0.000000
     38          9.481569   0.000000
     39          9.560689   0.000000
     40         10.141232   0.000000
     41         10.393332   0.000000
     42         11.356416   0.000000
     43         11.525481   0.000000
     44         11.717710   0.000000
     45         11.878591   0.000000
     46         12.348734   0.000000
     47         12.859154   0.000000
     48         12.900816   0.000000
 
 -0.2941176E+00  0.2941176E+00  0.0000000E+00  0.6920415E-02
      1        -19.392337   1.000000
      2        -16.553421   1.000000
      3        -15.735222   1.000000
      4        -12.491683   1.000000
      5        -11.086840   1.000000
      6        -10.399261   1.000000
      7         -8.483077   1.000000
      8         -7.850303   1.000000
      9         -6.545598   1.000000
     10         -5.815159   1.000000
     11         -4.920099   1.000000
     12         -3.723344   1.000000
     13         -1.086139   0.000000
     14          1.047636   0.000000
     15          1.260789   0.000000
     16          2.429942   0.000000
     17          2.625656   0.000000
     18          3.268454   0.000000
     19          3.702778   0.000000
     20          4.447813   0.000000
     21          4.922834   0.000000
     22          5.065579   0.000000
     23          5.305370   0.000000
     24          5.832567   0.000000
     25          6.242877   0.000000
     26          6.454450   0.000000
     27          6.839115   0.000000
     28          6.936726   0.000000
     29          7.649027   0.000000
     30          7.887068   0.000000
     31          8.117971   0.000000
     32          8.240994   0.000000
     33          8.761473   0.000000
     34          8.937893   0.000000
     35          9.098957   0.000000
     36          9.307536   0.000000
     37          9.391244   0.000000
     38          9.481538   0.000000
     39          9.560734   0.000000
     40         10.141270   0.000000
     41         10.393310   0.000000
     42         11.356422   0.000000
     43         11.525482   0.000000
     44         11.717623   0.000000
     45         11.878552   0.000000
     46         12.348727   0.000000
     47         12.859222   0.000000
     48         12.900807   0.000000
 
  0.3529412E+00  0.1636563E-16  0.0000000E+00  0.6920415E-02
      1        -19.274444   1.000000
      2        -16.810708   1.000000
      3        -15.789787   1.000000
      4        -12.618482   1.000000
      5        -10.703444   1.000000
      6        -10.082854   1.000000
      7         -8.247268   1.000000
      8         -7.465315   1.000000