Lattice                                 
           1
     4.061659    2.345000    0.000000
    -4.061659    2.345000    0.000000
     0.000000    0.000000   15.000000
   B    C 
     4     3
Direct configuration=     1
   0.01200000  0.00800000  0.11364600
   0.33503300  0.01900000  0.10000000
   0.01800000  0.32893300  0.10000000
   0.66466600  0.67000600  0.10000000
   0.32993300  0.32983300  0.10000000
   0.66566600  0.00400000  0.10000000
   0.00400000  0.65966600  0.10000000
Direct configuration=     2
  -0.02808517 -0.03457121  0.11698455
   0.39531864 -0.01602731  0.09802540
  -0.01578402  0.39420840  0.09793622
   0.63742645  0.63415735  0.09903933
   0.35287952  0.35011934  0.10043482
   0.68519041  0.00256587  0.10057582
   0.00235216  0.68898557  0.10064987
Direct configuration=     3
  -0.00295091 -0.00787815  0.11489121
   0.35751826  0.00593556  0.09926351
   0.00539928  0.35327933  0.09923025
   0.65450623  0.65663522  0.09964169
   0.33849156  0.33739937  0.10016218
   0.67294819  0.00346510  0.10021477
   0.00338539  0.67060157  0.10024239
Direct configuration=     4
  -0.00263654 -0.00754428  0.11486502
   0.35704545  0.00621027  0.09927900
   0.00566424  0.35276739  0.09924644
   0.65471986  0.65691637  0.09964922
   0.33831160  0.33724027  0.10015877
   0.67279506  0.00347635  0.10021025
   0.00339832  0.67037163  0.10023729
Direct configuration=     5
   0.00641585  0.00399598  0.11517755
   0.35929320  0.00285211  0.09870831
   0.00364607  0.35795944  0.09864990
   0.64290732  0.64179739  0.09879562
   0.31885194  0.31772724  0.10069461
   0.69207509  0.00570043  0.10079696
   0.00610853  0.68940542  0.10082305
Direct configuration=     6
   0.00166674 -0.00205833  0.11501359
   0.35811398  0.00461388  0.09900771
   0.00470485  0.35523556  0.09896286
   0.64910447  0.64972918  0.09924344
   0.32906096  0.32796426  0.10041349
   0.68196031  0.00453362  0.10048916
   0.00468669  0.67941982  0.10051575
Direct configuration=     7
   0.00567491  0.00425629  0.11538085
   0.36029916  0.00409660  0.09872656
   0.00526382  0.35814302  0.09868895
   0.64862299  0.64775382  0.09885416
   0.32573154  0.32470114  0.10064892
   0.67900615  0.00368225  0.10066987
   0.00469944  0.67680488  0.10067668
Direct configuration=     8
   0.00357736  0.00095173  0.11518866
   0.35915561  0.00436731  0.09887369
   0.00497130  0.35662149  0.09883229
   0.64887496  0.64878756  0.09905788
   0.32747389  0.32640879  0.10052572
   0.68055211  0.00412779  0.10057530
   0.00469277  0.67817333  0.10059246
Direct configuration=     9
   0.00399240  0.00224203  0.11543878
   0.35846879  0.00320346  0.09868708
   0.00448027  0.35674045  0.09864941
   0.64983867  0.64875943  0.09881932
   0.32853857  0.32728170  0.10064457
   0.67977622  0.00296193  0.10069638
   0.00420307  0.67824901  0.10071047
Direct configuration=    10
   0.00413214  0.00267645  0.11552300
   0.35823755  0.00281161  0.09862425
   0.00431495  0.35678050  0.09858783
   0.65016314  0.64874996  0.09873900
   0.32889703  0.32757560  0.10068459
   0.67951499  0.00256940  0.10073714
   0.00403819  0.67827449  0.10075020
Direct configuration=    11
   0.00448221  0.00347196  0.11586123
   0.35735379  0.00236165  0.09849147
   0.00399971  0.35640953  0.09846664
   0.65112961  0.64933924  0.09855155
   0.32834413  0.32684181  0.10072764
   0.67995613  0.00235376  0.10077021
   0.00403242  0.67866005  0.10077726
Direct configuration=    12
   0.00435503  0.00318296  0.11573835
   0.35767486  0.00252512  0.09853971
   0.00411424  0.35654430  0.09851067
   0.65077850  0.64912516  0.09861965
   0.32854500  0.32710839  0.10071200
   0.67979587  0.00243210  0.10075819
   0.00403452  0.67851998  0.10076743
Direct configuration=    13
   0.00445259  0.00336130  0.11616530
   0.35756161  0.00245816  0.09844624
   0.00397701  0.35639470  0.09843179
   0.65085828  0.64917700  0.09848017
   0.32846571  0.32694337  0.10068229
   0.67979751  0.00262844  0.10071670
   0.00418529  0.67847503  0.10072351
Direct configuration=    14
   0.00474529  0.00389634  0.11744615
   0.35722186  0.00225730  0.09816584
   0.00356533  0.35594590  0.09819515
   0.65109762  0.64933253  0.09806173
   0.32822785  0.32644829  0.10059316
   0.67980244  0.00321747  0.10059221
   0.00463762  0.67834017  0.10059176
Direct configuration=    15
   0.00469505  0.00382765  0.11761220
   0.35719163  0.00224598  0.09813071
   0.00355365  0.35590446  0.09816408
   0.65112447  0.64936424  0.09801378
   0.32826468  0.32648357  0.10057755
   0.67983587  0.00321649  0.10057432
   0.00463264  0.67839561  0.10057334
Direct configuration=    16
   0.00454433  0.00362159  0.11811036
   0.35710094  0.00221204  0.09802533
   0.00351864  0.35578012  0.09807088
   0.65120503  0.64945937  0.09786995
   0.32837516  0.32658942  0.10053073
   0.67993619  0.00321353  0.10052066
   0.00461771  0.67856193  0.10051809
Direct configuration=    17
   0.00424289  0.00320947  0.11910668
   0.35691956  0.00214416  0.09781456
   0.00344860  0.35553143  0.09788447
   0.65136615  0.64964963  0.09758229
   0.32859612  0.32680111  0.10043708
   0.68013681  0.00320761  0.10041333
   0.00458786  0.67889458  0.10040759
Direct configuration=    18
   0.00364002  0.00238523  0.12109932
   0.35655679  0.00200840  0.09739302
   0.00330853  0.35503407  0.09751166
   0.65168839  0.65003016  0.09700697
   0.32903805  0.32722449  0.10024978
   0.68053806  0.00319576  0.10019867
   0.00452815  0.67955988  0.10018659
Direct configuration=    19
   0.00406226  0.00296251  0.11970372
   0.35681087  0.00210349  0.09768825
   0.00340663  0.35538241  0.09777277
   0.65146270  0.64976365  0.09740991
   0.32872853  0.32692796  0.10038096
   0.68025703  0.00320406  0.10034901
   0.00456997  0.67909392  0.10034137
Direct configuration=    20
   0.00408256  0.00289981  0.11993717
   0.35682348  0.00229529  0.09763625
   0.00365686  0.35546640  0.09771863
   0.65156005  0.64993697  0.09736155
   0.32845500  0.32677093  0.10035799
   0.68029926  0.00301725  0.10032219
   0.00442078  0.67905135  0.10031220
Direct configuration=    21
   0.00410821  0.00282063  0.12023198
   0.35683940  0.00253751  0.09757059
   0.00397286  0.35557246  0.09765027
   0.65168298  0.65015584  0.09730048
   0.32810958  0.32657263  0.10032899
   0.68035259  0.00278134  0.10028832
   0.00423238  0.67899759  0.10027536
Direct configuration=    22
   0.00418040  0.00285681  0.12028232
   0.35689490  0.00264681  0.09755521
   0.00410196  0.35558063  0.09762656
   0.65154453  0.65005901  0.09731223
   0.32811223  0.32664801  0.10032112
   0.68027369  0.00274234  0.10028080
   0.00419029  0.67890439  0.10026775
Direct configuration=    23
   0.00422183  0.00287758  0.12031120
   0.35692674  0.00270953  0.09754639
   0.00417605  0.35558532  0.09761296
   0.65146508  0.65000344  0.09731898
   0.32811375  0.32669127  0.10031660
   0.68022841  0.00271995  0.10027649
   0.00416614  0.67885091  0.10026339
Direct configuration=    24
   0.00420787  0.00283716  0.12031511
   0.35692421  0.00273335  0.09753827
   0.00418679  0.35555854  0.09759570
   0.65145267  0.65000932  0.09734232
   0.32811643  0.32670540  0.10031488
   0.68024546  0.00273024  0.10027617
   0.00416457  0.67886399  0.10026355
Direct configuration=    25
   0.00416599  0.00271591  0.12032686
   0.35691659  0.00280480  0.09751391
   0.00421901  0.35547821  0.09754394
   0.65141546  0.65002697  0.09741235
   0.32812448  0.32674777  0.10030971
   0.68029662  0.00276110  0.10027521
   0.00415986  0.67890323  0.10026402
Direct configuration=    26
   0.00415855  0.00269464  0.12032974
   0.35693549  0.00282418  0.09750487
   0.00422027  0.35549172  0.09752428
   0.65141762  0.65004357  0.09743969
   0.32810787  0.32673079  0.10030778
   0.68029086  0.00277754  0.10027513
   0.00416734  0.67887557  0.10026452
Direct configuration=    27
   0.00414918  0.00266783  0.12033336
   0.35695931  0.00284859  0.09749347
   0.00422186  0.35550876  0.09749950
   0.65142033  0.65006450  0.09747414
   0.32808694  0.32670939  0.10030535
   0.68028360  0.00279825  0.10027503
   0.00417677  0.67884069  0.10026514
Direct configuration=    28
   0.00416188  0.00269937  0.12033130
   0.35695893  0.00283287  0.09749276
   0.00421110  0.35551373  0.09749761
   0.65141349  0.65004616  0.09747719
   0.32808671  0.32670008  0.10030448
   0.68028232  0.00279943  0.10027595
   0.00418356  0.67884637  0.10026670
Direct configuration=    29
   0.00418759  0.00276317  0.12032715
   0.35695816  0.00280106  0.09749131
   0.00418934  0.35552379  0.09749379
   0.65139966  0.65000906  0.09748334
   0.32808623  0.32668124  0.10030274
   0.68027971  0.00280181  0.10027783
   0.00419730  0.67885787  0.10026986
Direct configuration=    30
   0.00418591  0.00277693  0.12032158
   0.35694498  0.00277950  0.09749127
   0.00417940  0.35552802  0.09749261
   0.65141989  0.65001487  0.09748690
   0.32809233  0.32667951  0.10030118
   0.68028229  0.00278815  0.10027979
   0.00419320  0.67887102  0.10027268
Direct configuration=    31
   0.00418496  0.00278478  0.12031841
   0.35693746  0.00276720  0.09749124
   0.00417373  0.35553043  0.09749194
   0.65143143  0.65001818  0.09748893
   0.32809581  0.32667853  0.10030028
   0.68028375  0.00278036  0.10028090
   0.00419087  0.67887852  0.10027429
Direct configuration=    32
   0.00418475  0.00278575  0.12031353
   0.35693512  0.00276490  0.09749216
   0.00417816  0.35553425  0.09749242
   0.65143899  0.65002247  0.09749112
   0.32810432  0.32668951  0.10029828
   0.68027181  0.00277117  0.10028213
   0.00418486  0.67886995  0.10027636
Direct configuration=    33
   0.00418457  0.00278661  0.12030921
   0.35693305  0.00276286  0.09749296
   0.00418208  0.35553764  0.09749286
   0.65144568  0.65002628  0.09749306
   0.32811185  0.32669923  0.10029650
   0.68026123  0.00276302  0.10028322
   0.00417954  0.67886235  0.10027819
Direct configuration=    34
   0.00418968  0.00278995  0.12030227
   0.35693276  0.00276800  0.09749457
   0.00418775  0.35553490  0.09749428
   0.65144065  0.65002343  0.09749532
   0.32810827  0.32669972  0.10029395
   0.68025973  0.00276395  0.10028476
   0.00417915  0.67885806  0.10028086
Direct configuration=    35
   0.00419705  0.00279475  0.12029227
   0.35693235  0.00277539  0.09749688
   0.00419592  0.35553097  0.09749633
   0.65143341  0.65001932  0.09749857
   0.32810311  0.32670042  0.10029027
   0.68025756  0.00276528  0.10028696
   0.00417860  0.67885186  0.10028471
Direct configuration=    36
   0.00419334  0.00278693  0.12028526
   0.35693790  0.00277806  0.09749851
   0.00419392  0.35553295  0.09749790
   0.65142855  0.65001794  0.09750063
   0.32810031  0.32669729  0.10028794
   0.68026306  0.00277041  0.10028842
   0.00418092  0.67885443  0.10028733
Direct configuration=    37
   0.00418448  0.00276827  0.12026856
   0.35695114  0.00278443  0.09750240
   0.00418915  0.35553767  0.09750163
   0.65141697  0.65001464  0.09750553
   0.32809362  0.32668981  0.10028238
   0.68027618  0.00278263  0.10029191
   0.00418647  0.67886054  0.10029359
Direct configuration=    38
   0.00418062  0.00276425  0.12026388
   0.35695839  0.00278243  0.09750356
   0.00418532  0.35554366  0.09750285
   0.65141312  0.65000976  0.09750650
   0.32810365  0.32669649  0.10028143
   0.68026942  0.00278379  0.10029269
   0.00418747  0.67885761  0.10029509
Direct configuration=    39
   0.00418139  0.00276506  0.12026482
   0.35695694  0.00278283  0.09750332
   0.00418609  0.35554246  0.09750261
   0.65141389  0.65001074  0.09750631
   0.32810164  0.32669516  0.10028162
   0.68027077  0.00278356  0.10029253
   0.00418727  0.67885820  0.10029479
Direct configuration=    40
   0.00418183  0.00276551  0.12026535
   0.35695612  0.00278306  0.09750319
   0.00418652  0.35554178  0.09750247
   0.65141433  0.65001129  0.09750620
   0.32810050  0.32669440  0.10028173
   0.68027154  0.00278343  0.10029244
   0.00418716  0.67885853  0.10029462
Direct configuration=    41
   0.00418399  0.00277121  0.12026393
   0.35695495  0.00278094  0.09750362
   0.00418638  0.35554255  0.09750301
   0.65141622  0.65001097  0.09750613
   0.32810189  0.32669464  0.10028246
   0.68026796  0.00278065  0.10029242
   0.00418660  0.67885703  0.10029443
