   2   2   0  16
  0.3803843E+02  0.2420000E-09  0.2420000E-09  0.1500000E-08  0.5000000E-15
  1.000000000000000E-004
  CAR 
 Graphene                                
     44.55196403    -25.18326100  301     -2.04254267      1.00000000
    -25.183  0.0000E+00  0.0000E+00
    -24.951  0.0000E+00  0.0000E+00
    -24.718  0.0000E+00  0.0000E+00
    -24.486  0.0000E+00  0.0000E+00
    -24.253  0.0000E+00  0.0000E+00
    -24.021  0.0000E+00  0.0000E+00
    -23.789  0.0000E+00  0.0000E+00
    -23.556  0.0000E+00  0.0000E+00
    -23.324  0.0000E+00  0.0000E+00
    -23.091  0.0000E+00  0.0000E+00
    -22.859  0.0000E+00  0.0000E+00
    -22.626  0.0000E+00  0.0000E+00
    -22.394  0.2234E-10  0.5193E-11
    -22.161  0.1090E-04  0.2534E-05
    -21.929  0.9279E-03  0.2182E-03
    -21.696  0.3190E-02  0.9596E-03
    -21.464  0.2769E-02  0.1603E-02
    -21.232  0.4209E-02  0.2582E-02
    -20.999  0.3117E-03  0.2654E-02
    -20.767  0.5845E-02  0.4013E-02
    -20.534  0.2348E-02  0.4559E-02
    -20.302  0.2486E-02  0.5137E-02
    -20.069  0.5939E-03  0.5275E-02
    -19.837  0.6415E-02  0.6766E-02
    -19.604  0.3752E-02  0.7638E-02
    -19.372  0.1148E-02  0.7905E-02
    -19.140  0.2432E-02  0.8470E-02
    -18.907  0.1550E-02  0.8831E-02
    -18.675  0.5710E-02  0.1016E-01
    -18.442  0.6238E-02  0.1161E-01
    -18.210  0.8509E-03  0.1181E-01
    -17.977  0.3514E-03  0.1189E-01
    -17.745  0.3180E-02  0.1263E-01
    -17.512  0.3633E-02  0.1347E-01
    -17.280  0.6998E-02  0.1510E-01
    -17.047  0.1172E-02  0.1537E-01
    -16.815  0.6076E-02  0.1678E-01
    -16.583  0.3618E-03  0.1687E-01
    -16.350  0.1508E-02  0.1722E-01
    -16.118  0.3270E-02  0.1798E-01
    -15.885  0.7478E-02  0.1972E-01
    -15.653  0.7575E-03  0.1989E-01
    -15.420  0.1067E-02  0.2014E-01
    -15.188  0.2082E-02  0.2062E-01
    -14.955  0.2902E-02  0.2130E-01
    -14.723  0.7755E-02  0.2310E-01
    -14.491  0.4052E-03  0.2319E-01
    -14.258  0.1231E-02  0.2348E-01
    -14.026  0.7315E-02  0.2518E-01
    -13.793  0.2375E-02  0.2573E-01
    -13.561  0.6316E-02  0.2720E-01
    -13.328  0.6884E-03  0.2736E-01
    -13.096  0.1274E-03  0.2739E-01
    -12.863  0.4590E-02  0.2846E-01
    -12.631  0.6541E-02  0.2998E-01
    -12.398  0.6912E-03  0.3014E-01
    -12.166  0.6413E-04  0.3015E-01
    -11.934  0.6078E-02  0.3157E-01
    -11.701  0.6499E-02  0.3308E-01
    -11.469  0.5270E-02  0.3430E-01
    -11.236  0.2557E-02  0.3490E-01
    -11.004  0.1041E-02  0.3514E-01
    -10.771  0.4645E-03  0.3525E-01
    -10.539  0.7131E-02  0.3690E-01
    -10.306  0.6034E-02  0.3831E-01
    -10.074  0.4506E-02  0.3935E-01
     -9.842  0.4765E-02  0.4046E-01
     -9.609  0.1009E-01  0.4281E-01
     -9.377  0.6353E-02  0.4428E-01
     -9.144  0.5838E-02  0.4564E-01
     -8.912  0.5689E-02  0.4696E-01
     -8.679  0.8839E-02  0.4902E-01
     -8.447  0.1840E-01  0.5330E-01
     -8.214  0.5738E-02  0.5463E-01
     -7.982  0.8746E-02  0.5666E-01
     -7.749  0.3275E-02  0.5742E-01
     -7.517  0.4925E-02  0.5857E-01
     -7.285  0.9432E-02  0.6076E-01
     -7.052  0.1002E-01  0.6309E-01
     -6.820  0.4461E-02  0.6413E-01
     -6.587  0.3135E-02  0.6486E-01
     -6.355  0.3057E-02  0.6557E-01
     -6.122  0.9748E-02  0.6783E-01
     -5.890  0.8461E-02  0.6980E-01
     -5.657  0.3025E-02  0.7050E-01
     -5.425  0.3674E-02  0.7136E-01
     -5.192  0.4330E-02  0.7236E-01
     -4.960  0.2449E-02  0.7293E-01
     -4.728  0.9662E-02  0.7518E-01
     -4.495  0.7911E-02  0.7702E-01
     -4.263  0.8797E-03  0.7722E-01
     -4.030  0.8581E-04  0.7724E-01
     -3.798  0.3157E-02  0.7798E-01
     -3.565  0.9235E-03  0.7819E-01
     -3.333  0.6378E-02  0.7967E-01
     -3.100  0.2111E-03  0.7972E-01
     -2.868  0.8106E-09  0.7972E-01
     -2.636  0.0000E+00  0.7972E-01
     -2.403  0.4083E-09  0.7972E-01
     -2.171  0.8372E-04  0.7974E-01
     -1.938  0.2139E-02  0.8024E-01
     -1.706  0.1673E-03  0.8028E-01
     -1.473  0.2277E-08  0.8028E-01
     -1.241  0.1672E-16  0.8028E-01
     -1.008  0.1927E-07  0.8028E-01
     -0.776  0.7441E-03  0.8045E-01
     -0.543  0.8202E-02  0.8236E-01
     -0.311  0.2989E-02  0.8305E-01
     -0.079  0.2607E-02  0.8366E-01
      0.154  0.5151E-02  0.8486E-01
      0.386  0.4250E-04  0.8487E-01
      0.619  0.4879E-02  0.8600E-01
      0.851  0.5179E-02  0.8720E-01
      1.084  0.4691E-02  0.8829E-01
      1.316  0.2845E-02  0.8895E-01
      1.549  0.9277E-03  0.8917E-01
      1.781  0.4136E-02  0.9013E-01
      2.013  0.9787E-02  0.9241E-01
      2.246  0.3861E-02  0.9330E-01
      2.478  0.1291E-02  0.9360E-01
      2.711  0.1670E-01  0.9749E-01
      2.943  0.7761E-02  0.9929E-01
      3.176  0.8181E-02  0.1012E+00
      3.408  0.4725E-02  0.1023E+00
      3.641  0.7815E-02  0.1041E+00
      3.873  0.4447E-02  0.1051E+00
      4.106  0.1337E-01  0.1082E+00
      4.338  0.1243E-01  0.1111E+00
      4.570  0.3030E-02  0.1118E+00
      4.803  0.1415E-01  0.1151E+00
      5.035  0.6881E-02  0.1167E+00
      5.268  0.8218E-02  0.1186E+00
      5.500  0.1665E-01  0.1225E+00
      5.733  0.1247E-01  0.1254E+00
      5.965  0.1754E-01  0.1295E+00
      6.198  0.1298E-01  0.1325E+00
      6.430  0.1311E-01  0.1356E+00
      6.662  0.1985E-01  0.1402E+00
      6.895  0.3157E-01  0.1475E+00
      7.127  0.1983E-01  0.1521E+00
      7.360  0.2085E-01  0.1570E+00
      7.592  0.2169E-01  0.1620E+00
      7.825  0.5696E-02  0.1633E+00
      8.057  0.1069E-01  0.1658E+00
      8.290  0.2093E-01  0.1707E+00
      8.522  0.2079E-01  0.1755E+00
      8.755  0.2277E-01  0.1808E+00
      8.987  0.1948E-01  0.1853E+00
      9.219  0.2476E-01  0.1911E+00
      9.452  0.1611E-01  0.1948E+00
      9.684  0.1623E-01  0.1986E+00
      9.917  0.2156E-01  0.2036E+00
     10.149  0.2688E-01  0.2099E+00
     10.382  0.1757E-01  0.2139E+00
     10.614  0.6312E-02  0.2154E+00
     10.847  0.1623E-01  0.2192E+00
     11.079  0.2524E-01  0.2251E+00
     11.312  0.2877E-01  0.2317E+00
     11.544  0.1479E-01  0.2352E+00
     11.776  0.2910E-01  0.2419E+00
     12.009  0.2203E-01  0.2471E+00
     12.241  0.3225E-01  0.2546E+00
     12.474  0.1918E-01  0.2590E+00
     12.706  0.1636E-01  0.2628E+00
     12.939  0.8952E-02  0.2649E+00
     13.171  0.1379E-01  0.2681E+00
     13.404  0.1236E-01  0.2710E+00
     13.636  0.2003E-01  0.2756E+00
     13.868  0.2312E-01  0.2810E+00
     14.101  0.2385E-01  0.2866E+00
     14.333  0.3009E-01  0.2936E+00
     14.566  0.2491E-01  0.2993E+00
     14.798  0.7527E-02  0.3011E+00
     15.031  0.3105E-01  0.3083E+00
     15.263  0.1320E-01  0.3114E+00
     15.496  0.3596E-01  0.3197E+00
     15.728  0.1843E-01  0.3240E+00
     15.961  0.2452E-01  0.3297E+00
     16.193  0.1887E-01  0.3341E+00
     16.425  0.2357E-01  0.3396E+00
     16.658  0.2129E-01  0.3445E+00
     16.890  0.2146E-01  0.3495E+00
     17.123  0.2090E-01  0.3544E+00
     17.355  0.1629E-01  0.3582E+00
     17.588  0.3135E-01  0.3655E+00
     17.820  0.3509E-01  0.3736E+00
     18.053  0.2561E-01  0.3796E+00
     18.285  0.1378E-01  0.3828E+00
     18.517  0.3894E-02  0.3837E+00
     18.750  0.1659E-01  0.3875E+00
     18.982  0.3658E-01  0.3960E+00
     19.215  0.2864E-01  0.4027E+00
     19.447  0.2076E-01  0.4075E+00
     19.680  0.2447E-01  0.4132E+00
     19.912  0.1561E-01  0.4168E+00
     20.145  0.3346E-01  0.4246E+00
     20.377  0.3978E-01  0.4339E+00
     20.610  0.2228E-01  0.4390E+00
     20.842  0.2257E-01  0.4443E+00
     21.074  0.1503E-01  0.4478E+00
     21.307  0.4052E-01  0.4572E+00
     21.539  0.2028E-01  0.4619E+00
     21.772  0.2575E-01  0.4679E+00
     22.004  0.8072E-02  0.4698E+00
     22.237  0.2847E-01  0.4764E+00
     22.469  0.3400E-01  0.4843E+00
     22.702  0.3608E-01  0.4927E+00
     22.934  0.4176E-01  0.5024E+00
     23.166  0.1836E-01  0.5066E+00
     23.399  0.2655E-01  0.5128E+00
     23.631  0.3018E-01  0.5198E+00
     23.864  0.2856E-01  0.5265E+00
     24.096  0.3073E-01  0.5336E+00
     24.329  0.2398E-01  0.5392E+00
     24.561  0.2787E-01  0.5457E+00
     24.794  0.4571E-01  0.5563E+00
     25.026  0.2865E-01  0.5630E+00
     25.259  0.2803E-01  0.5695E+00
     25.491  0.3239E-01  0.5770E+00
     25.723  0.2117E-01  0.5819E+00
     25.956  0.2136E-01  0.5869E+00
     26.188  0.1084E-01  0.5894E+00
     26.421  0.3298E-01  0.5971E+00
     26.653  0.9897E-02  0.5994E+00
     26.886  0.4015E-01  0.6087E+00
     27.118  0.4802E-01  0.6199E+00
     27.351  0.2010E-01  0.6245E+00
     27.583  0.2621E-01  0.6306E+00
     27.816  0.3377E-01  0.6385E+00
     28.048  0.2312E-01  0.6439E+00
     28.280  0.2492E-01  0.6497E+00
     28.513  0.3369E-01  0.6575E+00
     28.745  0.1860E-01  0.6618E+00
     28.978  0.2484E-01  0.6676E+00
     29.210  0.1975E-01  0.6722E+00
     29.443  0.2402E-01  0.6778E+00
     29.675  0.4650E-01  0.6886E+00
     29.908  0.1646E-01  0.6924E+00
     30.140  0.2900E-01  0.6991E+00
     30.372  0.2445E-01  0.7048E+00
     30.605  0.2907E-01  0.7116E+00
     30.837  0.2408E-01  0.7172E+00
     31.070  0.2309E-01  0.7225E+00
     31.302  0.4828E-01  0.7338E+00
     31.535  0.3756E-01  0.7425E+00
     31.767  0.2729E-01  0.7488E+00
     32.000  0.3047E-01  0.7559E+00
     32.232  0.2232E-01  0.7611E+00
     32.465  0.2102E-01  0.7660E+00
     32.697  0.3665E-01  0.7745E+00
     32.929  0.4083E-01  0.7840E+00
     33.162  0.3398E-01  0.7919E+00
     33.394  0.2496E-01  0.7977E+00
     33.627  0.1292E-01  0.8007E+00
     33.859  0.3509E-01  0.8089E+00
     34.092  0.3542E-01  0.8171E+00
     34.324  0.3479E-01  0.8252E+00
     34.557  0.2405E-01  0.8308E+00
     34.789  0.2567E-01  0.8367E+00
     35.021  0.2200E-01  0.8419E+00
     35.254  0.2915E-01  0.8486E+00
     35.486  0.2612E-01  0.8547E+00
     35.719  0.3691E-01  0.8633E+00
     35.951  0.4027E-01  0.8726E+00
     36.184  0.2402E-01  0.8782E+00
     36.416  0.2766E-01  0.8847E+00
     36.649  0.5173E-01  0.8967E+00
     36.881  0.2900E-01  0.9034E+00
     37.114  0.1552E-01  0.9070E+00
     37.346  0.2061E-01  0.9118E+00
     37.578  0.4428E-01  0.9221E+00
     37.811  0.1730E-01  0.9261E+00
     38.043  0.3064E-01  0.9333E+00
     38.276  0.3126E-01  0.9405E+00
     38.508  0.1035E-01  0.9429E+00
     38.741  0.1809E-01  0.9471E+00
     38.973  0.2585E-02  0.9477E+00
     39.206  0.9678E-02  0.9500E+00
     39.438  0.7901E-02  0.9518E+00
     39.670  0.1367E-01  0.9550E+00
     39.903  0.6777E-02  0.9566E+00
     40.135  0.2177E-02  0.9571E+00
     40.368  0.6439E-02  0.9586E+00
     40.600  0.1381E-02  0.9589E+00
     40.833  0.2347E-02  0.9594E+00
     41.065  0.7044E-05  0.9594E+00
     41.298  0.2772E-03  0.9595E+00
     41.530  0.2069E-02  0.9600E+00
     41.763  0.4353E-04  0.9600E+00
     41.995  0.8927E-10  0.9600E+00
     42.227  0.0000E+00  0.9600E+00
     42.460  0.0000E+00  0.9600E+00
     42.692  0.0000E+00  0.9600E+00
     42.925  0.0000E+00  0.9600E+00
     43.157  0.0000E+00  0.9600E+00
     43.390  0.0000E+00  0.9600E+00
     43.622  0.0000E+00  0.9600E+00
     43.855  0.0000E+00  0.9600E+00
     44.087  0.0000E+00  0.9600E+00
     44.320  0.0000E+00  0.9600E+00
     44.552  0.0000E+00  0.9600E+00
