Lattice                                 
           1
     4.369964    2.523000    0.000000
    -4.369964    2.523000    0.000000
     0.000000    0.000000   15.000000
   B    C 
     2    14
Direct configuration=     1
   0.33833034  0.66916432  0.10000000
   0.67165522  0.33584146  0.10000000
   0.16373946  0.31999962  0.10000000
   0.32250218  0.16126397  0.10000000
   0.16376430  0.84376384  0.10000000
   0.84623863  0.16123684  0.10000000
   0.68749850  0.84373000  0.10000000
   0.84626736  0.68499594  0.10000000
   0.33333267  0.16666633  0.32553333
   0.49999967  0.99999933  0.32553333
   0.33333267  0.66666633  0.32553333
   0.49999967  0.49999933  0.32553333
   0.83333267  0.16666633  0.32553333
   0.99999967  0.99999933  0.32553333
   0.83333267  0.66666633  0.32553333
   0.99999967  0.49999933  0.32553333
Direct configuration=     2
   0.33834427  0.66917090  0.10017301
   0.67169295  0.33582117  0.09997921
   0.16690934  0.32634391  0.09994254
   0.32857299  0.16429558  0.10001519
   0.16693966  0.84058345  0.09994254
   0.84317600  0.16428235  0.10001474
   0.68115264  0.84057649  0.09994224
   0.84320072  0.67891836  0.10001473
   0.33337680  0.16668732  0.32554340
   0.50012667  0.00027104  0.32558662
   0.33332898  0.66666346  0.32532584
   0.50012667  0.49985677  0.32558661
   0.83331985  0.16669142  0.32553988
   0.00000492  0.00000303  0.32553222
   0.83331989  0.66662634  0.32553991
   0.99973300  0.49986707  0.32558800
Direct configuration=     3
   0.33833413  0.66916611  0.10004704
   0.67166547  0.33583594  0.09999435
   0.16460134  0.32172460  0.09998438
   0.32415280  0.16208825  0.10000413
   0.16462766  0.84289911  0.09998438
   0.84540592  0.16206490  0.10000401
   0.68577310  0.84287258  0.09998429
   0.84543355  0.68334348  0.10000400
   0.33334467  0.16667204  0.32553607
   0.50003420  0.00007321  0.32554782
   0.33333167  0.66666555  0.32547692
   0.50003420  0.49996057  0.32554782
   0.83332918  0.16667315  0.32553511
   0.00000110  0.00000034  0.32553303
   0.83332919  0.66665546  0.32553512
   0.99992716  0.49996337  0.32554820
Direct configuration=     4
   0.33833413  0.66916611  0.10004702
   0.67166547  0.33583595  0.09999435
   0.16460092  0.32172376  0.09998439
   0.32415200  0.16208784  0.10000413
   0.16462724  0.84289953  0.09998439
   0.84540632  0.16206450  0.10000401
   0.68577393  0.84287300  0.09998430
   0.84543396  0.68334428  0.10000400
   0.33334466  0.16667204  0.32553607
   0.50003418  0.00007317  0.32554781
   0.33333167  0.66666555  0.32547694
   0.50003418  0.49996059  0.32554781
   0.83332918  0.16667315  0.32553511
   0.00000109  0.00000034  0.32553303
   0.83332919  0.66665546  0.32553512
   0.99992720  0.49996339  0.32554819
Direct configuration=     5
   0.33833846  0.66916643  0.10015776
   0.67166863  0.33583242  0.09997845
   0.16459836  0.32172535  0.09995681
   0.32414194  0.16207700  0.10000571
   0.16461653  0.84289089  0.09995681
   0.84542176  0.16206247  0.10000537
   0.68576465  0.84287831  0.09995640
   0.84543801  0.68335920  0.10000537
   0.33335748  0.16667860  0.32554928
   0.50004517  0.00009443  0.32557493
   0.33333090  0.66666529  0.32534730
   0.50004517  0.49995008  0.32557493
   0.83332339  0.16668039  0.32554604
   0.00000322  0.00000128  0.32552933
   0.83332338  0.66664269  0.32554604
   0.99990830  0.49995383  0.32557613
Direct configuration=     6
   0.33833972  0.66916652  0.10019007
   0.67166955  0.33583140  0.09997382
   0.16459761  0.32172581  0.09994877
   0.32413901  0.16207384  0.10000618
   0.16461340  0.84288837  0.09994877
   0.84542626  0.16206188  0.10000577
   0.68576194  0.84287986  0.09994826
   0.84543919  0.68336355  0.10000577
   0.33336122  0.16668051  0.32555314
   0.50004837  0.00010064  0.32558284
   0.33333067  0.66666522  0.32530948
   0.50004838  0.49994701  0.32558284
   0.83332170  0.16668250  0.32554922
   0.00000384  0.00000156  0.32552825
   0.83332168  0.66663897  0.32554923
   0.99990279  0.49995104  0.32558428
Direct configuration=     7
   0.33831650  0.66916339  0.10025072
   0.67167240  0.33583866  0.09997832
   0.16462688  0.32170700  0.09996248
   0.32414366  0.16208057  0.09997927
   0.16462338  0.84290703  0.09996249
   0.84539557  0.16206935  0.09997851
   0.68580466  0.84288779  0.09996158
   0.84539609  0.68333355  0.09997852
   0.33333720  0.16666805  0.32557874
   0.50002540  0.00005359  0.32556390
   0.33333580  0.66666735  0.32526883
   0.50002537  0.49997201  0.32556391
   0.83333727  0.16666849  0.32557390
   0.00000075  0.00000048  0.32552643
   0.83333729  0.66666772  0.32557389
   0.99994711  0.49997364  0.32556519
Direct configuration=     8
   0.33832159  0.66916407  0.10023743
   0.67167178  0.33583707  0.09997733
   0.16462047  0.32171112  0.09995948
   0.32414264  0.16207910  0.09998516
   0.16462120  0.84290294  0.09995948
   0.84540229  0.16206772  0.09998448
   0.68579530  0.84288606  0.09995867
   0.84540552  0.68334012  0.09998448
   0.33334246  0.16667078  0.32557313
   0.50003043  0.00006389  0.32556805
   0.33333468  0.66666688  0.32527773
   0.50003041  0.49996654  0.32556805
   0.83333386  0.16667155  0.32556850
   0.00000143  0.00000071  0.32552683
   0.83333387  0.66666143  0.32556849
   0.99993741  0.49996869  0.32556937
Direct configuration=     9
   0.33834940  0.66916932  0.10029079
   0.67164596  0.33582931  0.09997969
   0.16456197  0.32171657  0.09997680
   0.32417306  0.16206785  0.09996135
   0.16456606  0.84287066  0.09997684
   0.84546745  0.16208336  0.09996018
   0.68573462  0.84288514  0.09997552
   0.84547183  0.68336046  0.09996019
   0.33335258  0.16667639  0.32559047
   0.50004515  0.00008887  0.32554344
   0.33333239  0.66666637  0.32525556
   0.50004521  0.49995527  0.32554344
   0.83332750  0.16667788  0.32558532
   0.00000611  0.00000255  0.32553744
   0.83332752  0.66664986  0.32558533
   0.99991852  0.49995879  0.32554429
Direct configuration=    10
   0.33833133  0.66916591  0.10025613
   0.67166273  0.33583435  0.09997816
   0.16459997  0.32171303  0.09996555
   0.32415330  0.16207516  0.09997682
   0.16460188  0.84289163  0.09996557
   0.84542512  0.16207320  0.09997597
   0.68577404  0.84288573  0.09996457
   0.84542876  0.68334725  0.09997597
   0.33334601  0.16667274  0.32557921
   0.50003559  0.00007265  0.32555943
   0.33333388  0.66666670  0.32526996
   0.50003559  0.49996259  0.32555943
   0.83333163  0.16667377  0.32557439
   0.00000307  0.00000136  0.32553055
   0.83333165  0.66665737  0.32557439
   0.99993079  0.49996522  0.32556058
Direct configuration=    11
   0.33833197  0.66916603  0.10025736
   0.67166214  0.33583417  0.09997822
   0.16459863  0.32171316  0.09996594
   0.32415400  0.16207490  0.09997627
   0.16460061  0.84289089  0.09996597
   0.84542662  0.16207356  0.09997541
   0.68577264  0.84288571  0.09996496
   0.84543029  0.68334772  0.09997541
   0.33334624  0.16667287  0.32557961
   0.50003592  0.00007322  0.32555886
   0.33333383  0.66666669  0.32526945
   0.50003593  0.49996233  0.32555886
   0.83333149  0.16667392  0.32557478
   0.00000317  0.00000140  0.32553079
   0.83333150  0.66665711  0.32557478
   0.99993035  0.49996500  0.32556001
Direct configuration=    12
   0.33833081  0.66916512  0.10027967
   0.67167303  0.33583079  0.09997476
   0.16461629  0.32172826  0.09997282
   0.32412666  0.16206630  0.09997209
   0.16461819  0.84288491  0.09997283
   0.84541946  0.16206100  0.09997087
   0.68576583  0.84288273  0.09997149
   0.84541879  0.68336296  0.09997087
   0.33336332  0.16668166  0.32557801
   0.50005243  0.00010512  0.32554809
   0.33333259  0.66666627  0.32526619
   0.50005243  0.49994656  0.32554809
   0.83332355  0.16668370  0.32557324
   0.00000636  0.00000281  0.32554558
   0.83332353  0.66663982  0.32557324
   0.99990208  0.49995066  0.32554883
Direct configuration=    13
   0.33833135  0.66916555  0.10026925
   0.67166795  0.33583237  0.09997638
   0.16460804  0.32172121  0.09996961
   0.32413943  0.16207032  0.09997404
   0.16460998  0.84288770  0.09996963
   0.84542280  0.16206687  0.09997299
   0.68576901  0.84288412  0.09996844
   0.84542416  0.68335584  0.09997299
   0.33335534  0.16667756  0.32557876
   0.50004472  0.00009022  0.32555312
   0.33333317  0.66666647  0.32526771
   0.50004473  0.49995393  0.32555312
   0.83332726  0.16667913  0.32557396
   0.00000487  0.00000215  0.32553867
   0.83332725  0.66664789  0.32557396
   0.99991528  0.49995735  0.32555405
Direct configuration=    14
   0.33832961  0.66916420  0.10027945
   0.67166759  0.33583282  0.09997213
   0.16460740  0.32171677  0.09997178
   0.32414165  0.16207140  0.09997716
   0.16460709  0.84288929  0.09997177
   0.84541943  0.16206916  0.09997580
   0.68577413  0.84288619  0.09997040
   0.84541886  0.68335049  0.09997584
   0.33335441  0.16667691  0.32557257
   0.50004131  0.00008335  0.32554892
   0.33333523  0.66666731  0.32526738
   0.50004131  0.49995785  0.32554892
   0.83333045  0.16667828  0.32556791
   0.00000449  0.00000219  0.32554913
   0.83333044  0.66665156  0.32556791
   0.99992195  0.49996091  0.32554958
Direct configuration=    15
   0.33832894  0.66916368  0.10028336
   0.67166745  0.33583300  0.09997051
   0.16460715  0.32171506  0.09997261
   0.32414250  0.16207181  0.09997835
   0.16460598  0.84288990  0.09997260
   0.84541813  0.16207004  0.09997688
   0.68577609  0.84288698  0.09997116
   0.84541682  0.68334843  0.09997694
   0.33335405  0.16667666  0.32557020
   0.50004001  0.00008071  0.32554731
   0.33333603  0.66666764  0.32526726
   0.50004000  0.49995936  0.32554731
   0.83333168  0.16667795  0.32556559
   0.00000434  0.00000220  0.32555314
   0.83333166  0.66665296  0.32556559
   0.99992451  0.49996228  0.32554786
Direct configuration=    16
   0.33833125  0.66916508  0.10028971
   0.67166045  0.33583135  0.09996884
   0.16459967  0.32171694  0.09997693
   0.32414452  0.16206882  0.09998251
   0.16459964  0.84288439  0.09997691
   0.84542725  0.16207048  0.09998067
   0.68576396  0.84288443  0.09997516
   0.84542737  0.68335278  0.09998073
   0.33335282  0.16667653  0.32556541
   0.50004541  0.00008612  0.32554260
   0.33333476  0.66666753  0.32526543
   0.50004540  0.49995843  0.32554260
   0.83333043  0.16667782  0.32556085
   0.00000799  0.00000355  0.32555441
   0.83333044  0.66665287  0.32556085
   0.99992397  0.49996156  0.32554305
Direct configuration=    17
   0.33833062  0.66916470  0.10028799
   0.67166235  0.33583180  0.09996929
   0.16460170  0.32171643  0.09997576
   0.32414397  0.16206963  0.09998138
   0.16460137  0.84288588  0.09997574
   0.84542477  0.16207036  0.09997964
   0.68576726  0.84288512  0.09997407
   0.84542450  0.68335160  0.09997970
   0.33335315  0.16667657  0.32556671
   0.50004394  0.00008465  0.32554388
   0.33333510  0.66666756  0.32526592
   0.50004393  0.49995868  0.32554388
   0.83333077  0.16667785  0.32556214
   0.00000700  0.00000319  0.32555407
   0.83333077  0.66665290  0.32556214
   0.99992412  0.49996175  0.32554436
Direct configuration=    18
   0.33832914  0.66916462  0.10029086
   0.67166165  0.33583128  0.09996930
   0.16460354  0.32171779  0.09997889
   0.32414061  0.16206814  0.09998401
   0.16460308  0.84288510  0.09997888
   0.84542346  0.16206858  0.09998203
   0.68576557  0.84288388  0.09997699
   0.84542327  0.68335289  0.09998208
   0.33335422  0.16667719  0.32556429
   0.50004625  0.00008761  0.32554097
   0.33333545  0.66666783  0.32526420
   0.50004624  0.49995790  0.32554098
   0.83333083  0.16667852  0.32555972
   0.00000828  0.00000376  0.32555230
   0.83333084  0.66665249  0.32555973
   0.99992290  0.49996108  0.32554145
Direct configuration=    19
   0.33832469  0.66916439  0.10029949
   0.67165954  0.33582971  0.09996932
   0.16460904  0.32172188  0.09998830
   0.32413052  0.16206368  0.09999189
   0.16460824  0.84288276  0.09998830
   0.84541952  0.16206322  0.09998919
   0.68576052  0.84288016  0.09998573
   0.84541958  0.68335679  0.09998923
   0.33335741  0.16667906  0.32555703
   0.50005319  0.00009651  0.32553227
   0.33333649  0.66666864  0.32525901
   0.50005317  0.49995557  0.32553227
   0.83333102  0.16668050  0.32555247
   0.00001212  0.00000547  0.32554698
   0.83333105  0.66665128  0.32555248
   0.99991924  0.49995905  0.32553270
Direct configuration=    20
   0.33831579  0.66916392  0.10031675
   0.67165531  0.33582659  0.09996937
   0.16462004  0.32173006  0.10000710
   0.32411035  0.16205474  0.10000766
   0.16461856  0.84287806  0.10000713
   0.84541165  0.16205250  0.10000352
   0.68575042  0.84287272  0.10000322
   0.84541219  0.68336457  0.10000351
   0.33336380  0.16668279  0.32554250
   0.50006708  0.00011430  0.32551486
   0.33333856  0.66667027  0.32524865
   0.50006702  0.49995091  0.32551486
   0.83333139  0.16668448  0.32553798
   0.00001979  0.00000890  0.32553636
   0.83333146  0.66664886  0.32553799
   0.99991193  0.49995500  0.32551521
Direct configuration=    21
   0.33832300  0.66916430  0.10030276
   0.67165873  0.33582912  0.09996933
   0.16461112  0.32172343  0.09999186
   0.32412670  0.16206198  0.09999488
   0.16461019  0.84288187  0.09999186
   0.84541803  0.16206119  0.09999191
   0.68575861  0.84287875  0.09998904
   0.84541818  0.68335826  0.09999193
   0.33335862  0.16667976  0.32555428
   0.50005582  0.00009988  0.32552897
   0.33333688  0.66666895  0.32525705
   0.50005579  0.49995469  0.32552898
   0.83333109  0.16668126  0.32554973
   0.00001357  0.00000612  0.32554497
   0.83333113  0.66665083  0.32554974
   0.99991786  0.49995828  0.32552939
Direct configuration=    22
   0.33832260  0.66916393  0.10030426
   0.67165839  0.33582894  0.09996978
   0.16461040  0.32172281  0.09999368
   0.32412660  0.16206191  0.09999640
   0.16460938  0.84288181  0.09999369
   0.84541743  0.16206119  0.09999329
   0.68575860  0.84287874  0.09999074
   0.84541749  0.68335765  0.09999331
   0.33335946  0.16668013  0.32555292
   0.50005582  0.00009968  0.32552741
   0.33333764  0.66666928  0.32525575
   0.50005579  0.49995502  0.32552741
   0.83333182  0.16668163  0.32554836
   0.00001372  0.00000627  0.32554348
   0.83333185  0.66665107  0.32554837
   0.99991835  0.49995860  0.32552783
Direct configuration=    23
   0.33832139  0.66916282  0.10030877
   0.67165737  0.33582837  0.09997112
   0.16460825  0.32172096  0.09999915
   0.32412627  0.16206169  0.10000097
   0.16460692  0.84288163  0.09999916
   0.84541563  0.16206118  0.09999745
   0.68575856  0.84287871  0.09999582
   0.84541543  0.68335583  0.09999746
   0.33336198  0.16668124  0.32554883
   0.50005581  0.00009909  0.32552272
   0.33333992  0.66667026  0.32525184
   0.50005578  0.49995603  0.32552272
   0.83333401  0.16668275  0.32554426
   0.00001415  0.00000670  0.32553899
   0.83333403  0.66665182  0.32554427
   0.99991984  0.49995956  0.32552314
Direct configuration=    24
   0.33831897  0.66916060  0.10031779
   0.67165532  0.33582725  0.09997380
   0.16460393  0.32171726  0.10001009
   0.32412562  0.16206126  0.10001011
   0.16460201  0.84288128  0.10001012
   0.84541202  0.16206117  0.10000577
   0.68575848  0.84287866  0.10000598
   0.84541130  0.68335220  0.10000575
   0.33336701  0.16668346  0.32554064
   0.50005580  0.00009792  0.32551333
   0.33334448  0.66667222  0.32524402
   0.50005578  0.49995804  0.32551333
   0.83333839  0.16668500  0.32553605
   0.00001503  0.00000757  0.32553003
   0.83333839  0.66665331  0.32553607
   0.99992281  0.49996147  0.32551377
Direct configuration=    25
   0.33831414  0.66915617  0.10033582
   0.67165123  0.33582501  0.09997917
   0.16459530  0.32170987  0.10003198
   0.32412431  0.16206038  0.10002840
   0.16459218  0.84288057  0.10003203
   0.84540480  0.16206115  0.10002241
   0.68575831  0.84287855  0.10002631
   0.84540303  0.68334492  0.10002234
   0.33337709  0.16668789  0.32552428
   0.50005577  0.00009557  0.32549456
   0.33335359  0.66667615  0.32522838
   0.50005576  0.49996206  0.32549456
   0.83334716  0.16668949  0.32551964
   0.00001678  0.00000930  0.32551209
   0.83334711  0.66665630  0.32551966
   0.99992875  0.49996530  0.32549503
Direct configuration=    26
   0.33831500  0.66915696  0.10033259
   0.67165197  0.33582541  0.09997821
   0.16459685  0.32171119  0.10002806
   0.32412454  0.16206054  0.10002513
   0.16459394  0.84288070  0.10002811
   0.84540609  0.16206116  0.10001943
   0.68575834  0.84287857  0.10002267
   0.84540451  0.68334622  0.10001937
   0.33337528  0.16668710  0.32552721
   0.50005578  0.00009599  0.32549792
   0.33335196  0.66667545  0.32523118
   0.50005576  0.49996134  0.32549792
   0.83334559  0.16668868  0.32552258
   0.00001647  0.00000899  0.32551530
   0.83334555  0.66665577  0.32552260
   0.99992769  0.49996461  0.32549838
Direct configuration=    27
   0.33831449  0.66915649  0.10033452
   0.67165153  0.33582517  0.09997879
   0.16459592  0.32171040  0.10003041
   0.32412440  0.16206045  0.10002708
   0.16459289  0.84288062  0.10003046
   0.84540532  0.16206116  0.10002121
   0.68575833  0.84287855  0.10002485
   0.84540363  0.68334544  0.10002114
   0.33337636  0.16668757  0.32552546
   0.50005578  0.00009574  0.32549591
   0.33335294  0.66667587  0.32522950
   0.50005576  0.49996177  0.32549591
   0.83334653  0.16668916  0.32552082
   0.00001665  0.00000917  0.32551338
   0.83334649  0.66665609  0.32552084
   0.99992832  0.49996502  0.32549637
Direct configuration=    28
   0.33831426  0.66915628  0.10033537
   0.67165134  0.33582506  0.09997904
   0.16459552  0.32171005  0.10003143
   0.32412434  0.16206041  0.10002794
   0.16459243  0.84288059  0.10003148
   0.84540498  0.16206115  0.10002199
   0.68575832  0.84287855  0.10002580
   0.84540324  0.68334510  0.10002192
   0.33337683  0.16668778  0.32552469
   0.50005577  0.00009563  0.32549504
   0.33335336  0.66667605  0.32522877
   0.50005576  0.49996196  0.32549503
   0.83334694  0.16668937  0.32552005
   0.00001674  0.00000925  0.32551254
   0.83334689  0.66665623  0.32552007
   0.99992860  0.49996520  0.32549550
Direct configuration=    29
   0.33831418  0.66915621  0.10033565
   0.67165127  0.33582503  0.09997912
   0.16459538  0.32170993  0.10003178
   0.32412432  0.16206039  0.10002823
   0.16459227  0.84288058  0.10003183
   0.84540487  0.16206115  0.10002226
   0.68575831  0.84287855  0.10002612
   0.84540311  0.68334498  0.10002218
   0.33337699  0.16668785  0.32552443
   0.50005577  0.00009559  0.32549474
   0.33335351  0.66667611  0.32522853
   0.50005576  0.49996202  0.32549474
   0.83334708  0.16668945  0.32551979
   0.00001676  0.00000928  0.32551226
   0.83334703  0.66665627  0.32551981
   0.99992870  0.49996526  0.32549520
Direct configuration=    30
   0.33831416  0.66915618  0.10033576
   0.67165125  0.33582502  0.09997915
   0.16459533  0.32170989  0.10003190
   0.32412431  0.16206039  0.10002833
   0.16459221  0.84288058  0.10003196
   0.84540483  0.16206115  0.10002235
   0.68575831  0.84287855  0.10002624
   0.84540306  0.68334494  0.10002228
   0.33337705  0.16668788  0.32552434
   0.50005577  0.00009558  0.32549463
   0.33335356  0.66667614  0.32522844
   0.50005576  0.49996204  0.32549463
   0.83334713  0.16668947  0.32551970
   0.00001677  0.00000929  0.32551216
   0.83334708  0.66665629  0.32551972
   0.99992873  0.49996528  0.32549509
Direct configuration=    31
   0.33831415  0.66915617  0.10033580
   0.67165124  0.33582501  0.09997917
   0.16459532  0.32170988  0.10003195
   0.32412431  0.16206038  0.10002837
   0.16459219  0.84288058  0.10003200
   0.84540481  0.16206115  0.10002239
   0.68575831  0.84287855  0.10002628
   0.84540305  0.68334493  0.10002231
   0.33337707  0.16668789  0.32552430
   0.50005577  0.00009557  0.32549459
   0.33335358  0.66667614  0.32522840
   0.50005576  0.49996205  0.32549459
   0.83334715  0.16668948  0.32551966
   0.00001678  0.00000930  0.32551212
   0.83334710  0.66665630  0.32551968
   0.99992874  0.49996529  0.32549505
Direct configuration=    32
   0.33831414  0.66915617  0.10033581
   0.67165124  0.33582501  0.09997917
   0.16459531  0.32170987  0.10003197
   0.32412431  0.16206038  0.10002839
   0.16459218  0.84288057  0.10003202
   0.84540481  0.16206115  0.10002240
   0.68575831  0.84287855  0.10002630
   0.84540304  0.68334492  0.10002233
   0.33337708  0.16668789  0.32552429
   0.50005577  0.00009557  0.32549457
   0.33335359  0.66667615  0.32522839
   0.50005576  0.49996206  0.32549457
   0.83334715  0.16668948  0.32551965
   0.00001678  0.00000930  0.32551210
   0.83334711  0.66665630  0.32551967
   0.99992875  0.49996529  0.32549504
Direct configuration=    33
   0.33831414  0.66915617  0.10033582
   0.67165123  0.33582501  0.09997917
   0.16459531  0.32170987  0.10003198
   0.32412431  0.16206038  0.10002840
   0.16459218  0.84288057  0.10003203
   0.84540480  0.16206115  0.10002241
   0.68575831  0.84287855  0.10002631
   0.84540304  0.68334492  0.10002233
   0.33337708  0.16668789  0.32552429
   0.50005577  0.00009557  0.32549457
   0.33335359  0.66667615  0.32522838
   0.50005576  0.49996206  0.32549457
   0.83334716  0.16668949  0.32551964
   0.00001678  0.00000930  0.32551210
   0.83334711  0.66665630  0.32551966
   0.99992875  0.49996530  0.32549503
Direct configuration=    34
   0.33831414  0.66915617  0.10033582
   0.67165123  0.33582501  0.09997917
   0.16459530  0.32170987  0.10003198
   0.32412431  0.16206038  0.10002840
   0.16459218  0.84288057  0.10003203
   0.84540480  0.16206115  0.10002241
   0.68575831  0.84287855  0.10002631
   0.84540304  0.68334492  0.10002233
   0.33337709  0.16668789  0.32552428
   0.50005577  0.00009557  0.32549456
   0.33335359  0.66667615  0.32522838
   0.50005576  0.49996206  0.32549456
   0.83334716  0.16668949  0.32551964
   0.00001678  0.00000930  0.32551209
   0.83334711  0.66665630  0.32551966
   0.99992875  0.49996530  0.32549503
Direct configuration=    35
   0.33831414  0.66915617  0.10033582
   0.67165123  0.33582501  0.09997917
   0.16459530  0.32170987  0.10003198
   0.32412431  0.16206038  0.10002840
   0.16459218  0.84288057  0.10003203
   0.84540480  0.16206115  0.10002241
   0.68575831  0.84287855  0.10002631
   0.84540304  0.68334492  0.10002233
   0.33337709  0.16668789  0.32552428
   0.50005577  0.00009557  0.32549456
   0.33335359  0.66667615  0.32522838
   0.50005576  0.49996206  0.32549456
   0.83334716  0.16668949  0.32551964
   0.00001678  0.00000930  0.32551209
   0.83334711  0.66665630  0.32551966
   0.99992875  0.49996530  0.32549503
Direct configuration=    36
   0.33831414  0.66915617  0.10033582
   0.67165123  0.33582501  0.09997917
   0.16459530  0.32170987  0.10003198
   0.32412431  0.16206038  0.10002840
   0.16459218  0.84288057  0.10003203
   0.84540480  0.16206115  0.10002241
   0.68575831  0.84287855  0.10002631
   0.84540303  0.68334492  0.10002234
   0.33337709  0.16668789  0.32552428
   0.50005577  0.00009557  0.32549456
   0.33335359  0.66667615  0.32522838
   0.50005576  0.49996206  0.32549456
   0.83334716  0.16668949  0.32551964
   0.00001678  0.00000930  0.32551209
   0.83334711  0.66665630  0.32551966
   0.99992875  0.49996530  0.32549503
Direct configuration=    37
   0.33831414  0.66915617  0.10033582
   0.67165123  0.33582501  0.09997917
   0.16459530  0.32170987  0.10003198
   0.32412431  0.16206038  0.10002840
   0.16459218  0.84288057  0.10003203
   0.84540480  0.16206115  0.10002241
   0.68575831  0.84287855  0.10002631
   0.84540303  0.68334492  0.10002234
   0.33337709  0.16668789  0.32552428
   0.50005577  0.00009557  0.32549456
   0.33335359  0.66667615  0.32522838
   0.50005576  0.49996206  0.32549456
   0.83334716  0.16668949  0.32551964
   0.00001678  0.00000930  0.32551209
   0.83334711  0.66665630  0.32551966
   0.99992875  0.49996530  0.32549503
Direct configuration=    38
   0.33831414  0.66915617  0.10033582
   0.67165123  0.33582501  0.09997917
   0.16459530  0.32170987  0.10003198
   0.32412431  0.16206038  0.10002840
   0.16459218  0.84288057  0.10003203
   0.84540480  0.16206115  0.10002241
   0.68575831  0.84287855  0.10002631
   0.84540303  0.68334492  0.10002234
   0.33337709  0.16668789  0.32552428
   0.50005577  0.00009557  0.32549456
   0.33335359  0.66667615  0.32522838
   0.50005576  0.49996206  0.32549456
   0.83334716  0.16668949  0.32551964
   0.00001678  0.00000930  0.32551209
   0.83334711  0.66665630  0.32551966
   0.99992875  0.49996530  0.32549503
Direct configuration=    39
   0.33831414  0.66915617  0.10033582
   0.67165123  0.33582501  0.09997917
   0.16459530  0.32170987  0.10003198
   0.32412431  0.16206038  0.10002840
   0.16459218  0.84288057  0.10003203
   0.84540480  0.16206115  0.10002241
   0.68575831  0.84287855  0.10002631
   0.84540303  0.68334492  0.10002234
   0.33337709  0.16668789  0.32552428
   0.50005577  0.00009557  0.32549456
   0.33335359  0.66667615  0.32522838
   0.50005576  0.49996206  0.32549456
   0.83334716  0.16668949  0.32551964
   0.00001678  0.00000930  0.32551209
   0.83334711  0.66665630  0.32551966
   0.99992875  0.49996530  0.32549503
