PROCAR lm decomposed
# of k-points:   61         # of bands:   48         # of ions:   15

 k-point     1 :    0.00000000 0.00000000 0.00000000     weight = 0.00826446

band     1 # energy  -20.24093681 # occ.  2.00000000
 
ion      s     py     pz     px    dxy    dyz    dz2    dxz  x2-y2    tot
    1  0.000  0.000  0.000  0.000  0.000  0.000  0.000  0.000  0.000  0.000
    2  0.000  0.000  0.000  0.000  0.000  0.000  0.000  0.000  0.000  0.000
    3  0.000  0.000  0.000  0.000  0.000  0.000  0.000  0.000  0.000  0.000
    4  0.000  0.000  0.000  0.000  0.000  0.000  0.000  0.000  0.000  0.000
    5  0.000  0.000  0.000  0.000  0.000  0.000  0.000  0.000  0.000  0.000
    6  0.000  0.000  0.000  0.000  0.000  0.000  0.000  0.000  0.000  0.000
    7  0.000  0.000  0.000  0.000  0.000  0.000  0.000  0.000  0.000  0.000
    8  0.083  0.000  0.000  0.000  0.000  0.000  0.000  0.000  0.000  0.083
    9  0.083  0.000  0.000  0.000  0.000  0.000  0.000  0.000  0.000  0.083
   10  0.083  0.000  0.000  0.000  0.000  0.000  0.000  0.000  0.000  0.083
   11  0.083  0.000  0.000  0.000  0.000  0.000  0.000  0.000  0.000  0.083
   12  0.083  0.000  0.000  0.000  0.000  0.000  0.000  0.000  0.000  0.083
   13  0.083  0.000  0.000  0.000  0.000  0.000  0.000  0.000  0.000  0.083
   14  0.083  0.000  0.000  0.000  0.000  0.000  0.000  0.000  0.000  0.083
   15  0.083  0.000  0.000  0.000  0.000  0.000  0.000  0.000  0.000  0.083
tot    0.662  0.000  0.000  0.000  0.000  0.000  0.000  0.000  0.000  0.662
 
band     2 # energy  -17.38768475 # occ.  2.00000000
 
ion      s     py     pz     px    dxy    dyz    dz2    dxz  x2-y2    tot
    1  0.192  0.000  0.000  0.000  0.000  0.000  0.000  0.000  0.000  0.192
    2  0.066  0.002  0.000  0.005  0.000  0.000  0.000  0.000  0.000  0.072
    3  0.066  0.002  0.000  0.005  0.000  0.000  0.000  0.000  0.000  0.072
    4  0.066  0.006  0.000  0.000  0.000  0.000  0.000  0.000  0.000  0.072
    5  0.091  0.007  0.000  0.000  0.000  0.000  0.000  0.000  0.000  0.098
    6  0.091  0.002  0.000  0.005  0.000  0.000  0.000  0.000  0.000  0.098
    7  0.091  0.002  0.000  0.005  0.000  0.000  0.000  0.000  0.000  0.098
    8  0.000  0.000  0.000  0.000  0.000  0.000  0.000  0.000  0.000  0.000
    9  0.000  0.000  0.000  0.000  0.000  0.000  0.000  0.000  0.000  0.000
   10  0.000  0.000  0.000  0.000  0.000  0.000  0.000  0.000  0.000  0.000
   11  0.000  0.000  0.000  0.000  0.000  0.000  0.000  0.000  0.000  0.000
   12  0.000  0.000  0.000  0.000  0.000  0.000  0.000  0.000  0.000  0.000
   13  0.000  0.000  0.000  0.000  0.000  0.000  0.000  0.000  0.000  0.000
   14  0.000  0.000  0.000  0.000  0.000  0.000  0.000  0.000  0.000  0.000
   15  0.000  0.000  0.000  0.000  0.000  0.000  0.000  0.000  0.000  0.000
tot    0.664  0.019  0.000  0.019  0.000  0.000  0.000  0.000  0.000  0.703
 
band     3 # energy  -14.75343602 # occ.  2.00000000
 
ion      s     py     pz     px    dxy    dyz    dz2    dxz  x2-y2    tot
    1  0.000  0.000  0.000  0.000  0.000  0.000  0.000  0.000  0.000  0.000
    2  0.000  0.000  0.000  0.000  0.000  0.000  0.000  0.000  0.000  0.000
    3  0.000  0.000  0.000  0.000  0.000  0.000  0.000  0.000  0.000  0.000
    4  0.000  0.000  0.000  0.000  0.000  0.000  0.000  0.000  0.000  0.000
    5  0.000  0.000  0.000  0.000  0.000  0.000  0.000  0.000  0.000  0.000
    6  0.000  0.000  0.000  0.000  0.000  0.000  0.000  0.000  0.000  0.000
    7  0.000  0.000  0.000  0.000  0.000  0.000  0.000  0.000  0.000  0.000
    8  0.023  0.017  0.000  0.006  0.000  0.000  0.000  0.000  0.000  0.045
    9  0.028  0.017  0.000  0.005  0.000  0.000  0.000  0.000  0.000  0.050
   10  0.230  0.000  0.000  0.000  0.000  0.000  0.000  0.000  0.000  0.230
   11  0.026  0.000  0.000  0.022  0.000  0.000  0.000  0.000  0.000  0.049
   12  0.027  0.000  0.000  0.022  0.000  0.000  0.000  0.000  0.000  0.049
   13  0.229  0.000  0.000  0.000  0.000  0.000  0.000  0.000  0.000  0.229
   14  0.028  0.017  0.000  0.005  0.000  0.000  0.000  0.000  0.000  0.050
   15  0.022  0.017  0.000  0.006  0.000  0.000  0.000  0.000  0.000  0.045
tot    0.613  0.068  0.000  0.066  0.000  0.000  0.000  0.000  0.000  0.747
 
band     4 # energy  -14.75174777 # occ.  2.00000000
 
ion      s     py     pz     px    dxy    dyz    dz2    dxz  x2-y2    tot
    1  0.000  0.000  0.000  0.000  0.000  0.000  0.000  0.000  0.000  0.000
    2  0.000  0.000  0.000  0.000  0.000  0.000  0.000  0.000  0.000  0.000
    3  0.000  0.000  0.000  0.000  0.000  0.000  0.000  0.000  0.000  0.000
    4  0.000  0.000  0.000  0.000  0.000  0.000  0.000  0.000  0.000  0.000
    5  0.000  0.000  0.000  0.000  0.000  0.000  0.000  0.000  0.000  0.000
    6  0.000  0.000  0.000  0.000  0.000  0.000  0.000  0.000  0.000  0.000
    7  0.000  0.000  0.000  0.000  0.000  0.000  0.000  0.000  0.000  0.000
    8  0.010  0.005  0.000  0.019  0.000  0.000  0.000  0.000  0.000  0.034
    9  0.184  0.005  0.000  0.000  0.000  0.000  0.000  0.000  0.000  0.189
   10  0.000  0.011  0.000  0.014  0.000  0.000  0.000  0.000  0.000  0.025
   11  0.114  0.011  0.000  0.001  0.000  0.000  0.000  0.000  0.000  0.127
   12  0.113  0.011  0.000  0.001  0.000  0.000  0.000  0.000  0.000  0.125
   13  0.000  0.011  0.000  0.014  0.000  0.000  0.000  0.000  0.000  0.025
   14  0.184  0.005  0.000  0.000  0.000  0.000  0.000  0.000  0.000  0.189
   15  0.009  0.005  0.000  0.019  0.000  0.000  0.000  0.000  0.000  0.033
tot    0.613  0.064  0.000  0.069  0.000  0.000  0.000  0.000  0.000  0.747
 
band     5 # energy  -14.75166989 # occ.  2.00000000
 
ion      s     py     pz     px    dxy    dyz    dz2    dxz  x2-y2    tot
    1  0.000  0.000  0.000  0.000  0.000  0.000  0.000  0.000  0.000  0.000
    2  0.000  0.000  0.000  0.000  0.000  0.000  0.000  0.000  0.000  0.000
    3  0.000  0.000  0.000  0.000  0.000  0.000  0.000  0.000  0.000  0.000
    4  0.000  0.000  0.000  0.000  0.000  0.000  0.000  0.000  0.000  0.000
    5  0.000  0.000  0.000  0.000  0.000  0.000  0.000  0.000  0.000  0.000
    6  0.000  0.000  0.000  0.000  0.000  0.000  0.000  0.000  0.000  0.000
    7  0.000  0.000  0.000  0.000  0.000  0.000  0.000  0.000  0.000  0.000
    8  0.197  0.003  0.000  0.000  0.000  0.000  0.000  0.000  0.000  0.201
    9  0.018  0.003  0.000  0.020  0.000  0.000  0.000  0.000  0.000  0.041
   10  0.000  0.014  0.000  0.011  0.000  0.000  0.000  0.000  0.000  0.025
   11  0.090  0.014  0.000  0.001  0.000  0.000  0.000  0.000  0.000  0.105
   12  0.090  0.014  0.000  0.001  0.000  0.000  0.000  0.000  0.000  0.106
   13  0.000  0.014  0.000  0.011  0.000  0.000  0.000  0.000  0.000  0.025
   14  0.018  0.003  0.000  0.020  0.000  0.000  0.000  0.000  0.000  0.041
   15  0.199  0.003  0.000  0.000  0.000  0.000  0.000  0.000  0.000  0.202
tot    0.613  0.069  0.000  0.065  0.000  0.000  0.000  0.000  0.000  0.747
 
band     6 # energy  -13.86958089 # occ.  2.00000000
 
ion      s     py     pz     px    dxy    dyz    dz2    dxz  x2-y2    tot
    1  0.000  0.001  0.000  0.000  0.000  0.000  0.000  0.000  0.000  0.001
    2  0.000  0.000  0.000  0.000  0.000  0.000  0.000  0.000  0.000  0.000
    3  0.000  0.000  0.000  0.000  0.000  0.000  0.000  0.000  0.000  0.000
    4  0.000  0.000  0.000  0.000  0.000  0.000  0.000  0.000  0.000  0.001
    5  0.001  0.000  0.000  0.000  0.000  0.000  0.000  0.000  0.000  0.001
    6  0.000  0.000  0.000  0.000  0.000  0.000  0.000  0.000  0.000  0.000
    7  0.000  0.000  0.000  0.000  0.000  0.000  0.000  0.000  0.000  0.000
    8  0.086  0.001  0.000  0.012  0.000  0.000  0.000  0.000  0.000  0.099
    9  0.047  0.001  0.000  0.041  0.000  0.000  0.000  0.000  0.000  0.088
   10  0.000  0.072  0.000  0.004  0.000  0.000  0.000  0.000  0.000  0.076
   11  0.005  0.072  0.000  0.001  0.000  0.000  0.000  0.000  0.000  0.078
   12  0.005  0.072  0.000  0.001  0.000  0.000  0.000  0.000  0.000  0.078
   13  0.000  0.072  0.000  0.004  0.000  0.000  0.000  0.000  0.000  0.077
   14  0.047  0.001  0.000  0.040  0.000  0.000  0.000  0.000  0.000  0.088
   15  0.084  0.001  0.000  0.012  0.000  0.000  0.000  0.000  0.000  0.097
tot    0.275  0.295  0.000  0.115  0.000  0.000  0.000  0.000  0.000  0.685
 
band     7 # energy  -13.86949420 # occ.  2.00000000
 
ion      s     py     pz     px    dxy    dyz    dz2    dxz  x2-y2    tot
    1  0.000  0.000  0.000  0.001  0.000  0.000  0.000  0.000  0.000  0.001
    2  0.000  0.000  0.000  0.000  0.000  0.000  0.000  0.000  0.000  0.000
    3  0.000  0.000  0.000  0.000  0.000  0.000  0.000  0.000  0.000  0.001
    4  0.000  0.000  0.000  0.000  0.000  0.000  0.000  0.000  0.000  0.000
    5  0.000  0.000  0.000  0.000  0.000  0.000  0.000  0.000  0.000  0.000
    6  0.001  0.000  0.000  0.000  0.000  0.000  0.000  0.000  0.000  0.001
    7  0.001  0.000  0.000  0.000  0.000  0.000  0.000  0.000  0.000  0.001
    8  0.007  0.023  0.000  0.048  0.000  0.000  0.000  0.000  0.000  0.078
    9  0.044  0.023  0.000  0.021  0.000  0.000  0.000  0.000  0.000  0.087
   10  0.000  0.004  0.000  0.072  0.000  0.000  0.000  0.000  0.000  0.076
   11  0.084  0.004  0.000  0.009  0.000  0.000  0.000  0.000  0.000  0.097
   12  0.085  0.004  0.000  0.009  0.000  0.000  0.000  0.000  0.000  0.098
   13  0.000  0.004  0.000  0.072  0.000  0.000  0.000  0.000  0.000  0.077
   14  0.045  0.023  0.000  0.021  0.000  0.000  0.000  0.000  0.000  0.088
   15  0.007  0.023  0.000  0.048  0.000  0.000  0.000  0.000  0.000  0.079
tot    0.275  0.109  0.000  0.301  0.000  0.000  0.000  0.000  0.000  0.685
 
band     8 # energy  -13.86767993 # occ.  2.00000000
 
ion      s     py     pz     px    dxy    dyz    dz2    dxz  x2-y2    tot
    1  0.000  0.000  0.000  0.000  0.000  0.000  0.000  0.000  0.000  0.000
    2  0.000  0.000  0.000  0.000  0.000  0.000  0.000  0.000  0.000  0.000
    3  0.000  0.000  0.000  0.000  0.000  0.000  0.000  0.000  0.000  0.000
    4  0.000  0.000  0.000  0.000  0.000  0.000  0.000  0.000  0.000  0.000
    5  0.000  0.000  0.000  0.000  0.000  0.000  0.000  0.000  0.000  0.000
    6  0.000  0.000  0.000  0.000  0.000  0.000  0.000  0.000  0.000  0.000
    7  0.000  0.000  0.000  0.000  0.000  0.000  0.000  0.000  0.000  0.000
    8  0.010  0.053  0.000  0.016  0.000  0.000  0.000  0.000  0.000  0.080
    9  0.011  0.053  0.000  0.016  0.000  0.000  0.000  0.000  0.000  0.080
   10  0.102  0.000  0.000  0.000  0.000  0.000  0.000  0.000  0.000  0.102
   11  0.013  0.000  0.000  0.067  0.000  0.000  0.000  0.000  0.000  0.080
   12  0.013  0.000  0.000  0.067  0.000  0.000  0.000  0.000  0.000  0.080
   13  0.104  0.000  0.000  0.000  0.000  0.000  0.000  0.000  0.000  0.104
   14  0.011  0.053  0.000  0.016  0.000  0.000  0.000  0.000  0.000  0.080
   15  0.010  0.053  0.000  0.016  0.000  0.000  0.000  0.000  0.000  0.079
tot    0.275  0.211  0.000  0.199  0.000  0.000  0.000  0.000  0.000  0.685
 
band     9 # energy  -13.49911586 # occ.  2.00000000
 
ion      s     py     pz     px    dxy    dyz    dz2    dxz  x2-y2    tot
    1  0.000  0.167  0.000  0.004  0.000  0.000  0.000  0.000  0.000  0.171
    2  0.004  0.008  0.000  0.027  0.000  0.000  0.000  0.000  0.000  0.039
    3  0.010  0.001  0.000  0.044  0.000  0.000  0.000  0.000  0.000  0.056
    4  0.027  0.069  0.000  0.001  0.000  0.000  0.000  0.000  0.000  0.096
    5  0.228  0.018  0.000  0.000  0.000  0.000  0.000  0.000  0.000  0.246
    6  0.030  0.002  0.000  0.007  0.000  0.000  0.000  0.000  0.000  0.040
    7  0.092  0.000  0.000  0.012  0.000  0.000  0.000  0.000  0.000  0.104
    8  0.000  0.000  0.000  0.000  0.000  0.000  0.000  0.000  0.000  0.001
    9  0.001  0.000  0.000  0.000  0.000  0.000  0.000  0.000  0.000  0.001
   10  0.000  0.001  0.000  0.000  0.000  0.000  0.000  0.000  0.000  0.001
   11  0.000  0.000  0.000  0.000  0.000  0.000  0.000  0.000  0.000  0.000
   12  0.000  0.001  0.000  0.000  0.000  0.000  0.000  0.000  0.000  0.001
   13  0.000  0.000  0.000  0.000  0.000  0.000  0.000  0.000  0.000  0.000
   14  0.000  0.000  0.000  0.000  0.000  0.000  0.000  0.000  0.000  0.000
   15  0.001  0.000  0.000  0.000  0.000  0.000  0.000  0.000  0.000  0.001
tot    0.393  0.268  0.000  0.096  0.000  0.000  0.000  0.000  0.000  0.756
 
band    10 # energy  -13.49899518 # occ.  2.00000000
 
ion      s     py     pz     px    dxy    dyz    dz2    dxz  x2-y2    tot
    1  0.000  0.004  0.000  0.167  0.000  0.000  0.000  0.000  0.000  0.171
    2  0.023  0.031  0.000  0.034  0.000  0.000  0.000  0.000  0.000  0.089
    3  0.017  0.039  0.000  0.016  0.000  0.000  0.000  0.000  0.000  0.071
    4  0.001  0.002  0.000  0.029  0.000  0.000  0.000  0.000  0.000  0.031
    5  0.005  0.000  0.000  0.008  0.000  0.000  0.000  0.000  0.000  0.014
    6  0.203  0.008  0.000  0.009  0.000  0.000  0.000  0.000  0.000  0.220
    7  0.142  0.010  0.000  0.004  0.000  0.000  0.000  0.000  0.000  0.156
    8  0.000  0.000  0.000  0.000  0.000  0.000  0.000  0.000  0.000  0.000
    9  0.000  0.000  0.000  0.000  0.000  0.000  0.000  0.000  0.000  0.000
   10  0.000  0.000  0.000  0.001  0.000  0.000  0.000  0.000  0.000  0.001
   11  0.001  0.000  0.000  0.000  0.000  0.000  0.000  0.000  0.000  0.001
   12  0.000  0.000  0.000  0.000  0.000  0.000  0.000  0.000  0.000  0.000
   13  0.000  0.000  0.000  0.000  0.000  0.000  0.000  0.000  0.000  0.000
   14  0.000  0.000  0.000  0.000  0.000  0.000  0.000  0.000  0.000  0.001
   15  0.000  0.000  0.000  0.000  0.000  0.000  0.000  0.000  0.000  0.001
tot    0.393  0.096  0.000  0.268  0.000  0.000  0.000  0.000  0.000  0.756
 
band    11 # energy  -10.42239861 # occ.  2.00000000
 
ion      s     py     pz     px    dxy    dyz    dz2    dxz  x2-y2    tot
    1  0.157  0.000  0.000  0.000  0.000  0.000  0.000  0.000  0.000  0.157
    2  0.019  0.018  0.000  0.052  0.000  0.000  0.000  0.000  0.000  0.089
    3  0.019  0.017  0.000  0.053  0.000  0.000  0.000  0.000  0.000  0.089
    4  0.019  0.070  0.000  0.000  0.000  0.000  0.000  0.000  0.000  0.089
    5  0.014  0.075  0.000  0.000  0.000  0.000  0.000  0.000  0.000  0.089
    6  0.014  0.019  0.000  0.056  0.000  0.000  0.000  0.000  0.000  0.089
    7  0.014  0.019  0.000  0.056  0.000  0.000  0.000  0.000  0.000  0.089
    8  0.000  0.000  0.000  0.000  0.000  0.000  0.000  0.000  0.000  0.000
    9  0.000  0.000  0.000  0.000  0.000  0.000  0.000  0.000  0.000  0.000
   10  0.000  0.000  0.000  0.000  0.000  0.000  0.000  0.000  0.000  0.000
   11  0.000  0.000  0.000  0.000  0.000  0.000  0.000  0.000  0.000  0.000
   12  0.000  0.000  0.000  0.000  0.000  0.000  0.000  0.000  0.000  0.000
   13  0.000  0.000  0.000  0.000  0.000  0.000  0.000  0.000  0.000  0.000
   14  0.000  0.000  0.000  0.000  0.000  0.000  0.000  0.000  0.000  0.000
   15  0.000  0.000  0.000  0.000  0.000  0.000  0.000  0.000  0.000  0.000
tot    0.257  0.217  0.000  0.217  0.000  0.000  0.000  0.000  0.000  0.693
 
band    12 # energy   -9.43346450 # occ.  2.00000000
 
ion      s     py     pz     px    dxy    dyz    dz2    dxz  x2-y2    tot
    1  0.000  0.002  0.000  0.037  0.000  0.000  0.000  0.000  0.000  0.039
    2  0.124  0.010  0.000  0.000  0.000  0.000  0.000  0.000  0.000  0.133
    3  0.208  0.004  0.000  0.001  0.000  0.000  0.000  0.000  0.000  0.214
    4  0.011  0.000  0.000  0.015  0.000  0.000  0.000  0.000  0.000  0.026
    5  0.003  0.003  0.000  0.055  0.000  0.000  0.000  0.000  0.000  0.062
    6  0.038  0.056  0.000  0.007  0.000  0.000  0.000  0.000  0.000  0.100
    7  0.063  0.034  0.000  0.031  0.000  0.000  0.000  0.000  0.000  0.129
    8  0.000  0.000  0.000  0.000  0.000  0.000  0.000  0.000  0.000  0.000
    9  0.000  0.000  0.000  0.000  0.000  0.000  0.000  0.000  0.000  0.000
   10  0.000  0.000  0.000  0.000  0.000  0.000  0.000  0.000  0.000  0.000
   11  0.000  0.000  0.000  0.000  0.000  0.000  0.000  0.000  0.000  0.000
   12  0.000  0.000  0.000  0.000  0.000  0.000  0.000  0.000  0.000  0.000
   13  0.000  0.000  0.000  0.000  0.000  0.000  0.000  0.000  0.000  0.000
   14  0.000  0.000  0.000  0.000  0.000  0.000  0.000  0.000  0.000  0.000
   15  0.000  0.000  0.000  0.000  0.000  0.000  0.000  0.000  0.000  0.000
tot    0.447  0.109  0.000  0.147  0.000  0.000  0.000  0.000  0.000  0.703
 
band    13 # energy   -9.43335999 # occ.  2.00000000
 
ion      s     py     pz     px    dxy    dyz    dz2    dxz  x2-y2    tot
    1  0.000  0.037  0.000  0.002  0.000  0.000  0.000  0.000  0.000  0.039
    2  0.105  0.003  0.000  0.007  0.000  0.000  0.000  0.000  0.000  0.116
    3  0.020  0.009  0.000  0.006  0.000  0.000  0.000  0.000  0.000  0.035
    4  0.218  0.004  0.000  0.001  0.000  0.000  0.000  0.000  0.000  0.223
    5  0.066  0.063  0.000  0.003  0.000  0.000  0.000  0.000  0.000  0.132
    6  0.032  0.004  0.000  0.057  0.000  0.000  0.000  0.000  0.000  0.094
    7  0.006  0.026  0.000  0.033  0.000  0.000  0.000  0.000  0.000  0.065
    8  0.000  0.000  0.000  0.000  0.000  0.000  0.000  0.000  0.000  0.000
    9  0.000  0.000  0.000  0.000  0.000  0.000  0.000  0.000  0.000  0.000
   10  0.000  0.000  0.000  0.000  0.000  0.000  0.000  0.000  0.000  0.000
   11  0.000  0.000  0.000  0.000  0.000  0.000  0.000  0.000  0.000  0.000
   12  0.000  0.000  0.000  0.000  0.000  0.000  0.000  0.000  0.000  0.000
   13  0.000  0.000  0.000  0.000  0.000  0.000  0.000  0.000  0.000  0.000
   14  0.000  0.000  0.000  0.000  0.000  0.000  0.000  0.000  0.000  0.000
   15  0.000  0.000  0.000  0.000  0.000  0.000  0.000  0.000  0.000  0.000
tot    0.447  0.147  0.000  0.109  0.000  0.000  0.000  0.000  0.000  0.703
 
band    14 # energy   -8.38065960 # occ.  2.00000000
 
ion      s     py     pz     px    dxy    dyz    dz2    dxz  x2-y2    tot
    1  0.000  0.000  0.006  0.000  0.000  0.000  0.000  0.000  0.000  0.006
    2  0.000  0.000  0.003  0.000  0.000  0.000  0.000  0.000  0.000  0.003
    3  0.000  0.000  0.003  0.000  0.000  0.000  0.000  0.000  0.000  0.003
    4  0.000  0.000  0.003  0.000  0.000  0.000  0.000  0.000  0.000  0.003
    5  0.000  0.000  0.003  0.000  0.000  0.000  0.000  0.000  0.000  0.004
    6  0.000  0.000  0.003  0.000  0.000  0.000  0.000  0.000  0.000  0.004
    7  0.000  0.000  0.003  0.000  0.000  0.000  0.000  0.000  0.000  0.004
    8  0.000  0.000  0.050  0.000  0.000  0.000  0.000  0.000  0.000  0.050
    9  0.000  0.000  0.050  0.000  0.000  0.000  0.000  0.000  0.000  0.050
   10  0.000  0.000  0.051  0.000  0.000  0.000  0.000  0.000  0.000  0.051
   11  0.000  0.000  0.050  0.000  0.000  0.000  0.000  0.000  0.000  0.050
   12  0.000  0.000  0.050  0.000  0.000  0.000  0.000  0.000  0.000  0.050
   13  0.000  0.000  0.050  0.000  0.000  0.000  0.000  0.000  0.000  0.050
   14  0.000  0.000  0.050  0.000  0.000  0.000  0.000  0.000  0.000  0.050
   15  0.000  0.000  0.050  0.000  0.000  0.000  0.000  0.000  0.000  0.050
tot    0.002  0.000  0.425  0.000  0.000  0.000  0.000  0.000  0.000  0.427
 
band    15 # energy   -7.64596648 # occ.  2.00000000
 
ion      s     py     pz     px    dxy    dyz    dz2    dxz  x2-y2    tot
    1  0.000  0.000  0.000  0.000  0.000  0.000  0.000  0.000  0.000  0.000
    2  0.000  0.076  0.000  0.026  0.000  0.000  0.000  0.000  0.000  0.102
    3  0.000  0.077  0.000  0.025  0.000  0.000  0.000  0.000  0.000  0.102
    4  0.000  0.000  0.000  0.102  0.000  0.000  0.000  0.000  0.000  0.102
    5  0.000  0.000  0.000  0.092  0.000  0.000  0.000  0.000  0.000  0.092
    6  0.000  0.069  0.000  0.023  0.000  0.000  0.000  0.000  0.000  0.092
    7  0.000  0.069  0.000  0.023  0.000  0.000  0.000  0.000  0.000  0.092
    8  0.000  0.000  0.000  0.000  0.000  0.000  0.000  0.000  0.000  0.000
    9  0.000  0.000  0.000  0.000  0.000  0.000  0.000  0.000  0.000  0.000
   10  0.000  0.000  0.000  0.000  0.000  0.000  0.000  0.000  0.000  0.000
   11  0.000  0.000  0.000  0.000  0.000  0.000  0.000  0.000  0.000  0.000
   12  0.000  0.000  0.000  0.000  0.000  0.000  0.000  0.000  0.000  0.000
   13  0.000  0.000  0.000  0.000  0.000  0.000  0.000  0.000  0.000  0.000
   14  0.000  0.000  0.000  0.000  0.000  0.000  0.000  0.000  0.000  0.000
   15  0.000  0.000  0.000  0.000  0.000  0.000  0.000  0.000  0.000  0.000
tot    0.000  0.291  0.000  0.291  0.000  0.000  0.000  0.000  0.000  0.581
 
band    16 # energy   -6.84951310 # occ.  2.00000000
 
ion      s     py     pz     px    dxy    dyz    dz2    dxz  x2-y2    tot
    1  0.000  0.000  0.000  0.000  0.000  0.000  0.000  0.000  0.000  0.000
    2  0.000  0.000  0.000  0.000  0.000  0.000  0.000  0.000  0.000  0.000
    3  0.000  0.000  0.000  0.000  0.000  0.000  0.000  0.000  0.000  0.000
    4  0.000  0.000  0.000  0.000  0.000  0.000  0.000  0.000  0.000  0.000
    5  0.000  0.000  0.000  0.000  0.000  0.000  0.000  0.000  0.000  0.000
    6  0.000  0.000  0.000  0.000  0.000  0.000  0.000  0.000  0.000  0.000
    7  0.000  0.000  0.000  0.000  0.000  0.000  0.000  0.000  0.000  0.000
    8  0.000  0.030  0.000  0.116  0.000  0.000  0.000  0.000  0.000  0.146
    9  0.000  0.016  0.000  0.116  0.000  0.000  0.000  0.000  0.000  0.132
   10  0.000  0.002  0.000  0.002  0.000  0.000  0.000  0.000  0.000  0.004
   11  0.000  0.120  0.000  0.002  0.000  0.000  0.000  0.000  0.000  0.122
   12  0.000  0.120  0.000  0.002  0.000  0.000  0.000  0.000  0.000  0.122
   13  0.000  0.002  0.000  0.002  0.000  0.000  0.000  0.000  0.000  0.004
   14  0.000  0.016  0.000  0.116  0.000  0.000  0.000  0.000  0.000  0.132
   15  0.000  0.030  0.000  0.116  0.000  0.000  0.000  0.000  0.000  0.146
tot    0.000  0.338  0.000  0.471  0.000  0.000  0.000  0.000  0.000  0.808
 
band    17 # energy   -6.84938335 # occ.  2.00000000
 
ion      s     py     pz     px    dxy    dyz    dz2    dxz  x2-y2    tot
    1  0.000  0.000  0.000  0.000  0.000  0.000  0.000  0.000  0.000  0.000
    2  0.000  0.000  0.000  0.000  0.000  0.000  0.000  0.000  0.000  0.000
    3  0.000  0.000  0.000  0.000  0.000  0.000  0.000  0.000  0.000  0.000
    4  0.000  0.000  0.000  0.000  0.000  0.000  0.000  0.000  0.000  0.000
    5  0.000  0.000  0.000  0.000  0.000  0.000  0.000  0.000  0.000  0.000
    6  0.000  0.000  0.000  0.000  0.000  0.000  0.000  0.000  0.000  0.000
    7  0.000  0.000  0.000  0.000  0.000  0.000  0.000  0.000  0.000  0.000
    8  0.000  0.000  0.000  0.007  0.000  0.000  0.000  0.000  0.000  0.007
    9  0.000  0.130  0.000  0.007  0.000  0.000  0.000  0.000  0.000  0.137
   10  0.000  0.053  0.000  0.094  0.000  0.000  0.000  0.000  0.000  0.148
   11  0.000  0.018  0.000  0.095  0.000  0.000  0.000  0.000  0.000  0.113
   12  0.000  0.018  0.000  0.094  0.000  0.000  0.000  0.000  0.000  0.113
   13  0.000  0.053  0.000  0.094  0.000  0.000  0.000  0.000  0.000  0.148
   14  0.000  0.130  0.000  0.007  0.000  0.000  0.000  0.000  0.000  0.137
   15  0.000  0.000  0.000  0.007  0.000  0.000  0.000  0.000  0.000  0.007
tot    0.000  0.403  0.000  0.406  0.000  0.000  0.000  0.000  0.000  0.808
 
band    18 # energy   -6.84935358 # occ.  2.00000000
 
ion      s     py     pz     px    dxy    dyz    dz2    dxz  x2-y2    tot
    1  0.000  0.000  0.000  0.000  0.000  0.000  0.000  0.000  0.000  0.000
    2  0.000  0.000  0.000  0.000  0.000  0.000  0.000  0.000  0.000  0.000
    3  0.000  0.000  0.000  0.000  0.000  0.000  0.000  0.000  0.000  0.000
    4  0.000  0.000  0.000  0.000  0.000  0.000  0.000  0.000  0.000  0.000
    5  0.000  0.000  0.000  0.000  0.000  0.000  0.000  0.000  0.000  0.000
    6  0.000  0.000  0.000  0.000  0.000  0.000  0.000  0.000  0.000  0.000
    7  0.000  0.000  0.000  0.000  0.000  0.000  0.000  0.000  0.000  0.000
    8  0.000  0.121  0.000  0.029  0.000  0.000  0.000  0.000  0.000  0.150
    9  0.000  0.006  0.000  0.029  0.000  0.000  0.000  0.000  0.000  0.034
   10  0.000  0.096  0.000  0.055  0.000  0.000  0.000  0.000  0.000  0.151
   11  0.000  0.013  0.000  0.055  0.000  0.000  0.000  0.000  0.000  0.068
   12  0.000  0.013  0.000  0.055  0.000  0.000  0.000  0.000  0.000  0.069
   13  0.000  0.096  0.000  0.055  0.000  0.000  0.000  0.000  0.000  0.151
   14  0.000  0.006  0.000  0.029  0.000  0.000  0.000  0.000  0.000  0.034
   15  0.000  0.121  0.000  0.029  0.000  0.000  0.000  0.000  0.000  0.150
tot    0.000  0.472  0.000  0.336  0.000  0.000  0.000  0.000  0.000  0.808
 
band    19 # energy   -6.72144853 # occ.  2.00000000
 
ion      s     py     pz     px    dxy    dyz    dz2    dxz  x2-y2    tot
    1  0.000  0.000  0.106  0.000  0.000  0.000  0.000  0.000  0.000  0.106
    2  0.000  0.000  0.046  0.000  0.000  0.000  0.000  0.000  0.000  0.046
    3  0.000  0.000  0.046  0.000  0.000  0.000  0.000  0.000  0.000  0.046
    4  0.000  0.000  0.046  0.000  0.000  0.000  0.000  0.000  0.000  0.046
    5  0.000  0.000  0.056  0.000  0.000  0.000  0.000  0.000  0.000  0.056
    6  0.000  0.000  0.056  0.000  0.000  0.000  0.000  0.000  0.000  0.056
    7  0.000  0.000  0.056  0.000  0.000  0.000  0.000  0.000  0.000  0.056
    8  0.000  0.000  0.005  0.000  0.000  0.000  0.000  0.000  0.000  0.005
    9  0.000  0.000  0.005  0.000  0.000  0.000  0.000  0.000  0.000  0.005
   10  0.000  0.000  0.004  0.000  0.000  0.000  0.000  0.000  0.000  0.004
   11  0.000  0.000  0.005  0.000  0.000  0.000  0.000  0.000  0.000  0.005
   12  0.000  0.000  0.005  0.000  0.000  0.000  0.000  0.000  0.000  0.005
   13  0.000  0.000  0.005  0.000  0.000  0.000  0.000  0.000  0.000  0.006
   14  0.000  0.000  0.005  0.000  0.000  0.000  0.000  0.000  0.000  0.005
   15  0.000  0.000  0.005  0.000  0.000  0.000  0.000  0.000  0.000  0.005
tot    0.001  0.000  0.452  0.000  0.000  0.000  0.000  0.000  0.000  0.453
 
band    20 # energy   -3.29993764 # occ.  2.00000000
 
ion      s     py     pz     px    dxy    dyz    dz2    dxz  x2-y2    tot
    1  0.000  0.000  0.000  0.000  0.000  0.000  0.000  0.000  0.000  0.000
    2  0.000  0.000  0.000  0.000  0.000  0.000  0.000  0.000  0.000  0.000
    3  0.000  0.000  0.000  0.000  0.000  0.000  0.000  0.000  0.000  0.000
    4  0.000  0.000  0.000  0.000  0.000  0.000  0.000  0.000  0.000  0.000
    5  0.000  0.000  0.000  0.000  0.000  0.000  0.000  0.000  0.000  0.000
    6  0.000  0.000  0.000  0.000  0.000  0.000  0.000  0.000  0.000  0.000
    7  0.000  0.000  0.000  0.000  0.000  0.000  0.000  0.000  0.000  0.000
    8  0.000  0.020  0.000  0.086  0.000  0.000  0.000  0.000  0.000  0.106
    9  0.000  0.020  0.000  0.086  0.000  0.000  0.000  0.000  0.000  0.106
   10  0.000  0.020  0.000  0.086  0.000  0.000  0.000  0.000  0.000  0.106
   11  0.000  0.020  0.000  0.086  0.000  0.000  0.000  0.000  0.000  0.106
   12  0.000  0.020  0.000  0.086  0.000  0.000  0.000  0.000  0.000  0.106
   13  0.000  0.020  0.000  0.086  0.000  0.000  0.000  0.000  0.000  0.106
   14  0.000  0.020  0.000  0.086  0.000  0.000  0.000  0.000  0.000  0.106
   15  0.000  0.020  0.000  0.086  0.000  0.000  0.000  0.000  0.000  0.106
tot    0.000  0.158  0.000  0.689  0.000  0.000  0.000  0.000  0.000  0.847
 
band    21 # energy   -3.29980622 # occ.  2.00000000
 
ion      s     py     pz     px    dxy    dyz    dz2    dxz  x2-y2    tot
    1  0.000  0.000  0.000  0.000  0.000  0.000  0.000  0.000  0.000  0.000
    2  0.000  0.000  0.000  0.000  0.000  0.000  0.000  0.000  0.000  0.000
    3  0.000  0.000  0.000  0.000  0.000  0.000  0.000  0.000  0.000  0.000
    4  0.000  0.000  0.000  0.000  0.000  0.000  0.000  0.000  0.000  0.000
    5  0.000  0.000  0.000  0.000  0.000  0.000  0.000  0.000  0.000  0.000
    6  0.000  0.000  0.000  0.000  0.000  0.000  0.000  0.000  0.000  0.000
    7  0.000  0.000  0.000  0.000  0.000  0.000  0.000  0.000  0.000  0.000
    8  0.000  0.086  0.000  0.020  0.000  0.000  0.000  0.000  0.000  0.106
    9  0.000  0.086  0.000  0.020  0.000  0.000  0.000  0.000  0.000  0.106
   10  0.000  0.086  0.000  0.020  0.000  0.000  0.000  0.000  0.000  0.106
   11  0.000  0.086  0.000  0.020  0.000  0.000  0.000  0.000  0.000  0.106
   12  0.000  0.086  0.000  0.020  0.000  0.000  0.000  0.000  0.000  0.106
   13  0.000  0.086  0.000  0.020  0.000  0.000  0.000  0.000  0.000  0.106
   14  0.000  0.086  0.000  0.020  0.000  0.000  0.000  0.000  0.000  0.106
   15  0.000  0.086  0.000  0.020  0.000  0.000  0.000  0.000  0.000  0.106
tot    0.000  0.689  0.000  0.158  0.000  0.000  0.000  0.000  0.000  0.847
 
band    22 # energy   -2.90298524 # occ.  2.00000000
 
ion      s     py     pz     px    dxy    dyz    dz2    dxz  x2-y2    tot
    1  0.000  0.002  0.000  0.014  0.000  0.000  0.000  0.000  0.000  0.016
    2  0.000  0.003  0.000  0.075  0.000  0.000  0.000  0.000  0.000  0.078
    3  0.000  0.022  0.000  0.098  0.000  0.000  0.000  0.000  0.000  0.121
    4  0.000  0.018  0.000  0.044  0.000  0.000  0.000  0.000  0.000  0.062
    5  0.000  0.026  0.000  0.114  0.000  0.000  0.000  0.000  0.000  0.139
    6  0.000  0.017  0.000  0.131  0.000  0.000  0.000  0.000  0.000  0.147
    7  0.000  0.028  0.000  0.142  0.000  0.000  0.000  0.000  0.000  0.169
    8  0.000  0.000  0.000  0.000  0.000  0.000  0.000  0.000  0.000  0.000
    9  0.000  0.000  0.001  0.000  0.000  0.000  0.000  0.000  0.000  0.001
   10  0.000  0.000  0.000  0.000  0.000  0.000  0.000  0.000  0.000  0.000
   11  0.000  0.000  0.000  0.000  0.000  0.000  0.000  0.000  0.000  0.000
   12  0.000  0.000  0.000  0.000  0.000  0.000  0.000  0.000  0.000  0.000
   13  0.000  0.000  0.000  0.000  0.000  0.000  0.000  0.000  0.000  0.000
   14  0.000  0.000  0.001  0.000  0.000  0.000  0.000  0.000  0.000  0.001
   15  0.000  0.000  0.000  0.000  0.000  0.000  0.000  0.000  0.000  0.000
tot    0.000  0.116  0.002  0.617  0.000  0.000  0.000  0.000  0.000  0.736
 
band    23 # energy   -2.90287414 # occ.  2.00000000
 
ion      s     py     pz     px    dxy    dyz    dz2    dxz  x2-y2    tot