DF                                      
           1
     4.196759    2.423000    0.000000
    -4.196759    2.423000    0.000000
     0.000000    0.000000   15.000000
   B    C 
   4  11
Direct configuration=     1
   0.00405653  0.00269734  0.10150106
   0.35924549  0.00297870  0.10071141
   0.00376783  0.35759951  0.10071217
   0.64914818  0.64750627  0.10070860
   0.32778476  0.32614414  0.10073086
   0.68060188  0.00297489  0.10073054
   0.00377056  0.67895921  0.10072786
   0.00013259  0.50006304  0.33511533
   0.16678386  0.33345284  0.33515001
   0.00011539  0.00007104  0.33507593
   0.16682595  0.83340270  0.33515391
   0.50012588  0.50009985  0.33511811
   0.66678116  0.33340594  0.33501310
   0.50008744  0.00005365  0.33511368
   0.66673317  0.83335819  0.33515010
